Title
19942
    1ASP      N    1   1.050   3.657   4.438  0.1097 -0.8452 -0.1157
    1ASP    HT1    2   1.072   3.633   4.339  1.2501 -3.1806  0.6233
    1ASP    HT2    3   1.045   3.761   4.446  1.6480 -0.5843 -1.9252
    1ASP    HT3    4   0.954   3.620   4.452  0.4576 -1.4128  0.8536
    1ASP     CA    5   1.153   3.603   4.522  0.2966  0.3236  0.4651
    1ASP     HA    6   1.138   3.654   4.616 -1.1077  1.4826 -0.3400
    1ASP     CB    7   1.129   3.452   4.525 -0.0451  0.3029  0.1808
    1ASP    HB1    8   1.147   3.408   4.425 -3.5661 -0.5825 -0.2062
    1ASP    HB2    9   1.021   3.430   4.540  0.2338 -0.7351  0.7789
    1ASP     CG   10   1.216   3.390   4.625  0.3500  0.5445 -0.2327
    1ASP    OD1   11   1.280   3.461   4.704 -0.4018  0.2349  0.0208
    1ASP    OD2   12   1.219   3.267   4.629 -0.0354 -0.4890  0.1469
    1ASP      C   13   1.290   3.646   4.464  0.2018  0.1868  0.5933
    1ASP      O   14   1.291   3.733   4.375 -0.2850  0.5864  0.1573
    2ALA      N   15   1.400   3.585   4.507  0.4537  0.2091  0.0506
    2ALA     HN   16   1.386   3.512   4.573  0.7100 -0.7418 -0.9248
    2ALA     CA   17   1.527   3.582   4.446 -1.0247  0.3233 -0.0028
    2ALA     HA   18   1.551   3.687   4.453 -1.7937  0.4178  1.6826
    2ALA     CB   19   1.618   3.488   4.531 -0.3932 -0.3986  0.3393
    2ALA    HB1   20   1.594   3.381   4.515 -0.7750 -0.1692 -0.7253
    2ALA    HB2   21   1.615   3.514   4.639 -1.9889 -0.6131  0.3730
    2ALA    HB3   22   1.723   3.503   4.497  0.1737  1.3582  2.6028
    2ALA      C   23   1.540   3.538   4.304 -0.0985  0.3776 -0.1348
    2ALA      O   24   1.469   3.442   4.275 -0.6890  0.3057  0.0169
    3ASP      N   25   1.638   3.586   4.223  0.7489 -0.4541  0.4409
    3ASP     HN   26   1.691   3.664   4.254 -0.6011 -0.1622  2.1866
    3ASP     CA   27   1.663   3.535   4.094  0.2172  0.2028  0.4459
    3ASP     HA   28   1.571   3.518   4.042  1.9856  0.5661 -3.0958
    3ASP     CB   29   1.763   3.632   4.018  0.0396  0.0298 -0.6048
    3ASP    HB1   30   1.817   3.576   3.938  0.4143 -2.3543  1.1972
    3ASP    HB2   31   1.834   3.688   4.083  2.8194 -0.9475 -2.5686
    3ASP     CG   32   1.680   3.736   3.946 -0.0114 -0.4216  0.2415
    3ASP    OD1   33   1.642   3.838   4.006  0.2211  0.8303 -0.3022
    3ASP    OD2   34   1.649   3.710   3.823 -0.2677  0.1517  0.0450
    3ASP      C   35   1.723   3.396   4.104  0.5720 -0.3291 -0.3344
    3ASP      O   36   1.763   3.358   4.213 -0.6967  0.3272  0.1688
    4GLY      N   37   1.733   3.316   3.999 -0.2483 -0.6256  0.2647
    4GLY     HN   38   1.720   3.354   3.908  0.1348 -2.6261 -0.6873
    4GLY     CA   39   1.804   3.190   3.992  0.3975 -0.3711 -0.1570
    4GLY    HA1   40   1.770   3.133   3.907  0.1976 -0.9919  0.3375
    4GLY    HA2   41   1.783   3.130   4.079 -0.6367 -2.8764 -2.0075
    4GLY      C   42   1.952   3.215   3.977  0.4279 -0.3850  0.4362
    4GLY      O   43   2.003   3.329   3.982  0.4128  0.1274  0.1476
    5PRO      N   44   2.026   3.112   3.957 -0.6993 -0.7523  0.3703
    5PRO     CD   45   1.973   2.973   3.952 -0.3353 -0.6140  0.1740
    5PRO    HD1   46   1.905   2.957   3.865 -0.7228 -1.3182  0.5930
    5PRO    HD2   47   1.922   2.946   4.047 -1.3854  0.5925 -0.0217
    5PRO     CA   48   2.173   3.118   3.927 -0.3641  0.2868 -0.0802
    5PRO     HA   49   2.224   3.140   4.020 -1.3087  0.4201  0.4182
    5PRO     CB   50   2.203   2.984   3.869 -0.0233 -0.6966  0.1566
    5PRO    HB1   51   2.309   2.954   3.880  0.4200  1.0631  1.0685
    5PRO    HB2   52   2.171   2.970   3.764 -0.4427 -1.2983  0.3540
    5PRO     CG   53   2.104   2.890   3.940  0.2606  0.1445  0.4108
    5PRO    HG1   54   2.101   2.788   3.896  0.5260  0.0174  0.6854
    5PRO    HG2   55   2.132   2.864   4.044 -1.8333 -0.5852  0.8319
    5PRO      C   56   2.220   3.225   3.837 -0.3970 -0.1513  0.3114
    5PRO      O   57   2.159   3.250   3.734 -0.1515 -0.2583 -0.1285
    6GLY      N   58   2.330   3.290   3.877 -0.1532 -0.6440 -0.3517
    6GLY     HN   59   2.386   3.247   3.946 -0.0344 -0.4390 -0.3181
    6GLY     CA   60   2.395   3.400   3.811  0.3438 -0.0163  0.3853
    6GLY    HA1   61   2.479   3.431   3.872 -0.5291  2.0576  0.6405
    6GLY    HA2   62   2.320   3.478   3.810  1.1184  0.7672  1.3636
    6GLY      C   63   2.452   3.384   3.665  0.7291  0.6876  0.0562
    6GLY      O   64   2.491   3.273   3.626  0.4614 -0.6307  0.1421
    7ASP      N   65   2.468   3.486   3.581 -0.6860 -0.0121 -0.4242
    7ASP     HN   66   2.456   3.576   3.622  1.7783 -1.0507  3.1678
    7ASP     CA   67   2.519   3.472   3.441  1.1894  0.3126 -0.3798
    7ASP     HA   68   2.467   3.386   3.401 -0.0568  1.6075 -1.6844
    7ASP     CB   69   2.465   3.593   3.353  0.1157  0.1449  0.2103
    7ASP    HB1   70   2.496   3.576   3.248 -1.8174 -2.0037 -0.0732
    7ASP    HB2   71   2.504   3.687   3.399  1.2865 -0.0336 -0.3871
    7ASP     CG   72   2.315   3.589   3.353 -0.0590 -0.6881  0.8570
    7ASP    OD1   73   2.253   3.690   3.402  0.0064 -0.0867 -0.1523
    7ASP    OD2   74   2.246   3.491   3.315 -0.1100 -0.3203 -0.5999
    7ASP      C   75   2.663   3.452   3.430  0.2422 -0.6705 -0.4024
    7ASP      O   76   2.736   3.505   3.519  0.2408  0.4928  0.3458
    8PRO      N   77   2.721   3.384   3.332 -0.4875 -0.1409 -0.9912
    8PRO     CD   78   2.647   3.313   3.226 -0.0234  0.1302 -0.5971
    8PRO    HD1   79   2.591   3.392   3.172 -1.2744 -1.0663 -1.1025
    8PRO    HD2   80   2.572   3.239   3.261 -0.9221  1.6049  0.7551
    8PRO     CA   81   2.864   3.389   3.295  0.2486 -0.7760  0.2845
    8PRO     HA   82   2.916   3.314   3.352  1.3110 -0.7140 -0.5539
    8PRO     CB   83   2.869   3.335   3.153 -0.4177 -0.1664  0.6415
    8PRO    HB1   84   2.960   3.280   3.122 -0.3884  0.4895 -0.4921
    8PRO    HB2   85   2.852   3.411   3.074  3.1229 -1.5911 -1.7150
    8PRO     CG   86   2.748   3.239   3.146 -0.4981  0.1081  0.3726
    8PRO    HG1   87   2.710   3.225   3.042 -0.4110  1.4400  0.1437
    8PRO    HG2   88   2.779   3.144   3.193 -0.7552  0.5125  1.3913
    8PRO      C   89   2.938   3.523   3.300 -0.4219 -0.8054  0.1993
    8PRO      O   90   2.881   3.626   3.276 -0.2827 -0.7668  0.0021
    9ASP      N   91   3.069   3.523   3.338 -0.1530 -0.4017 -0.5459
    9ASP     HN   92   3.112   3.439   3.371  1.5544  0.9040  0.7294
    9ASP     CA   93   3.154   3.639   3.343 -0.3735 -0.3784 -0.0076
    9ASP     HA   94   3.108   3.711   3.408  1.4340  0.9573 -0.1314
    9ASP     CB   95   3.289   3.594   3.401 -0.4190  0.3935 -0.2045
    9ASP    HB1   96   3.362   3.678   3.406 -0.7897  1.0960 -3.5475
    9ASP    HB2   97   3.343   3.515   3.346 -0.1942  2.1247 -2.6670
    9ASP     CG   98   3.276   3.560   3.548  0.0273 -0.3399  0.7154
    9ASP    OD1   99   3.381   3.520   3.609  0.3594 -0.5094  0.0897
    9ASP    OD2  100   3.167   3.578   3.610 -0.1196 -0.0533 -0.2896
    9ASP      C  101   3.188   3.708   3.209 -0.0587  0.1757 -0.1542
    9ASP      O  102   3.222   3.645   3.110 -0.0532 -0.0788 -0.4600
   10ALA      N  103   3.163   3.841   3.209 -0.1276 -0.0649 -0.0304
   10ALA     HN  104   3.125   3.888   3.288 -0.7974  0.1789 -0.4790
   10ALA     CA  105   3.204   3.927   3.103  0.4641 -0.8903 -0.2348
   10ALA     HA  106   3.160   3.891   3.012  1.1603 -2.3153 -0.0304
   10ALA     CB  107   3.146   4.069   3.127 -0.6035 -0.0877  0.3667
   10ALA    HB1  108   3.035   4.065   3.119 -0.8088  1.2647  1.9086
   10ALA    HB2  109   3.195   4.139   3.056  2.4762 -1.9433  0.5112
   10ALA    HB3  110   3.168   4.110   3.228 -1.3818 -0.9336  0.8899
   10ALA      C  111   3.358   3.923   3.099 -0.6845 -0.4419  0.0771
   10ALA      O  112   3.424   3.929   3.204  0.0844  0.1277  0.0114
   11GLY      N  113   3.419   3.918   2.978  0.2810  0.6186 -0.0152
   11GLY     HN  114   3.369   3.910   2.892 -0.1457 -0.0823  0.2845
   11GLY     CA  115   3.563   3.917   2.961  0.7332 -0.1813  0.0045
   11GLY    HA1  116   3.602   3.968   3.048  1.5619  1.1794 -1.1325
   11GLY    HA2  117   3.591   3.968   2.870  0.9683  0.1803  0.2773
   11GLY      C  118   3.631   3.782   2.957  0.0400  0.0981 -0.3053
   11GLY    OT1  119   3.600   3.701   2.867 -0.6518 -0.2475  0.3081
   11GLY    OT2  120   3.719   3.748   3.041 -0.1198  0.7410 -0.5760
   12LIT    LIT  121   0.794   5.157   4.087 -0.5022 -0.0699 -0.8241
   13LIT    LIT  122   3.574   5.107   2.976 -0.1084 -1.4493 -0.1547
   14LIT    LIT  123   3.575   2.312   5.156  0.0613  0.1107  1.2139
   15LIT    LIT  124   0.970   3.250   0.692 -0.8940 -0.6245  0.1901
   16LIT    LIT  125   0.616   1.223   4.681 -0.0073  0.0791 -0.2906
   17LIT    LIT  126   0.399   1.471   2.207 -0.9437  0.1898  0.4752
   18LIT    LIT  127   5.398   2.300   3.206 -0.2973  0.5581 -1.8558
   19LIT    LIT  128   3.642   3.576   2.988  0.1154  0.1668 -0.9426
   20LIT    LIT  129   0.449   1.585   3.055 -0.1188  0.4949 -0.1610
   21LIT    LIT  130   5.222   4.226   2.806  0.1804  0.1891 -0.1740
   22LIT    LIT  131   2.366   3.575   4.173  0.3929  0.1211  0.1092
   23LIT    LIT  132   3.193   5.905   0.674  0.0479 -0.3790 -0.4588
   24LIT    LIT  133   3.947   1.118   0.895  1.0822  0.3017  1.1471
   25LIT    LIT  134   5.923   3.064   4.149 -0.3990  0.1513 -0.3227
   26LIT    LIT  135   0.456   4.723   0.443  0.5609 -0.4104 -0.0180
   27LIT    LIT  136   1.554   1.865   1.346  0.1428  0.5230 -0.2997
   28LIT    LIT  137   5.098   5.416   2.585  0.4136  0.1858  0.3361
   29LIT    LIT  138   5.184   4.407   3.666 -0.5354 -0.0589 -0.6240
   30LIT    LIT  139   6.202   4.290   2.338  0.3477  0.6569  0.3378
   31LIT    LIT  140   1.031   4.498   3.275 -0.1850  0.8990 -0.9517
   32LIT    LIT  141   2.089   3.581   3.385  0.6515  0.2799 -0.7505
   33LIT    LIT  142   4.495   1.749   4.841 -0.0571  0.0337 -0.6856
   34CLA    CLA  143   0.658   3.069   4.227 -0.0299  0.1655  0.0022
   35CLA    CLA  144   3.239   1.557   1.986  0.6956 -0.0711  0.0821
   36CLA    CLA  145   2.010   1.620   4.591 -0.0394 -0.0678  0.1840
   37CLA    CLA  146   3.755   4.042   3.723 -0.0455 -0.0142  0.3608
   38CLA    CLA  147   5.752   5.736   4.768  0.2557  0.3465  0.0389
   39CLA    CLA  148   0.805   3.782   1.399 -0.0439 -0.6072 -0.1703
   40CLA    CLA  149   2.229   0.293   0.679  0.5619 -0.2537 -0.0107
   41CLA    CLA  150   5.649   0.903   4.317 -0.0981 -0.0663 -0.0379
   42CLA    CLA  151   5.036   4.327   3.150 -0.0542 -0.3747  0.0315
   43CLA    CLA  152   5.965   4.803   1.904 -0.0570 -0.0232 -0.1982
   44CLA    CLA  153   2.636   3.569   2.192  0.3802 -0.0572  0.3807
   45CLA    CLA  154   0.795   4.142   0.566 -0.3375  0.3316  0.4134
   46CLA    CLA  155   4.374   1.103   0.685 -0.2595 -0.3058  0.4428
   47CLA    CLA  156   4.783   5.169   4.264  0.1132  0.2606 -0.1937
   48CLA    CLA  157   3.418   2.821   4.949  0.0480 -0.0462 -0.0641
   49CLA    CLA  158   2.102   2.051   4.068  0.0543  0.4793  0.1858
   50CLA    CLA  159   6.286   3.838   2.778  0.4408  0.0439  0.2498
   51CLA    CLA  160   1.430   1.108   0.888  0.2300  0.1096  0.1425
   52TIP3   OH2  161   3.583   2.899   2.380 -0.4385  0.5706 -0.1020
   52TIP3    H1  162   3.552   2.809   2.365 -1.3987  0.6325  1.2666
   52TIP3    H2  163   3.641   2.891   2.456  0.1553  1.0014 -0.5006
   53TIP3   OH2  164   2.454   0.035   2.117  0.2689  0.5153 -0.2169
   53TIP3    H1  165   2.454  -0.050   2.075  2.1092  0.5738 -0.4123
   53TIP3    H2  166   2.362   0.062   2.117 -0.1923 -0.9552 -1.1621
   54TIP3   OH2  167   5.658   3.461   1.247  0.4555  0.0461  0.4837
   54TIP3    H1  168   5.678   3.536   1.191  0.8879 -0.1244  0.4026
   54TIP3    H2  169   5.572   3.480   1.283  0.1957  0.1891 -0.1920
   55TIP3   OH2  170   5.333   2.111   3.854  0.1289 -0.0901  0.7780
   55TIP3    H1  171   5.372   2.150   3.776 -1.0818 -0.1642  0.1232
   55TIP3    H2  172   5.384   2.032   3.869  0.7303  0.2171  0.4029
   56TIP3   OH2  173   1.935   5.440   1.529  0.1981 -0.7476 -0.2418
   56TIP3    H1  174   1.883   5.495   1.470  0.4658 -0.2894 -0.0561
   56TIP3    H2  175   1.880   5.428   1.605 -0.5100 -2.0810 -0.9379
   57TIP3   OH2  176   5.059   2.228   1.293 -0.3800  0.7067 -0.5261
   57TIP3    H1  177   5.136   2.266   1.251  0.5294  0.2340  0.6748
   57TIP3    H2  178   5.090   2.147   1.333 -1.2894  0.9377  0.7098
   58TIP3   OH2  179   0.761   3.740   0.604 -0.1637  0.0488  0.2480
   58TIP3    H1  180   0.780   3.834   0.603 -0.6577  0.1505  0.1519
   58TIP3    H2  181   0.847   3.698   0.603  0.1244  0.4788 -2.6132
   59TIP3   OH2  182   5.221   2.373   3.215 -0.2207 -0.4759  0.0251
   59TIP3    H1  183   5.167   2.417   3.149  1.2943 -1.2564 -1.8364
   59TIP3    H2  184   5.169   2.377   3.295 -1.6794  1.4799 -0.9348
   60TIP3   OH2  185   0.631   4.300   4.940  0.5208 -0.1057  0.0468
   60TIP3    H1  186   0.726   4.299   4.949  0.4603 -2.5231  1.1860
   60TIP3    H2  187   0.601   4.229   4.997 -1.7368 -1.2673 -2.3817
   61TIP3   OH2  188   4.399   5.949   2.453  0.0951 -0.1904  0.3321
   61TIP3    H1  189   4.483   5.928   2.413 -0.1295  1.4315 -1.1078
   61TIP3    H2  190   4.335   5.902   2.401 -0.1771  1.7399 -1.1924
   62TIP3   OH2  191   1.839   1.697   2.368  0.3247  0.1090 -0.4076
   62TIP3    H1  192   1.881   1.736   2.291  1.1251 -1.8091 -1.0017
   62TIP3    H2  193   1.849   1.603   2.356 -2.6468 -0.3989  0.3237
   63TIP3   OH2  194   5.092   0.584   0.831  0.2367 -0.3265  0.5930
   63TIP3    H1  195   5.062   0.653   0.772 -0.0999 -0.5925  0.4512
   63TIP3    H2  196   5.171   0.620   0.872 -0.3420  0.4278  1.0663
   64TIP3   OH2  197   5.899   0.877   4.515 -0.6911  0.0202  0.3307
   64TIP3    H1  198   5.923   0.970   4.514 -3.5030  0.9065  1.8313
   64TIP3    H2  199   5.841   0.867   4.439 -1.7906  0.0077  1.1374
   65TIP3   OH2  200   2.844   3.384   5.006  0.6450  0.2035  0.2151
   65TIP3    H1  201   2.749   3.397   4.999  1.0128  2.4762 -1.5520
   65TIP3    H2  202   2.876   3.466   5.043  1.8079 -1.2697  2.7484
   66TIP3   OH2  203   1.285   3.700   4.809  0.0426 -0.1985  0.5799
   66TIP3    H1  204   1.282   3.606   4.797  0.0333 -0.0633 -0.5696
   66TIP3    H2  205   1.377   3.719   4.827  0.2725 -0.3103 -0.4008
   67TIP3   OH2  206   1.562   4.861   3.485 -0.0444 -0.0352 -0.1140
   67TIP3    H1  207   1.485   4.872   3.541 -0.3289  3.1558 -0.9447
   67TIP3    H2  208   1.532   4.805   3.414 -0.1816 -2.6796  1.8939
   68TIP3   OH2  209   2.332   5.150   0.099  0.3021  0.6469  0.0128
   68TIP3    H1  210   2.279   5.128   0.023  1.5676 -1.0119 -0.4475
   68TIP3    H2  211   2.295   5.098   0.170 -0.1904  1.3534  0.2820
   69TIP3   OH2  212   5.872   5.617   0.896  0.3502 -0.1101 -0.0398
   69TIP3    H1  213   5.886   5.523   0.906 -0.2181 -0.1008  0.9932
   69TIP3    H2  214   5.960   5.653   0.889  0.6562 -0.5758  1.0989
   70TIP3   OH2  215   6.138   2.730   1.424  0.4612  0.0310  0.4909
   70TIP3    H1  216   6.107   2.812   1.388 -0.8434 -0.4743  0.4223
   70TIP3    H2  217   6.223   2.716   1.382 -0.7746 -0.2952 -2.1047
   71TIP3   OH2  218   5.900   2.848   4.924 -0.3298 -0.2277 -0.1415
   71TIP3    H1  219   5.916   2.941   4.909 -0.0517 -0.0910  0.9063
   71TIP3    H2  220   5.821   2.829   4.873 -0.2458  0.5170 -0.5699
   72TIP3   OH2  221   5.258   4.506   4.092  0.0639  0.1485  0.1876
   72TIP3    H1  222   5.165   4.529   4.098 -0.5899 -2.3905  0.8487
   72TIP3    H2  223   5.268   4.474   4.002 -0.2815 -1.6790  0.7664
   73TIP3   OH2  224   0.886   0.895   1.942 -0.1952 -0.7885 -0.2062
   73TIP3    H1  225   0.900   0.855   2.028  1.5604  0.7891  0.3240
   73TIP3    H2  226   0.922   0.984   1.951 -1.8858  0.1586 -1.9682
   74TIP3   OH2  227   3.170   2.163   1.585 -0.0904  0.0668 -0.3136
   74TIP3    H1  228   3.166   2.084   1.532  1.0578 -0.5764  0.5138
   74TIP3    H2  229   3.198   2.133   1.671 -0.0580  1.3256  0.1391
   75TIP3   OH2  230   4.308   2.808   3.053  0.3524  0.5142  0.1750
   75TIP3    H1  231   4.250   2.775   3.122  0.5679 -0.3044 -0.0191
   75TIP3    H2  232   4.302   2.742   2.984 -0.2865  1.5872 -0.8402
   76TIP3   OH2  233   5.415   1.109   5.162 -0.0066 -0.1639 -0.1109
   76TIP3    H1  234   5.442   1.113   5.071 -1.5318 -2.6305 -0.7659
   76TIP3    H2  235   5.436   1.020   5.190 -0.5028  0.2140  1.6371
   77TIP3   OH2  236   4.103   5.630   3.696 -1.0136 -0.9165 -0.3014
   77TIP3    H1  237   4.108   5.592   3.784  1.4265 -1.6805 -0.6771
   77TIP3    H2  238   4.071   5.558   3.641 -0.4088 -1.1490 -0.3599
   78TIP3   OH2  239   5.876   2.461   0.166  0.0904 -0.3116 -0.4471
   78TIP3    H1  240   5.799   2.468   0.223  0.8955 -1.0166  0.7773
   78TIP3    H2  241   5.848   2.497   0.082 -1.6671 -0.8409 -0.1206
   79TIP3   OH2  242   4.927   0.665   4.902  0.0731  0.3522  0.9041
   79TIP3    H1  243   5.009   0.714   4.894 -0.1038  0.4900 -0.2557
   79TIP3    H2  244   4.864   0.728   4.936 -0.2000  1.0156 -0.7525
   80TIP3   OH2  245   4.342   4.899   2.181  0.1919 -0.7144  0.2808
   80TIP3    H1  246   4.263   4.847   2.162  0.0825 -1.5247  2.5774
   80TIP3    H2  247   4.309   4.988   2.195 -0.1137 -0.7471 -0.2158
   81TIP3   OH2  248   1.477   4.415   2.782  0.4132  0.3593 -0.1563
   81TIP3    H1  249   1.443   4.376   2.702  1.2369 -0.4184 -0.1455
   81TIP3    H2  250   1.458   4.349   2.850 -0.4876  1.1079  0.3405
   82TIP3   OH2  251   3.826   5.216   0.096 -0.2447 -0.3151 -0.0172
   82TIP3    H1  252   3.851   5.281   0.031 -0.1956  0.7124  1.0016
   82TIP3    H2  253   3.732   5.231   0.110 -0.3399 -0.7891 -0.1314
   83TIP3   OH2  254   2.607   2.996   1.401  0.0247  0.3476  0.6212
   83TIP3    H1  255   2.581   3.034   1.485  1.5837  0.6539  1.0053
   83TIP3    H2  256   2.697   3.025   1.389  0.2215 -0.6886 -0.5828
   84TIP3   OH2  257   0.900   2.450   1.897  0.0142  0.7727  0.0512
   84TIP3    H1  258   0.805   2.447   1.905 -0.0386 -0.4116 -0.8171
   84TIP3    H2  259   0.928   2.505   1.970 -1.1969 -0.3443  1.4026
   85TIP3   OH2  260   2.860   4.875   2.663 -0.0049  0.3180 -0.0527
   85TIP3    H1  261   2.887   4.850   2.574  0.6177 -0.1851  0.2774
   85TIP3    H2  262   2.788   4.816   2.683 -0.2238  0.5089 -0.2618
   86TIP3   OH2  263   1.185   2.696   3.569 -0.4823 -0.1940 -0.0074
   86TIP3    H1  264   1.120   2.658   3.627 -0.6954 -1.4318 -1.0323
   86TIP3    H2  265   1.191   2.636   3.496  0.3136  0.9613 -0.9362
   87TIP3   OH2  266   5.552   3.265   1.945 -0.0191  0.1991  0.0747
   87TIP3    H1  267   5.477   3.241   1.890 -0.0529 -1.9805  0.9573
   87TIP3    H2  268   5.520   3.256   2.034  1.3324 -0.9805  0.4744
   88TIP3   OH2  269   3.353   1.085   0.412 -0.0474 -0.0838 -0.0891
   88TIP3    H1  270   3.312   1.002   0.437  0.2626 -0.2331 -0.0684
   88TIP3    H2  271   3.280   1.145   0.399 -0.4069 -0.8471 -1.8874
   89TIP3   OH2  272   1.917   1.397   0.472  0.2873 -0.2932 -0.3010
   89TIP3    H1  273   1.846   1.447   0.512  0.6433  0.3272 -0.4320
   89TIP3    H2  274   1.993   1.415   0.527  0.4476 -0.5975 -0.4191
   90TIP3   OH2  275   4.448   2.939   4.781 -0.3728 -0.0921 -0.6380
   90TIP3    H1  276   4.416   2.870   4.723 -1.5578  0.5235 -0.7537
   90TIP3    H2  277   4.439   3.020   4.730 -0.9012  0.3885  0.1906
   91TIP3   OH2  278   0.785   3.837   4.233 -0.0107 -0.1399  0.4456
   91TIP3    H1  279   0.731   3.771   4.190 -0.8430 -0.3443  1.7305
   91TIP3    H2  280   0.863   3.845   4.178 -1.2010 -0.0606 -1.2897
   92TIP3   OH2  281   4.431   0.405   1.405  0.8619  0.0262 -0.1102
   92TIP3    H1  282   4.492   0.371   1.340  1.2766  1.4650 -0.4907
   92TIP3    H2  283   4.485   0.457   1.464  0.0753  0.9645 -0.1941
   93TIP3   OH2  284   4.899   3.135   1.802 -0.4880  0.4298 -0.2140
   93TIP3    H1  285   4.872   3.215   1.846  1.6712  1.3729 -0.5209
   93TIP3    H2  286   4.837   3.069   1.834 -1.2633  1.8343  1.3573
   94TIP3   OH2  287   1.974   2.315   2.760 -0.2967  0.4020 -0.0702
   94TIP3    H1  288   1.965   2.332   2.666 -1.7619 -0.6426 -0.1521
   94TIP3    H2  289   1.898   2.358   2.800 -0.3770 -0.2330  0.4831
   95TIP3   OH2  290   0.993   1.805   1.126  0.3854 -0.1873 -0.0552
   95TIP3    H1  291   1.051   1.755   1.183  0.7567 -2.4184 -2.2181
   95TIP3    H2  292   1.051   1.871   1.086  0.4977  0.2519  0.8101
   96TIP3   OH2  293   0.048   1.838   3.956 -0.0706 -0.2040 -0.4110
   96TIP3    H1  294   0.033   1.779   3.882  2.4722  1.2568 -2.2330
   96TIP3    H2  295   0.137   1.818   3.984 -0.4308  0.3973  1.2564
   97TIP3   OH2  296   1.996   4.037   0.088 -0.3118  0.4061 -0.2190
   97TIP3    H1  297   2.090   4.052   0.097 -0.5670  1.8010  0.3999
   97TIP3    H2  298   1.987   3.942   0.081  1.1524  0.2681 -0.5332
   98TIP3   OH2  299   3.795   5.843   4.447 -0.1210  0.0868 -0.6080
   98TIP3    H1  300   3.772   5.931   4.418  1.8250  1.2589  1.1690
   98TIP3    H2  301   3.720   5.815   4.500 -0.2289  1.2257 -0.1227
   99TIP3   OH2  302   1.437   5.784   1.389 -0.5518  0.7759  0.7984
   99TIP3    H1  303   1.422   5.717   1.455 -2.2100 -0.2208 -0.5186
   99TIP3    H2  304   1.516   5.755   1.343 -0.9513  0.0060  0.5874
  100TIP3   OH2  305   1.064   0.198   2.705 -0.2780  0.6317 -1.0076
  100TIP3    H1  306   1.143   0.179   2.655  0.0679  0.4545 -0.3980
  100TIP3    H2  307   0.992   0.178   2.645  0.0727 -1.8190 -0.7016
  101TIP3   OH2  308   5.773   0.430   2.853  0.2620 -0.1787 -0.2551
  101TIP3    H1  309   5.704   0.371   2.882 -1.2910  0.8656 -1.6234
  101TIP3    H2  310   5.821   0.380   2.787  0.9252 -0.9615  0.8070
  102TIP3   OH2  311   2.017   4.721   4.074 -0.2296  0.3488  0.2862
  102TIP3    H1  312   1.947   4.675   4.119 -0.0628 -0.8812 -0.6847
  102TIP3    H2  313   2.092   4.715   4.135  0.2319 -2.0036 -0.4188
  103TIP3   OH2  314   4.236   0.678   1.872 -0.0639 -0.3005  0.1023
  103TIP3    H1  315   4.158   0.641   1.913  1.6730 -2.7485  1.4463
  103TIP3    H2  316   4.264   0.612   1.808  0.8734  0.5690 -0.4245
  104TIP3   OH2  317   4.882  -0.002   2.042 -0.3621  0.0856 -0.9647
  104TIP3    H1  318   4.819  -0.066   2.073 -0.0796  0.3153  0.1091
  104TIP3    H2  319   4.828   0.071   2.011 -0.6564  1.1574  1.8351
  105TIP3   OH2  320   1.112   5.662   0.330 -0.1733  0.1995 -0.6799
  105TIP3    H1  321   1.154   5.641   0.247 -1.0798 -0.5680 -0.9656
  105TIP3    H2  322   1.156   5.607   0.394  0.2112  0.4482 -0.7273
  106TIP3   OH2  323   3.409   5.868   2.802  0.2248  0.1644 -0.0290
  106TIP3    H1  324   3.412   5.831   2.714 -1.3741 -0.1218  0.0004
  106TIP3    H2  325   3.325   5.914   2.805  0.6434  0.8896  1.0704
  107TIP3   OH2  326   5.507   0.872   0.799  0.0450  0.1327  0.4230
  107TIP3    H1  327   5.570   0.808   0.766  1.3575  0.1184  2.7564
  107TIP3    H2  328   5.439   0.874   0.732  1.2361 -1.7596 -0.9777
  108TIP3   OH2  329   4.295   2.780   1.371 -0.1562 -0.2773 -0.6686
  108TIP3    H1  330   4.345   2.780   1.290 -0.9149 -0.5874 -1.1449
  108TIP3    H2  331   4.274   2.688   1.386  1.0863 -0.3955  0.5885
  109TIP3   OH2  332   0.881   5.392   0.044 -0.8790 -0.2046  0.2282
  109TIP3    H1  333   0.941   5.412  -0.028 -1.3037  0.6683  0.1089
  109TIP3    H2  334   0.860   5.477   0.082 -1.0644 -0.6211  1.0598
  110TIP3   OH2  335   6.102   0.405   4.816  0.3626 -0.2796  0.3361
  110TIP3    H1  336   6.044   0.359   4.877 -1.0900 -0.6778 -1.2607
  110TIP3    H2  337   6.105   0.349   4.739  1.1178  0.8086 -0.4475
  111TIP3   OH2  338   3.584   0.882   3.717  0.1253  0.7024  0.4842
  111TIP3    H1  339   3.584   0.865   3.622  0.2010  0.4186  0.5330
  111TIP3    H2  340   3.650   0.950   3.729  0.6146  0.2503  0.4134
  112TIP3   OH2  341   4.087   2.705   3.523 -0.0213  0.0896  0.0877
  112TIP3    H1  342   4.043   2.630   3.561  0.6824 -0.5870 -0.3819
  112TIP3    H2  343   4.065   2.778   3.581 -4.7218  0.6793 -1.9886
  113TIP3   OH2  344   4.029   4.529   2.529  0.0820  0.1445  0.2541
  113TIP3    H1  345   4.080   4.456   2.563  1.8095  1.6462  1.0358
  113TIP3    H2  346   4.093   4.598   2.512 -1.6531  2.1203  1.2520
  114TIP3   OH2  347   4.469   4.578   4.856 -0.1878 -0.0919 -0.0469
  114TIP3    H1  348   4.414   4.500   4.861  0.8717 -1.0562 -2.1191
  114TIP3    H2  349   4.430   4.631   4.787  0.8916 -0.3619 -0.9063
  115TIP3   OH2  350   0.861   0.508   3.628 -0.5912 -0.3185  0.5916
  115TIP3    H1  351   0.881   0.547   3.714  0.6894 -0.2818  0.2988
  115TIP3    H2  352   0.936   0.530   3.574 -2.3838  1.6671 -1.2662
  116TIP3   OH2  353   2.552   0.074   0.132  0.1087 -0.9771  0.3520
  116TIP3    H1  354   2.484   0.096   0.195 -0.0582 -1.4730  0.3487
  116TIP3    H2  355   2.631   0.115   0.166 -0.5098  1.0641 -0.5083
  117TIP3   OH2  356   3.589   4.952   2.605  0.3264  0.1143 -0.6460
  117TIP3    H1  357   3.578   5.000   2.523 -2.4111  0.9544  0.0974
  117TIP3    H2  358   3.677   4.974   2.634  0.1659  2.4899 -1.7399
  118TIP3   OH2  359   5.541   4.790   1.597 -0.1493 -0.1916 -0.1133
  118TIP3    H1  360   5.536   4.854   1.525  0.0138 -0.6264 -0.5133
  118TIP3    H2  361   5.624   4.809   1.640  0.3953 -0.8035 -0.8706
  119TIP3   OH2  362   1.231   4.069   0.688  0.5779  0.8401 -0.0750
  119TIP3    H1  363   1.210   4.017   0.765 -0.3021  1.8547  0.3845
  119TIP3    H2  364   1.209   4.012   0.614 -0.9067  0.7411  0.4149
  120TIP3   OH2  365   5.560   3.172   3.935 -0.5064 -0.4895 -0.3424
  120TIP3    H1  366   5.483   3.202   3.886 -0.2092  0.3426 -0.3054
  120TIP3    H2  367   5.557   3.077   3.926 -0.2993 -0.3621 -2.2362
  121TIP3   OH2  368   4.549   2.167   0.943  0.3376  0.3204  0.4886
  121TIP3    H1  369   4.605   2.241   0.966  0.0269  0.5259  0.5933
  121TIP3    H2  370   4.472   2.207   0.901 -0.5355  0.1877  1.8814
  122TIP3   OH2  371   0.338   0.405   1.917  0.1098 -0.1019 -0.2155
  122TIP3    H1  372   0.267   0.373   1.862  1.2045 -1.6948 -0.8026
  122TIP3    H2  373   0.406   0.338   1.910  1.7867  1.4573  0.1050
  123TIP3   OH2  374   3.351   5.711   2.567  0.1070  0.1249  0.0324
  123TIP3    H1  375   3.382   5.734   2.479  3.1229  0.1948  1.0162
  123TIP3    H2  376   3.383   5.622   2.581  0.3663  0.4045  1.3463
  124TIP3   OH2  377   2.366   1.948   3.979 -0.0657  0.1145  0.2708
  124TIP3    H1  378   2.415   2.029   3.967 -1.3420  0.9157  0.2333
  124TIP3    H2  379   2.275   1.976   3.985 -0.6359 -1.4014 -0.6886
  125TIP3   OH2  380   3.625   0.541   1.501 -0.0614 -0.4039  0.4970
  125TIP3    H1  381   3.602   0.571   1.589 -0.2861  1.1189 -0.0447
  125TIP3    H2  382   3.701   0.484   1.514  0.1259  0.0789  1.6439
  126TIP3   OH2  383   0.514   2.010   3.931  0.0898  0.6022 -0.2446
  126TIP3    H1  384   0.514   1.931   3.877 -0.1308  0.0477  0.5383
  126TIP3    H2  385   0.597   2.007   3.978 -1.1791 -0.8718  2.1386
  127TIP3   OH2  386   5.939   0.615   0.468 -0.5203 -0.4081 -0.0560
  127TIP3    H1  387   5.917   0.557   0.541 -1.2329  0.1426  0.1795
  127TIP3    H2  388   6.009   0.671   0.501  0.5218 -1.4563 -0.4492
  128TIP3   OH2  389   5.189   4.832   4.200  0.1033  0.0989 -0.2012
  128TIP3    H1  390   5.096   4.840   4.181  0.2439 -0.5249 -1.2959
  128TIP3    H2  391   5.196   4.755   4.256  0.0882 -0.8759 -1.4853
  129TIP3   OH2  392   3.827   1.331   3.921 -0.2754  0.1945  0.3641
  129TIP3    H1  393   3.799   1.348   3.831  0.3320  0.2972  0.1911
  129TIP3    H2  394   3.775   1.391   3.975 -0.8649 -0.0824  0.1196
  130TIP3   OH2  395   0.666   0.587   4.042  0.0168  0.3634 -0.1478
  130TIP3    H1  396   0.635   0.499   4.022 -0.0724  0.2731  0.3966
  130TIP3    H2  397   0.743   0.573   4.098  1.0103  0.5809 -1.3945
  131TIP3   OH2  398   5.068   4.408   3.833 -0.6178 -0.2261 -0.1063
  131TIP3    H1  399   5.046   4.474   3.898 -0.1083  0.8250 -0.9695
  131TIP3    H2  400   5.028   4.327   3.866  1.0169 -0.1396  2.3322
  132TIP3   OH2  401   1.503   2.128   2.176 -0.3370  0.4117  0.1306
  132TIP3    H1  402   1.497   2.163   2.087  0.8155 -1.4799 -0.7711
  132TIP3    H2  403   1.592   2.091   2.180 -0.8447 -0.7295  1.5861
  133TIP3   OH2  404   3.746   2.123   4.801  0.2663  0.0187 -0.1836
  133TIP3    H1  405   3.706   2.061   4.863  0.4585  0.5165  0.4529
  133TIP3    H2  406   3.768   2.199   4.855 -1.1200  1.1758 -1.1805
  134TIP3   OH2  407   5.712   0.004   0.930  0.0161 -0.4660 -0.4766
  134TIP3    H1  408   5.634   0.056   0.908  1.3887  3.4941  2.7534
  134TIP3    H2  409   5.694  -0.031   1.017  1.6877  0.3377  0.2244
  135TIP3   OH2  410   0.281   0.389   4.387  0.1367 -0.7617 -0.3818
  135TIP3    H1  411   0.190   0.402   4.360  0.0135 -0.6711  0.0678
  135TIP3    H2  412   0.284   0.299   4.421 -0.0426 -0.4108  0.6004
  136TIP3   OH2  413   5.546   4.950   3.475  0.2632 -0.2563 -0.4766
  136TIP3    H1  414   5.548   5.036   3.433  2.6734 -0.1004 -0.1689
  136TIP3    H2  415   5.590   4.892   3.413  0.8581 -0.7394  0.3779
  137TIP3   OH2  416   3.991   2.105   2.703  0.0933 -0.3014 -0.1836
  137TIP3    H1  417   4.020   2.110   2.795  2.3737  0.2063 -0.8728
  137TIP3    H2  418   4.030   2.024   2.670  1.0815  0.5699 -1.2397
  138TIP3   OH2  419   1.479   3.342   3.042  0.0626 -0.3022 -0.4311
  138TIP3    H1  420   1.564   3.332   3.000 -0.5750 -0.1140 -1.8107
  138TIP3    H2  421   1.451   3.253   3.064  1.5864 -0.2337  2.1071
  139TIP3   OH2  422   3.046   2.213   3.950  0.0924 -0.1095 -0.1892
  139TIP3    H1  423   3.007   2.128   3.974  0.1095 -0.0914 -0.0971
  139TIP3    H2  424   3.041   2.265   4.030  0.6855 -0.2470 -0.0640
  140TIP3   OH2  425   5.051   3.484   0.077  0.0562  0.2594 -0.4337
  140TIP3    H1  426   5.125   3.507   0.022  0.1045  0.8089 -0.1515
  140TIP3    H2  427   4.979   3.538   0.045  0.2839  1.1746  0.5232
  141TIP3   OH2  428   6.124   1.670   0.274  0.0817  0.1801 -0.2001
  141TIP3    H1  429   6.173   1.751   0.289  1.1384 -0.1508 -1.6726
  141TIP3    H2  430   6.154   1.639   0.189 -1.8997 -0.6414 -0.6429
  142TIP3   OH2  431   4.161   3.582   1.533 -0.0175  0.2741  0.3036
  142TIP3    H1  432   4.112   3.664   1.542 -1.5545 -0.6308  0.4168
  142TIP3    H2  433   4.097   3.519   1.502  1.0110 -1.0340  0.7619
  143TIP3   OH2  434   3.524   3.784   4.565 -0.0366 -0.0022  0.2850
  143TIP3    H1  435   3.530   3.733   4.485  1.0085  1.8247 -0.8917
  143TIP3    H2  436   3.495   3.722   4.631 -0.9236 -1.5815 -1.4867
  144TIP3   OH2  437   4.594   1.548   1.634 -0.2014 -0.9110  0.8058
  144TIP3    H1  438   4.508   1.584   1.655 -0.4875 -1.8157  1.2462
  144TIP3    H2  439   4.580   1.501   1.552  0.0713 -0.3830  0.4506
  145TIP3   OH2  440   0.682   5.169   4.941  0.1942  0.6995 -0.0539
  145TIP3    H1  441   0.720   5.146   4.856  0.7049 -1.2568  0.6520
  145TIP3    H2  442   0.694   5.091   4.995 -1.4031  1.3774  1.3985
  146TIP3   OH2  443   3.885   5.499   4.568  0.1786 -0.4383 -0.0229
  146TIP3    H1  444   3.943   5.573   4.555  0.1182  0.2700  3.1308
  146TIP3    H2  445   3.801   5.538   4.592 -1.6731 -1.4495 -4.0548
  147TIP3   OH2  446   2.295   2.867   2.746  0.1507 -0.2046  0.8115
  147TIP3    H1  447   2.382   2.872   2.786  1.6896  0.4819 -2.2675
  147TIP3    H2  448   2.274   2.957   2.723 -0.8225 -0.5193  0.4109
  148TIP3   OH2  449   5.495   3.060   4.848  0.0342  0.0718 -0.1721
  148TIP3    H1  450   5.420   3.117   4.862 -0.1860 -0.7393  2.5503
  148TIP3    H2  451   5.466   2.997   4.781 -1.0511  0.8500 -0.4484
  149TIP3   OH2  452   5.730   4.611   1.034  0.1204 -0.3970  0.0618
  149TIP3    H1  453   5.787   4.596   0.958  2.2690  2.0524  1.0498
  149TIP3    H2  454   5.719   4.524   1.073  2.5984 -1.1048 -0.6263
  150TIP3   OH2  455   3.619   3.030   0.040  0.6948 -0.7602 -0.3514
  150TIP3    H1  456   3.601   3.010  -0.052  0.0368 -0.4533 -0.2948
  150TIP3    H2  457   3.588   3.120   0.051  0.7029 -0.8207  0.1858
  151TIP3   OH2  458   2.446   2.671   5.026 -0.1964 -0.7233 -0.2408
  151TIP3    H1  459   2.494   2.603   4.978  1.6539 -0.1031  0.6407
  151TIP3    H2  460   2.438   2.743   4.963 -0.4992 -1.0288 -0.5642
  152TIP3   OH2  461   2.224   1.913   0.045  0.1187 -0.7648 -0.6784
  152TIP3    H1  462   2.301   1.968   0.059  1.1495 -2.4539  0.5840
  152TIP3    H2  463   2.153   1.960   0.089  1.0819 -0.6381  0.8318
  153TIP3   OH2  464   0.531   0.834   4.531 -0.9192  0.1623 -0.2123
  153TIP3    H1  465   0.597   0.830   4.463 -0.8431  1.9624 -0.2894
  153TIP3    H2  466   0.462   0.774   4.502 -1.4175  1.7205 -2.4889
  154TIP3   OH2  467   3.505   3.636   2.489  0.5366  0.1938  0.0475
  154TIP3    H1  468   3.451   3.594   2.556  0.2006 -1.0917 -0.9727
  154TIP3    H2  469   3.581   3.668   2.536 -0.0200 -0.0692  1.1511
  155TIP3   OH2  470   0.805   2.790   1.936  0.2632  0.0042 -0.5763
  155TIP3    H1  471   0.711   2.799   1.917  0.0653  0.4378  0.5339
  155TIP3    H2  472   0.848   2.817   1.855 -0.5726 -0.8997 -1.3481
  156TIP3   OH2  473   5.671   4.626   3.115  0.2972 -0.3275  0.1152
  156TIP3    H1  474   5.696   4.691   3.049 -0.1514  0.8395  1.0784
  156TIP3    H2  475   5.748   4.617   3.171  0.1852 -0.2492  0.2823
  157TIP3   OH2  476   4.853   0.148   0.771 -0.2122  0.2676  0.3723
  157TIP3    H1  477   4.897   0.165   0.854  1.5241  0.2063 -0.4841
  157TIP3    H2  478   4.902   0.200   0.707 -2.5726  1.6763 -0.3886
  158TIP3   OH2  479   1.997   2.619   0.278 -0.2217  0.6460  0.6410
  158TIP3    H1  480   2.019   2.642   0.187  0.2039 -2.4428 -0.1317
  158TIP3    H2  481   1.903   2.599   0.276  0.3985 -2.7972 -0.0453
  159TIP3   OH2  482   4.075   0.777   0.583  0.1245 -0.0015 -0.3323
  159TIP3    H1  483   4.057   0.867   0.554 -0.1473 -0.0987 -0.4616
  159TIP3    H2  484   3.992   0.731   0.573  0.1227 -0.1358  0.2383
  160TIP3   OH2  485   4.899   1.622   2.589 -0.3897  0.4764 -0.5332
  160TIP3    H1  486   4.925   1.657   2.504  0.9813 -0.6534 -0.6237
  160TIP3    H2  487   4.860   1.537   2.569 -1.4809  0.8602 -0.1317
  161TIP3   OH2  488   3.955   0.729   1.336 -0.3996 -0.1880 -0.1453
  161TIP3    H1  489   4.030   0.733   1.395  0.6225 -0.8753 -1.3479
  161TIP3    H2  490   3.884   0.770   1.385  0.7815  0.6042  0.9869
  162TIP3   OH2  491   2.352   3.247   1.085 -0.1242 -0.0069  0.2599
  162TIP3    H1  492   2.280   3.215   1.030  0.3534 -1.0503  0.2106
  162TIP3    H2  493   2.400   3.307   1.028 -1.9080  2.0878  0.8351
  163TIP3   OH2  494   0.466   3.971   4.122 -0.3930  0.1721  0.2347
  163TIP3    H1  495   0.543   3.928   4.085 -0.9538 -0.6687  0.0277
  163TIP3    H2  496   0.419   4.005   4.046 -0.6697 -0.0683  0.2975
  164TIP3   OH2  497   2.487   5.733   1.120 -0.0648 -0.4629 -0.5242
  164TIP3    H1  498   2.435   5.797   1.071  0.5431  0.0263 -0.5497
  164TIP3    H2  499   2.461   5.748   1.212  0.0409 -0.2057 -0.5341
  165TIP3   OH2  500   3.475   5.112   4.951 -0.3661 -0.6128 -0.3044
  165TIP3    H1  501   3.469   5.133   4.858  0.8255 -1.3217 -0.5511
  165TIP3    H2  502   3.504   5.021   4.953  2.3833  0.2038  0.7420
  166TIP3   OH2  503   4.940   0.666   4.607  0.2710  0.5082 -0.3424
  166TIP3    H1  504   4.918   0.671   4.700  0.6777 -1.4755 -0.0959
  166TIP3    H2  505   5.033   0.690   4.604  0.8295 -1.4541  0.0894
  167TIP3   OH2  506   2.458   4.516   0.065  0.0634  0.0275 -0.0747
  167TIP3    H1  507   2.451   4.441   0.123  0.8546  0.1651  0.2182
  167TIP3    H2  508   2.394   4.579   0.098 -0.8721 -0.6474 -0.5495
  168TIP3   OH2  509   1.154   1.313   3.108  0.8402 -0.1019 -0.6566
  168TIP3    H1  510   1.233   1.301   3.056  2.1275  2.5984  0.5090
  168TIP3    H2  511   1.183   1.359   3.186 -1.6790 -0.3318  0.5116
  169TIP3   OH2  512   1.502   3.777   2.890  0.2188 -0.1789 -0.1545
  169TIP3    H1  513   1.433   3.720   2.857 -0.2256  0.3079 -0.0811
  169TIP3    H2  514   1.507   3.758   2.984  1.2348 -1.3022 -0.4133
  170TIP3   OH2  515   5.564   5.002   1.398  0.6360  0.2327  0.0095
  170TIP3    H1  516   5.582   4.939   1.328  1.6505 -2.2346  2.3181
  170TIP3    H2  517   5.620   5.077   1.378  1.7991 -0.9026 -1.2122
  171TIP3   OH2  518   3.678   0.378   4.168  0.2956 -0.6408 -0.5894
  171TIP3    H1  519   3.592   0.373   4.211  1.0021 -0.4506  0.9026
  171TIP3    H2  520   3.706   0.469   4.182  2.0544 -1.4341  1.6481
  172TIP3   OH2  521   1.539   2.980   1.066  0.5343 -0.3561 -0.1591
  172TIP3    H1  522   1.466   3.041   1.077  0.7333  0.0428 -0.9620
  172TIP3    H2  523   1.617   3.034   1.078  0.7462 -1.0423  2.1203
  173TIP3   OH2  524   1.474   2.790   0.898  0.8461 -0.0701 -0.2868
  173TIP3    H1  525   1.495   2.850   0.970 -1.4973 -1.6907  1.9469
  173TIP3    H2  526   1.403   2.834   0.851  0.7993 -0.0130 -0.1648
  174TIP3   OH2  527   4.186   5.512   3.932 -0.3497 -0.2172  0.1650
  174TIP3    H1  528   4.113   5.484   3.988 -0.2317 -0.9744 -0.0494
  174TIP3    H2  529   4.254   5.540   3.994 -0.7220  0.2452  0.3699
  175TIP3   OH2  530   0.674   3.800   5.105 -0.3118 -0.2170 -0.1033
  175TIP3    H1  531   0.580   3.788   5.093 -0.3623 -0.0851  0.1802
  175TIP3    H2  532   0.713   3.730   5.053 -0.5656 -0.2657 -0.2292
  176TIP3   OH2  533   3.133   4.766   0.746  0.7080 -0.4006  0.0779
  176TIP3    H1  534   3.054   4.713   0.752  0.7250 -0.5387 -0.8677
  176TIP3    H2  535   3.102   4.856   0.740  0.6819 -0.2442  1.8919
  177TIP3   OH2  536   3.962   4.943   0.953 -0.2085 -0.0666  0.2587
  177TIP3    H1  537   3.976   5.016   1.013 -1.0344 -0.4505  0.9313
  177TIP3    H2  538   3.969   4.982   0.866  0.4064  0.6055  0.6000
  178TIP3   OH2  539   3.397   5.516   3.651  0.3164  0.2495 -0.1289
  178TIP3    H1  540   3.443   5.556   3.725 -0.2155 -0.8894  0.8454
  178TIP3    H2  541   3.449   5.439   3.628 -0.8205 -0.8152  0.7121
  179TIP3   OH2  542   5.715   1.503   3.049  0.4985 -0.6593  0.2702
  179TIP3    H1  543   5.630   1.547   3.052  1.3226  0.9922  0.9493
  179TIP3    H2  544   5.774   1.567   3.009  1.3866 -1.8439 -0.3674
  180TIP3   OH2  545   1.629   3.650   0.203  0.7053 -0.4367  0.2757
  180TIP3    H1  546   1.603   3.693   0.121  3.1983 -0.4550 -0.6219
  180TIP3    H2  547   1.724   3.662   0.207  1.0893 -3.1723  1.5524
  181TIP3   OH2  548   3.209   2.359   4.894  0.2903 -0.0299 -0.5990
  181TIP3    H1  549   3.170   2.293   4.950  0.6393  0.8276  0.7093
  181TIP3    H2  550   3.140   2.384   4.832 -0.1861 -0.7942 -0.3777
  182TIP3   OH2  551   5.081   2.481   2.193 -0.0465  0.0488  0.3110
  182TIP3    H1  552   5.030   2.562   2.197  0.9178  0.6764  0.3601
  182TIP3    H2  553   5.162   2.507   2.148 -0.6356 -1.3913 -1.7470
  183TIP3   OH2  554   4.411   4.322   1.838  0.1044  0.4220 -0.3257
  183TIP3    H1  555   4.428   4.312   1.744  1.0967 -1.0020 -0.0269
  183TIP3    H2  556   4.384   4.413   1.848 -0.2950  0.5217 -2.0304
  184TIP3   OH2  557   4.649   0.185   4.219  0.2783 -0.0899  0.4763
  184TIP3    H1  558   4.580   0.241   4.253 -0.9609 -2.4724  2.2065
  184TIP3    H2  559   4.690   0.147   4.297  1.3706 -1.1934 -0.5832
  185TIP3   OH2  560   1.636   4.210   1.682 -0.3738 -0.2580 -0.4056
  185TIP3    H1  561   1.683   4.190   1.601 -1.6535  1.3425 -1.5999
  185TIP3    H2  562   1.704   4.211   1.749  0.9475 -0.1995 -1.6990
  186TIP3   OH2  563   2.428   3.521   0.515  0.2322  0.5474 -0.4539
  186TIP3    H1  564   2.470   3.603   0.540 -0.4395  0.0700  2.7160
  186TIP3    H2  565   2.417   3.474   0.598 -2.2568 -1.3582 -1.7330
  187TIP3   OH2  566   1.323   2.922   4.546 -0.3298  0.0741 -0.3100
  187TIP3    H1  567   1.389   2.990   4.561  0.0059 -0.2850 -0.1533
  187TIP3    H2  568   1.239   2.970   4.548 -0.1364  0.3983  0.3748
  188TIP3   OH2  569   4.631   0.507   1.850  0.4872  0.3089 -0.4051
  188TIP3    H1  570   4.648   0.426   1.898 -1.5140 -0.8961 -1.5354
  188TIP3    H2  571   4.600   0.569   1.916  0.1193 -0.5213  0.2172
  189TIP3   OH2  572   5.929   5.546   4.601  0.1210  0.3403  0.0910
  189TIP3    H1  573   5.879   5.606   4.656 -1.7186 -0.4489 -0.6074
  189TIP3    H2  574   5.879   5.464   4.604  3.7405 -2.0869  2.9369
  190TIP3   OH2  575   5.373   3.324   2.907  0.0524  0.5456 -0.3415
  190TIP3    H1  576   5.443   3.368   2.956  1.3258 -0.4485 -1.1834
  190TIP3    H2  577   5.298   3.325   2.966  0.4948  2.4143  0.2646
  191TIP3   OH2  578   3.760   5.302   5.062  0.0167  0.7016 -0.1200
  191TIP3    H1  579   3.825   5.232   5.053  0.8213  1.3957  0.1027
  191TIP3    H2  580   3.687   5.275   5.006  0.3527 -0.2646 -0.1027
  192TIP3   OH2  581   0.218   3.212   4.452  0.2900 -0.1529 -0.4164
  192TIP3    H1  582   0.267   3.152   4.508 -0.7693  0.5997  1.4435
  192TIP3    H2  583   0.284   3.259   4.402  1.1699 -2.4586 -1.5599
  193TIP3   OH2  584   0.942   5.002   0.966 -0.2173 -1.1214 -0.0888
  193TIP3    H1  585   0.919   4.938   1.034 -0.8969 -1.3960 -0.5605
  193TIP3    H2  586   0.964   5.082   1.014 -1.1323 -1.1790  0.4504
  194TIP3   OH2  587   2.384   1.380   2.250  0.3692 -0.6436 -0.6765
  194TIP3    H1  588   2.376   1.471   2.220 -1.0480 -0.6274 -0.3381
  194TIP3    H2  589   2.377   1.386   2.345  0.1107 -1.1133 -0.6646
  195TIP3   OH2  590   4.287   5.874   3.621 -0.9094  0.0316 -0.0693
  195TIP3    H1  591   4.374   5.836   3.609 -1.0439 -0.3584  0.1769
  195TIP3    H2  592   4.226   5.803   3.599 -1.2208  1.1247 -3.1265
  196TIP3   OH2  593   6.293   2.054   1.052 -0.3701  0.3723 -0.1841
  196TIP3    H1  594   6.212   2.075   1.097  0.1847  0.8871  0.6037
  196TIP3    H2  595   6.267   1.996   0.980 -1.2578 -0.6551  0.9359
  197TIP3   OH2  596   2.481   4.312   3.557  0.3881 -0.0803 -0.6010
  197TIP3    H1  597   2.522   4.226   3.546 -1.2380 -0.9346 -0.2462
  197TIP3    H2  598   2.515   4.344   3.640  1.9420  0.1981 -1.2973
  198TIP3   OH2  599   1.591   3.643   0.714 -0.0408 -0.0520 -0.1724
  198TIP3    H1  600   1.627   3.608   0.633  0.9989 -0.4544  0.4448
  198TIP3    H2  601   1.587   3.737   0.700 -0.0992 -0.1447 -0.7819
  199TIP3   OH2  602   1.460   4.501   3.193  0.3227  0.2334  0.2259
  199TIP3    H1  603   1.432   4.457   3.273 -0.0059  1.1207  0.6048
  199TIP3    H2  604   1.555   4.493   3.194  0.2206 -1.6622 -0.4180
  200TIP3   OH2  605   1.708   2.732   3.921 -0.1787  0.1075  0.3833
  200TIP3    H1  606   1.709   2.644   3.960 -0.6122 -0.7556 -1.4172
  200TIP3    H2  607   1.691   2.791   3.994 -0.9610 -1.4079  1.4792
  201TIP3   OH2  608   1.566   3.590   4.875  0.6946  0.3767 -0.5666
  201TIP3    H1  609   1.661   3.587   4.860  0.6217 -0.0174 -0.9758
  201TIP3    H2  610   1.534   3.505   4.842  0.4962 -0.4628  1.6326
  202TIP3   OH2  611   5.601   3.407   3.592  0.6773  0.0457 -0.2666
  202TIP3    H1  612   5.567   3.453   3.515 -0.5837  0.6505  0.6111
  202TIP3    H2  613   5.696   3.419   3.587  0.5452  0.8970 -1.2055
  203TIP3   OH2  614   2.505   1.421   0.030  0.7179  0.3183 -0.3096
  203TIP3    H1  615   2.487   1.515   0.027 -0.5135  0.1526  0.9171
  203TIP3    H2  616   2.422   1.379   0.007  1.4936 -0.5147 -1.8274
  204TIP3   OH2  617   4.699   0.202   1.999 -0.2927  0.3504  0.0565
  204TIP3    H1  618   4.633   0.193   1.930  0.4007  0.1347 -0.5975
  204TIP3    H2  619   4.656   0.171   2.078 -0.8004 -0.3107 -0.4681
  205TIP3   OH2  620   4.057   3.851   1.133  0.3791  0.0366  0.2705
  205TIP3    H1  621   4.014   3.847   1.218  1.2818  4.0024  1.1067
  205TIP3    H2  622   3.985   3.862   1.070 -0.1662 -0.6071  0.7677
  206TIP3   OH2  623   3.296   1.327   0.066  0.1086 -0.7138 -0.2523
  206TIP3    H1  624   3.284   1.274  -0.012  0.9186 -1.2850 -0.0032
  206TIP3    H2  625   3.273   1.416   0.038 -5.7021 -1.5963  0.3983
  207TIP3   OH2  626   2.788   2.951   0.018 -0.2943 -0.4966 -0.1913
  207TIP3    H1  627   2.814   3.038  -0.011  0.4182 -0.3192  0.9139
  207TIP3    H2  628   2.773   2.960   0.112  2.3505 -2.1095  0.4853
  208TIP3   OH2  629   0.532   5.147   1.002  0.0152 -0.6346 -0.9580
  208TIP3    H1  630   0.615   5.187   1.028  0.7063 -2.3915 -0.2656
  208TIP3    H2  631   0.469   5.177   1.068  0.0045  0.8958 -1.6181
  209TIP3   OH2  632   3.296   0.465   1.436 -0.4554  0.3261  0.0247
  209TIP3    H1  633   3.231   0.482   1.505 -1.0325 -0.2641 -0.3666
  209TIP3    H2  634   3.347   0.546   1.432 -1.2795  0.8734  0.2245
  210TIP3   OH2  635   5.472   4.422   0.053 -0.3643  0.4099  0.3423
  210TIP3    H1  636   5.396   4.474   0.076 -0.9823  0.2966 -1.3108
  210TIP3    H2  637   5.441   4.332   0.052 -0.0484  0.2997  0.2543
  211TIP3   OH2  638   4.165   3.101   0.942 -0.5903 -0.3580 -0.7021
  211TIP3    H1  639   4.109   3.036   0.898 -2.2001  0.1827  0.4396
  211TIP3    H2  640   4.184   3.166   0.874 -2.3448  0.0422 -0.8684
  212TIP3   OH2  641   4.235   1.465   0.093  0.5504  0.4297 -0.6158
  212TIP3    H1  642   4.143   1.488   0.086 -0.1539 -1.6007  0.9378
  212TIP3    H2  643   4.244   1.388   0.037  1.7677  1.6425 -2.1718
  213TIP3   OH2  644   5.219   2.038   2.268  0.3148 -0.5249 -0.0244
  213TIP3    H1  645   5.145   2.095   2.286  1.0924  0.5482 -0.1151
  213TIP3    H2  646   5.198   1.998   2.183 -0.5591 -0.9153  0.3739
  214TIP3   OH2  647   3.273   3.109   4.331  0.2519 -0.4265 -0.1659
  214TIP3    H1  648   3.224   3.045   4.279  0.8452 -0.9946 -0.0361
  214TIP3    H2  649   3.361   3.073   4.336  0.3116 -0.1685  0.8761
  215TIP3   OH2  650   5.333   3.439   1.362 -0.1687 -0.9355 -0.2359
  215TIP3    H1  651   5.340   3.358   1.312 -0.9715 -0.0218 -1.9072
  215TIP3    H2  652   5.318   3.507   1.296  3.7140  1.1628  0.6853
  216TIP3   OH2  653   6.044   4.303   4.157 -0.5172 -0.3778 -0.3124
  216TIP3    H1  654   6.124   4.272   4.199 -0.5231  0.0525  0.0187
  216TIP3    H2  655   5.983   4.317   4.229 -1.7607 -3.0480 -0.7085
  217TIP3   OH2  656   5.329   3.991   3.691  0.3798 -0.3331 -0.0117
  217TIP3    H1  657   5.419   3.959   3.701  0.6232 -0.0299 -1.1459
  217TIP3    H2  658   5.313   4.041   3.771  1.2620 -0.2857  0.1451
  218TIP3   OH2  659   0.518   0.961   0.196  0.3511 -0.1372  0.5269
  218TIP3    H1  660   0.458   1.025   0.233 -0.0641 -0.5668  0.6140
  218TIP3    H2  661   0.530   0.989   0.105 -0.5162 -0.4131  0.3121
  219TIP3   OH2  662   4.549   4.645   1.579 -0.0704 -0.1173 -0.1061
  219TIP3    H1  663   4.482   4.605   1.635 -1.3915  2.8390  0.6410
  219TIP3    H2  664   4.499   4.700   1.518  1.6128  1.2687 -0.3055
  220TIP3   OH2  665   5.810   0.917   0.382  0.3666 -0.3701 -0.3809
  220TIP3    H1  666   5.756   0.844   0.352 -0.4917 -0.0475  0.3185
  220TIP3    H2  667   5.884   0.919   0.321 -0.8753 -0.2547 -1.9532
  221TIP3   OH2  668   6.160   5.068   4.293 -0.0395  0.8334 -0.0783
  221TIP3    H1  669   6.146   5.142   4.352  0.0340 -0.0027  1.0234
  221TIP3    H2  670   6.142   4.991   4.347  1.1449  0.0007 -0.8343
  222TIP3   OH2  671   0.196   1.178   5.153  0.5357 -0.2370  0.1645
  222TIP3    H1  672   0.185   1.084   5.170 -1.2140 -0.4178 -1.5560
  222TIP3    H2  673   0.112   1.205   5.116  1.4703  1.7125 -0.6525
  223TIP3   OH2  674   4.947   1.534   0.924  0.0478  0.0688  0.3394
  223TIP3    H1  675   5.026   1.555   0.974 -0.7953 -0.1450  1.8282
  223TIP3    H2  676   4.885   1.603   0.949  0.6197  2.0817 -3.1370
  224TIP3   OH2  677   0.606   5.224   2.414  0.1726  0.0868  0.2393
  224TIP3    H1  678   0.599   5.194   2.324 -0.7394  1.3364 -0.1372
  224TIP3    H2  679   0.683   5.280   2.415 -0.0762  0.4322  0.1250
  225TIP3   OH2  680   2.197   0.637   0.989 -0.2863  0.0433 -0.6766
  225TIP3    H1  681   2.249   0.659   1.066 -1.1166  0.4121 -0.2046
  225TIP3    H2  682   2.132   0.707   0.983  0.3406  0.5239 -2.2729
  226TIP3   OH2  683   6.244   0.645   3.902  0.0366  0.0292  0.0173
  226TIP3    H1  684   6.153   0.672   3.910  0.1219  0.5536 -0.7014
  226TIP3    H2  685   6.274   0.683   3.820  1.2493  0.8672  0.8130
  227TIP3   OH2  686   3.612   0.632   0.647  0.1592 -0.7111  0.2173
  227TIP3    H1  687   3.632   0.539   0.641  0.5243 -0.5917 -0.5558
  227TIP3    H2  688   3.682   0.675   0.599  0.4044  0.0249  1.2109
  228TIP3   OH2  689   4.811   0.172   2.691  0.3038  0.2542 -0.7408
  228TIP3    H1  690   4.875   0.107   2.718 -2.1115 -1.8996  0.1649
  228TIP3    H2  691   4.821   0.243   2.755  1.2040 -0.3984 -0.1286
  229TIP3   OH2  692   4.320   2.177   2.317  0.9441  0.3084 -0.1345
  229TIP3    H1  693   4.318   2.256   2.263 -1.0064  0.4149  0.0114
  229TIP3    H2  694   4.396   2.128   2.286  0.4944  0.8537 -2.2840
  230TIP3   OH2  695   0.094   2.457   2.533  0.1925  0.6103 -0.0141
  230TIP3    H1  696   0.018   2.469   2.476  0.8229  0.3467 -0.9283
  230TIP3    H2  697   0.096   2.536   2.588 -0.9955  0.4152  0.3463
  231TIP3   OH2  698   0.674   1.068   4.283 -0.6238 -0.1526  0.6269
  231TIP3    H1  699   0.749   1.117   4.317  0.0072  0.2826 -1.2611
  231TIP3    H2  700   0.688   0.978   4.310 -0.2591  0.1995  1.6363
  232TIP3   OH2  701   4.807   5.976   4.464  0.4660 -0.2935 -0.2912
  232TIP3    H1  702   4.874   5.914   4.491  1.2778  0.1109 -1.3293
  232TIP3    H2  703   4.784   5.949   4.375  1.5438  1.4526 -1.1495
  233TIP3   OH2  704   0.596   0.240   1.769  0.1504  0.1488  0.2055
  233TIP3    H1  705   0.559   0.254   1.682 -1.3534 -0.6758  0.6806
  233TIP3    H2  706   0.658   0.169   1.758 -0.2127 -0.1140 -0.1660
  234TIP3   OH2  707   5.448   0.897   4.837 -0.3072  0.4945 -1.0125
  234TIP3    H1  708   5.377   0.897   4.772  0.4505 -2.0810 -1.9561
  234TIP3    H2  709   5.527   0.912   4.786  0.2097 -0.7109 -0.5948
  235TIP3   OH2  710   0.916   3.371   0.101 -0.3699  0.0401 -0.4344
  235TIP3    H1  711   0.848   3.423   0.058 -1.0223  1.0396  1.6295
  235TIP3    H2  712   0.988   3.432   0.115 -0.4554 -0.0411  0.4548
  236TIP3   OH2  713   4.196   2.759   2.358  0.5464 -0.9963  0.0487
  236TIP3    H1  714   4.180   2.732   2.267 -1.0910 -0.9955  0.2946
  236TIP3    H2  715   4.275   2.713   2.383  1.6635 -0.1628 -1.7110
  237TIP3   OH2  716   0.636   3.622   2.769 -0.0605 -0.2527 -0.2814
  237TIP3    H1  717   0.583   3.701   2.776 -1.6143 -1.2933  0.3868
  237TIP3    H2  718   0.648   3.609   2.675  1.4100  1.4716 -0.3992
  238TIP3   OH2  719   5.590   4.346   1.715  0.3070  0.3997 -0.1438
  238TIP3    H1  720   5.536   4.422   1.697  2.5830  2.3433  0.7062
  238TIP3    H2  721   5.530   4.281   1.750 -1.2842  2.9745  2.2527
  239TIP3   OH2  722   5.903   4.822   1.217 -0.3316 -0.6784  0.5388
  239TIP3    H1  723   5.939   4.741   1.252 -2.9137 -1.9523  0.4457
  239TIP3    H2  724   5.889   4.877   1.294 -0.6319 -1.1892  0.8536
  240TIP3   OH2  725   3.538   2.221   2.795 -0.2969  0.1974  0.2749
  240TIP3    H1  726   3.535   2.254   2.885 -2.6794  1.3653 -0.1598
  240TIP3    H2  727   3.466   2.158   2.791  0.3911 -0.5589 -0.5926
  241TIP3   OH2  728   6.271   5.605   1.421 -0.0859 -0.4688  0.7782
  241TIP3    H1  729   6.280   5.527   1.366  1.5639 -0.9326  1.6382
  241TIP3    H2  730   6.295   5.575   1.509  0.2450  0.9214  1.1827
  242TIP3   OH2  731   2.259   4.714   3.920  0.2725  0.0254 -0.7124
  242TIP3    H1  732   2.167   4.731   3.939  0.3318 -0.3135 -0.1099
  242TIP3    H2  733   2.307   4.783   3.966  0.4195 -0.8388  0.4809
  243TIP3   OH2  734   5.705   4.622   1.865 -0.1212  0.1819  0.0256
  243TIP3    H1  735   5.644   4.693   1.846  0.0667  0.5259  0.6695
  243TIP3    H2  736   5.787   4.666   1.889  0.3519 -0.2744 -0.7270
  244TIP3   OH2  737   4.236   2.503   0.615 -0.0967 -0.3924  0.5720
  244TIP3    H1  738   4.294   2.538   0.547  2.1266 -2.6256  1.1572
  244TIP3    H2  739   4.171   2.451   0.566  1.3215 -1.7657  0.0499
  245TIP3   OH2  740   5.714   4.997   0.560 -0.1735  0.1059 -0.1027
  245TIP3    H1  741   5.639   4.987   0.502  0.7062 -1.1958 -1.0731
  245TIP3    H2  742   5.756   5.078   0.531 -1.9897  1.6848  1.4427
  246TIP3   OH2  743   2.342   0.370   2.786 -0.3421  0.6331 -0.3847
  246TIP3    H1  744   2.300   0.447   2.824 -1.6612 -0.9245  1.5068
  246TIP3    H2  745   2.299   0.358   2.701 -1.6794  0.7630  0.2469
  247TIP3   OH2  746   3.341   2.089   2.050  0.2153  0.0653  0.5826
  247TIP3    H1  747   3.289   2.010   2.035  1.2199 -0.2935 -1.4148
  247TIP3    H2  748   3.293   2.158   2.003  0.3460  0.2373  0.6999
  248TIP3   OH2  749   2.295   2.986   5.036  0.2068 -0.0041  0.4089
  248TIP3    H1  750   2.290   2.980   4.941  0.1939  0.0144  0.4085
  248TIP3    H2  751   2.226   2.928   5.068 -1.0447  1.4472  0.3879
  249TIP3   OH2  752   3.571   5.046   1.026 -0.9273 -0.1456 -0.4883
  249TIP3    H1  753   3.648   5.032   1.081  0.2313 -0.9933 -2.2230
  249TIP3    H2  754   3.527   4.961   1.024 -1.0090 -0.0982 -0.7830
  250TIP3   OH2  755   0.518   0.100   4.884 -0.4692  0.1641  0.2837
  250TIP3    H1  756   0.596   0.136   4.842  1.5905 -2.3568  1.5661
  250TIP3    H2  757   0.477   0.174   4.927 -2.7491  2.9747 -5.6803
  251TIP3   OH2  758   3.413   1.113   1.823 -0.4938  0.2927 -0.4909
  251TIP3    H1  759   3.356   1.164   1.881  0.9580  1.6308 -0.1650
  251TIP3    H2  760   3.354   1.074   1.759 -1.8922  0.6307  0.5528
  252TIP3   OH2  761   5.394   2.893   2.548 -0.0685 -0.3815 -0.2660
  252TIP3    H1  762   5.370   2.891   2.640 -0.3798 -0.8317 -0.3522
  252TIP3    H2  763   5.488   2.873   2.547 -0.1649 -0.8583 -0.0791
  253TIP3   OH2  764   2.165   5.555   0.088 -0.2676  0.2679  0.5389
  253TIP3    H1  765   2.199   5.643   0.073  0.0334 -0.1156 -1.3227
  253TIP3    H2  766   2.088   5.550   0.031 -0.1327 -0.7496  0.4330
  254TIP3   OH2  767   2.078   3.911   0.996 -0.1436 -0.1721 -0.3015
  254TIP3    H1  768   2.122   3.995   1.007 -0.6975 -0.1223  1.9269
  254TIP3    H2  769   2.107   3.858   1.070 -2.2743 -0.8100  0.1672
  255TIP3   OH2  770   2.919   0.767   0.394 -0.8162  0.2718 -0.1143
  255TIP3    H1  771   2.938   0.673   0.390  0.7646  0.4940  1.1285
  255TIP3    H2  772   2.867   0.778   0.473  0.2211  0.5854  0.5530
  256TIP3   OH2  773   5.253   4.076   3.939 -0.0934  0.2818  0.0463
  256TIP3    H1  774   5.257   3.983   3.959 -0.5387  0.3833  0.6342
  256TIP3    H2  775   5.160   4.097   3.936 -0.1040  0.1628 -2.8254
  257TIP3   OH2  776   5.282   4.155   0.446  0.2409  0.1185 -0.2223
  257TIP3    H1  777   5.354   4.091   0.439  0.1935 -0.0857  1.0019
  257TIP3    H2  778   5.222   4.117   0.510  1.0095  2.1229  1.7937
  258TIP3   OH2  779   5.996   4.305   0.688  0.2988 -0.0752 -0.0218
  258TIP3    H1  780   6.043   4.224   0.707 -0.9421 -1.2118 -1.4927
  258TIP3    H2  781   6.028   4.332   0.602 -1.4706 -0.7623 -0.9643
  259TIP3   OH2  782   2.483   4.032   1.337  0.1550 -0.1939  0.1814
  259TIP3    H1  783   2.510   4.055   1.248  0.1058  1.2656  0.5153
  259TIP3    H2  784   2.564   4.033   1.387  0.0128  0.3487  0.4104
  260TIP3   OH2  785   0.770   2.793   0.330 -0.7188  0.6291  0.1145
  260TIP3    H1  786   0.704   2.750   0.385  1.1447  0.1541  2.1614
  260TIP3    H2  787   0.792   2.729   0.263  2.0691 -2.0026  3.1541
  261TIP3   OH2  788   5.564   4.030   1.388  0.2725 -0.2733  0.4069
  261TIP3    H1  789   5.648   3.988   1.407  1.1922  1.2810 -0.0017
  261TIP3    H2  790   5.531   3.985   1.311  0.2321 -1.5632  1.1514
  262TIP3   OH2  791   1.834   3.730   4.656 -0.0909  0.2560 -0.3391
  262TIP3    H1  792   1.885   3.779   4.721  0.1736  1.1646 -1.1937
  262TIP3    H2  793   1.811   3.648   4.699  0.5249  0.6198  0.7080
  263TIP3   OH2  794   5.506   1.241   0.998 -1.2300 -0.3467 -0.9799
  263TIP3    H1  795   5.418   1.225   0.964 -0.8628  0.0524 -2.1496
  263TIP3    H2  796   5.525   1.331   0.974 -0.2275 -0.6531 -1.3636
  264TIP3   OH2  797   4.614   5.391   0.003  0.2901  0.4194  0.1024
  264TIP3    H1  798   4.574   5.367   0.086  1.2636 -1.7051  0.0310
  264TIP3    H2  799   4.545   5.377  -0.062 -0.3179  1.5937  0.4910
  265TIP3   OH2  800   0.083   2.233   3.244 -0.2202 -0.0705 -0.5431
  265TIP3    H1  801   0.085   2.298   3.173 -1.0160 -0.5778 -1.0490
  265TIP3    H2  802   0.173   2.201   3.251 -0.6103 -2.1334 -3.3409
  266TIP3   OH2  803   0.260   3.811   3.942 -0.5604 -0.5712  0.2486
  266TIP3    H1  804   0.205   3.817   4.020  0.9273 -0.5260  1.3336
  266TIP3    H2  805   0.297   3.899   3.932 -0.8707 -0.5275 -0.6263
  267TIP3   OH2  806   2.730   4.083   3.235  0.8450 -0.5185 -0.8630
  267TIP3    H1  807   2.707   4.024   3.164  1.6258  1.6718 -3.0861
  267TIP3    H2  808   2.680   4.163   3.217  0.9972  0.0892  1.1390
  268TIP3   OH2  809   2.609   4.696   4.945 -0.0722  0.7615  0.3440
  268TIP3    H1  810   2.693   4.681   4.988  0.4476 -1.2361 -1.2086
  268TIP3    H2  811   2.544   4.671   5.011  0.6619 -0.5986  0.5915
  269TIP3   OH2  812   1.405   0.795   1.233 -0.6413  0.4231 -0.0013
  269TIP3    H1  813   1.400   0.728   1.302 -2.8477  0.8352  0.3039
  269TIP3    H2  814   1.481   0.769   1.180 -0.4773 -1.3942  1.0454
  270TIP3   OH2  815   5.782   4.288   0.224 -0.1418 -0.0367  0.2210
  270TIP3    H1  816   5.820   4.365   0.266 -0.3249  0.3514 -0.3194
  270TIP3    H2  817   5.706   4.321   0.177  2.0768  0.2760 -3.5357
  271TIP3   OH2  818   6.011   3.248   2.209 -0.6163  0.0813 -0.5210
  271TIP3    H1  819   5.957   3.239   2.287 -0.0436  2.9547  0.3445
  271TIP3    H2  820   5.953   3.228   2.136 -1.8362 -0.3007  0.5326
  272TIP3   OH2  821   0.516   1.049   3.025  0.0255 -0.3306  0.0596
  272TIP3    H1  822   0.573   1.064   3.100 -0.6750  0.4531  0.4450
  272TIP3    H2  823   0.453   0.983   3.055  0.3517 -0.7590 -0.1757
  273TIP3   OH2  824   6.326   4.935   0.512 -0.3141 -0.2063  0.1064
  273TIP3    H1  825   6.290   4.926   0.424  0.4151 -1.4094 -0.0896
  273TIP3    H2  826   6.369   5.021   0.511 -1.9412  0.6550 -0.0747
  274TIP3   OH2  827   2.489   3.646   4.836  0.0935  0.0730  0.3246
  274TIP3    H1  828   2.558   3.680   4.779 -0.0639  1.4748  0.9230
  274TIP3    H2  829   2.536   3.592   4.900  0.2170 -1.9932 -1.3834
  275TIP3   OH2  830   5.168   1.849   2.504  0.4659  0.2106 -0.5028
  275TIP3    H1  831   5.147   1.939   2.531 -0.8346 -0.7654  2.0934
  275TIP3    H2  832   5.098   1.825   2.444  0.9432  0.9653 -1.3960
  276TIP3   OH2  833   2.694   0.823   1.296  0.3800 -0.4504  0.3966
  276TIP3    H1  834   2.729   0.863   1.376  2.5305 -0.7437 -0.3216
  276TIP3    H2  835   2.769   0.823   1.236 -1.3684  0.4732 -1.9064
  277TIP3   OH2  836   0.289   0.430   3.850  0.1657 -0.5565  0.2968
  277TIP3    H1  837   0.266   0.520   3.872  3.1770  0.1242  1.2341
  277TIP3    H2  838   0.245   0.376   3.916  0.4050  0.4995  1.3550
  278TIP3   OH2  839   0.396   5.827   1.628  0.2741 -0.4460  0.3915
  278TIP3    H1  840   0.395   5.739   1.592 -1.2546 -0.0148 -0.7519
  278TIP3    H2  841   0.306   5.858   1.618  0.9419  1.5377 -0.0366
  279TIP3   OH2  842   6.227   3.896   2.203  0.7562 -0.1067 -0.0744
  279TIP3    H1  843   6.162   3.829   2.183  2.3572 -1.4982 -0.8637
  279TIP3    H2  844   6.252   3.878   2.294 -1.3258  1.7169  0.9756
  280TIP3   OH2  845   2.883   2.723   1.764  0.1628 -0.4836  0.5290
  280TIP3    H1  846   2.917   2.809   1.741  0.4203 -0.6880  0.1339
  280TIP3    H2  847   2.833   2.737   1.845  0.4234 -0.0166  0.6090
  281TIP3   OH2  848   5.994   2.059   3.015 -0.2580 -0.0148  0.0847
  281TIP3    H1  849   6.068   2.115   2.993  0.1921 -0.7348 -0.2916
  281TIP3    H2  850   6.018   2.019   3.099 -0.6191  0.4211  0.4003
  282TIP3   OH2  851   2.713   5.739   1.478 -0.6383 -0.0020  0.2400
  282TIP3    H1  852   2.735   5.831   1.464 -1.1568  0.1501  0.4009
  282TIP3    H2  853   2.620   5.733   1.458 -0.4015 -0.6958 -0.7024
  283TIP3   OH2  854   3.508   5.866   0.323 -0.1862  0.2203  0.3216
  283TIP3    H1  855   3.462   5.821   0.394 -0.1370  0.6271  0.6132
  283TIP3    H2  856   3.599   5.838   0.332  0.2402  1.9331  1.7656
  284TIP3   OH2  857   5.949   3.440   3.271 -0.0899 -0.4562  0.0848
  284TIP3    H1  858   6.023   3.407   3.221 -1.3954 -0.4484 -1.9883
  284TIP3    H2  859   5.895   3.486   3.206 -2.2066 -0.9786  1.3719
  285TIP3   OH2  860   2.369   4.668   3.251  0.2596 -0.6693  0.2124
  285TIP3    H1  861   2.452   4.649   3.208  1.8285  3.8927  0.7482
  285TIP3    H2  862   2.310   4.692   3.179  0.8624  0.4978  0.0821
  286TIP3   OH2  863   3.491   4.431   4.497  0.0899  0.1846 -0.2882
  286TIP3    H1  864   3.536   4.356   4.458 -0.0585  0.1837 -0.4613
  286TIP3    H2  865   3.434   4.392   4.563  1.7604  0.3432  1.3080
  287TIP3   OH2  866   2.288   2.099   0.234 -0.2578  0.1004 -0.3861
  287TIP3    H1  867   2.372   2.129   0.199 -0.4326 -0.1048 -0.9877
  287TIP3    H2  868   2.231   2.176   0.228 -0.2877  0.0654 -0.5517
  288TIP3   OH2  869   4.393   5.906   0.142 -0.1404  0.3874 -0.4633
  288TIP3    H1  870   4.473   5.910   0.195  0.6847  0.1123 -1.6401
  288TIP3    H2  871   4.425   5.897   0.052 -1.5102 -0.5664 -0.8857
  289TIP3   OH2  872   2.912   4.507   5.111 -0.0487  0.5319  0.4472
  289TIP3    H1  873   2.831   4.458   5.118 -0.2741  0.3650 -2.2514
  289TIP3    H2  874   2.979   4.450   5.149 -0.2950 -2.0304 -2.5407
  290TIP3   OH2  875   4.257   4.442   2.190 -0.0743 -0.0197 -0.1293
  290TIP3    H1  876   4.312   4.521   2.190 -0.1107  0.0097  0.3671
  290TIP3    H2  877   4.185   4.463   2.130 -0.8878  0.9047  1.1054
  291TIP3   OH2  878   2.911   1.245   4.318 -0.1253 -0.3510 -0.0676
  291TIP3    H1  879   2.984   1.255   4.379 -0.5162 -1.3292  0.5813
  291TIP3    H2  880   2.896   1.334   4.285  0.7680  0.0200  0.4628
  292TIP3   OH2  881   5.704   5.175   1.118  0.6198 -0.0224 -0.1028
  292TIP3    H1  882   5.644   5.220   1.178 -0.2544 -0.2524 -0.7813
  292TIP3    H2  883   5.789   5.177   1.162  0.4750  1.7547  0.1407
  293TIP3   OH2  884   6.314   3.927   2.458  0.2215  0.1971  0.2273
  293TIP3    H1  885   6.324   3.891   2.546 -1.9885 -0.1608  0.3735
  293TIP3    H2  886   6.270   4.011   2.471  2.5592  1.6381 -0.3598
  294TIP3   OH2  887   0.509   5.514   4.823  0.0357  0.1255  1.0639
  294TIP3    H1  888   0.593   5.548   4.793 -0.4810  0.1616 -0.3877
  294TIP3    H2  889   0.458   5.591   4.847 -0.3174  0.2452 -0.0434
  295TIP3   OH2  890   5.871   0.082   2.488  0.0968 -0.4596 -0.3919
  295TIP3    H1  891   5.790   0.122   2.456 -0.0075 -1.4268 -1.4008
  295TIP3    H2  892   5.915   0.152   2.535 -2.0029 -0.2926  1.4976
  296TIP3   OH2  893   4.470   3.377   4.004 -0.3384 -0.2069 -0.5519
  296TIP3    H1  894   4.528   3.320   4.055 -0.0400 -0.8513 -1.5587
  296TIP3    H2  895   4.488   3.465   4.036  0.6077 -0.4849 -0.2739
  297TIP3   OH2  896   2.002   4.733   1.537 -0.2116  0.0892 -0.1548
  297TIP3    H1  897   1.970   4.691   1.616  2.4774 -0.7202  0.6219
  297TIP3    H2  898   2.058   4.804   1.569 -0.3923  0.8034 -1.3695
  298TIP3   OH2  899   2.199   3.486   4.128 -0.1880  0.1012 -0.2564
  298TIP3    H1  900   2.134   3.490   4.198  0.7549 -0.2666  0.6787
  298TIP3    H2  901   2.175   3.409   4.077 -0.2219 -0.3039  0.3598
  299TIP3   OH2  902   3.681   5.807   1.171 -0.4085  0.3135 -0.2404
  299TIP3    H1  903   3.737   5.733   1.150  1.0222  0.7740  1.6701
  299TIP3    H2  904   3.614   5.772   1.230 -0.8222  0.1963 -0.7752
  300TIP3   OH2  905   5.492   2.882   3.906 -0.0679  0.7085 -0.9164
  300TIP3    H1  906   5.477   2.853   3.997 -1.0172  1.0340 -0.9486
  300TIP3    H2  907   5.547   2.814   3.868  0.4703  0.6395 -0.0539
  301TIP3   OH2  908   2.368   2.565   0.534  0.2890  0.4805 -0.3469
  301TIP3    H1  909   2.373   2.542   0.441 -1.3196 -0.1384 -0.3134
  301TIP3    H2  910   2.275   2.559   0.555  0.6308  0.5781  1.3207
  302TIP3   OH2  911   2.382   2.250   3.761  0.1400  0.4371 -0.7144
  302TIP3    H1  912   2.363   2.344   3.758  0.5743  0.5479 -0.3065
  302TIP3    H2  913   2.296   2.208   3.762 -0.0567  0.8253 -1.0352
  303TIP3   OH2  914   4.453   0.355   3.829 -0.1009 -0.1099  0.3363
  303TIP3    H1  915   4.463   0.260   3.833 -1.5754 -0.4372 -1.9410
  303TIP3    H2  916   4.389   0.376   3.897 -1.3626 -1.0676 -0.5226
  304TIP3   OH2  917   3.223   2.208   3.310 -0.2586  0.4615 -1.1155
  304TIP3    H1  918   3.187   2.295   3.293 -0.4397  0.7096  0.3788
  304TIP3    H2  919   3.163   2.148   3.265 -2.1754  0.9195  0.6876
  305TIP3   OH2  920   5.439   0.763   1.815  0.5285 -0.3451 -0.2509
  305TIP3    H1  921   5.492   0.707   1.872  0.9150  0.1548 -0.1141
  305TIP3    H2  922   5.406   0.832   1.873 -0.5870 -0.8608 -0.2546
  306TIP3   OH2  923   6.241   0.575   2.104 -0.2106  0.3151 -0.4951
  306TIP3    H1  924   6.164   0.543   2.153  1.9717  0.4283  3.4479
  306TIP3    H2  925   6.258   0.507   2.040 -1.7519 -1.3005  0.6948
  307TIP3   OH2  926   3.287   4.350   4.666  0.2886  0.2485  0.1378
  307TIP3    H1  927   3.274   4.336   4.760 -1.2570 -1.3396 -0.2523
  307TIP3    H2  928   3.241   4.431   4.647 -1.4292 -0.6188  0.4020
  308TIP3   OH2  929   4.591   3.952   3.225 -0.0943  0.1250  0.2564
  308TIP3    H1  930   4.607   3.858   3.228  1.1941  0.3374  0.7924
  308TIP3    H2  931   4.503   3.963   3.260 -0.3790 -0.9078 -0.1254
  309TIP3   OH2  932   5.274   0.174   4.807  0.2218  0.8480  0.0213
  309TIP3    H1  933   5.263   0.159   4.901  0.0313  1.4632  0.0994
  309TIP3    H2  934   5.186   0.189   4.774  0.3376  1.1086 -0.1729
  310TIP3   OH2  935   0.535   2.731   0.927 -0.6689 -0.2056 -0.3816
  310TIP3    H1  936   0.479   2.659   0.955  0.0451 -1.8640 -2.8923
  310TIP3    H2  937   0.475   2.803   0.909 -1.5416 -0.6286  0.7524
  311TIP3   OH2  938   6.133   4.521   0.943 -0.1274  0.6027 -0.0664
  311TIP3    H1  939   6.042   4.534   0.918 -0.2441 -1.0220 -0.5929
  311TIP3    H2  940   6.182   4.533   0.862 -0.2810 -2.2791 -0.6994
  312TIP3   OH2  941   3.823   0.682   0.482  0.2758 -0.1723 -0.0820
  312TIP3    H1  942   3.836   0.589   0.503  0.6940  0.0000  0.4588
  312TIP3    H2  943   3.831   0.686   0.387  0.2993 -0.6854 -0.1085
  313TIP3   OH2  944   6.007   4.055   1.499 -0.1475 -0.8220  0.0709
  313TIP3    H1  945   6.080   4.019   1.450 -0.4443 -0.6944 -0.4729
  313TIP3    H2  946   6.047   4.101   1.573  0.3475 -0.3594 -0.4749
  314TIP3   OH2  947   0.438   3.340   3.504 -0.3734 -0.0839  0.1341
  314TIP3    H1  948   0.411   3.265   3.557 -1.9603  0.4009  0.0666
  314TIP3    H2  949   0.518   3.371   3.545  0.7793 -2.2858 -0.3184
  315TIP3   OH2  950   3.409   3.573   2.718  0.7935  0.1882  0.1235
  315TIP3    H1  951   3.327   3.594   2.762  0.3011 -1.6672  0.1325
  315TIP3    H2  952   3.473   3.633   2.758  0.0078 -0.2040  2.1088
  316TIP3   OH2  953   3.198   3.277   2.469 -0.0933  0.4438  0.0386
  316TIP3    H1  954   3.178   3.186   2.489 -0.3443  0.4843 -0.0263
  316TIP3    H2  955   3.275   3.297   2.522 -0.6193  0.4830  0.8040
  317TIP3   OH2  956   3.055   0.878   0.653 -0.3763  0.4869  0.4432
  317TIP3    H1  957   3.071   0.845   0.742  0.4349 -1.4762 -0.3627
  317TIP3    H2  958   2.960   0.882   0.646 -0.5371 -1.4429  0.7564
  318TIP3   OH2  959   2.559   4.995   3.173  0.1920  0.3196  0.5864
  318TIP3    H1  960   2.527   5.082   3.197 -0.3670  0.3644 -0.2811
  318TIP3    H2  961   2.629   5.012   3.109 -0.8352  0.1159 -0.6278
  319TIP3   OH2  962   3.812   1.223   4.498 -0.4828  0.5078 -0.0583
  319TIP3    H1  963   3.847   1.137   4.520 -1.7876 -0.1373 -0.4442
  319TIP3    H2  964   3.740   1.236   4.559 -1.1798  0.7235 -0.9159
  320TIP3   OH2  965   3.948   0.747   2.578 -0.0561 -0.1324  0.4575
  320TIP3    H1  966   3.981   0.694   2.505 -1.2033 -0.7210  0.3376
  320TIP3    H2  967   3.868   0.788   2.543 -0.8071 -0.6874  1.4656
  321TIP3   OH2  968   3.693   3.428   2.837 -0.2799 -0.0736  0.4374
  321TIP3    H1  969   3.703   3.425   2.742 -1.0326 -0.3630  0.3623
  321TIP3    H2  970   3.685   3.337   2.864  2.3949 -0.1939  1.0842
  322TIP3   OH2  971   0.289   3.577   1.014  0.1505  0.3553  0.3881
  322TIP3    H1  972   0.216   3.516   1.017  2.3840 -2.6385 -0.8615
  322TIP3    H2  973   0.287   3.621   1.099 -1.3380 -1.7843  1.5532
  323TIP3   OH2  974   6.185   2.764   2.140  0.1378  0.4585  0.2204
  323TIP3    H1  975   6.125   2.691   2.158  0.9034 -0.4750 -0.8096
  323TIP3    H2  976   6.270   2.734   2.172  0.2451  1.3968  0.8473
  324TIP3   OH2  977   2.751   3.442   1.511 -0.0462 -0.2394  0.2101
  324TIP3    H1  978   2.705   3.526   1.511 -0.3475 -0.4025 -0.2557
  324TIP3    H2  979   2.826   3.456   1.569  0.5107  0.6740 -0.6957
  325TIP3   OH2  980   3.971   3.637   0.076  0.3317  0.1897  0.6899
  325TIP3    H1  981   3.891   3.680   0.109 -1.9442 -2.1674 -1.3438
  325TIP3    H2  982   3.980   3.669  -0.013 -0.0514 -1.6870 -0.0597
  326TIP3   OH2  983   5.237   1.648   1.404  0.5248  0.2582 -0.0342
  326TIP3    H1  984   5.238   1.553   1.403 -0.5280  0.1911  1.6556
  326TIP3    H2  985   5.283   1.672   1.484 -0.1612  1.1379  0.1168
  327TIP3   OH2  986   1.760   4.932   4.474  0.5313 -0.2556 -0.5452
  327TIP3    H1  987   1.827   4.885   4.523 -0.4126 -1.6735 -0.5421
  327TIP3    H2  988   1.805   4.964   4.396  0.9694 -2.1978 -1.1326
  328TIP3   OH2  989   6.257   2.939   4.779  0.2844 -0.0064  0.0038
  328TIP3    H1  990   6.256   2.990   4.860 -1.9986  0.3604 -0.1992
  328TIP3    H2  991   6.208   2.993   4.717 -0.0488 -1.3463 -0.9324
  329TIP3   OH2  992   2.537   0.406   4.598 -0.0881 -0.3262  0.4122
  329TIP3    H1  993   2.458   0.451   4.628  0.6126 -0.5396  2.7505
  329TIP3    H2  994   2.572   0.363   4.676  2.7347  0.3148 -0.3844
  330TIP3   OH2  995   2.532   1.090   0.547  0.2426  0.2978  0.3869
  330TIP3    H1  996   2.602   1.024   0.540  1.9159  1.4990  3.6372
  330TIP3    H2  997   2.453   1.043   0.521  2.0681 -1.2876 -2.9994
  331TIP3   OH2  998   2.742   3.753   4.415  0.0359  0.0926 -0.1431
  331TIP3    H1  999   2.767   3.671   4.373 -2.5433 -0.8223 -0.0973
  331TIP3    H2 1000   2.694   3.801   4.347  1.7278  1.7506 -0.2518
  332TIP3   OH2 1001   2.335   0.985   1.065  0.1888 -0.2182  0.0138
  332TIP3    H1 1002   2.320   0.990   0.971  0.7651  1.1495 -0.0213
  332TIP3    H2 1003   2.403   1.050   1.083  0.4598 -0.8080  1.3042
  333TIP3   OH2 1004   2.589   1.926   0.571  0.6508 -0.1041 -0.1749
  333TIP3    H1 1005   2.508   1.943   0.523  0.7170  0.0559 -0.2324
  333TIP3    H2 1006   2.629   2.013   0.579  0.8602 -0.1975 -0.2238
  334TIP3   OH2 1007   0.733   5.319   1.392 -0.2582 -0.3726  0.3237
  334TIP3    H1 1008   0.794   5.382   1.430 -1.9546  1.7856 -0.3655
  334TIP3    H2 1009   0.653   5.330   1.442 -0.7797 -1.6231 -0.1868
  335TIP3   OH2 1010   0.797   2.216   0.569 -0.0362  0.5518  0.9126
  335TIP3    H1 1011   0.765   2.187   0.483  0.5123  0.1050  0.8539
  335TIP3    H2 1012   0.892   2.225   0.557  0.4276 -1.9325  2.1240
  336TIP3   OH2 1013   4.749   2.560   1.987 -0.2855  0.1603  0.2923
  336TIP3    H1 1014   4.765   2.537   1.895 -0.7528 -0.8874  0.4640
  336TIP3    H2 1015   4.794   2.493   2.037 -0.6145  0.3263  0.8209
  337TIP3   OH2 1016   2.189   3.944   3.624 -0.0718 -0.4036  0.0750
  337TIP3    H1 1017   2.155   4.032   3.607  0.5364 -0.1752  0.0389
  337TIP3    H2 1018   2.203   3.907   3.536 -0.7827 -0.7213  0.0860
  338TIP3   OH2 1019   2.256   2.490   0.279  0.4385  0.3450 -0.6793
  338TIP3    H1 1020   2.181   2.549   0.277  0.0742 -0.0097  1.0104
  338TIP3    H2 1021   2.217   2.402   0.282  0.9197  0.1463 -0.1137
  339TIP3   OH2 1022   4.539   1.050   0.085 -0.3323  0.2134 -0.0589
  339TIP3    H1 1023   4.557   1.005   0.168 -0.7382 -0.3130 -0.2482
  339TIP3    H2 1024   4.501   1.134   0.110  1.1923  0.8212  0.3256
  340TIP3   OH2 1025   1.038   5.858   4.987 -0.3896  0.7444  0.0521
  340TIP3    H1 1026   1.102   5.875   4.919 -1.5375 -0.3426 -1.3630
  340TIP3    H2 1027   1.053   5.766   5.012 -1.4155  0.4408 -0.3767
  341TIP3   OH2 1028   4.492   0.505   5.195  0.1301 -0.0482  0.4516
  341TIP3    H1 1029   4.566   0.446   5.181  0.6892  0.7270  0.0976
  341TIP3    H2 1030   4.445   0.504   5.111  0.5048  0.5020  0.2301
  342TIP3   OH2 1031   0.365   3.214   0.821  0.3908  0.2741  0.4082
  342TIP3    H1 1032   0.335   3.202   0.911 -0.1980 -1.1556  0.0511
  342TIP3    H2 1033   0.460   3.198   0.826  0.7496  2.3019  1.0994
  343TIP3   OH2 1034   5.567   4.428   3.274  0.1830  0.1442  0.4492
  343TIP3    H1 1035   5.590   4.353   3.220 -0.5081 -0.6910  1.2605
  343TIP3    H2 1036   5.594   4.504   3.224 -0.7764 -0.5752 -1.2400
  344TIP3   OH2 1037   2.433   5.938   4.412 -0.2420  0.1187  0.1503
  344TIP3    H1 1038   2.421   5.851   4.450  1.1264 -0.5896 -0.9416
  344TIP3    H2 1039   2.383   5.935   4.330 -2.2955  1.2751  1.2746
  345TIP3   OH2 1040   4.938   0.656   2.257  0.4270  0.0604 -0.3094
  345TIP3    H1 1041   4.992   0.716   2.204  0.3804 -1.0261 -1.6315
  345TIP3    H2 1042   5.002   0.609   2.311  0.5548  0.5524 -0.0181
  346TIP3   OH2 1043   2.789   4.932   4.035 -0.1324  0.0667 -0.7727
  346TIP3    H1 1044   2.718   4.948   3.972 -0.6446  0.4822 -0.1096
  346TIP3    H2 1045   2.770   4.845   4.070 -0.0958  0.0178 -0.8745
  347TIP3   OH2 1046   2.886   4.051   1.664 -0.0221 -0.1516  0.2053
  347TIP3    H1 1047   2.854   4.064   1.753 -1.0829 -0.4698 -0.1256
  347TIP3    H2 1048   2.981   4.040   1.675 -0.2183 -0.8983  1.3663
  348TIP3   OH2 1049   3.442   2.515   2.074  0.6096 -0.1345  0.0681
  348TIP3    H1 1050   3.397   2.596   2.097 -0.7385 -0.5078 -1.0721
  348TIP3    H2 1051   3.413   2.452   2.140  0.3790 -0.0684  0.0331
  349TIP3   OH2 1052   4.587   2.908   2.538 -0.3350  0.4078 -0.1077
  349TIP3    H1 1053   4.569   2.815   2.533 -2.1942  0.6939  0.4154
  349TIP3    H2 1054   4.643   2.927   2.463 -1.3153 -0.8361 -1.1866
  350TIP3   OH2 1055   5.727   0.879   3.998 -0.6667 -0.2259  0.1093
  350TIP3    H1 1056   5.817   0.908   4.010 -0.9029  0.1531  1.0718
  350TIP3    H2 1057   5.690   0.877   4.087 -1.5897 -0.4128 -0.2634
  351TIP3   OH2 1058   2.613   5.138   0.306 -0.6288 -0.4137 -0.2632
  351TIP3    H1 1059   2.631   5.106   0.218  0.5334 -1.4600  0.3321
  351TIP3    H2 1060   2.628   5.063   0.363 -1.1219  0.3142  0.8639
  352TIP3   OH2 1061   2.431   1.396   3.385 -0.1884  0.2721  0.4669
  352TIP3    H1 1062   2.432   1.416   3.478  0.0259 -1.7033  0.9416
  352TIP3    H2 1063   2.338   1.388   3.363 -0.2171 -0.0761  0.7122
  353TIP3   OH2 1064   5.000   0.823   3.299 -0.2827 -0.0950 -0.4468
  353TIP3    H1 1065   5.011   0.731   3.325 -1.8366 -0.1504  0.1433
  353TIP3    H2 1066   5.089   0.855   3.285  0.2747 -1.7699 -0.9685
  354TIP3   OH2 1067   5.509   3.724   1.937  0.3480 -0.0143  0.7573
  354TIP3    H1 1068   5.461   3.648   1.903  2.5225 -0.4725 -1.5962
  354TIP3    H2 1069   5.447   3.767   1.997 -1.8818 -2.1395  0.1472
  355TIP3   OH2 1070   5.974   2.751   3.895  0.4225  0.3273  0.1929
  355TIP3    H1 1071   5.929   2.748   3.810  1.3609  1.5101 -0.3890
  355TIP3    H2 1072   6.040   2.683   3.889 -0.7201 -0.8682  0.7354
  356TIP3   OH2 1073   5.082   0.122   1.498  0.6419 -0.4927 -0.3111
  356TIP3    H1 1074   5.099   0.028   1.505 -1.8699 -0.9427  1.0076
  356TIP3    H2 1075   5.113   0.158   1.581 -1.7039 -0.8456  0.8108
  357TIP3   OH2 1076   0.279   1.080   3.497  0.2187 -0.3081 -0.4596
  357TIP3    H1 1077   0.194   1.124   3.498 -0.1722 -1.0288  0.7857
  357TIP3    H2 1078   0.258   0.987   3.491  0.9689 -0.4345 -1.2944
  358TIP3   OH2 1079   1.297   4.196   1.215  0.2250 -0.3203  0.0739
  358TIP3    H1 1080   1.202   4.188   1.213  0.3412 -4.5844  1.8279
  358TIP3    H2 1081   1.317   4.226   1.303  0.5611  0.9639 -0.4172
  359TIP3   OH2 1082   2.075   5.040   4.908 -0.5258  0.0007 -0.0982
  359TIP3    H1 1083   2.161   5.016   4.942 -0.6299 -2.7202 -1.4506
  359TIP3    H2 1084   2.064   4.985   4.830 -2.8975  1.3351 -0.8109
  360TIP3   OH2 1085   0.697   3.027   3.700 -0.6202  0.0052 -0.1650
  360TIP3    H1 1086   0.723   3.080   3.625 -1.1776 -0.9679 -1.0869
  360TIP3    H2 1087   0.763   3.044   3.766  2.7165 -2.5854 -2.4461
  361TIP3   OH2 1088   0.872   0.215   4.174 -0.2415  0.2341 -0.0962
  361TIP3    H1 1089   0.863   0.139   4.117 -0.1128  0.9249 -1.0494
  361TIP3    H2 1090   0.949   0.262   4.141 -1.9649  2.3461 -1.4306
  362TIP3   OH2 1091   3.877   0.825   2.185 -0.2188  0.4307  0.1853
  362TIP3    H1 1092   3.791   0.796   2.156 -0.8086  1.1816  1.1242
  362TIP3    H2 1093   3.912   0.752   2.236 -1.2358  0.9082  1.6330
  363TIP3   OH2 1094   5.973   5.635   4.036  1.1071 -0.1347 -0.1160
  363TIP3    H1 1095   5.967   5.642   4.132  2.5227 -1.4486  0.1039
  363TIP3    H2 1096   6.057   5.673   4.014  1.5572 -1.3774 -0.6340
  364TIP3   OH2 1097   3.405   1.892   3.246  0.0358  0.2378  0.8912
  364TIP3    H1 1098   3.431   1.953   3.177 -2.4186  0.5773  0.1449
  364TIP3    H2 1099   3.393   1.808   3.201  0.6840 -0.1264  1.3772
  365TIP3   OH2 1100   6.035   5.262   1.934  0.5164  0.1216 -1.1473
  365TIP3    H1 1101   6.096   5.296   2.000 -0.8018  0.2323  0.0706
  365TIP3    H2 1102   6.018   5.172   1.961  0.3417  0.0077 -1.6274
  366TIP3   OH2 1103   2.533   2.895   4.001 -0.3553  0.0442 -0.2172
  366TIP3    H1 1104   2.618   2.851   3.994  0.1023  0.5771  1.4868
  366TIP3    H2 1105   2.520   2.935   3.915 -0.3876 -2.6093 -1.5527
  367TIP3   OH2 1106   3.846   3.383   1.467 -0.4072 -0.2459 -0.1811
  367TIP3    H1 1107   3.907   3.319   1.504  0.4985  0.1236 -1.0006
  367TIP3    H2 1108   3.768   3.332   1.446 -0.5753 -0.6369  1.3089
  368TIP3   OH2 1109   0.120   2.963   1.884  0.5116 -0.2119  0.0030
  368TIP3    H1 1110   0.178   2.918   1.946 -1.5969  0.1695  2.4164
  368TIP3    H2 1111   0.043   2.907   1.877 -0.0689  0.6598 -0.8843
  369TIP3   OH2 1112   3.343   2.140   4.669  0.3656 -0.1980  0.3218
  369TIP3    H1 1113   3.324   2.100   4.584  1.6159 -1.1012  0.4322
  369TIP3    H2 1114   3.299   2.225   4.666 -1.0321 -0.9173 -0.5451
  370TIP3   OH2 1115   3.866   4.616   2.894 -0.2650  0.5722  0.1040
  370TIP3    H1 1116   3.792   4.584   2.842  1.2797 -1.9189 -0.7227
  370TIP3    H2 1117   3.879   4.706   2.863 -2.3013  0.7538 -0.3910
  371TIP3   OH2 1118   1.808   3.498   4.804 -0.4634  0.9480  0.6345
  371TIP3    H1 1119   1.873   3.474   4.870  0.6593  0.7899 -0.4776
  371TIP3    H2 1120   1.822   3.434   4.733 -1.8320  0.9236  0.3643
  372TIP3   OH2 1121   5.627   0.026   3.020  0.1184  0.0029 -0.0014
  372TIP3    H1 1122   5.723   0.029   3.016  0.1191 -0.6548 -0.5761
  372TIP3    H2 1123   5.602  -0.028   2.946 -0.6667 -0.4720  0.6003
  373TIP3   OH2 1124   4.080   0.503   2.047 -0.2556  0.0043 -0.3135
  373TIP3    H1 1125   4.010   0.566   2.029  0.0561 -0.1224 -2.0812
  373TIP3    H2 1126   4.040   0.418   2.035 -0.3111 -0.1247  0.7031
  374TIP3   OH2 1127   3.358   3.146   4.980  0.4047 -0.3558 -0.1309
  374TIP3    H1 1128   3.383   3.062   4.941 -0.4955 -1.3692  1.3714
  374TIP3    H2 1129   3.441   3.184   5.009  0.7085 -1.3017  0.2784
  375TIP3   OH2 1130   2.990   0.138   1.202 -0.1693  0.3562 -0.0626
  375TIP3    H1 1131   3.077   0.176   1.208 -0.0091 -0.0108 -0.0457
  375TIP3    H2 1132   2.947   0.186   1.132  0.0240  0.5817 -0.0248
  376TIP3   OH2 1133   3.292   1.454   3.539  0.0807 -0.1731  0.1500
  376TIP3    H1 1134   3.348   1.396   3.488  0.6569  0.3532  0.1628
  376TIP3    H2 1135   3.315   1.542   3.508  0.6906  0.1858  1.5335
  377TIP3   OH2 1136   4.036   3.594   4.703 -0.2051 -0.7148  0.5636
  377TIP3    H1 1137   4.028   3.509   4.747  0.1517 -0.1911  1.6685
  377TIP3    H2 1138   4.022   3.658   4.772 -0.0993  0.1309 -0.1908
  378TIP3   OH2 1139   0.043   0.929   4.070  0.5646  0.4358 -0.4793
  378TIP3    H1 1140  -0.021   0.922   3.999  0.2872 -0.0238 -0.1915
  378TIP3    H2 1141   0.128   0.933   4.026  0.5906 -2.2203 -0.7857
  379TIP3   OH2 1142   2.491   1.271   3.740 -0.3715 -0.1185  0.4352
  379TIP3    H1 1143   2.472   1.364   3.725 -0.4720 -0.3885 -1.3452
  379TIP3    H2 1144   2.405   1.232   3.756 -0.4103 -0.0212  0.4679
  380TIP3   OH2 1145   2.797   0.788   4.574  0.2114  0.2174  0.0823
  380TIP3    H1 1146   2.793   0.883   4.575  0.4011  0.2267 -0.0659
  380TIP3    H2 1147   2.755   0.763   4.492  0.3964  0.1835 -0.0015
  381TIP3   OH2 1148   0.866   2.546   5.027  0.1992  0.1053  0.1296
  381TIP3    H1 1149   0.874   2.521   4.935  1.9699 -0.7590  0.4907
  381TIP3    H2 1150   0.791   2.496   5.059 -0.0023 -0.1157 -0.6632
  382TIP3   OH2 1151   0.326   5.337   4.675  0.5948 -0.0137 -0.3786
  382TIP3    H1 1152   0.377   5.387   4.739 -1.4744  0.3679  1.0820
  382TIP3    H2 1153   0.253   5.394   4.652  1.5018  0.0453 -3.5475
  383TIP3   OH2 1154   4.063   1.713   5.166  0.4026  0.1125 -0.9653
  383TIP3    H1 1155   4.025   1.658   5.097  0.2537  0.8974 -1.5293
  383TIP3    H2 1156   4.078   1.797   5.123 -0.7817  0.9981  0.2594
  384TIP3   OH2 1157   6.222   5.396   4.819  0.2378 -0.2033  0.0391
  384TIP3    H1 1158   6.134   5.426   4.843 -0.3555 -1.9351  0.1757
  384TIP3    H2 1159   6.220   5.390   4.724  0.9398  1.7945 -0.1459
  385TIP3   OH2 1160   2.598   3.307   2.563 -0.7712 -0.4704  0.5541
  385TIP3    H1 1161   2.512   3.330   2.600 -0.9165  0.0625 -0.0927
  385TIP3    H2 1162   2.628   3.387   2.520  0.2390 -0.5346  1.1135
  386TIP3   OH2 1163   3.697   3.355   4.600 -0.1481  0.2502  0.1077
  386TIP3    H1 1164   3.652   3.421   4.547  0.4450 -0.6211 -1.5353
  386TIP3    H2 1165   3.627   3.305   4.641 -0.7080 -0.7373 -1.9799
  387TIP3   OH2 1166   5.081   1.639   1.637  0.4380  0.2897  0.1252
  387TIP3    H1 1167   5.176   1.642   1.648  0.5255 -1.4038  0.0546
  387TIP3    H2 1168   5.068   1.638   1.542  0.3202  0.9086  0.1308
  388TIP3   OH2 1169   6.299   3.583   4.919  0.1043  0.7564  0.5983
  388TIP3    H1 1170   6.358   3.527   4.970  0.0312  0.8500  0.7882
  388TIP3    H2 1171   6.242   3.623   4.985 -1.7526 -1.1368  0.2673
  389TIP3   OH2 1172   3.942   3.719   4.928 -0.3886 -0.6797 -0.2037
  389TIP3    H1 1173   3.890   3.645   4.958  0.3035 -1.4156 -0.7756
  389TIP3    H2 1174   3.878   3.788   4.911 -1.0465 -1.1517  0.2904
  390TIP3   OH2 1175   5.920   5.339   0.948  0.4539  0.4574 -0.3158
  390TIP3    H1 1176   5.891   5.268   1.005  2.4185 -0.3636 -0.2772
  390TIP3    H2 1177   6.015   5.342   0.959  0.6550  1.6627 -1.9656
  391TIP3   OH2 1178   5.369   5.498   1.659  0.1530 -0.3989  0.5560
  391TIP3    H1 1179   5.317   5.422   1.632 -0.8594  0.6710 -0.6782
  391TIP3    H2 1180   5.372   5.554   1.581 -0.7163  1.6682  1.9150
  392TIP3   OH2 1181   0.569   0.485   1.221 -0.3866  0.3432  0.3045
  392TIP3    H1 1182   0.604   0.448   1.140  1.7159  1.5446  0.5983
  392TIP3    H2 1183   0.617   0.567   1.233 -2.3972  1.4351  1.5050
  393TIP3   OH2 1184   5.628   3.937   2.819  0.0805  0.1621 -0.3573
  393TIP3    H1 1185   5.603   3.969   2.906  0.1907 -1.0352  0.1365
  393TIP3    H2 1186   5.545   3.915   2.776  0.0190  0.8657 -0.6064
  394TIP3   OH2 1187   3.322  -0.015   4.784 -0.1296 -0.5943  0.2396
  394TIP3    H1 1188   3.319  -0.004   4.689 -0.7133  0.2062  0.3370
  394TIP3    H2 1189   3.326   0.075   4.818  0.5289 -0.8903  0.9635
  395TIP3   OH2 1190   0.862   5.374   2.419 -0.2994  0.1669  0.4103
  395TIP3    H1 1191   0.889   5.464   2.404  0.9204  0.1281  2.0755
  395TIP3    H2 1192   0.897   5.352   2.505 -2.0185 -1.3525  0.8048
  396TIP3   OH2 1193   3.801   5.096   1.673 -0.2841 -0.4115 -0.1833
  396TIP3    H1 1194   3.713   5.060   1.679 -0.0286 -0.9014  1.0158
  396TIP3    H2 1195   3.825   5.088   1.581 -1.2231 -0.9186 -0.3922
  397TIP3   OH2 1196   5.609   1.461   0.890 -0.3046 -0.5615 -0.1626
  397TIP3    H1 1197   5.599   1.555   0.875  0.9488 -0.3568  0.1967
  397TIP3    H2 1198   5.681   1.435   0.831  1.1551 -0.7602  1.6298
  398TIP3   OH2 1199   1.678   2.478   1.486 -0.7840 -0.5409  0.0367
  398TIP3    H1 1200   1.726   2.545   1.534 -0.9243 -1.0107  0.8539
  398TIP3    H2 1201   1.588   2.484   1.520 -0.7803 -1.1799  0.1759
  399TIP3   OH2 1202   4.857   4.965   3.806 -0.2320  0.3342  0.4745
  399TIP3    H1 1203   4.847   5.058   3.825 -0.6063  0.2244  0.8119
  399TIP3    H2 1204   4.903   4.963   3.722 -2.0733  0.8352 -0.5842
  400TIP3   OH2 1205   5.072   5.426   1.465  0.0052 -0.6824  0.4150
  400TIP3    H1 1206   5.139   5.361   1.486 -1.1635 -1.8003  0.7744
  400TIP3    H2 1207   5.003   5.412   1.530 -1.1172 -0.3461 -0.6628
  401TIP3   OH2 1208   4.520   5.858   3.382 -0.0243 -0.6962  0.2424
  401TIP3    H1 1209   4.591   5.909   3.345  1.3516 -3.2713 -0.9333
  401TIP3    H2 1210   4.554   5.826   3.465 -0.8490  0.1419  0.9368
  402TIP3   OH2 1211   4.034   0.410   3.348 -0.0137  0.3125 -0.4030
  402TIP3    H1 1212   4.093   0.350   3.301  0.5872 -0.0291  0.7513
  402TIP3    H2 1213   4.020   0.368   3.433 -0.4036  1.3268  0.0431
  403TIP3   OH2 1214   2.097   3.165   0.976 -0.1917  0.4414 -0.0227
  403TIP3    H1 1215   2.035   3.162   0.903 -0.5107  1.7208  0.1800
  403TIP3    H2 1216   2.095   3.076   1.012 -5.2289  1.2675  2.6878
  404TIP3   OH2 1217   0.327   3.533   2.214  0.2466  0.0186 -0.1912
  404TIP3    H1 1218   0.320   3.517   2.308 -1.4576 -0.2259 -0.3297
  404TIP3    H2 1219   0.393   3.603   2.207 -0.3450  0.7729  1.2553
  405TIP3   OH2 1220   1.937   0.203   0.776  0.2655 -0.0405  0.2528
  405TIP3    H1 1221   2.020   0.251   0.770 -0.4189  1.0662 -0.6438
  405TIP3    H2 1222   1.962   0.119   0.815  1.6580  0.6187  0.8817
  406TIP3   OH2 1223   0.121   3.296   1.285  0.2763 -0.0410  0.5436
  406TIP3    H1 1224   0.113   3.391   1.297  0.4824 -0.0741  0.9738
  406TIP3    H2 1225   0.117   3.260   1.374 -1.1389 -0.5452  0.3051
  407TIP3   OH2 1226   5.421   3.560   4.440 -0.2276  0.0236 -0.1228
  407TIP3    H1 1227   5.410   3.645   4.396  0.2376  0.1653  0.0295
  407TIP3    H2 1228   5.509   3.532   4.418 -1.3877 -1.9353 -2.7387
  408TIP3   OH2 1229   0.663   5.072   1.662 -0.3604  0.6999 -0.1644
  408TIP3    H1 1230   0.736   5.120   1.702 -0.2752  1.3300 -1.0441
  408TIP3    H2 1231   0.698   5.039   1.580  0.7822 -4.1907  1.9475
  409TIP3   OH2 1232   5.624   5.461   3.295 -0.1308  0.1112  0.4808
  409TIP3    H1 1233   5.565   5.456   3.370 -1.5389  0.1072 -0.6001
  409TIP3    H2 1234   5.616   5.551   3.263 -0.9422 -0.3733 -0.7457
  410TIP3   OH2 1235   2.137   2.125   4.555 -0.6581 -0.1982  0.4830
  410TIP3    H1 1236   2.185   2.066   4.497  0.8184  2.3893 -1.0889
  410TIP3    H2 1237   2.109   2.069   4.627  0.6476 -2.7997 -0.8765
  411TIP3   OH2 1238   2.637   3.878   0.963 -0.0364  0.2025 -0.7142
  411TIP3    H1 1239   2.555   3.922   0.941 -0.8516 -0.6492  0.4914
  411TIP3    H2 1240   2.690   3.945   1.006 -0.5750  0.4639 -0.4547
  412TIP3   OH2 1241   0.574   2.467   4.902  0.0061  0.1473  0.1640
  412TIP3    H1 1242   0.586   2.420   4.985 -0.4350 -0.6592 -0.2250
  412TIP3    H2 1243   0.645   2.532   4.901  1.1149 -1.0330  0.3340
  413TIP3   OH2 1244   1.768   3.561   0.499  0.6934 -0.2647 -0.1264
  413TIP3    H1 1245   1.845   3.519   0.537  2.0704 -0.8959 -3.3010
  413TIP3    H2 1246   1.791   3.576   0.407 -3.1360 -0.9224 -1.3965
  414TIP3   OH2 1247   3.350   4.788   2.186 -0.0004  0.1262 -0.1232
  414TIP3    H1 1248   3.321   4.863   2.237  0.9586 -0.4320  1.2931
  414TIP3    H2 1249   3.326   4.712   2.238 -0.7215 -0.5690 -1.4131
  415TIP3   OH2 1250   1.043   3.622   1.863 -0.3823 -0.0509  0.0500
  415TIP3    H1 1251   0.962   3.670   1.884  0.5186  1.6193 -0.0631
  415TIP3    H2 1252   1.036   3.602   1.770 -1.6085 -1.8998  0.4871
  416TIP3   OH2 1253   6.102   2.546   4.603  0.4438 -0.3610  0.3051
  416TIP3    H1 1254   6.117   2.560   4.696 -0.9364  0.1298  0.4739
  416TIP3    H2 1255   6.162   2.608   4.560 -0.6627  1.2240  0.9309
  417TIP3   OH2 1256   0.223  -0.001   4.990  0.3113  0.3231  0.0598
  417TIP3    H1 1257   0.297   0.033   5.040  0.4889  0.0017  0.0140
  417TIP3    H2 1258   0.151   0.059   5.010  0.7719  1.0639 -0.4709
  418TIP3   OH2 1259   2.824   0.951   3.499 -0.3994 -0.4601 -0.2779
  418TIP3    H1 1260   2.767   0.880   3.471 -1.2986  0.8811 -2.0785
  418TIP3    H2 1261   2.767   1.028   3.501  0.7984  0.4569  0.4283
  419TIP3   OH2 1262   5.005   5.265   3.160  0.5888  0.0996 -0.9413
  419TIP3    H1 1263   5.030   5.354   3.186  1.2970 -0.3542  0.0085
  419TIP3    H2 1264   5.057   5.208   3.217 -2.3659 -0.9363  0.8902
  420TIP3   OH2 1265   3.671   1.606   4.475  0.0666  0.4471  0.1861
  420TIP3    H1 1266   3.723   1.611   4.394 -0.5176 -1.1177 -0.3289
  420TIP3    H2 1267   3.736   1.601   4.545  0.5836  0.7284 -0.2636
  421TIP3   OH2 1268   3.676   1.176   3.067  0.3421  0.5242  0.0587
  421TIP3    H1 1269   3.676   1.156   3.161 -0.3322 -0.0399 -0.0469
  421TIP3    H2 1270   3.583   1.184   3.045  0.4447 -0.2925 -0.7432
  422TIP3   OH2 1271   1.796   4.030   3.904  0.1328 -0.1920  0.5251
  422TIP3    H1 1272   1.713   4.057   3.864  0.0107  1.2531  1.6536
  422TIP3    H2 1273   1.771   3.964   3.969 -0.0219 -0.4279  0.2255
  423TIP3   OH2 1274   2.217   2.267   3.182 -0.0581 -0.5294  0.6223
  423TIP3    H1 1275   2.219   2.203   3.254  0.1892  1.9855  3.0481
  423TIP3    H2 1276   2.301   2.313   3.190 -0.1101 -0.0676 -1.2149
  424TIP3   OH2 1277   1.488   5.702   3.517  0.4226  0.1435  0.0523
  424TIP3    H1 1278   1.546   5.749   3.577  0.2817 -0.6284  0.8067
  424TIP3    H2 1279   1.401   5.712   3.555  0.4090 -0.8259  0.3072
  425TIP3   OH2 1280   2.535   2.688   1.934  0.5216  0.5423  0.2479
  425TIP3    H1 1281   2.626   2.712   1.949  0.4731  0.1065  1.3109
  425TIP3    H2 1282   2.499   2.762   1.885  1.1934  1.1764  0.6905
  426TIP3   OH2 1283   0.794   3.646   3.102 -0.5939  0.6111  0.0049
  426TIP3    H1 1284   0.828   3.652   3.013 -1.7742  0.8638 -0.4384
  426TIP3    H2 1285   0.704   3.615   3.092 -0.3155 -0.6670  1.2002
  427TIP3   OH2 1286   5.048   3.677   3.988  0.0704  0.6124 -0.4452
  427TIP3    H1 1287   4.993   3.744   4.028 -0.2822 -0.1316  0.3545
  427TIP3    H2 1288   5.073   3.620   4.061  1.1899  0.4389 -0.9453
  428TIP3   OH2 1289   0.250   1.146   4.456 -0.1837  0.3235 -0.1957
  428TIP3    H1 1290   0.248   1.226   4.404  1.4318 -0.3079 -1.3186
  428TIP3    H2 1291   0.165   1.104   4.438 -0.5794  1.2177 -0.4913
  429TIP3   OH2 1292   2.505   3.943   2.537 -0.6005  0.2754  0.6344
  429TIP3    H1 1293   2.547   4.024   2.510 -1.7759  0.4749 -0.7199
  429TIP3    H2 1294   2.575   3.877   2.534 -0.1878  0.7532 -0.7503
  430TIP3   OH2 1295   1.579   1.429   4.055 -0.1896 -0.3208  0.2654
  430TIP3    H1 1296   1.625   1.348   4.031  1.3954  0.0212  1.9151
  430TIP3    H2 1297   1.595   1.438   4.149  0.6982  2.4956 -0.0619
  431TIP3   OH2 1298   5.410   0.840   3.955 -0.4045  0.1552  1.2194
  431TIP3    H1 1299   5.505   0.827   3.956 -0.3805  0.2632  0.5682
  431TIP3    H2 1300   5.377   0.779   4.021  0.0380 -0.5430  0.8030
  432TIP3   OH2 1301   4.539   2.664   4.007  0.0835 -0.1335 -0.6051
  432TIP3    H1 1302   4.539   2.706   4.093  1.0432 -1.8153  0.2867
  432TIP3    H2 1303   4.632   2.661   3.983 -0.0523 -0.9048 -1.0511
  433TIP3   OH2 1304   0.809   0.290   0.133  0.2531 -0.2333 -0.2939
  433TIP3    H1 1305   0.890   0.247   0.103  0.4206  1.3158 -2.1993
  433TIP3    H2 1306   0.799   0.366   0.076 -1.8215  0.4116  0.8319
  434TIP3   OH2 1307   2.847   5.536   2.419  0.1836  0.3009 -0.3524
  434TIP3    H1 1308   2.854   5.631   2.409 -0.7366  0.3389 -0.7491
  434TIP3    H2 1309   2.936   5.507   2.435  0.3242  1.3690  1.0201
  435TIP3   OH2 1310   3.758   5.940   2.232  0.4756 -0.1302 -0.0942
  435TIP3    H1 1311   3.760   6.011   2.296 -0.3640  0.8480 -1.1236
  435TIP3    H2 1312   3.818   5.968   2.163  2.6923 -1.9323  0.9476
  436TIP3   OH2 1313   1.451   3.278   1.007 -0.2855 -0.3121 -0.1345
  436TIP3    H1 1314   1.379   3.339   1.020 -0.5075  0.3451 -3.5449
  436TIP3    H2 1315   1.501   3.282   1.089 -1.9442  2.1244  0.8745
  437TIP3   OH2 1316   0.769   4.808   0.144 -0.7378  0.3359  0.3724
  437TIP3    H1 1317   0.857   4.791   0.113 -1.2299  1.6397 -2.0298
  437TIP3    H2 1318   0.753   4.900   0.121 -3.2268 -0.2795 -0.7704
  438TIP3   OH2 1319   5.284   5.146   1.161  0.1568  0.3040  0.0063
  438TIP3    H1 1320   5.229   5.178   1.090 -2.1700  1.1626  2.0573
  438TIP3    H2 1321   5.343   5.220   1.179 -1.6735  1.5530  1.2526
  439TIP3   OH2 1322   5.596   4.342   2.684  0.3842  0.3639  0.3924
  439TIP3    H1 1323   5.607   4.255   2.646  1.5351  0.7483 -0.2044
  439TIP3    H2 1324   5.650   4.341   2.763  2.0053  1.1144 -0.6388
  440TIP3   OH2 1325   0.979   2.502   3.610 -0.1093  0.1483  0.0900
  440TIP3    H1 1326   1.034   2.447   3.664 -1.1980 -0.6798  0.3846
  440TIP3    H2 1327   0.890   2.470   3.625 -0.6862  1.4566 -0.3520
  441TIP3   OH2 1328   1.683   4.524   1.499 -0.7986  0.4411 -0.4441
  441TIP3    H1 1329   1.696   4.498   1.408  0.3953  0.8863 -0.4309
  441TIP3    H2 1330   1.700   4.619   1.500 -1.5859  0.5854  0.1052
  442TIP3   OH2 1331   4.056   5.124   3.753 -0.1367 -0.1037  0.3921
  442TIP3    H1 1332   4.137   5.168   3.781 -0.0980 -0.2110  0.4459
  442TIP3    H2 1333   4.040   5.058   3.820  0.1637 -0.6203 -0.0426
  443TIP3   OH2 1334   6.211   4.769   1.073  0.0936  0.1398  0.2097
  443TIP3    H1 1335   6.180   4.717   1.148  1.3567 -0.2817  0.4631
  443TIP3    H2 1336   6.185   4.718   0.996 -0.9259  0.4139  0.3596
  444TIP3   OH2 1337   5.897   5.884   1.541  0.3257 -0.6205 -0.2719
  444TIP3    H1 1338   5.856   5.825   1.605 -1.6337  0.5221 -0.3680
  444TIP3    H2 1339   5.830   5.897   1.474  1.1403  0.7279 -0.8709
  445TIP3   OH2 1340   0.642   4.475   2.147 -0.4912 -0.2278  0.2848
  445TIP3    H1 1341   0.690   4.458   2.066 -0.8801  1.2422 -0.2974
  445TIP3    H2 1342   0.698   4.439   2.216  0.8314  0.2798 -0.4793
  446TIP3   OH2 1343   1.228   5.438   2.002 -0.0276 -0.3685 -0.2693
  446TIP3    H1 1344   1.194   5.455   2.090  1.3759  1.3560  0.0069
  446TIP3    H2 1345   1.297   5.372   2.015  2.1349  1.8806  0.4569
  447TIP3   OH2 1346   2.419   0.802   3.245  0.1054 -0.2363  0.6842
  447TIP3    H1 1347   2.429   0.785   3.151 -0.2872  1.1195  0.3772
  447TIP3    H2 1348   2.363   0.730   3.276 -0.4982 -0.2233 -0.3090
  448TIP3   OH2 1349   3.998   1.522   2.003 -0.0963  0.0868  0.6097
  448TIP3    H1 1350   3.943   1.594   1.970  0.8691  0.4125 -0.3190
  448TIP3    H2 1351   4.011   1.465   1.928 -1.0134 -1.2036  1.3836
  449TIP3   OH2 1352   1.926   5.153   1.964  0.6209 -0.1803  0.2412
  449TIP3    H1 1353   1.904   5.072   1.918 -1.4740 -1.2307  2.8404
  449TIP3    H2 1354   1.935   5.127   2.055  0.6746  2.4018  1.0530
  450TIP3   OH2 1355   2.337   3.863   3.012  0.2748  0.1609  0.0627
  450TIP3    H1 1356   2.281   3.785   3.007  0.6968 -0.1698  0.4035
  450TIP3    H2 1357   2.342   3.894   2.921  0.1060 -0.2139 -0.0792
  451TIP3   OH2 1358   1.300   2.600   4.199 -0.3664 -0.1454 -0.2386
  451TIP3    H1 1359   1.293   2.554   4.115 -0.2289  3.9659 -2.7999
  451TIP3    H2 1360   1.221   2.654   4.203  0.7257  1.4680  1.0963
  452TIP3   OH2 1361   4.976   0.102   3.698  0.2412 -0.0983  0.7573
  452TIP3    H1 1362   5.009   0.023   3.657 -0.2068  0.1824 -0.1727
  452TIP3    H2 1363   5.007   0.097   3.788  0.8415 -0.9629  0.5163
  453TIP3   OH2 1364   1.972   2.588   4.396  0.1991 -0.1922  0.0513
  453TIP3    H1 1365   2.030   2.571   4.322  3.2540  0.1559  2.1613
  453TIP3    H2 1366   1.981   2.510   4.451 -0.6958  0.2539  0.8546
  454TIP3   OH2 1367   0.663   1.494   1.370 -0.0540 -1.0522  0.5870
  454TIP3    H1 1368   0.730   1.427   1.370 -0.2340 -1.2429 -0.2127
  454TIP3    H2 1369   0.705   1.570   1.410  0.4843 -1.3196  0.5376
  455TIP3   OH2 1370   0.585   1.906   1.723  0.5867 -0.6637  0.1672
  455TIP3    H1 1371   0.604   1.964   1.796  0.1770  2.3547 -1.9192
  455TIP3    H2 1372   0.594   1.962   1.645  1.2662 -3.7165 -2.1524
  456TIP3   OH2 1373   4.864   3.565   2.684 -0.2680 -0.1564  0.3373
  456TIP3    H1 1374   4.836   3.648   2.723 -1.4044 -0.1281 -0.5026
  456TIP3    H2 1375   4.786   3.511   2.683  0.1322 -0.7402 -0.3976
  457TIP3   OH2 1376   3.360   1.069   4.717 -0.0328  0.5165  0.5630
  457TIP3    H1 1377   3.389   0.986   4.754 -2.3657 -0.5353  0.2319
  457TIP3    H2 1378   3.375   1.061   4.623  1.5299  1.2942  0.7177
  458TIP3   OH2 1379   0.188   1.760   2.533  0.3018  0.6669  0.2026
  458TIP3    H1 1380   0.256   1.726   2.593  0.2565  0.7809  0.3183
  458TIP3    H2 1381   0.212   1.851   2.519 -0.2442  0.9110  0.8320
  459TIP3   OH2 1382   2.098   1.517   4.900 -0.7041  0.3863 -0.3243
  459TIP3    H1 1383   2.185   1.549   4.924  1.3234 -2.6390 -2.8891
  459TIP3    H2 1384   2.082   1.553   4.813 -1.2980 -0.3660 -0.5395
  460TIP3   OH2 1385   1.675   1.975   3.684  0.6247  0.1875  0.3053
  460TIP3    H1 1386   1.690   2.046   3.747  0.2718 -1.0988  1.9025
  460TIP3    H2 1387   1.598   1.929   3.718 -0.1849  0.0119 -1.6283
  461TIP3   OH2 1388   0.635   4.432   4.467  0.2464 -0.2652  0.0187
  461TIP3    H1 1389   0.588   4.392   4.540  0.0168 -0.4913 -0.2508
  461TIP3    H2 1390   0.698   4.491   4.509  0.2621 -0.5477  0.4071
  462TIP3   OH2 1391   4.197   3.766   3.099  0.0960  0.2985  0.1170
  462TIP3    H1 1392   4.194   3.776   3.004  0.0782  2.7371  0.3249
  462TIP3    H2 1393   4.264   3.699   3.114  0.9502  0.7255 -1.5732
  463TIP3   OH2 1394   0.498   1.982   1.128 -0.3220 -0.0547  0.0978
  463TIP3    H1 1395   0.488   1.904   1.073  0.0653  0.4532 -0.7101
  463TIP3    H2 1396   0.586   2.013   1.109 -1.1811  1.7525 -1.1473
  464TIP3   OH2 1397   5.865   0.103   4.358 -0.2294  0.1332 -0.1443
  464TIP3    H1 1398   5.800   0.146   4.304 -0.5996  1.2274  1.1092
  464TIP3    H2 1399   5.949   0.134   4.324 -0.4434  0.4305 -0.4057
  465TIP3   OH2 1400   2.075   3.533   3.785  0.5799 -0.3430 -0.2659
  465TIP3    H1 1401   2.097   3.615   3.828  1.4034 -0.9638  0.5292
  465TIP3    H2 1402   2.073   3.468   3.855  1.8045 -1.3532 -1.1175
  466TIP3   OH2 1403   1.262   2.147   0.042  0.3243  0.6284  0.0742
  466TIP3    H1 1404   1.263   2.180  -0.048  0.0403  0.1020 -0.1261
  466TIP3    H2 1405   1.169   2.133   0.061  0.4279  0.1782  0.2438
  467TIP3   OH2 1406   1.506   5.396   1.872 -0.2479 -0.3561  0.0403
  467TIP3    H1 1407   1.574   5.375   1.936 -0.6876 -0.2800  0.5397
  467TIP3    H2 1408   1.464   5.475   1.906 -1.8733 -1.4848  0.7885
  468TIP3   OH2 1409   2.660   1.954   4.065  0.4324 -0.4098 -0.8568
  468TIP3    H1 1410   2.671   1.997   4.149 -0.7691  1.3430 -1.5470
  468TIP3    H2 1411   2.638   1.863   4.086  0.1888 -0.0027  0.7025
  469TIP3   OH2 1412   2.481   2.627   3.242  0.2201 -0.8231  0.5022
  469TIP3    H1 1413   2.557   2.685   3.238  0.0499 -0.5734  0.8472
  469TIP3    H2 1414   2.518   2.539   3.249  0.5020 -0.8758 -1.1107
  470TIP3   OH2 1415   1.425   5.378   0.734  0.6912 -0.1843 -0.2670
  470TIP3    H1 1416   1.426   5.411   0.824  0.0878  2.0657 -0.9989
  470TIP3    H2 1417   1.507   5.329   0.725  0.4099 -1.1204  1.6914
  471TIP3   OH2 1418   0.075   5.900   3.743 -0.2444  0.6845 -0.2253
  471TIP3    H1 1419   0.168   5.898   3.720  0.2443 -0.6459  1.6049
  471TIP3    H2 1420   0.074   5.932   3.834 -1.4462 -0.5695  0.2324
  472TIP3   OH2 1421   0.088   1.484   3.022  0.7851 -0.0174  0.0742
  472TIP3    H1 1422   0.096   1.454   3.113  1.1603 -1.1567 -0.3071
  472TIP3    H2 1423   0.054   1.573   3.028  0.5679 -0.1712  1.3198
  473TIP3   OH2 1424   5.787   3.958   3.355  0.6031 -0.1446  0.0712
  473TIP3    H1 1425   5.741   4.013   3.418  0.1485 -0.6432  0.1790
  473TIP3    H2 1426   5.734   3.962   3.275 -0.8126 -2.3675  0.8143
  474TIP3   OH2 1427   2.594   3.163   1.181  0.6578 -0.2858 -0.8247
  474TIP3    H1 1428   2.580   3.103   1.254 -0.1079 -0.2060 -0.8938
  474TIP3    H2 1429   2.505   3.184   1.150  0.9043  0.9303 -0.7546
  475TIP3   OH2 1430   5.820   2.667   5.147 -0.5577 -0.5906  0.3634
  475TIP3    H1 1431   5.767   2.738   5.183 -3.2779 -1.5176 -1.4680
  475TIP3    H2 1432   5.871   2.707   5.077  1.1440  0.2758  2.0152
  476TIP3   OH2 1433   0.612   3.036   1.111  0.1714  0.1996 -0.3595
  476TIP3    H1 1434   0.672   3.101   1.149  0.7799 -0.3240 -0.3978
  476TIP3    H2 1435   0.584   3.075   1.028  1.0047  0.1686 -0.6680
  477TIP3   OH2 1436   0.510   3.840   3.606 -0.2768  0.0551  0.1735
  477TIP3    H1 1437   0.496   3.761   3.659 -1.0219  1.4920  2.2331
  477TIP3    H2 1438   0.601   3.864   3.621 -0.3229  0.1294  0.3371
  478TIP3   OH2 1439   5.903   4.620   3.278  0.8887  0.4121  0.1927
  478TIP3    H1 1440   5.990   4.658   3.292  0.7471  0.5089  0.8171
  478TIP3    H2 1441   5.921   4.535   3.238  1.2574  0.5577  0.0404
  479TIP3   OH2 1442   3.978   4.683   0.889  0.4239 -0.0702  0.1375
  479TIP3    H1 1443   3.961   4.771   0.922 -0.5534 -0.4499  0.7042
  479TIP3    H2 1444   3.994   4.631   0.967  0.4160 -0.5078 -0.1492
  480TIP3   OH2 1445   2.947   5.852   3.327  0.5781  0.0405  0.6451
  480TIP3    H1 1446   2.874   5.887   3.378  1.0380 -1.2890  2.3181
  480TIP3    H2 1447   2.905   5.798   3.260 -0.0347 -1.4225  2.1291
  481TIP3   OH2 1448   0.477   1.846   4.724 -0.0905 -0.1169 -0.4207
  481TIP3    H1 1449   0.511   1.854   4.813  0.9914 -0.1207 -0.8115
  481TIP3    H2 1450   0.488   1.933   4.687 -1.8747  0.2656 -0.1190
  482TIP3   OH2 1451   0.093   2.457   3.882  0.3732  0.1133 -0.0540
  482TIP3    H1 1452   0.089   2.376   3.832 -0.5190  1.0318 -1.5120
  482TIP3    H2 1453   0.182   2.458   3.917  0.1255 -1.9459  0.8446
  483TIP3   OH2 1454   5.981   4.558   4.621 -0.2984  0.5021 -0.5386
  483TIP3    H1 1455   5.973   4.570   4.715  1.8322  0.8253 -0.3591
  483TIP3    H2 1456   5.919   4.621   4.583  0.7251  2.2725  0.6199
  484TIP3   OH2 1457   2.004   5.708   1.249 -0.6662 -0.8215  0.1513
  484TIP3    H1 1458   2.074   5.773   1.250  0.8240 -2.3210 -1.6554
  484TIP3    H2 1459   1.957   5.724   1.167 -1.6780 -0.6514  0.7423
  485TIP3   OH2 1460   2.394   0.926   4.086  0.4690 -0.3805  0.7518
  485TIP3    H1 1461   2.400   1.010   4.039  1.6379 -0.7554  0.1787
  485TIP3    H2 1462   2.301   0.905   4.086  0.1923  0.7507  0.6051
  486TIP3   OH2 1463   0.780   0.788   2.662 -0.3018 -0.3191  0.3743
  486TIP3    H1 1464   0.824   0.704   2.652 -1.7519 -1.2375  1.2226
  486TIP3    H2 1465   0.688   0.770   2.641 -0.0721  2.0232 -3.6259
  487TIP3   OH2 1466   3.957   1.746   0.700 -0.0700  0.2149 -0.8547
  487TIP3    H1 1467   4.022   1.813   0.722 -0.0543  0.1330 -0.6423
  487TIP3    H2 1468   3.873   1.788   0.716 -0.0908  0.5778 -1.8884
  488TIP3   OH2 1469   0.817   4.515   3.261 -0.2927  0.5817  0.1329
  488TIP3    H1 1470   0.748   4.580   3.271 -2.3574 -1.0768 -2.0632
  488TIP3    H2 1471   0.776   4.433   3.288  0.6937 -0.4838 -1.4063
  489TIP3   OH2 1472   5.431   5.291   4.922  0.3048 -0.0385 -0.0590
  489TIP3    H1 1473   5.512   5.341   4.928  0.6473 -0.5763 -0.0689
  489TIP3    H2 1474   5.394   5.316   4.837  1.1562 -0.7875 -0.6751
  490TIP3   OH2 1475   2.998   3.049   0.383 -0.3917 -0.5622 -0.6450
  490TIP3    H1 1476   3.059   3.070   0.454 -0.5257 -2.1630 -0.0027
  490TIP3    H2 1477   3.038   2.975   0.337 -0.4491  0.2646 -2.0804
  491TIP3   OH2 1478   2.842   4.539   0.182  0.2645 -0.0780 -0.0636
  491TIP3    H1 1479   2.879   4.627   0.176 -0.1222  0.0936 -0.0178
  491TIP3    H2 1480   2.783   4.543   0.257  0.2417 -0.3763 -0.0641
  492TIP3   OH2 1481   3.359   0.239   5.139  0.5059 -0.3002 -0.1730
  492TIP3    H1 1482   3.433   0.180   5.157  0.5463 -0.0508  0.5230
  492TIP3    H2 1483   3.313   0.245   5.223  1.5701  2.1497  0.3043
  493TIP3   OH2 1484   5.278   0.475   0.127  0.0084 -0.4554  0.6130
  493TIP3    H1 1485   5.313   0.445   0.043  0.1050 -1.5067  1.0072
  493TIP3    H2 1486   5.223   0.550   0.105  0.9023 -0.0320 -0.2546
  494TIP3   OH2 1487   1.399   3.864   3.847 -0.0172 -0.3632  0.0920
  494TIP3    H1 1488   1.359   3.842   3.931 -0.4448 -1.2673 -0.3308
  494TIP3    H2 1489   1.484   3.821   3.849  1.1917  1.9249  1.1712
  495TIP3   OH2 1490   4.498   2.654   2.717  0.3228  0.2600  0.0693
  495TIP3    H1 1491   4.413   2.627   2.752 -0.0154  0.4344 -0.5946
  495TIP3    H2 1492   4.495   2.627   2.625 -0.1611  2.8030 -0.7269
  496TIP3   OH2 1493   6.179   4.615   0.309  0.2571  0.0703 -0.5802
  496TIP3    H1 1494   6.103   4.635   0.365  0.6028  2.2516 -0.7948
  496TIP3    H2 1495   6.141   4.583   0.228 -0.4328  0.5572 -0.4624
  497TIP3   OH2 1496   1.503   2.843   3.203 -0.1464  0.2524  0.1358
  497TIP3    H1 1497   1.542   2.755   3.208 -0.3259  0.0529 -1.4315
  497TIP3    H2 1498   1.439   2.837   3.132 -1.9932  0.9896  1.6710
  498TIP3   OH2 1499   2.546   4.365   1.457  0.2198  0.5466 -0.3149
  498TIP3    H1 1500   2.519   4.343   1.546  0.4388 -1.0050 -0.5977
  498TIP3    H2 1501   2.641   4.368   1.461  0.1939  3.1563  0.0503
  499TIP3   OH2 1502   4.571   5.824   0.927  0.0228 -0.0079 -0.6806
  499TIP3    H1 1503   4.574   5.758   0.857 -0.2364 -0.0316 -0.6682
  499TIP3    H2 1504   4.632   5.791   0.993 -0.0531 -0.2023 -0.7059
  500TIP3   OH2 1505   5.505   1.889   4.517 -0.0240  0.3373  0.1037
  500TIP3    H1 1506   5.585   1.867   4.468  0.9790  1.7203  1.0484
  500TIP3    H2 1507   5.469   1.965   4.472  0.8962  1.6083  1.4279
  501TIP3   OH2 1508   2.828   0.833   0.131 -0.1437 -0.6465 -0.4365
  501TIP3    H1 1509   2.882   0.825   0.211 -0.3113 -1.1965 -0.3766
  501TIP3    H2 1510   2.771   0.756   0.133 -1.4112  0.2686 -0.1554
  502TIP3   OH2 1511   1.749   3.400   3.394  0.2151  0.5213 -0.0873
  502TIP3    H1 1512   1.694   3.478   3.403 -0.3317  0.2090 -0.6530
  502TIP3    H2 1513   1.802   3.399   3.474  0.7814  1.8856 -0.4179
  503TIP3   OH2 1514   5.712   1.603   0.004  0.2342  0.1581 -0.0919
  503TIP3    H1 1515   5.702   1.661   0.080  2.9573 -0.3605  0.7853
  503TIP3    H2 1516   5.684   1.517   0.037 -2.7905  0.6166 -1.0875
  504TIP3   OH2 1517   1.955   2.586   2.542  0.6051 -0.4018  0.4902
  504TIP3    H1 1518   1.911   2.671   2.538  2.4245  0.5612 -0.8641
  504TIP3    H2 1519   1.890   2.523   2.513 -0.4545  0.6853  0.4403
  505TIP3   OH2 1520   3.845   4.571   3.219 -0.1693  0.2970 -0.8281
  505TIP3    H1 1521   3.837   4.616   3.135 -0.7244  0.6570 -0.5869
  505TIP3    H2 1522   3.929   4.526   3.214  0.7407  1.9184 -0.7933
  506TIP3   OH2 1523   0.746   5.260   2.043  0.5246  0.3545 -0.2036
  506TIP3    H1 1524   0.659   5.275   2.080  0.4109  0.3542 -0.4675
  506TIP3    H2 1525   0.746   5.309   1.961 -0.6216 -2.7577 -2.2312
  507TIP3   OH2 1526   3.452   4.821   3.564 -0.0409  0.2370  0.6012
  507TIP3    H1 1527   3.450   4.731   3.533  2.0429  0.0261  0.9141
  507TIP3    H2 1528   3.454   4.813   3.660  1.0234  0.5667  0.6132
  508TIP3   OH2 1529   0.123   1.344   1.745  0.6731 -0.4148  0.5995
  508TIP3    H1 1530   0.195   1.285   1.768  0.4261 -0.5156  1.1342
  508TIP3    H2 1531   0.130   1.416   1.807  1.6938  0.7531 -0.7984
  509TIP3   OH2 1532   0.304   0.640   0.436 -0.6386 -0.0148  0.2340
  509TIP3    H1 1533   0.389   0.598   0.448 -1.0164 -0.9967 -0.3702
  509TIP3    H2 1534   0.311   0.723   0.483  0.5411 -0.2227  0.4534
  510TIP3   OH2 1535   1.555   0.944   0.135 -0.7653  0.2928  0.4238
  510TIP3    H1 1536   1.544   0.870   0.194  0.3091  1.0336  1.6084
  510TIP3    H2 1537   1.638   0.984   0.161 -1.7545  2.4845  0.5277
  511TIP3   OH2 1538   3.532   4.001   3.426 -0.0303 -0.5564 -0.3154
  511TIP3    H1 1539   3.588   3.924   3.434 -1.9378 -1.9868 -0.1150
  511TIP3    H2 1540   3.477   3.983   3.350 -0.6095  0.5423 -0.1730
  512TIP3   OH2 1541   4.091   1.021   4.920  0.0294  0.0893  0.7759
  512TIP3    H1 1542   4.043   1.042   5.000  1.1924  2.1225  1.0011
  512TIP3    H2 1543   4.023   0.998   4.857 -1.0137  0.0234  1.8887
  513TIP3   OH2 1544   0.656   5.743   3.626 -0.6822 -0.1774  0.6353
  513TIP3    H1 1545   0.749   5.746   3.603 -1.0742  1.1280 -0.9542
  513TIP3    H2 1546   0.651   5.794   3.707 -0.1535  0.7199  0.1268
  514TIP3   OH2 1547   0.909   1.979   3.584  0.1972 -1.3896  0.4455
  514TIP3    H1 1548   0.887   2.056   3.532  0.4060 -0.9738  0.9625
  514TIP3    H2 1549   0.825   1.943   3.611  0.0515 -2.1954 -1.0063
  515TIP3   OH2 1550   1.525   2.158   3.323  0.1544  0.2966 -0.3878
  515TIP3    H1 1551   1.594   2.193   3.380 -0.3518 -1.0944  1.1620
  515TIP3    H2 1552   1.490   2.083   3.371 -0.5212 -0.7648 -2.4245
  516TIP3   OH2 1553   1.467   4.035   3.140 -0.2109  0.1024  0.0156
  516TIP3    H1 1554   1.451   4.119   3.096 -0.0738  0.5567  0.8162
  516TIP3    H2 1555   1.495   4.059   3.228  0.4106 -0.7797  0.0714
  517TIP3   OH2 1556   5.563   1.997   1.764 -0.5083 -0.0698  0.3221
  517TIP3    H1 1557   5.512   1.991   1.684  0.9483 -0.9445 -0.5983
  517TIP3    H2 1558   5.502   2.030   1.830 -1.7522  0.6124 -1.1248
  518TIP3   OH2 1559   4.562   3.570   2.386  0.3395  0.3736 -0.1936
  518TIP3    H1 1560   4.548   3.486   2.429 -0.5163  1.2473  1.2898
  518TIP3    H2 1561   4.507   3.567   2.307  0.2222 -0.3882 -0.0879
  519TIP3   OH2 1562   1.672  -0.019   2.542  0.1862  0.3980 -0.1113
  519TIP3    H1 1563   1.728   0.059   2.543  0.8260 -0.0502  0.8144
  519TIP3    H2 1564   1.590   0.011   2.504  0.3447  1.5888  0.4281
  520TIP3   OH2 1565   3.940   0.686   4.943 -0.2974  0.1413  0.1488
  520TIP3    H1 1566   3.958   0.699   5.037  1.2023  0.7467 -0.1891
  520TIP3    H2 1567   3.921   0.774   4.911 -0.2999  0.0113 -0.2038
  521TIP3   OH2 1568  -0.009   1.893   4.821 -0.0629 -0.3624 -0.2473
  521TIP3    H1 1569   0.039   1.926   4.745  1.4575  0.2419  0.9235
  521TIP3    H2 1570   0.049   1.826   4.859 -0.1641  0.3007  1.1366
  522TIP3   OH2 1571   4.610   3.968   4.142  0.2155 -0.2332  0.1205
  522TIP3    H1 1572   4.523   3.953   4.104  0.0496 -1.2943  0.8689
  522TIP3    H2 1573   4.592   4.019   4.221  0.2349 -0.7274  0.4462
  523TIP3   OH2 1574   4.160   4.752   2.704 -0.5576 -0.0823 -0.3386
  523TIP3    H1 1575   4.180   4.667   2.743 -1.3200 -0.1707 -0.1230
  523TIP3    H2 1576   4.197   4.748   2.616 -0.2747 -0.5023 -0.2029
  524TIP3   OH2 1577   2.467   2.962   3.045  0.0426 -0.1752  0.0049
  524TIP3    H1 1578   2.524   2.921   3.110  0.8879 -0.8215 -1.1036
  524TIP3    H2 1579   2.526   2.987   2.973 -0.3015  3.5291  0.7938
  525TIP3   OH2 1580   1.735   2.989   3.030 -0.2618  0.0370  0.3774
  525TIP3    H1 1581   1.646   2.970   3.061  0.4272 -0.5124  2.1632
  525TIP3    H2 1582   1.789   2.989   3.109  1.3561  0.3000 -0.6634
  526TIP3   OH2 1583   1.467   0.333   3.538 -0.0794  1.0830 -0.3035
  526TIP3    H1 1584   1.502   0.251   3.504 -1.0684  0.2106  0.6834
  526TIP3    H2 1585   1.516   0.349   3.618  0.6512  1.8831 -0.9074
  527TIP3   OH2 1586   3.541   1.991   0.465 -0.3140  0.1785 -0.3105
  527TIP3    H1 1587   3.593   1.911   0.456 -1.3897 -0.9138  2.2985
  527TIP3    H2 1588   3.590   2.045   0.526 -0.3755  0.8468 -0.8387
  528TIP3   OH2 1589   5.091   1.896   1.387 -0.0590  0.1858 -0.3878
  528TIP3    H1 1590   5.146   1.819   1.400 -1.5050 -1.1658 -1.7657
  528TIP3    H2 1591   5.071   1.895   1.293 -0.3636  2.0927 -0.3855
  529TIP3   OH2 1592   3.746  -0.022   4.620 -0.1094 -0.0310 -0.2569
  529TIP3    H1 1593   3.769  -0.008   4.528  0.7173  0.5548  0.0181
  529TIP3    H2 1594   3.667   0.031   4.633 -0.9919 -1.1375 -0.9341
  530TIP3   OH2 1595   5.774   1.943   4.294 -0.1651 -0.1739  0.6827
  530TIP3    H1 1596   5.812   1.856   4.290 -0.9061 -0.4642 -0.8506
  530TIP3    H2 1597   5.845   2.000   4.324  0.7238 -1.0873  0.3275
  531TIP3   OH2 1598   2.590   0.217   1.794 -0.1264  0.1549  0.3147
  531TIP3    H1 1599   2.581   0.268   1.714  1.5680 -2.3191 -1.6223
  531TIP3    H2 1600   2.678   0.238   1.826 -0.6797  0.8988  1.4087
  532TIP3   OH2 1601   3.736   2.899   1.951  0.1622 -0.3591 -0.7457
  532TIP3    H1 1602   3.765   2.981   1.911  1.2408  0.8237  2.1409
  532TIP3    H2 1603   3.640   2.904   1.948  0.2152  0.2727 -1.9231
  533TIP3   OH2 1604   2.211   3.059   1.369 -0.4973  0.4316 -0.1065
  533TIP3    H1 1605   2.225   3.029   1.459  1.1180  0.3589 -0.3534
  533TIP3    H2 1606   2.252   2.992   1.314  0.2526  1.4259 -0.8017
  534TIP3   OH2 1607   3.635   4.382   1.387 -0.8280 -0.0714  0.0338
  534TIP3    H1 1608   3.643   4.336   1.304 -0.4504 -0.2554  0.1683
  534TIP3    H2 1609   3.605   4.315   1.449  0.5006 -0.3435  0.4069
  535TIP3   OH2 1610   4.675   0.587   0.846  0.2080 -0.3639 -0.0552
  535TIP3    H1 1611   4.635   0.581   0.933 -0.3098 -0.5683 -0.2986
  535TIP3    H2 1612   4.765   0.557   0.859 -0.5047 -2.7507 -0.0022
  536TIP3   OH2 1613   0.032   0.741   4.377 -0.4968 -0.0418 -0.0073
  536TIP3    H1 1614   0.028   0.645   4.373 -0.9232  0.0172 -1.9823
  536TIP3    H2 1615  -0.051   0.770   4.338 -0.8596  1.1647  1.5407
  537TIP3   OH2 1616   5.143   3.642   0.317 -0.4767 -0.0569 -0.4632
  537TIP3    H1 1617   5.112   3.560   0.279 -0.4584 -0.8463  1.1315
  537TIP3    H2 1618   5.115   3.710   0.255 -0.9282 -1.2152 -1.5635
  538TIP3   OH2 1619   1.560   4.133   3.405  0.5320 -0.0589  0.4470
  538TIP3    H1 1620   1.641   4.182   3.389  0.5539 -0.6717 -1.5284
  538TIP3    H2 1621   1.582   4.077   3.480  1.7628  0.1579  0.2782
  539TIP3   OH2 1622   1.910   3.757   3.706  0.4835  0.0539  0.0622
  539TIP3    H1 1623   1.968   3.805   3.765 -0.5111  1.3612  0.0149
  539TIP3    H2 1624   1.821   3.780   3.734 -0.0197 -0.8197 -0.7252
  540TIP3   OH2 1625   2.469   1.306   4.085 -0.2837  0.5093  0.1881
  540TIP3    H1 1626   2.461   1.367   4.159  1.8078  0.2850  0.6578
  540TIP3    H2 1627   2.428   1.352   4.012 -0.6632  1.5685  1.0328
  541TIP3   OH2 1628   2.912   0.120   3.476  0.6269 -0.7992 -0.0772
  541TIP3    H1 1629   2.819   0.099   3.473  0.5250 -0.2363 -1.1707
  541TIP3    H2 1630   2.919   0.185   3.546 -0.1482  0.7080 -1.3413
  542TIP3   OH2 1631   3.299   4.488   2.924 -0.8795 -0.2529  0.0365
  542TIP3    H1 1632   3.273   4.551   2.856  0.4425  0.7892  0.4481
  542TIP3    H2 1633   3.369   4.533   2.972 -1.3208 -1.2349  1.6634
  543TIP3   OH2 1634   4.827   1.122   0.953  0.2663 -0.2847  0.2889
  543TIP3    H1 1635   4.779   1.203   0.935 -0.5008 -0.6009  0.8838
  543TIP3    H2 1636   4.773   1.053   0.915  1.4912 -0.4430 -1.2756
  544TIP3   OH2 1637   2.979   0.030   4.875  0.5272 -0.4170 -0.0044
  544TIP3    H1 1638   2.900   0.038   4.927 -0.8191  1.8774 -2.1978
  544TIP3    H2 1639   3.034  -0.031   4.924 -2.4300 -1.8742  1.7583
  545TIP3   OH2 1640   1.532   4.921   5.197  0.2420  0.1467  0.4049
  545TIP3    H1 1641   1.472   4.877   5.137  1.5777 -0.8760 -0.2594
  545TIP3    H2 1642   1.523   5.014   5.178 -0.2614 -0.0827 -0.5209
  546TIP3   OH2 1643   3.200   2.986   2.531 -0.4245 -0.0846  0.1947
  546TIP3    H1 1644   3.137   2.925   2.493  0.4730  0.1482 -1.7881
  546TIP3    H2 1645   3.147   3.042   2.588 -2.3861  1.1342 -2.5842
  547TIP3   OH2 1646   3.257   1.246   0.864 -0.1270  0.4107 -0.5395
  547TIP3    H1 1647   3.213   1.204   0.791  2.3331  0.0359 -1.9270
  547TIP3    H2 1648   3.322   1.182   0.894  0.6498  1.5154  0.2632
  548TIP3   OH2 1649   2.998   5.075   4.624  0.0306  0.4050 -0.3542
  548TIP3    H1 1650   2.980   5.091   4.531  0.8051  2.8223 -0.1537
  548TIP3    H2 1651   2.911   5.077   4.665 -0.3544 -1.0393 -1.0314
  549TIP3   OH2 1652   3.761   1.132   2.557  0.1658 -0.6382  0.3502
  549TIP3    H1 1653   3.830   1.088   2.508  0.8704  1.3095 -0.4920
  549TIP3    H2 1654   3.800   1.214   2.587 -1.3162 -0.1900  1.2036
  550TIP3   OH2 1655   5.418   4.990   3.988 -0.0770 -0.2163  0.8140
  550TIP3    H1 1656   5.428   4.895   3.996  0.8041 -0.2213 -0.0962
  550TIP3    H2 1657   5.460   5.011   3.905 -2.2307  0.6856 -0.1283
  551TIP3   OH2 1658   3.923   3.019   0.502 -0.6239 -0.2133 -0.0117
  551TIP3    H1 1659   3.893   3.074   0.430 -1.0143 -1.3911 -0.7870
  551TIP3    H2 1660   3.862   3.038   0.574  0.0141  1.2644  0.1707
  552TIP3   OH2 1661   1.236   0.647   5.087 -0.3411  0.0341 -0.2056
  552TIP3    H1 1662   1.183   0.726   5.097 -1.3719 -0.6861  0.2444
  552TIP3    H2 1663   1.326   0.679   5.078 -0.7159  1.2411  0.1362
  553TIP3   OH2 1664   0.697   2.454   3.669  0.2958 -0.3059  0.4722
  553TIP3    H1 1665   0.678   2.547   3.684  0.6315 -0.3996  1.5558
  553TIP3    H2 1666   0.624   2.424   3.614  0.8142  0.8577 -0.9413
  554TIP3   OH2 1667   1.506   4.608   4.357 -0.3328  0.3612  0.1878
  554TIP3    H1 1668   1.521   4.585   4.449 -0.4101  1.6998  0.5520
  554TIP3    H2 1669   1.434   4.552   4.330  0.8661 -1.3728  0.3863
  555TIP3   OH2 1670   3.141   1.681   3.996 -0.4763  0.5143  0.0351
  555TIP3    H1 1671   3.126   1.646   3.908  0.7347 -1.0928  0.4159
  555TIP3    H2 1672   3.152   1.604   4.051 -1.0179  1.4947  1.5831
  556TIP3   OH2 1673   1.978   0.522   3.685  0.9977 -0.4611  0.3583
  556TIP3    H1 1674   1.983   0.591   3.751 -1.2367  0.3194 -0.1944
  556TIP3    H2 1675   2.002   0.564   3.603  0.1134 -0.4432  0.0983
  557TIP3   OH2 1676   5.553   2.141   0.648  0.1545  0.1475  0.5259
  557TIP3    H1 1677   5.515   2.054   0.631 -0.7078  0.6887 -0.4163
  557TIP3    H2 1678   5.551   2.149   0.743 -1.8622  0.0277  0.5281
  558TIP3   OH2 1679   4.228   2.588   1.096 -0.2451 -0.2791  0.5989
  558TIP3    H1 1680   4.314   2.576   1.136 -0.7940 -0.6941  1.7007
  558TIP3    H2 1681   4.246   2.627   1.011  1.2704 -3.1520 -0.5549
  559TIP3   OH2 1682   5.829   5.769   0.430  0.5286 -0.4442  0.2290
  559TIP3    H1 1683   5.761   5.776   0.363  0.9847 -0.3709 -0.2373
  559TIP3    H2 1684   5.845   5.859   0.457  1.9494 -0.2120 -1.2248
  560TIP3   OH2 1685   3.976   5.592   0.292 -0.0882  0.1246  0.2787
  560TIP3    H1 1686   3.995   5.676   0.251 -0.5631  0.0296 -0.1582
  560TIP3    H2 1687   4.016   5.597   0.378  1.2486  0.2001 -0.3218
  561TIP3   OH2 1688   0.772   1.251   2.502 -0.1157 -0.5072 -0.3935
  561TIP3    H1 1689   0.821   1.207   2.572  0.2967 -0.6636 -0.7762
  561TIP3    H2 1690   0.681   1.250   2.532  0.3233  1.4352  1.1892
  562TIP3   OH2 1691   0.883   4.397   4.256  0.6685 -0.5968 -0.3860
  562TIP3    H1 1692   0.797   4.386   4.297  1.3013  1.0144  1.5882
  562TIP3    H2 1693   0.923   4.310   4.260  0.1244 -0.8124  1.1449
  563TIP3   OH2 1694   3.113   4.466   0.182  0.2461  0.3163  0.3279
  563TIP3    H1 1695   3.041   4.476   0.244  2.8069  1.8791  3.2546
  563TIP3    H2 1696   3.097   4.534   0.116 -2.2529 -1.0742 -0.6842
  564TIP3   OH2 1697   3.734   1.793   2.776 -0.0131 -0.1748 -0.0055
  564TIP3    H1 1698   3.828   1.793   2.762 -0.0096 -0.6288 -0.0171
  564TIP3    H2 1699   3.702   1.870   2.730  0.4252  0.3329  0.5325
  565TIP3   OH2 1700   6.350   3.018   1.267  0.0087  0.3462  0.1291
  565TIP3    H1 1701   6.319   3.002   1.177 -1.2572  2.3418  0.1594
  565TIP3    H2 1702   6.359   3.113   1.273  1.7710  0.1308  1.6091
  566TIP3   OH2 1703   2.132   5.491   3.704  0.0853  0.4550 -0.4233
  566TIP3    H1 1704   2.129   5.396   3.715 -1.9227  0.3797 -1.2704
  566TIP3    H2 1705   2.207   5.505   3.646 -0.2593 -0.7304 -1.1975
  567TIP3   OH2 1706   5.187   1.305   1.910  0.4347 -0.2429  0.2738
  567TIP3    H1 1707   5.135   1.379   1.878 -0.6302 -0.5958  1.1014
  567TIP3    H2 1708   5.122   1.236   1.928  1.1934 -0.7345  1.2545
  568TIP3   OH2 1709   4.557   1.188   4.962 -0.6613  0.3118 -0.1015
  568TIP3    H1 1710   4.549   1.176   5.056 -1.9430  0.3690 -0.1807
  568TIP3    H2 1711   4.491   1.129   4.924  0.6917 -0.6606 -1.0340
  569TIP3   OH2 1712   2.852   3.906   2.244 -0.2722  0.1393 -0.7114
  569TIP3    H1 1713   2.927   3.899   2.302 -1.0403  0.1321  0.3050
  569TIP3    H2 1714   2.865   3.836   2.180  1.1466  0.8449 -1.2533
  570TIP3   OH2 1715   3.867   4.924   3.885  0.5463 -0.3594  0.5437
  570TIP3    H1 1716   3.821   4.985   3.828  1.1575 -0.7514 -0.3897
  570TIP3    H2 1717   3.867   4.967   3.971 -0.1536  0.3564  0.2000
  571TIP3   OH2 1718   3.543   3.308   3.600  0.4583 -0.2343 -1.0246
  571TIP3    H1 1719   3.601   3.337   3.670 -0.3169 -0.4200 -0.2914
  571TIP3    H2 1720   3.470   3.370   3.602  0.2611 -0.4472 -1.4471
  572TIP3   OH2 1721   5.857   0.705   2.580  0.7822 -0.0096 -0.4437
  572TIP3    H1 1722   5.946   0.678   2.559  0.5387 -0.3434 -1.0762
  572TIP3    H2 1723   5.806   0.683   2.502 -0.1500 -1.2320  0.4671
  573TIP3   OH2 1724   0.976   5.157   1.728 -0.1096 -0.5944 -0.1768
  573TIP3    H1 1725   1.033   5.122   1.660  2.4347  1.6158  0.6281
  573TIP3    H2 1726   1.010   5.245   1.745 -1.4437 -0.5542  3.0203
  574TIP3   OH2 1727   1.769   0.936   3.461 -0.4526  0.3526  0.3323
  574TIP3    H1 1728   1.707   0.866   3.480 -0.6289 -0.0130 -1.4557
  574TIP3    H2 1729   1.832   0.932   3.533 -0.8835 -1.1483  0.6565
  575TIP3   OH2 1730   2.147   0.173   5.139  0.2103  0.1002 -0.1259
  575TIP3    H1 1731   2.149   0.103   5.074  0.6703  0.5349 -0.5874
  575TIP3    H2 1732   2.062   0.163   5.183  0.4605 -1.0192  0.1300
  576TIP3   OH2 1733   0.264   0.057   1.065  0.0952 -0.0715  0.0685
  576TIP3    H1 1734   0.342   0.102   1.096  0.5536 -0.8412  0.0729
  576TIP3    H2 1735   0.298  -0.024   1.025 -0.7655 -0.9319  1.0218
  577TIP3   OH2 1736   2.714   3.577   0.400  0.2889  0.2494 -0.3858
  577TIP3    H1 1737   2.777   3.598   0.469 -0.1666  0.2624  0.0410
  577TIP3    H2 1738   2.652   3.517   0.443  0.1425  0.0564 -0.8601
  578TIP3   OH2 1739   6.236   2.046   0.732 -0.1922  0.2752  0.3704
  578TIP3    H1 1740   6.248   2.141   0.741 -0.4232  0.1692  2.2313
  578TIP3    H2 1741   6.142   2.035   0.720 -0.1875  0.2875  0.3249
  579TIP3   OH2 1742   3.224   4.484   2.027 -0.2832  0.7087  0.3125
  579TIP3    H1 1743   3.215   4.462   2.120  1.1368 -1.4234  0.0309
  579TIP3    H2 1744   3.305   4.440   2.000 -0.9039  0.8683 -2.0531
  580TIP3   OH2 1745   4.933   3.602   4.634  0.4048  0.6389  0.1888
  580TIP3    H1 1746   4.932   3.516   4.675  1.2550  0.8775  0.7425
  580TIP3    H2 1747   4.917   3.584   4.541 -0.5247  0.0011  0.4564
  581TIP3   OH2 1748   3.002   1.942   4.031  0.0921 -0.4641  0.6337
  581TIP3    H1 1749   3.009   1.849   4.008  0.5349 -0.4896  0.8621
  581TIP3    H2 1750   2.946   1.943   4.109 -1.8753 -0.3309 -0.7209
  582TIP3   OH2 1751   0.915   3.609   0.263 -0.2896 -0.1815 -0.1358
  582TIP3    H1 1752   0.936   3.613   0.356  1.5225  0.1113 -0.5212
  582TIP3    H2 1753   0.821   3.626   0.258  0.0377  2.5922  1.4407
  583TIP3   OH2 1754   3.575   4.057   2.562  0.3388  0.4981 -0.1618
  583TIP3    H1 1755   3.581   4.032   2.470  1.1250  2.2445 -0.6455
  583TIP3    H2 1756   3.624   4.139   2.567  2.0897 -0.5634  2.2145
  584TIP3   OH2 1757   4.862   4.133   0.512  0.0239  0.2408 -0.2474
  584TIP3    H1 1758   4.877   4.216   0.558  3.0049 -1.5307  2.4536
  584TIP3    H2 1759   4.784   4.097   0.553  0.6886  0.2579  1.1149
  585TIP3   OH2 1760   1.620   4.150   1.122 -0.1058 -0.3486  0.6401
  585TIP3    H1 1761   1.601   4.130   1.030 -0.1054 -1.1773  0.8128
  585TIP3    H2 1762   1.537   4.183   1.156 -0.4119 -1.0583  0.6088
  586TIP3   OH2 1763   2.994   3.865   4.457 -0.6601  0.1254  0.3448
  586TIP3    H1 1764   2.995   3.905   4.543 -0.7930  0.5545  0.1505
  586TIP3    H2 1765   2.918   3.807   4.458 -3.6729  3.6377 -1.0132
  587TIP3   OH2 1766   5.353   5.308   4.384 -0.0467  0.0612 -0.1787
  587TIP3    H1 1767   5.411   5.364   4.334  0.8904 -1.1499 -0.5111
  587TIP3    H2 1768   5.281   5.288   4.324  0.8293 -0.9931 -0.9393
  588TIP3   OH2 1769   3.502   1.447   1.264 -0.4897 -0.2544  0.2016
  588TIP3    H1 1770   3.432   1.463   1.201 -2.1650 -0.0214  2.0444
  588TIP3    H2 1771   3.495   1.519   1.327  1.1479 -0.4644  0.6806
  589TIP3   OH2 1772   0.977   1.633   3.789 -0.3926 -0.3550  1.2502
  589TIP3    H1 1773   1.030   1.590   3.857  0.3769 -1.3254  0.0873
  589TIP3    H2 1774   0.938   1.561   3.740  0.6665  0.2295 -0.5617
  590TIP3   OH2 1775   1.165   1.287   0.760  0.3601 -0.3122  0.0875
  590TIP3    H1 1776   1.241   1.249   0.804  1.3192  0.0257 -1.1900
  590TIP3    H2 1777   1.153   1.233   0.682 -0.3140  0.0310 -0.0537
  591TIP3   OH2 1778   2.554   4.987   3.909  0.1203 -0.2582 -0.5159
  591TIP3    H1 1779   2.565   5.072   3.866 -0.0665  0.8230  1.4641
  591TIP3    H2 1780   2.491   5.004   3.979  1.6145 -1.5199  1.2249
  592TIP3   OH2 1781   5.155   4.137   4.672  0.2046  0.0968 -0.1252
  592TIP3    H1 1782   5.228   4.197   4.657 -0.6170  1.0087 -0.5990
  592TIP3    H2 1783   5.192   4.050   4.661  1.5245  0.4888  0.9678
  593TIP3   OH2 1784   2.184   5.913   1.222  0.3602 -0.1862  0.4568
  593TIP3    H1 1785   2.133   5.994   1.229  0.3463 -0.0443 -0.9268
  593TIP3    H2 1786   2.197   5.902   1.127  0.2218 -1.8897  0.6187
  594TIP3   OH2 1787   3.689   2.785   3.578  0.0972 -0.0424  0.4597
  594TIP3    H1 1788   3.630   2.802   3.651 -1.3540  0.3171 -0.7470
  594TIP3    H2 1789   3.703   2.870   3.538  0.0391 -0.3799 -0.2914
  595TIP3   OH2 1790   6.219   5.220   2.400  0.4394 -0.4871  0.2583
  595TIP3    H1 1791   6.280   5.156   2.362 -0.4343 -1.1142 -0.1200
  595TIP3    H2 1792   6.147   5.167   2.433 -1.6629  0.4041 -2.5041
  596TIP3   OH2 1793   1.298   2.192   4.977  0.1823  0.0756  0.4744
  596TIP3    H1 1794   1.264   2.194   4.888  1.4641  0.2899 -0.0411
  596TIP3    H2 1795   1.305   2.284   5.003 -1.4492 -0.0115  1.3301
  597TIP3   OH2 1796   1.929   4.736   0.171  0.5597  0.2840 -0.3414
  597TIP3    H1 1797   1.865   4.713   0.103  0.6027 -0.3133 -0.1850
  597TIP3    H2 1798   2.004   4.679   0.154  1.5503  1.7871 -1.2405
  598TIP3   OH2 1799   4.299   2.696   3.863 -0.0311  0.1250  0.2828
  598TIP3    H1 1800   4.383   2.671   3.902 -0.3162  1.1036  1.6047
  598TIP3    H2 1801   4.262   2.759   3.925 -1.6396 -0.1111 -0.3902
  599TIP3   OH2 1802   2.335   5.413   2.496  0.0891  0.1131 -0.6012
  599TIP3    H1 1803   2.396   5.422   2.569 -2.1756  2.4679  1.1783
  599TIP3    H2 1804   2.300   5.501   2.481 -1.6125 -0.7957 -2.6583
  600TIP3   OH2 1805   1.017   2.209   0.106  0.1464 -0.1592  0.5258
  600TIP3    H1 1806   1.000   2.302   0.122  2.3056 -0.0206  2.4283
  600TIP3    H2 1807   0.990   2.166   0.188 -0.7757 -1.2478 -0.3172
  601TIP3   OH2 1808   3.734   2.010   1.733 -0.3462  0.2455 -0.7388
  601TIP3    H1 1809   3.697   1.980   1.816  1.2047 -1.2541 -0.5340
  601TIP3    H2 1810   3.727   1.934   1.674 -1.1586  1.1934 -1.9334
  602TIP3   OH2 1811   1.972   1.929   4.322  0.0962 -0.0079 -0.0954
  602TIP3    H1 1812   1.897   1.980   4.351 -0.5666 -0.7942 -0.4110
  602TIP3    H2 1813   2.014   1.984   4.256 -1.1323 -0.2196 -1.0958
  603TIP3   OH2 1814  -0.009   0.131   0.161 -0.2719  0.6699 -0.3876
  603TIP3    H1 1815   0.072   0.083   0.145 -1.0321 -1.5089  1.6909
  603TIP3    H2 1816  -0.042   0.151   0.073  1.4664 -0.2374 -1.2988
  604TIP3   OH2 1817   2.747   3.034   0.278  0.1734 -0.0719  0.1247
  604TIP3    H1 1818   2.840   3.037   0.303  0.0587 -2.3544  1.0843
  604TIP3    H2 1819   2.719   3.126   0.278  2.1278  0.5810  0.9790
  605TIP3   OH2 1820   2.704   5.369   3.291 -0.2390 -0.0256  0.2850
  605TIP3    H1 1821   2.622   5.339   3.331  0.4875 -0.9731  1.1518
  605TIP3    H2 1822   2.717   5.456   3.327 -1.9523  1.0885 -1.5849
  606TIP3   OH2 1823   2.185   3.129   3.503 -0.0094  0.1503 -0.1665
  606TIP3    H1 1824   2.177   3.158   3.593 -2.1822  2.6797 -1.0220
  606TIP3    H2 1825   2.097   3.097   3.480  0.1568  0.6560 -1.6648
  607TIP3   OH2 1826   5.431   3.899   3.058 -0.1735  0.3676 -0.4081
  607TIP3    H1 1827   5.336   3.891   3.054  0.0218 -3.2758 -1.2198
  607TIP3    H2 1828   5.450   3.917   3.150 -1.6202  2.5810 -0.4718
  608TIP3   OH2 1829   3.368   5.313   4.578  0.4023  0.3243 -0.3013
  608TIP3    H1 1830   3.323   5.397   4.585 -1.8661 -0.8339 -0.1217
  608TIP3    H2 1831   3.370   5.294   4.484 -0.8109 -0.2593 -0.2285
  609TIP3   OH2 1832   5.094   1.745   4.451  0.4356 -0.2547  0.2585
  609TIP3    H1 1833   5.142   1.765   4.370  1.1078 -0.2889  0.6408
  609TIP3    H2 1834   5.032   1.677   4.425 -0.0460  0.4300 -0.4501
  610TIP3   OH2 1835   2.486   0.764   1.070 -0.1253  0.0407 -0.6946
  610TIP3    H1 1836   2.427   0.836   1.047 -0.7159 -0.7715 -1.7867
  610TIP3    H2 1837   2.551   0.805   1.127 -0.5110  1.4251 -1.1899
  611TIP3   OH2 1838   0.913   0.278   2.263  0.2411  0.5979 -0.8029
  611TIP3    H1 1839   0.923   0.231   2.180 -0.0641 -0.6863 -0.1377
  611TIP3    H2 1840   0.879   0.212   2.324 -0.1418  1.6765  0.1841
  612TIP3   OH2 1841   5.840   1.995   0.385  0.5119 -0.2712  0.2183
  612TIP3    H1 1842   5.865   2.002   0.292 -2.0724  0.0300 -0.5296
  612TIP3    H2 1843   5.893   1.923   0.418  1.1974 -0.6867 -1.6188
  613TIP3   OH2 1844   5.059   5.021   0.496 -0.3149 -0.1098  0.0402
  613TIP3    H1 1845   5.105   4.949   0.540  0.5923  0.0638 -0.6008
  613TIP3    H2 1846   5.033   4.984   0.411 -1.0570 -0.0952  0.2564
  614TIP3   OH2 1847   4.387   5.345   4.278 -0.3671 -0.2098  0.4552
  614TIP3    H1 1848   4.456   5.314   4.337  0.0069  1.6410  1.0554
  614TIP3    H2 1849   4.342   5.265   4.250 -0.6928 -1.1673  3.3851
  615TIP3   OH2 1850   4.156   2.597   2.090 -0.0255 -0.1882 -0.5250
  615TIP3    H1 1851   4.066   2.597   2.058 -0.3723  0.9753  0.3739
  615TIP3    H2 1852   4.203   2.654   2.030 -0.9208  2.9327  1.5080
  616TIP3   OH2 1853   5.955   0.383   0.633  0.3669  0.6092  0.2876
  616TIP3    H1 1854   5.922   0.330   0.561 -0.8053  1.3015  0.2858
  616TIP3    H2 1855   5.907   0.352   0.710  1.5979 -0.1148  0.7926
  617TIP3   OH2 1856   1.397   0.050   1.568  0.0923 -0.2532  0.2116
  617TIP3    H1 1857   1.460   0.120   1.583  0.4258 -0.4329 -0.3261
  617TIP3    H2 1858   1.423   0.011   1.485 -1.3956  0.3805 -0.5982
  618TIP3   OH2 1859   4.712   1.167   3.664  0.1267 -0.6470  0.2024
  618TIP3    H1 1860   4.686   1.254   3.692 -0.7988 -0.5418 -0.8939
  618TIP3    H2 1861   4.664   1.108   3.722  0.7659 -0.4463  0.9553
  619TIP3   OH2 1862   2.770   4.585   3.643 -0.2488 -0.4276  0.6223
  619TIP3    H1 1863   2.805   4.497   3.630 -1.6189 -1.0735  1.0475
  619TIP3    H2 1864   2.690   4.587   3.591  0.1559  0.8598 -0.0039
  620TIP3   OH2 1865   5.922   3.709   0.655 -0.3444 -0.0088 -0.0871
  620TIP3    H1 1866   5.857   3.773   0.627 -0.1266  1.2761  2.1110
  620TIP3    H2 1867   5.888   3.625   0.625 -1.8422  0.8837 -0.9882
  621TIP3   OH2 1868   0.363   2.596   0.169  0.3516 -0.1144  0.0976
  621TIP3    H1 1869   0.384   2.588   0.076 -1.8405 -0.5102 -0.4048
  621TIP3    H2 1870   0.363   2.690   0.187 -1.7708  0.1232 -0.9674
  622TIP3   OH2 1871   0.473   4.907   4.189  0.1797  1.1303 -0.3077
  622TIP3    H1 1872   0.528   4.851   4.244  0.9838  1.1532 -1.0709
  622TIP3    H2 1873   0.395   4.855   4.172 -0.1108  1.1480  0.9027
  623TIP3   OH2 1874   6.203   1.398   0.529  0.0854  0.2844 -0.4201
  623TIP3    H1 1875   6.234   1.485   0.556 -0.9623  0.9406 -1.2334
  623TIP3    H2 1876   6.122   1.416   0.481 -0.3760 -1.1879 -0.2285
  624TIP3   OH2 1877   0.499   5.772   3.351  0.4898 -0.4529 -0.2755
  624TIP3    H1 1878   0.564   5.799   3.286  0.7876 -1.6762 -0.5199
  624TIP3    H2 1879   0.550   5.729   3.419  0.0662 -0.1514  0.2376
  625TIP3   OH2 1880   3.669   5.080   0.767  0.0141  0.2946 -0.3110
  625TIP3    H1 1881   3.637   5.043   0.849  1.7949 -1.1096 -0.1787
  625TIP3    H2 1882   3.604   5.056   0.701 -0.0065 -1.0912  0.2043
  626TIP3   OH2 1883   5.512   5.893   1.120  0.3459  0.6851  0.5062
  626TIP3    H1 1884   5.577   5.837   1.078  1.7941  1.2381  1.8901
  626TIP3    H2 1885   5.549   5.981   1.114  0.6508  0.7774  2.8992
  627TIP3   OH2 1886   4.271   5.678   4.822  0.2758  0.2026 -0.2229
  627TIP3    H1 1887   4.290   5.636   4.738  0.0606  0.5205 -0.4347
  627TIP3    H2 1888   4.356   5.681   4.867  0.1875 -0.9682  0.0390
  628TIP3   OH2 1889   1.749   0.087   2.197 -0.2414 -0.2553  0.1783
  628TIP3    H1 1890   1.805   0.121   2.266  0.8531 -1.0753 -0.2674
  628TIP3    H2 1891   1.793   0.112   2.116 -0.2312 -1.3439 -0.1721
  629TIP3   OH2 1892   6.051   5.095   5.034  0.3080 -0.5864  0.0363
  629TIP3    H1 1893   5.970   5.088   5.085  1.3359 -0.8111  1.7268
  629TIP3    H2 1894   6.090   5.178   5.064  0.5016 -0.2657 -1.0761
  630TIP3   OH2 1895   3.871   2.661   1.974  0.3165  0.4742 -0.2974
  630TIP3    H1 1896   3.819   2.622   2.045  0.0959  0.9512 -0.1964
  630TIP3    H2 1897   3.822   2.739   1.949  0.2412  0.1615 -1.1707
  631TIP3   OH2 1898   5.444   3.491   4.879 -0.4983  0.0964  0.0699
  631TIP3    H1 1899   5.492   3.468   4.800 -0.8250  0.9283 -0.3784
  631TIP3    H2 1900   5.359   3.523   4.847 -1.7113 -2.0927  0.8541
  632TIP3   OH2 1901   1.674   4.530   4.966  0.4568  0.2223  0.0548
  632TIP3    H1 1902   1.735   4.604   4.963  1.3703 -0.4898  0.6213
  632TIP3    H2 1903   1.614   4.551   5.038  0.4493  0.5960 -0.0574
  633TIP3   OH2 1904   6.093   3.393   0.384  0.3390  0.3872  0.0221
  633TIP3    H1 1905   6.095   3.486   0.407  0.0881  0.3016  0.4005
  633TIP3    H2 1906   6.033   3.388   0.310  2.1654  0.8531 -1.5914
  634TIP3   OH2 1907   3.354   4.621   4.826 -0.0545 -1.2583  0.4311
  634TIP3    H1 1908   3.279   4.564   4.845 -0.4230 -0.5376  1.2263
  634TIP3    H2 1909   3.430   4.570   4.854 -0.3139 -1.6466  0.4443
  635TIP3   OH2 1910   5.792   3.485   0.382 -0.2065  0.2231  1.3299
  635TIP3    H1 1911   5.804   3.435   0.463 -1.2853 -2.9475 -0.3388
  635TIP3    H2 1912   5.703   3.520   0.389 -1.3029 -2.1826  0.5611
  636TIP3   OH2 1913   5.880   0.523   4.156  0.2871 -0.2694 -0.0144
  636TIP3    H1 1914   5.798   0.516   4.206  0.7870 -1.3559  0.7064
  636TIP3    H2 1915   5.923   0.438   4.169  1.1760  0.0035 -1.0127
  637TIP3   OH2 1916   0.111   5.579   0.682 -0.0825  0.5125  0.2431
  637TIP3    H1 1917   0.203   5.599   0.696  0.3465 -1.4385  0.5969
  637TIP3    H2 1918   0.089   5.622   0.600  1.5081  0.0295 -0.4833
  638TIP3   OH2 1919   5.970   3.828   4.578 -0.4125  0.1133 -0.1876
  638TIP3    H1 1920   6.012   3.744   4.558  0.6190  0.5840 -0.0848
  638TIP3    H2 1921   6.043   3.887   4.598 -1.2200  0.5120  1.7852
  639TIP3   OH2 1922   4.253   5.899   1.847  0.1058 -0.2881 -0.1845
  639TIP3    H1 1923   4.167   5.863   1.824 -0.8404  0.6365  1.6696
  639TIP3    H2 1924   4.295   5.829   1.898 -0.1882 -0.1909  0.1991
  640TIP3   OH2 1925   4.494   1.546   4.436 -0.7504 -0.5843  0.2821
  640TIP3    H1 1926   4.424   1.486   4.462  0.5544 -2.7122 -0.8190
  640TIP3    H2 1927   4.543   1.498   4.369  1.1750  1.2098  0.3047
  641TIP3   OH2 1928   5.354   1.619   2.286 -0.2177  0.0372  0.3617
  641TIP3    H1 1929   5.373   1.709   2.261 -1.6036  0.6589  1.4306
  641TIP3    H2 1930   5.430   1.591   2.336  0.6257  0.2740 -0.7539
  642TIP3   OH2 1931   1.391   3.058   4.999  0.1662  0.2751 -0.4995
  642TIP3    H1 1932   1.397   3.112   5.078  1.8907  0.0974 -0.4827
  642TIP3    H2 1933   1.371   2.970   5.031 -0.9777  0.5377 -0.4203
  643TIP3   OH2 1934   4.838   3.174   0.828 -0.0298 -0.2511 -0.5750
  643TIP3    H1 1935   4.762   3.117   0.838  0.3718 -0.7591 -0.3315
  643TIP3    H2 1936   4.909   3.126   0.871  0.4698  0.1271 -0.9718
  644TIP3   OH2 1937   0.433   4.663   4.667 -0.2728 -0.1346  0.0085
  644TIP3    H1 1938   0.501   4.707   4.718 -0.2816 -0.8218  0.6230
  644TIP3    H2 1939   0.445   4.570   4.685 -0.9390 -0.3153 -0.4250
  645TIP3   OH2 1940   3.517   1.415   2.081  0.1766  0.0425  0.2295
  645TIP3    H1 1941   3.436   1.464   2.062  0.5322  0.3759 -0.4851
  645TIP3    H2 1942   3.542   1.377   1.997  1.7978  1.5254 -0.0185
  646TIP3   OH2 1943   0.858   1.949   2.699  0.2271  0.4008 -0.2093
  646TIP3    H1 1944   0.814   2.024   2.739 -0.4504  1.3758 -2.5833
  646TIP3    H2 1945   0.932   1.988   2.651  0.8111 -0.6552 -0.1967
  647TIP3   OH2 1946   4.873   4.589   0.608 -0.8013 -0.3680 -0.0832
  647TIP3    H1 1947   4.859   4.681   0.630 -0.9021 -0.4916  0.3915
  647TIP3    H2 1948   4.825   4.575   0.527 -0.7984 -0.0070 -0.1457
  648TIP3   OH2 1949   5.892   3.575   0.122 -0.1973 -0.0366  0.0530
  648TIP3    H1 1950   5.910   3.505   0.058 -0.5306  1.3168 -1.5809
  648TIP3    H2 1951   5.844   3.531   0.192 -0.1690 -1.5001 -0.8015
  649TIP3   OH2 1952   4.484   0.404   0.630 -0.0118  0.0617 -0.0287
  649TIP3    H1 1953   4.525   0.393   0.544  0.1923  0.1101  0.0602
  649TIP3    H2 1954   4.491   0.317   0.671 -2.0336 -0.5507 -0.8770
  650TIP3   OH2 1955   4.286   0.428   3.631  0.8745  0.2052 -0.3467
  650TIP3    H1 1956   4.337   0.489   3.577  2.2801 -1.9163 -1.5662
  650TIP3    H2 1957   4.345   0.404   3.702 -0.7954  2.5928  2.0508
  651TIP3   OH2 1958   5.752   1.551   3.490  0.0213  0.0192 -0.0034
  651TIP3    H1 1959   5.734   1.492   3.563 -1.1451 -1.2991 -1.2969
  651TIP3    H2 1960   5.668   1.561   3.445  0.7849  0.4646 -1.3953
  652TIP3   OH2 1961   3.720   2.304   0.278  0.0828  0.3816 -0.4066
  652TIP3    H1 1962   3.629   2.285   0.255 -0.2882 -0.4726  1.5619
  652TIP3    H2 1963   3.759   2.218   0.294  0.8256  0.8122  0.1511
  653TIP3   OH2 1964   1.922   4.669   1.798 -0.1196  0.6259 -0.0127
  653TIP3    H1 1965   1.851   4.655   1.862  0.6611  0.6470  0.8772
  653TIP3    H2 1966   1.991   4.711   1.848  0.3669  1.0037 -0.9798
  654TIP3   OH2 1967   3.476   1.781   5.132 -0.1999  0.6980 -0.3783
  654TIP3    H1 1968   3.391   1.753   5.098 -0.0591 -0.0476 -0.1254
  654TIP3    H2 1969   3.454   1.838   5.206 -0.5100 -1.6864  1.4844
  655TIP3   OH2 1970   4.208   4.683   5.123  0.0600 -0.3381  0.0917
  655TIP3    H1 1971   4.237   4.766   5.161  0.5585  0.2272 -1.4528
  655TIP3    H2 1972   4.280   4.622   5.141 -0.3325 -0.4606  1.2811
  656TIP3   OH2 1973   0.707   0.488   4.435  0.7782  0.3296  0.4592
  656TIP3    H1 1974   0.648   0.421   4.399 -0.6198  1.0453  1.3462
  656TIP3    H2 1975   0.708   0.557   4.369  0.4834  0.3818  0.5066
  657TIP3   OH2 1976   3.514   2.579   2.841  0.7688 -0.2761 -0.2625
  657TIP3    H1 1977   3.581   2.598   2.775 -0.2833  0.4997 -1.1506
  657TIP3    H2 1978   3.431   2.607   2.800 -0.0708 -0.9906  0.8877
  658TIP3   OH2 1979   1.083   2.475   2.442  0.4546  0.1000 -0.2132
  658TIP3    H1 1980   1.062   2.530   2.366  0.5248  1.3297  0.6221
  658TIP3    H2 1981   1.001   2.434   2.466  0.4115 -0.2238 -0.8864
  659TIP3   OH2 1982   1.701   3.356   1.708 -0.6658 -0.4101  0.5740
  659TIP3    H1 1983   1.724   3.401   1.627 -1.5053 -1.3972 -0.2402
  659TIP3    H2 1984   1.627   3.406   1.744 -0.3273 -0.0047  0.7223
  660TIP3   OH2 1985   2.820   1.992   2.602 -0.0464 -0.4338  0.4412
  660TIP3    H1 1986   2.792   1.951   2.520 -1.4433  0.1960  0.5716
  660TIP3    H2 1987   2.869   2.070   2.575  1.9318 -1.6947  0.2037
  661TIP3   OH2 1988   3.732   3.599   4.777  1.0626 -0.4377  0.2262
  661TIP3    H1 1989   3.772   3.635   4.698 -0.8118  0.2634 -0.4439
  661TIP3    H2 1990   3.793   3.531   4.805  1.9331 -0.4981 -1.6486
  662TIP3   OH2 1991   4.219   3.467   2.943 -0.3255  0.0480 -0.5280
  662TIP3    H1 1992   4.129   3.443   2.920  0.0220 -0.2170 -1.7041
  662TIP3    H2 1993   4.229   3.557   2.911 -0.7147  0.7491  1.2335
  663TIP3   OH2 1994   3.228   0.163   2.098 -0.1675  0.4828 -0.4149
  663TIP3    H1 1995   3.227   0.241   2.044  0.8275 -0.3603 -1.6982
  663TIP3    H2 1996   3.174   0.100   2.051  1.3877 -0.5418 -0.9253
  664TIP3   OH2 1997   0.052   5.388   5.060  0.1457 -0.6704  0.1801
  664TIP3    H1 1998   0.018   5.393   4.971  2.5534 -1.2052 -0.8471
  664TIP3    H2 1999   0.067   5.294   5.074  1.2578 -0.4494  0.5294
  665TIP3   OH2 2000   1.335   0.590   1.589 -0.3294 -0.1729  0.2153
  665TIP3    H1 2001   1.430   0.590   1.585 -0.3601 -1.2498 -1.3670
  665TIP3    H2 2002   1.309   0.677   1.561  0.1637 -0.2693 -0.5580
  666TIP3   OH2 2003   5.300   0.104   2.524 -0.1343  0.3215  0.1025
  666TIP3    H1 2004   5.339   0.135   2.606 -1.7013 -0.3278  1.1413
  666TIP3    H2 2005   5.243   0.032   2.551 -1.1249  0.4700 -1.4863
  667TIP3   OH2 2006   5.682   0.622   3.914  0.0528 -0.1505  0.2940
  667TIP3    H1 2007   5.739   0.620   3.838 -0.1911  0.0345  0.1052
  667TIP3    H2 2008   5.713   0.697   3.965 -1.1690  1.0798 -0.7118
  668TIP3   OH2 2009   1.152   0.550   2.755 -0.2119 -0.6000 -0.6082
  668TIP3    H1 2010   1.151   0.642   2.729  1.2201 -0.5264 -0.4814
  668TIP3    H2 2011   1.188   0.504   2.679 -1.1296 -1.0913 -0.7528
  669TIP3   OH2 2012   5.403   2.400   1.860 -0.2038 -0.0418  0.4220
  669TIP3    H1 2013   5.432   2.456   1.932  0.5780  0.5158 -0.3102
  669TIP3    H2 2014   5.395   2.313   1.899  0.1159  0.2723  1.1980
  670TIP3   OH2 2015   5.316   1.082   3.554  0.2797  0.6661  0.2923
  670TIP3    H1 2016   5.242   1.135   3.584  0.0913  0.2416  0.5849
  670TIP3    H2 2017   5.311   1.086   3.458  0.6394  1.6834  0.2983
  671TIP3   OH2 2018   2.130   5.337   1.841  0.0165 -0.4024 -0.1947
  671TIP3    H1 2019   2.061   5.363   1.780 -0.5084  1.3716  1.0611
  671TIP3    H2 2020   2.089   5.270   1.897 -1.0555  1.2594  1.1041
  672TIP3   OH2 2021   1.199   1.569   4.372  0.1384 -0.3447  0.5863
  672TIP3    H1 2022   1.264   1.626   4.331  0.9897 -1.5611  0.1694
  672TIP3    H2 2023   1.249   1.492   4.399 -1.0935 -1.2102  0.4704
  673TIP3   OH2 2024   0.377   4.104   0.318  0.1419  0.3843  0.4093
  673TIP3    H1 2025   0.459   4.057   0.330  0.8964  1.3306 -0.8363
  673TIP3    H2 2026   0.309   4.039   0.338  1.1744 -0.1965  2.1955
  674TIP3   OH2 2027   4.511   1.101   2.356  0.3406 -0.3778  0.1859
  674TIP3    H1 2028   4.511   1.119   2.450  0.5398  0.6800 -0.0036
  674TIP3    H2 2029   4.593   1.139   2.324 -1.0164  1.8435 -0.8581
  675TIP3   OH2 2030   3.595   2.929   3.846 -0.9851  0.2337 -0.7953
  675TIP3    H1 2031   3.541   2.949   3.922 -0.5576 -1.1194 -0.0902
  675TIP3    H2 2032   3.683   2.957   3.872 -0.8084 -0.3880 -0.7047
  676TIP3   OH2 2033   5.989   0.674   3.979  0.1579  0.0361  0.7294
  676TIP3    H1 2034   5.993   0.763   4.014  0.0167  0.3985 -0.1385
  676TIP3    H2 2035   5.936   0.625   4.043  1.1753  0.2864  1.7864
  677TIP3   OH2 2036   1.094   1.587   5.094  0.1404 -0.2054  0.6942
  677TIP3    H1 2037   1.002   1.586   5.067  0.3435  1.7297 -0.2685
  677TIP3    H2 2038   1.135   1.517   5.042 -0.4440  0.1712 -0.3032
  678TIP3   OH2 2039   0.158   0.054   0.632 -0.1799  0.0762 -0.7111
  678TIP3    H1 2040   0.191  -0.017   0.577 -0.1131 -1.0496  0.7245
  678TIP3    H2 2041   0.071   0.024   0.660 -0.2862  0.7030 -0.3502
  679TIP3   OH2 2042   2.993   2.309   0.973  0.0083  0.2923  0.1382
  679TIP3    H1 2043   2.952   2.389   0.941  0.3848  1.7207  2.8734
  679TIP3    H2 2044   2.929   2.272   1.034  0.7594 -0.2150  0.6338
  680TIP3   OH2 2045   4.205   4.063   0.464  0.2142  0.2066 -0.5879
  680TIP3    H1 2046   4.296   4.035   0.459  0.5147  0.6534  1.4855
  680TIP3    H2 2047   4.209   4.159   0.466 -0.0822  0.2178  1.8052
  681TIP3   OH2 2048   5.044   3.066   1.263  0.5863  0.3910  0.2883
  681TIP3    H1 2049   4.952   3.093   1.273  0.8498  1.5213 -0.1650
  681TIP3    H2 2050   5.078   3.123   1.194  1.3248 -0.8118 -0.3843
  682TIP3   OH2 2051   4.872   4.543   4.644  0.1417 -0.0584  0.3700
  682TIP3    H1 2052   4.945   4.517   4.701  1.1559 -0.1888 -0.9373
  682TIP3    H2 2053   4.807   4.474   4.655 -0.1630  0.4658  2.1645
  683TIP3   OH2 2054   6.229   3.163   4.955 -0.4845  0.1350 -0.2462
  683TIP3    H1 2055   6.239   3.208   5.039 -0.0594  0.2332 -0.3466
  683TIP3    H2 2056   6.184   3.226   4.899 -0.8651  0.0288 -0.0599
  684TIP3   OH2 2057   2.698   4.418   4.828 -0.1596 -0.0207 -0.0309
  684TIP3    H1 2058   2.711   4.437   4.921  1.1562 -1.4581  0.1114
  684TIP3    H2 2059   2.724   4.498   4.783  2.3237 -0.3257  0.7026
  685TIP3   OH2 2060   1.354   2.660   2.417  0.0837  0.3001  0.6084
  685TIP3    H1 2061   1.371   2.736   2.472  1.9252  1.1052 -0.9613
  685TIP3    H2 2062   1.266   2.674   2.383 -0.3322  0.7434  1.8233
  686TIP3   OH2 2063   1.014   0.928   4.294  0.1486  0.1845 -0.0294
  686TIP3    H1 2064   1.016   0.977   4.212 -2.4750 -0.7984 -0.7968
  686TIP3    H2 2065   1.099   0.885   4.298  1.0736  1.7978 -1.2263
  687TIP3   OH2 2066   4.886   4.120   4.187  0.3824  0.0195  0.0821
  687TIP3    H1 2067   4.828   4.170   4.129  1.1259  0.0370 -0.6689
  687TIP3    H2 2068   4.954   4.182   4.212 -0.3681  0.2516  1.6705
  688TIP3   OH2 2069   3.916   5.972   2.734  0.1939 -0.0209  0.4232
  688TIP3    H1 2070   3.950   5.883   2.743  1.7063  0.5603  0.7056
  688TIP3    H2 2071   3.826   5.960   2.702 -0.0348 -1.6716  1.5802
  689TIP3   OH2 2072   5.351   2.091   4.368  0.0406 -0.1490  0.1262
  689TIP3    H1 2073   5.348   2.155   4.296  0.5267  0.2545  0.4498
  689TIP3    H2 2074   5.276   2.114   4.423  1.0686  1.1644  1.0592
  690TIP3   OH2 2075   3.223   1.552   0.822  0.3642 -0.4024  0.3384
  690TIP3    H1 2076   3.138   1.587   0.850  0.7472 -0.5967  1.8728
  690TIP3    H2 2077   3.213   1.457   0.830 -0.2381 -0.6758 -2.5159
  691TIP3   OH2 2078   1.528   2.467   3.358 -0.1427  0.3622  0.3953
  691TIP3    H1 2079   1.597   2.421   3.407 -0.1200 -1.7707 -1.5196
  691TIP3    H2 2080   1.575   2.509   3.286 -0.7199 -0.4701 -0.4826
  692TIP3   OH2 2081   4.720   2.001   0.696 -0.6355 -0.6076 -0.2350
  692TIP3    H1 2082   4.776   2.042   0.762 -1.2921 -0.3376  0.1707
  692TIP3    H2 2083   4.753   2.034   0.613 -0.2172 -0.4150  0.0051
  693TIP3   OH2 2084   4.164   0.235   3.161 -0.5983  0.6829 -0.1788
  693TIP3    H1 2085   4.118   0.272   3.086 -0.8605 -0.4249 -0.5867
  693TIP3    H2 2086   4.257   0.256   3.146 -0.7318  1.0879 -0.4356
  694TIP3   OH2 2087   3.599   1.728   1.774  0.5725 -0.2177  0.4124
  694TIP3    H1 2088   3.571   1.641   1.801 -0.5177  0.0256  0.1314
  694TIP3    H2 2089   3.560   1.787   1.839 -3.2128  0.5038 -2.1972
  695TIP3   OH2 2090   0.313   4.169   1.257 -0.0046  0.6168  0.8138
  695TIP3    H1 2091   0.302   4.154   1.351  0.3980  1.6109  1.0284
  695TIP3    H2 2092   0.404   4.197   1.247  0.1423 -0.1038  0.0390
  696TIP3   OH2 2093   0.365   4.314   3.742 -0.1565 -0.0658 -0.4806
  696TIP3    H1 2094   0.460   4.298   3.745 -0.6098 -3.2690  0.0368
  696TIP3    H2 2095   0.349   4.345   3.653  1.2762 -0.3482 -0.8573
  697TIP3   OH2 2096   2.539   0.248   0.762  0.0888  0.2722  0.1529
  697TIP3    H1 2097   2.452   0.275   0.734  0.1386 -0.9407 -1.3102
  697TIP3    H2 2098   2.527   0.214   0.850 -0.8078  0.6910  0.1964
  698TIP3   OH2 2099   0.961   4.451   3.772 -0.2291 -0.5194  0.3396
  698TIP3    H1 2100   1.009   4.531   3.794 -1.7227  0.0650  1.6761
  698TIP3    H2 2101   0.881   4.482   3.728 -0.3396 -1.3533 -0.0770
  699TIP3   OH2 2102   4.514   0.649   2.041 -0.1687  0.0905 -0.1499
  699TIP3    H1 2103   4.420   0.635   2.048  0.1163 -1.1831  1.6217
  699TIP3    H2 2104   4.533   0.718   2.104  0.1317  0.2085 -0.3647
  700TIP3   OH2 2105   3.247   5.358   2.696 -0.2106 -0.3209 -0.2087
  700TIP3    H1 2106   3.221   5.395   2.780 -2.6894  1.4394 -1.6320
  700TIP3    H2 2107   3.211   5.269   2.697  0.0806 -0.4409  0.6704
  701TIP3   OH2 2108   4.879   1.716   5.097  0.7046  0.0820 -0.3953
  701TIP3    H1 2109   4.898   1.699   5.190 -0.0264 -1.1435 -0.4462
  701TIP3    H2 2110   4.932   1.652   5.050  1.1700  0.7888 -0.8301
  702TIP3   OH2 2111   0.639   3.656   0.246  0.2328 -0.3147  0.5486
  702TIP3    H1 2112   0.586   3.642   0.324  0.2904  1.8209  1.0191
  702TIP3    H2 2113   0.656   3.750   0.244  2.8047 -0.7072 -0.3737
  703TIP3   OH2 2114   2.431   0.765   1.384 -0.1313 -0.1697  0.1749
  703TIP3    H1 2115   2.522   0.794   1.384 -0.5672  1.2870  0.6366
  703TIP3    H2 2116   2.436   0.670   1.372  1.3987 -0.0191 -0.5746
  704TIP3   OH2 2117   3.158   2.904   4.202 -0.1599 -0.3425  0.9868
  704TIP3    H1 2118   3.081   2.846   4.204 -0.0034 -0.6794 -0.6319
  704TIP3    H2 2119   3.233   2.845   4.212 -0.0241 -0.3945 -0.1288
  705TIP3   OH2 2120   2.104   3.542   2.725  0.2281 -0.1564 -0.3856
  705TIP3    H1 2121   2.070   3.482   2.659 -1.3690  1.2871 -0.9486
  705TIP3    H2 2122   2.032   3.557   2.785  1.4508 -0.9037  1.3463
  706TIP3   OH2 2123   5.546   5.850   4.139 -0.2570 -0.3960 -0.4071
  706TIP3    H1 2124   5.496   5.829   4.219  1.7672 -0.2957  0.9594
  706TIP3    H2 2125   5.584   5.767   4.112  0.7904 -0.0734  0.0119
  707TIP3   OH2 2126   3.164   5.188   2.902  0.5284 -0.1349 -0.5146
  707TIP3    H1 2127   3.076   5.176   2.866  0.2173  2.8490 -1.0018
  707TIP3    H2 2128   3.149   5.211   2.994  0.9619 -1.2555 -0.1352
  708TIP3   OH2 2129   0.748   4.299   2.600 -0.4527 -0.4907  0.1919
  708TIP3    H1 2130   0.712   4.328   2.515 -0.0402  1.0137  0.5065
  708TIP3    H2 2131   0.832   4.345   2.607  1.0429 -3.0293  0.0207
  709TIP3   OH2 2132   4.389   3.576   5.094  0.8255  0.3223  0.9966
  709TIP3    H1 2133   4.352   3.489   5.077  1.0747  0.3484  0.2860
  709TIP3    H2 2134   4.313   3.632   5.111  0.4319  0.5374 -1.1481
  710TIP3   OH2 2135   5.617   1.703   0.672  0.2324 -0.1036  0.2599
  710TIP3    H1 2136   5.705   1.698   0.709 -0.0153  0.2097  0.9218
  710TIP3    H2 2137   5.569   1.760   0.733 -0.1359  0.6140 -0.6682
  711TIP3   OH2 2138   6.038   1.844   2.306 -0.1114 -0.0223 -0.1553
  711TIP3    H1 2139   6.081   1.767   2.344 -1.0309 -0.0918  0.7805
  711TIP3    H2 2140   5.956   1.811   2.270  0.2619  0.2381 -1.2730
  712TIP3   OH2 2141   3.782   4.129   0.579  0.1183 -0.6048 -0.1192
  712TIP3    H1 2142   3.693   4.099   0.557 -0.2757 -0.0230  0.6464
  712TIP3    H2 2143   3.839   4.060   0.544 -0.7365 -2.1962  1.4083
  713TIP3   OH2 2144   5.936   4.023   2.022  0.0239  0.1186 -0.0954
  713TIP3    H1 2145   5.915   4.056   2.109  0.7829 -1.0860  0.5851
  713TIP3    H2 2146   5.874   3.951   2.008  0.1565  0.0540 -0.3679
  714TIP3   OH2 2147   3.903   5.926   4.853 -0.3163 -0.0377  0.1203
  714TIP3    H1 2148   3.824   5.950   4.901 -0.5069  1.1661 -0.7314
  714TIP3    H2 2149   3.872   5.907   4.764  0.3992  1.2221 -0.4373
  715TIP3   OH2 2150   2.000   0.820   1.508  0.6279 -0.6574 -0.3358
  715TIP3    H1 2151   2.018   0.805   1.416  0.3957  1.1504 -0.7167
  715TIP3    H2 2152   2.050   0.898   1.530  0.0930 -0.6201  0.8696
  716TIP3   OH2 2153   5.059   1.669   3.555  0.2370 -0.4692 -0.1787
  716TIP3    H1 2154   4.977   1.691   3.600  0.0403  0.8783 -1.1345
  716TIP3    H2 2155   5.109   1.751   3.556  0.9839 -0.9129 -0.8091
  717TIP3   OH2 2156   4.339   5.460   5.107  0.1419 -0.7565  0.3130
  717TIP3    H1 2157   4.378   5.387   5.059 -2.6262 -1.6068 -0.8842
  717TIP3    H2 2158   4.374   5.538   5.065  0.9081 -1.4377 -0.3544
  718TIP3   OH2 2159   3.132   0.794   0.907 -0.0642 -0.1857 -0.4866
  718TIP3    H1 2160   3.202   0.821   0.966  0.2356  0.2626 -1.0441
  718TIP3    H2 2161   3.136   0.698   0.907 -1.0421 -0.2866  1.3986
  719TIP3   OH2 2162   4.525   3.255   5.143  0.3301 -0.1691 -0.4170
  719TIP3    H1 2163   4.549   3.199   5.217  1.1677 -0.5374 -0.9557
  719TIP3    H2 2164   4.578   3.334   5.155 -0.3350  0.2277 -0.0403
  720TIP3   OH2 2165   1.173   4.821   3.064 -0.5738  0.2637  0.0638
  720TIP3    H1 2166   1.110   4.860   3.125 -1.6062  0.0874 -0.8557
  720TIP3    H2 2167   1.124   4.750   3.022  1.4891 -2.7218  2.3249
  721TIP3   OH2 2168   2.620   0.203   0.471 -0.1593 -0.2706  0.0288
  721TIP3    H1 2169   2.615   0.215   0.566  0.0071 -2.0682  0.2983
  721TIP3    H2 2170   2.679   0.128   0.460  1.1690  0.9372 -1.5853
  722TIP3   OH2 2171   6.155   5.689   0.911 -0.1419  0.7596 -0.1767
  722TIP3    H1 2172   6.155   5.780   0.882 -0.7934  1.1684  1.0419
  722TIP3    H2 2173   6.236   5.680   0.960 -0.1489  0.7171 -0.1733
  723TIP3   OH2 2174   4.404   4.114   0.844  0.2198  0.0231  0.2692
  723TIP3    H1 2175   4.441   4.029   0.866  1.5569  1.0991  2.5822
  723TIP3    H2 2176   4.432   4.129   0.753  1.8310 -1.0819  0.5355
  724TIP3   OH2 2177   1.019   0.651   3.216 -0.0486  0.1455  0.0748
  724TIP3    H1 2178   0.969   0.636   3.296  0.0437  1.4986  0.4154
  724TIP3    H2 2179   0.993   0.739   3.189  1.9078  0.7563  0.0873
  725TIP3   OH2 2180   3.366   5.515   4.022  1.0005  0.2601  0.4617
  725TIP3    H1 2181   3.379   5.435   3.971 -0.8042  0.5986 -0.6461
  725TIP3    H2 2182   3.449   5.561   4.016  1.1519 -0.1581 -1.4330
  726TIP3   OH2 2183   2.203   3.730   1.294  0.3385 -0.1354  0.2706
  726TIP3    H1 2184   2.122   3.782   1.301  1.0315  0.8710  1.1701
  726TIP3    H2 2185   2.272   3.790   1.322  1.7403 -0.2178 -2.6004
  727TIP3   OH2 2186   5.990   3.679   1.841 -0.1207  0.0136  0.1261
  727TIP3    H1 2187   5.992   3.643   1.752 -3.2564 -0.5591  0.1524
  727TIP3    H2 2188   6.028   3.767   1.832  0.4937 -0.3891 -1.5665
  728TIP3   OH2 2189   1.035   4.607   2.193 -0.4836 -0.1061  0.2514
  728TIP3    H1 2190   1.004   4.697   2.185 -2.9647 -0.9494 -0.3224
  728TIP3    H2 2191   1.099   4.597   2.123 -1.7996  0.5900 -1.0849
  729TIP3   OH2 2192   0.703   0.231   4.730  0.4606 -0.3198 -0.7722
  729TIP3    H1 2193   0.690   0.325   4.716  0.2985 -0.2318 -0.0658
  729TIP3    H2 2194   0.666   0.190   4.652  0.4202  0.1937 -1.0312
  730TIP3   OH2 2195   0.006   0.123   5.150 -0.1260  0.0858  0.0235
  730TIP3    H1 2196  -0.051   0.052   5.120 -1.8997  1.5136 -0.0924
  730TIP3    H2 2197   0.049   0.088   5.228 -1.8826 -0.7065  0.6718
  731TIP3   OH2 2198   2.373   5.189   0.551  0.0988 -0.4480  0.2149
  731TIP3    H1 2199   2.460   5.211   0.582  0.6577 -2.1534 -0.0446
  731TIP3    H2 2200   2.381   5.100   0.516 -1.0972  0.3246 -2.3089
  732TIP3   OH2 2201   5.846   1.592   1.057  0.1610 -0.0545  0.6699
  732TIP3    H1 2202   5.857   1.498   1.041 -2.3967 -0.0236 -2.0850
  732TIP3    H2 2203   5.796   1.596   1.139  2.8688 -0.8341  2.5138
  733TIP3   OH2 2204   6.155   2.143   2.290  0.0450  0.1814  0.3944
  733TIP3    H1 2205   6.098   2.209   2.252  0.3382 -1.0213 -2.3457
  733TIP3    H2 2206   6.096   2.072   2.316  0.1032 -0.5146 -1.2520
  734TIP3   OH2 2207   0.821   1.233   4.681 -0.3265 -0.1956  0.7666
  734TIP3    H1 2208   0.865   1.301   4.629 -0.6200 -0.9816 -0.5547
  734TIP3    H2 2209   0.875   1.155   4.668 -0.6331 -0.5038  1.3172
  735TIP3   OH2 2210   2.817   5.269   2.417 -0.4981  0.5685 -0.2471
  735TIP3    H1 2211   2.806   5.352   2.371 -0.0871  0.6028 -0.2844
  735TIP3    H2 2212   2.900   5.234   2.385 -0.5513  0.2540 -0.0546
  736TIP3   OH2 2213   2.723   5.853   4.933 -0.2202 -0.0152  0.5772
  736TIP3    H1 2214   2.696   5.792   4.865 -0.1098  0.0690  0.4566
  736TIP3    H2 2215   2.816   5.834   4.947  0.8407  2.5250 -2.0503
  737TIP3   OH2 2216   1.741   5.407   0.627  0.3358 -0.0759 -0.1429
  737TIP3    H1 2217   1.723   5.321   0.664 -0.6793 -0.4098 -1.3389
  737TIP3    H2 2218   1.807   5.391   0.559  1.7612  0.4459  1.0518
  738TIP3   OH2 2219   1.143   3.478   2.201 -0.6708  0.1643  0.1104
  738TIP3    H1 2220   1.079   3.508   2.265 -0.0448  1.4583  0.1523
  738TIP3    H2 2221   1.103   3.400   2.162 -2.2320  0.8948  0.1803
  739TIP3   OH2 2222   3.745   2.456   4.461  0.1467  0.2696  0.2350
  739TIP3    H1 2223   3.686   2.436   4.534  0.0614  1.4129  0.5037
  739TIP3    H2 2224   3.832   2.460   4.501  0.1601  0.4456  0.1886
  740TIP3   OH2 2225   0.168   4.483   0.973 -0.4561 -1.1184 -0.2464
  740TIP3    H1 2226   0.196   4.392   0.964  2.0685 -0.2119 -3.2051
  740TIP3    H2 2227   0.246   4.535   0.952 -2.3169  1.7344 -0.7200
  741TIP3   OH2 2228   0.606   4.265   0.794 -0.1381  0.0884  0.5170
  741TIP3    H1 2229   0.607   4.352   0.833  1.4389 -0.2427  1.2891
  741TIP3    H2 2230   0.679   4.266   0.731 -0.0324 -0.6927  0.6146
  742TIP3   OH2 2231   0.348   1.533   2.386 -0.3355 -0.0087  0.5025
  742TIP3    H1 2232   0.290   1.606   2.411 -1.2662 -1.0623  1.5410
  742TIP3    H2 2233   0.400   1.516   2.465  1.4834  0.9311 -0.4102
  743TIP3   OH2 2234   3.130   3.909   2.746  0.4259  0.3772 -0.3601
  743TIP3    H1 2235   3.077   3.902   2.667 -1.3552  1.7940  0.6271
  743TIP3    H2 2236   3.186   3.985   2.731  0.7373  0.0973 -0.6167
  744TIP3   OH2 2237   4.293   2.358   3.529  0.6371  0.8394  0.1744
  744TIP3    H1 2238   4.203   2.364   3.558  0.6337  1.2509  0.0946
  744TIP3    H2 2239   4.337   2.305   3.596  0.3236  0.5740  0.1723
  745TIP3   OH2 2240   2.305   0.207   0.953 -0.3393 -0.5569 -0.9070
  745TIP3    H1 2241   2.239   0.218   1.022  0.9194 -2.5768  0.7413
  745TIP3    H2 2242   2.266   0.247   0.875 -1.5028  2.6166  1.1068
  746TIP3   OH2 2243   1.976   3.509   4.294  0.0293  0.2547 -0.1925
  746TIP3    H1 2244   1.919   3.433   4.289 -0.0173  0.3404 -1.4101
  746TIP3    H2 2245   1.916   3.584   4.298  0.0528  0.2998 -0.6086
  747TIP3   OH2 2246   3.161   4.954   4.073  0.4009  0.1643 -0.6298
  747TIP3    H1 2247   3.093   5.021   4.081  1.2787  0.9533  0.5349
  747TIP3    H2 2248   3.176   4.925   4.163  1.1212 -0.4886 -0.9534
  748TIP3   OH2 2249   6.328   5.964   4.954 -0.8291  0.3268  0.3121
  748TIP3    H1 2250   6.281   5.892   4.996 -2.4008  0.8804 -0.3946
  748TIP3    H2 2251   6.270   5.991   4.881  1.5460 -0.3039 -1.9574
  749TIP3   OH2 2252   6.035   1.201   2.303  0.0495  0.0353  0.3610
  749TIP3    H1 2253   6.091   1.219   2.227  1.3342  1.3317  1.5536
  749TIP3    H2 2254   6.022   1.106   2.301  3.9383 -0.6841  1.0543
  750TIP3   OH2 2255   0.431   0.136   0.782 -0.2816  0.4110  0.1696
  750TIP3    H1 2256   0.454   0.175   0.697  0.3486 -1.0308 -0.3487
  750TIP3    H2 2257   0.336   0.127   0.780 -0.2094 -0.2757 -0.6965
  751TIP3   OH2 2258   2.342   0.337   5.065 -1.1696  0.8517 -0.0945
  751TIP3    H1 2259   2.360   0.306   4.977  0.3556  0.3412  0.3726
  751TIP3    H2 2260   2.277   0.275   5.099 -1.0781  0.5075 -0.5446
  752TIP3   OH2 2261   0.363   1.715   3.156  0.6839 -0.0940 -0.0064
  752TIP3    H1 2262   0.274   1.741   3.132 -0.0916 -2.8149 -0.4143
  752TIP3    H2 2263   0.377   1.755   3.242 -1.7889 -1.2991  1.0511
  753TIP3   OH2 2264   6.022   1.417   3.637 -0.0100  0.0884 -0.2525
  753TIP3    H1 2265   5.960   1.368   3.584 -1.8800  1.1496  0.8514
  753TIP3    H2 2266   5.969   1.460   3.704  1.9149  1.0676  0.7602
  754TIP3   OH2 2267   4.220   0.940   2.233  0.7051  0.0444  0.3359
  754TIP3    H1 2268   4.279   0.964   2.305 -0.4921  0.6584  1.1400
  754TIP3    H2 2269   4.192   1.024   2.197  0.9559 -0.2558 -0.5934
  755TIP3   OH2 2270   4.014   2.555   2.882  0.3338  0.3035  0.5287
  755TIP3    H1 2271   3.944   2.505   2.840 -1.0440  2.0102  0.7336
  755TIP3    H2 2272   4.000   2.543   2.975  0.7195  0.1326  0.5691
  756TIP3   OH2 2273   5.108   5.541   0.589 -0.1645 -0.5931 -0.7030
  756TIP3    H1 2274   5.027   5.491   0.596 -0.9796  0.6944 -0.4486
  756TIP3    H2 2275   5.079   5.629   0.564  1.1799 -0.1674 -0.8216
  757TIP3   OH2 2276   2.844   4.695   1.333  0.2845  0.4573 -0.2691
  757TIP3    H1 2277   2.930   4.735   1.320  0.4524  0.7232  1.4179
  757TIP3    H2 2278   2.845   4.665   1.424 -0.8444 -0.9597 -0.6786
  758TIP3   OH2 2279   3.066   3.034   3.272  0.8225  0.1116  0.0733
  758TIP3    H1 2280   3.008   3.071   3.339  0.5281  0.2577 -0.2549
  758TIP3    H2 2281   3.006   2.997   3.207  1.0984  0.1739 -0.2201
  759TIP3   OH2 2282   0.492   4.496   1.903 -0.3228 -0.2156  0.2599
  759TIP3    H1 2283   0.511   4.428   1.838 -0.2044 -0.1645  0.2401
  759TIP3    H2 2284   0.544   4.472   1.979  0.2980  0.2517 -0.0026
  760TIP3   OH2 2285   2.712   4.611   4.371 -0.2105 -0.3140  0.2926
  760TIP3    H1 2286   2.675   4.582   4.454  0.5315  1.1114  1.1368
  760TIP3    H2 2287   2.774   4.542   4.347  0.2360 -0.2965  1.3791
  761TIP3   OH2 2288   6.267   3.853   4.358 -0.0840  0.3408 -0.8326
  761TIP3    H1 2289   6.236   3.848   4.448  0.8712  0.9024 -0.4586
  761TIP3    H2 2290   6.191   3.884   4.308 -0.1775  1.5746  0.0359
  762TIP3   OH2 2291   5.480   4.549   1.343  0.7155  0.2425  0.1512
  762TIP3    H1 2292   5.489   4.462   1.305 -0.4518 -0.2763  0.9996
  762TIP3    H2 2293   5.520   4.541   1.430  1.3325  0.7815 -0.0818
  763TIP3   OH2 2294   0.721   3.755   0.987 -0.0333 -0.1608 -0.1816
  763TIP3    H1 2295   0.785   3.782   1.054  0.7415 -1.0167 -0.5576
  763TIP3    H2 2296   0.730   3.822   0.918  0.3507 -0.1837 -0.1591
  764TIP3   OH2 2297   0.198   2.398   3.618  0.3306 -0.0429  0.0444
  764TIP3    H1 2298   0.267   2.463   3.602 -1.2177  1.3281 -1.4351
  764TIP3    H2 2299   0.117   2.448   3.616 -0.9246 -2.0015 -0.9830
  765TIP3   OH2 2300   3.552   4.630   1.805 -0.2213  0.2138  0.0081
  765TIP3    H1 2301   3.595   4.618   1.889 -0.9043 -1.0421  0.1950
  765TIP3    H2 2302   3.504   4.713   1.814 -1.1568 -0.4402  1.2476
  766TIP3   OH2 2303   4.410   1.560   2.422  0.3557 -0.8491 -0.0844
  766TIP3    H1 2304   4.324   1.590   2.394  0.8728  1.2205  0.3714
  766TIP3    H2 2305   4.403   1.464   2.423 -1.4326 -0.7937 -1.5520
  767TIP3   OH2 2306   5.984   4.200   2.996 -0.1621  0.4742 -0.0288
  767TIP3    H1 2307   6.069   4.222   2.959  0.0033  1.3557  0.8471
  767TIP3    H2 2308   5.990   4.107   3.016 -0.5126 -0.2613 -2.8280
  768TIP3   OH2 2309   4.671   3.140   3.077  0.1536  0.4915  0.7546
  768TIP3    H1 2310   4.610   3.205   3.042 -0.5776  0.6637  2.2947
  768TIP3    H2 2311   4.618   3.062   3.090  0.6689  0.0826  0.4676
  769TIP3   OH2 2312   3.688   2.118   0.637 -0.1213  0.6146  0.0525
  769TIP3    H1 2313   3.783   2.125   0.636  0.1738 -1.3794  2.7941
  769TIP3    H2 2314   3.661   2.167   0.715 -1.3342  1.1137 -0.6631
  770TIP3   OH2 2315   4.256   4.998   1.755  0.0085 -0.8714 -0.8522
  770TIP3    H1 2316   4.234   5.091   1.762  1.0282 -0.7261  4.0148
  770TIP3    H2 2317   4.347   4.996   1.726  0.2710 -0.2564 -0.1022
  771TIP3   OH2 2318   3.405   1.516   3.769  0.1652 -0.2365 -0.2529
  771TIP3    H1 2319   3.390   1.610   3.765 -2.1308 -0.5088  0.2089
  771TIP3    H2 2320   3.393   1.486   3.679  0.3087 -0.1584 -0.2981
  772TIP3   OH2 2321   0.253   4.446   3.974  0.3582  0.1504 -0.3164
  772TIP3    H1 2322   0.266   4.432   3.880 -0.1751  0.5665 -0.4596
  772TIP3    H2 2323   0.303   4.376   4.016  0.5404 -0.0849 -0.9125
  773TIP3   OH2 2324   6.071   4.169   3.332 -0.8129 -0.3040 -0.2983
  773TIP3    H1 2325   6.124   4.246   3.354  0.1502 -0.8898 -0.5593
  773TIP3    H2 2326   5.984   4.205   3.316 -0.4267  0.7099 -0.2041
  774TIP3   OH2 2327   5.949   3.747   1.117 -0.4128  0.3504 -0.0774
  774TIP3    H1 2328   6.028   3.755   1.064 -1.3260 -2.0623 -2.0199
  774TIP3    H2 2329   5.920   3.837   1.132  1.3761  1.1941 -1.3922
  775TIP3   OH2 2330   0.034   2.457   4.559 -0.7356 -0.2646 -0.0249
  775TIP3    H1 2331   0.088   2.534   4.574  1.1847 -1.1835 -1.7729
  775TIP3    H2 2332   0.001   2.468   4.470 -3.6333  0.3200  1.0141
  776TIP3   OH2 2333   5.796   5.793   3.216 -0.1948 -0.2396  0.1903
  776TIP3    H1 2334   5.777   5.882   3.188  1.6204  0.6223  1.5175
  776TIP3    H2 2335   5.713   5.758   3.247 -0.6071  1.6112  1.2529
  777TIP3   OH2 2336   4.766   2.197   4.651  0.1457 -0.0294 -0.4586
  777TIP3    H1 2337   4.813   2.126   4.694 -1.9456 -1.4671 -0.3532
  777TIP3    H2 2338   4.832   2.262   4.631  1.6108 -0.3905  2.7149
  778TIP3   OH2 2339   0.831   5.117   4.278  0.0694  0.4483 -0.0918
  778TIP3    H1 2340   0.880   5.184   4.324  0.3071 -0.0592  0.3980
  778TIP3    H2 2341   0.839   5.038   4.332 -0.4691  0.1030 -0.4939
  779TIP3   OH2 2342   1.369   0.949   5.131  0.3054  0.6774  0.2545
  779TIP3    H1 2343   1.415   0.991   5.204  0.6015 -2.2461  1.9003
  779TIP3    H2 2344   1.428   0.878   5.104 -0.3710  0.9284 -2.0684
  780TIP3   OH2 2345   5.234   2.925   0.796  0.2723  0.0637 -0.5183
  780TIP3    H1 2346   5.279   2.964   0.870 -0.2790  1.1914 -0.7567
  780TIP3    H2 2347   5.224   2.832   0.819  1.2232  0.1468  0.2414
  781TIP3   OH2 2348   1.980   0.894   2.225 -0.1630 -0.0423  0.4733
  781TIP3    H1 2349   2.042   0.940   2.169 -0.6258  1.4514  1.1527
  781TIP3    H2 2350   1.931   0.837   2.165  1.9422 -1.4355 -0.0603
  782TIP3   OH2 2351   0.092   4.908   1.110  0.1056  0.1438 -0.3533
  782TIP3    H1 2352   0.012   4.856   1.105 -0.5322  1.0843 -0.0769
  782TIP3    H2 2353   0.100   4.949   1.024  0.3219  0.0145 -0.3969
  783TIP3   OH2 2354   4.786   5.260   4.681  0.0727  0.2034 -0.2458
  783TIP3    H1 2355   4.873   5.223   4.702  0.5546  1.3712 -0.1181
  783TIP3    H2 2356   4.725   5.189   4.701  0.9046 -0.2686  0.7643
  784TIP3   OH2 2357   5.263   3.139   4.551  0.0000  0.2632 -0.4877
  784TIP3    H1 2358   5.320   3.071   4.515  0.2000 -0.3931  0.9996
  784TIP3    H2 2359   5.299   3.158   4.638 -2.6305 -0.9824  1.0093
  785TIP3   OH2 2360   1.510   4.051   4.097 -0.6154 -0.0550  0.2376
  785TIP3    H1 2361   1.539   4.043   4.187  0.2288 -0.9877 -0.0986
  785TIP3    H2 2362   1.551   3.977   4.051 -1.0216  0.3970 -0.9074
  786TIP3   OH2 2363   0.844   0.684   3.842 -0.1422 -0.1276 -0.2863
  786TIP3    H1 2364   0.918   0.718   3.893 -1.2634  0.1492  1.2220
  786TIP3    H2 2365   0.776   0.667   3.906 -1.4177 -0.3609 -1.6355
  787TIP3   OH2 2366   2.947   0.133   1.717  0.0225  0.2657 -0.4287
  787TIP3    H1 2367   2.920   0.051   1.676 -1.3584 -0.2611  1.3678
  787TIP3    H2 2368   2.953   0.196   1.645 -1.7046 -0.7324 -1.5012
  788TIP3   OH2 2369   5.861   4.726   4.163  0.0443  0.6726  0.3318
  788TIP3    H1 2370   5.940   4.680   4.135 -0.4988 -0.6720  0.8964
  788TIP3    H2 2371   5.883   4.819   4.157  1.8455  0.3288  1.0092
  789TIP3   OH2 2372   1.968   2.382   1.531  0.7298  0.2979  0.3568
  789TIP3    H1 2373   1.932   2.396   1.443  1.2359 -0.8719 -0.0493
  789TIP3    H2 2374   2.049   2.432   1.532  0.8530  0.1043  0.0689
  790TIP3   OH2 2375   2.068   0.797   0.517  0.6609 -0.9130  0.5016
  790TIP3    H1 2376   2.010   0.770   0.445 -0.3262 -0.3546  1.0671
  790TIP3    H2 2377   2.120   0.719   0.536  0.6451 -1.1936 -0.5364
  791TIP3   OH2 2378   3.964   0.043   0.788  0.9920  0.3144 -0.0260
  791TIP3    H1 2379   3.944   0.133   0.762  0.6199  0.4511  0.6890
  791TIP3    H2 2380   3.891  -0.009   0.754  0.8802  0.3856  0.0989
  792TIP3   OH2 2381   1.635   3.210   3.695  0.1227  0.5616  0.2498
  792TIP3    H1 2382   1.665   3.301   3.699  1.1467  0.2165  1.0264
  792TIP3    H2 2383   1.650   3.183   3.604 -1.5196  1.5749 -0.3602
  793TIP3   OH2 2384   2.988   3.835   2.474 -0.1245  0.0618  0.4120
  793TIP3    H1 2385   3.057   3.769   2.468 -2.7535 -2.8145 -1.8297
  793TIP3    H2 2386   2.938   3.809   2.551  0.0932  0.8622  0.8295
  794TIP3   OH2 2387   0.873   2.964   2.176  0.0594  0.2788  0.7273
  794TIP3    H1 2388   0.817   2.936   2.104  1.6188  0.3349 -0.5607
  794TIP3    H2 2389   0.823   3.032   2.220 -1.3152 -0.3998  0.2884
  795TIP3   OH2 2390   6.227   6.008   1.350  0.0561  0.5207  0.0915
  795TIP3    H1 2391   6.239   5.940   1.283 -2.3005  1.3897 -1.3523
  795TIP3    H2 2392   6.219   5.959   1.432  1.2915 -0.7159 -0.4833
  796TIP3   OH2 2393   6.310   2.173   0.109  0.0977 -0.6160 -0.1501
  796TIP3    H1 2394   6.336   2.089   0.072 -2.8940 -1.2924 -1.0021
  796TIP3    H2 2395   6.219   2.185   0.081 -0.1012  2.1718  1.2734
  797TIP3   OH2 2396   1.059   5.494   1.240  0.2307 -0.2386 -0.3942
  797TIP3    H1 2397   1.125   5.425   1.231 -0.2398 -0.6138 -1.0810
  797TIP3    H2 2398   1.109   5.576   1.234  0.9699 -0.4854  1.7139
  798TIP3   OH2 2399   4.028   3.865   4.096 -0.1832  0.4127  0.9123
  798TIP3    H1 2400   3.952   3.807   4.096 -0.0125  0.1815  1.4094
  798TIP3    H2 2401   4.061   3.861   4.006  0.6168 -1.3372  1.2356
  799TIP3   OH2 2402   1.644   1.553   1.013 -0.4949 -0.0956 -0.0114
  799TIP3    H1 2403   1.559   1.585   0.981 -0.1109  1.9878  0.8587
  799TIP3    H2 2404   1.703   1.627   1.000  1.0481 -1.2793  0.0261
  800TIP3   OH2 2405   1.632   3.948   1.911  0.3178  0.3650  0.0616
  800TIP3    H1 2406   1.698   3.976   1.974  0.2647 -0.3799  0.4466
  800TIP3    H2 2407   1.682   3.909   1.839  0.2957 -0.1578  0.3322
  801TIP3   OH2 2408   4.060   2.059   2.173 -0.1357  0.7226 -0.3078
  801TIP3    H1 2409   4.136   2.051   2.231  1.1549 -0.7587 -2.1082
  801TIP3    H2 2410   4.041   2.153   2.172  2.3459  1.2915 -0.5862
  802TIP3   OH2 2411   3.380   2.000   2.735 -0.5423 -0.3632 -0.0397
  802TIP3    H1 2412   3.399   1.906   2.736 -0.1743 -0.3058 -0.9697
  802TIP3    H2 2413   3.318   2.011   2.663  0.0948  0.2246 -0.5176
  803TIP3   OH2 2414   3.542   1.297   4.635  0.3824  0.1585 -0.0222
  803TIP3    H1 2415   3.600   1.358   4.680 -0.3613 -0.3082  1.6464
  803TIP3    H2 2416   3.456   1.314   4.673  0.3391 -2.6823  1.3912
  804TIP3   OH2 2417   6.251   4.574   1.942  0.4198 -0.1380 -0.2286
  804TIP3    H1 2418   6.190   4.500   1.936  0.1707  0.1411 -1.4541
  804TIP3    H2 2419   6.247   4.615   1.855  3.0174 -0.6485 -0.6614
  805TIP3   OH2 2420   1.251   4.651   0.733 -0.5890  0.0509  0.1127
  805TIP3    H1 2421   1.309   4.656   0.809 -1.0928  1.5965  0.4194
  805TIP3    H2 2422   1.311   4.638   0.659  0.1712  1.4495  0.4448
  806TIP3   OH2 2423   5.991   4.334   4.437 -0.1426  0.4655 -0.0768
  806TIP3    H1 2424   6.013   4.419   4.476 -0.9470  0.1668  1.0615
  806TIP3    H2 2425   6.076   4.292   4.424  0.1769  0.6757  1.1563
  807TIP3   OH2 2426   1.887   1.157   0.930  0.1778 -0.2577  0.5028
  807TIP3    H1 2427   1.939   1.233   0.902  0.5267 -0.0738  1.6084
  807TIP3    H2 2428   1.798   1.190   0.939  0.1731 -0.1818  0.1910
  808TIP3   OH2 2429   2.879   0.598   3.352  0.0111  0.8820 -0.1276
  808TIP3    H1 2430   2.830   0.528   3.395 -0.4945  2.5653  2.2118
  808TIP3    H2 2431   2.839   0.606   3.265  1.7580 -3.3424 -1.6304
  809TIP3   OH2 2432   1.269   5.717   3.671  0.5716 -0.0557  0.9970
  809TIP3    H1 2433   1.260   5.813   3.675  1.1965  0.0187  0.7617
  809TIP3    H2 2434   1.187   5.684   3.706 -0.9892  0.5557 -1.7925
  810TIP3   OH2 2435   5.405   3.898   2.674  0.8480  0.6391 -0.2160
  810TIP3    H1 2436   5.367   3.889   2.587  1.8889  0.4791 -0.6643
  810TIP3    H2 2437   5.353   3.840   2.729  0.6253  0.2121 -0.8654
  811TIP3   OH2 2438   2.449   4.520   4.243  0.2560 -0.1053 -0.5560
  811TIP3    H1 2439   2.501   4.595   4.273  0.5821 -1.1291  1.6166
  811TIP3    H2 2440   2.513   4.451   4.229 -0.2872 -0.6921 -0.1621
  812TIP3   OH2 2441   0.838   3.268   3.805  0.6352 -0.0217  0.2630
  812TIP3    H1 2442   0.794   3.299   3.884 -0.9684  1.9580 -1.3169
  812TIP3    H2 2443   0.929   3.255   3.833  0.2426  1.1062  2.3137
  813TIP3   OH2 2444   0.162   4.920   0.220 -0.2253 -0.3360  0.2892
  813TIP3    H1 2445   0.179   5.014   0.220 -2.0226  0.0207  0.3437
  813TIP3    H2 2446   0.068   4.912   0.232 -0.4053 -2.0903 -1.7116
  814TIP3   OH2 2447   3.389   5.532   1.543  0.0954  0.2270 -0.0388
  814TIP3    H1 2448   3.325   5.498   1.607 -0.5794  1.6350  0.0863
  814TIP3    H2 2449   3.402   5.460   1.482  2.0832 -1.8254  2.5830
  815TIP3   OH2 2450   3.040   1.075   3.766 -0.2404  0.0843 -0.0624
  815TIP3    H1 2451   3.125   1.030   3.769 -1.6343 -3.0429 -2.0965
  815TIP3    H2 2452   3.027   1.094   3.673 -2.0664 -0.1787  0.1114
  816TIP3   OH2 2453   2.660   2.111   0.991 -0.0553  0.1473 -0.0905
  816TIP3    H1 2454   2.717   2.102   0.915  1.1202  0.7975  0.6829
  816TIP3    H2 2455   2.617   2.195   0.980 -0.0835  0.1249 -0.1543
  817TIP3   OH2 2456   5.674   3.138   5.113 -0.1035  0.0292 -0.4993
  817TIP3    H1 2457   5.592   3.170   5.151 -0.3653 -0.6930 -0.4323
  817TIP3    H2 2458   5.695   3.200   5.044 -2.2616 -1.3093 -2.4884
  818TIP3   OH2 2459   1.728   1.773   1.307  0.3236  0.3493  0.2799
  818TIP3    H1 2460   1.738   1.678   1.311 -1.1054  0.2301  2.1856
  818TIP3    H2 2461   1.813   1.804   1.274  0.5407 -1.5940 -1.1744
  819TIP3   OH2 2462   4.337   1.808   4.707  0.1284 -0.0000  0.1320
  819TIP3    H1 2463   4.308   1.754   4.634  0.8297  0.9813 -0.8922
  819TIP3    H2 2464   4.291   1.891   4.697  0.1137  0.0917  0.8920
  820TIP3   OH2 2465   4.223   4.824   4.201 -0.5152 -0.7894 -0.2204
  820TIP3    H1 2466   4.213   4.734   4.232  1.1016 -0.6863  0.7708
  820TIP3    H2 2467   4.236   4.816   4.107  1.2977 -1.8030  0.0657
  821TIP3   OH2 2468   2.337   5.808   4.185 -0.1872  0.4451  0.1281
  821TIP3    H1 2469   2.424   5.771   4.204 -0.7061 -1.4010 -0.7712
  821TIP3    H2 2470   2.318   5.777   4.096 -1.3993  1.5736 -0.0264
  822TIP3   OH2 2471   6.061   3.635   2.707 -0.4110  0.2428 -0.0134
  822TIP3    H1 2472   6.062   3.623   2.612  1.6249 -0.1248 -0.0035
  822TIP3    H2 2473   6.133   3.696   2.724  0.1100 -0.7034  1.3938
  823TIP3   OH2 2474   1.695   2.496   2.464 -0.7405 -0.2471  0.1489
  823TIP3    H1 2475   1.677   2.509   2.557  0.2714 -2.0880  0.6488
  823TIP3    H2 2476   1.611   2.469   2.427 -1.6681  2.4691  0.0422
  824TIP3   OH2 2477   2.957   3.130   2.909 -0.7673  0.4661  0.4894
  824TIP3    H1 2478   2.911   3.155   2.829 -2.5018 -0.1816  1.2383
  824TIP3    H2 2479   3.031   3.190   2.914 -0.8751  0.7957 -1.3721
  825TIP3   OH2 2480   4.675   4.287   2.021 -0.1920 -0.3001 -0.3748
  825TIP3    H1 2481   4.733   4.287   1.945 -0.0641 -1.7282 -0.3117
  825TIP3    H2 2482   4.587   4.274   1.986 -0.4156  1.1758 -0.4174
  826TIP3   OH2 2483   1.763   1.518   0.670  0.6518 -0.5452 -0.1493
  826TIP3    H1 2484   1.671   1.518   0.642  0.9394  1.3863 -1.2389
  826TIP3    H2 2485   1.765   1.455   0.742 -1.7451  0.0448  0.5507
  827TIP3   OH2 2486   4.012   2.497   3.190  0.4805  0.0738  0.5270
  827TIP3    H1 2487   4.000   2.416   3.238  0.2690  0.4618  1.1365
  827TIP3    H2 2488   3.957   2.561   3.235 -0.7134  0.1664 -0.9694
  828TIP3   OH2 2489   2.238   3.355   0.332  0.6270  0.4264  0.0899
  828TIP3    H1 2490   2.299   3.282   0.339 -0.2457 -0.1860  2.0537
  828TIP3    H2 2491   2.282   3.428   0.374 -0.0794 -0.1319  1.9099
  829TIP3   OH2 2492   2.916   5.242   2.014  0.3035  0.1724 -0.4080
  829TIP3    H1 2493   2.905   5.151   2.042 -1.5322  0.3247 -0.4805
  829TIP3    H2 2494   2.999   5.269   2.053 -0.5846 -0.6031  2.2612
  830TIP3   OH2 2495   0.524   0.209   1.030 -0.7862  0.5199 -0.4164
  830TIP3    H1 2496   0.526   0.169   0.943 -2.5047  0.0002 -0.2554
  830TIP3    H2 2497   0.522   0.303   1.012 -1.8902  0.4048 -0.9943
  831TIP3   OH2 2498   6.052   5.038   2.543  0.0956  0.0989 -0.4528
  831TIP3    H1 2499   6.031   4.966   2.483  0.1084  0.3590 -0.7709
  831TIP3    H2 2500   5.987   5.030   2.613 -0.9857  0.7979 -1.3402
  832TIP3   OH2 2501   2.737   3.244  -0.009  0.5850 -0.3014  0.0811
  832TIP3    H1 2502   2.653   3.286  -0.027  0.0273 -2.1001 -1.9437
  832TIP3    H2 2503   2.743   3.241   0.087 -2.9215 -2.4045  0.3855
  833TIP3   OH2 2504   1.121   0.831   2.484 -0.8284  0.0814  0.2449
  833TIP3    H1 2505   1.206   0.789   2.492 -1.3237 -0.7726  1.3362
  833TIP3    H2 2506   1.100   0.860   2.573 -1.9214 -0.2351  0.1047
  834TIP3   OH2 2507   2.113   3.156   4.360 -0.2384 -0.1924  0.6631
  834TIP3    H1 2508   2.017   3.161   4.361 -0.2376  0.1545  2.5865
  834TIP3    H2 2509   2.132   3.063   4.372 -0.3270 -0.2581  0.3088
  835TIP3   OH2 2510   4.633   2.904   3.641  0.7936 -0.1789  0.0239
  835TIP3    H1 2511   4.613   2.954   3.720  1.2229  1.0091 -0.5883
  835TIP3    H2 2512   4.634   2.813   3.669 -2.1821 -0.0846  0.7784
  836TIP3   OH2 2513   1.502   4.666   2.533 -0.0425  0.0519 -0.2403
  836TIP3    H1 2514   1.450   4.744   2.513 -0.5388 -0.5871 -1.5702
  836TIP3    H2 2515   1.440   4.593   2.527  0.7378 -0.6038 -0.6665
  837TIP3   OH2 2516   2.771   3.114   4.676  0.7304 -0.2557 -0.3134
  837TIP3    H1 2517   2.725   3.125   4.759  1.7729 -0.2422  0.2808
  837TIP3    H2 2518   2.782   3.203   4.642  1.9090 -0.0847  0.4518
  838TIP3   OH2 2519   1.020   1.093   4.531  0.4169  0.3159 -0.0538
  838TIP3    H1 2520   1.024   1.020   4.470  2.0592  0.9952 -0.8146
  838TIP3    H2 2521   1.072   1.064   4.606 -0.9201 -0.1981  0.7065
  839TIP3   OH2 2522   5.049   2.701   0.231  0.4469 -0.4903  0.7390
  839TIP3    H1 2523   5.019   2.713   0.141 -3.5777 -2.3040  1.5665
  839TIP3    H2 2524   5.009   2.773   0.280  1.1387 -0.4847  1.3141
  840TIP3   OH2 2525   3.240   4.826   0.101 -0.3168  0.3683 -0.3196
  840TIP3    H1 2526   3.148   4.854   0.107 -0.3172  0.2638  0.2949
  840TIP3    H2 2527   3.244   4.773   0.022 -0.5825  1.1242 -0.8508
  841TIP3   OH2 2528   2.955   0.379   1.049  0.2027  0.5485 -0.7032
  841TIP3    H1 2529   2.863   0.389   1.027  0.1654  0.9266 -0.3722
  841TIP3    H2 2530   2.963   0.412   1.138  0.4153 -0.6982 -0.2388
  842TIP3   OH2 2531   4.602   4.473   0.164 -0.4915 -0.2853 -0.0434
  842TIP3    H1 2532   4.519   4.516   0.143 -0.1398  0.6840  0.5091
  842TIP3    H2 2533   4.655   4.484   0.085  0.3328  2.1448  0.7648
  843TIP3   OH2 2534   1.941   2.510   3.812  0.0870  0.2600  0.3516
  843TIP3    H1 2535   2.021   2.493   3.762 -0.1298  1.7112 -0.5417
  843TIP3    H2 2536   1.900   2.584   3.767 -2.5634 -1.3713 -0.1362
  844TIP3   OH2 2537   0.102   5.291   2.634  0.2730 -0.3211 -0.6154
  844TIP3    H1 2538   0.104   5.385   2.646  0.2442 -0.2471 -1.1584
  844TIP3    H2 2539   0.141   5.277   2.547 -0.0365 -0.7776 -0.6863
  845TIP3   OH2 2540   6.324   3.658   3.316  0.2097 -0.0571  0.1112
  845TIP3    H1 2541   6.375   3.700   3.247  0.0740  0.4037  0.2869
  845TIP3    H2 2542   6.247   3.623   3.271  1.3234 -2.0058 -0.4093
  846TIP3   OH2 2543   2.244   2.118   1.184 -0.0341  0.1661 -0.3506
  846TIP3    H1 2544   2.176   2.104   1.250 -1.2490 -0.2042 -1.6299
  846TIP3    H2 2545   2.326   2.097   1.229 -0.8450 -0.3796  0.9343
  847TIP3   OH2 2546   2.677   4.446   1.869  0.4378 -0.0930 -0.0600
  847TIP3    H1 2547   2.689   4.528   1.917  2.6952 -1.0751  1.1887
  847TIP3    H2 2548   2.696   4.468   1.778 -0.2927  1.0159  0.0324
  848TIP3   OH2 2549   2.587   1.219   4.977 -0.3200  0.5334  0.0003
  848TIP3    H1 2550   2.666   1.202   4.925 -0.3007 -1.1732  0.5165
  848TIP3    H2 2551   2.517   1.222   4.912  0.0414  1.1465 -0.3733
  849TIP3   OH2 2552   5.999   1.106   4.425  0.4339 -0.2283 -0.2292
  849TIP3    H1 2553   6.074   1.140   4.376 -0.1244  0.0651 -0.9104
  849TIP3    H2 2554   5.999   1.154   4.507  0.4906  0.3939 -0.5872
  850TIP3   OH2 2555   2.022   5.331   3.024 -0.1910 -0.2330 -0.1546
  850TIP3    H1 2556   1.963   5.357   3.095  2.1305 -1.3846  2.3798
  850TIP3    H2 2557   2.064   5.412   2.996  0.5221 -0.0246  1.4285
  851TIP3   OH2 2558   4.222   3.037   3.213 -0.3751 -0.1382 -0.1545
  851TIP3    H1 2559   4.224   3.043   3.118 -0.7361 -1.0141 -0.2229
  851TIP3    H2 2560   4.161   2.965   3.231 -0.8210  0.4477  0.7497
  852TIP3   OH2 2561   2.671   5.075   1.628 -1.0537 -0.7093  0.2137
  852TIP3    H1 2562   2.707   5.100   1.543 -0.0987  0.0968  0.8254
  852TIP3    H2 2563   2.588   5.122   1.633 -0.3695  0.5276  0.3670
  853TIP3   OH2 2564   1.090   3.850   0.889  0.1723  0.4423  0.1604
  853TIP3    H1 2565   1.059   3.797   0.963 -0.2758  1.2630  0.5787
  853TIP3    H2 2566   1.021   3.916   0.877  0.8004  1.0366 -0.2336
  854TIP3   OH2 2567   4.953   4.629   4.967  0.2173  0.3132 -0.5602
  854TIP3    H1 2568   4.863   4.615   4.995  0.7655 -1.3407  0.4832
  854TIP3    H2 2569   4.977   4.548   4.922  1.4065  0.4474 -0.2049
  855TIP3   OH2 2570   0.710   1.195   3.868 -0.6856 -0.4780 -0.0313
  855TIP3    H1 2571   0.671   1.225   3.786  0.5169  0.8139 -0.1536
  855TIP3    H2 2572   0.661   1.115   3.889 -1.5246 -0.4193 -1.5951
  856TIP3   OH2 2573   4.865   5.709   3.301  0.2689  0.3317  0.1471
  856TIP3    H1 2574   4.876   5.680   3.391  1.1184 -1.1470 -0.4022
  856TIP3    H2 2575   4.852   5.804   3.308  1.4762  0.4216  1.7437
  857TIP3   OH2 2576   5.827   4.416   2.115  0.1066  0.4164 -0.4558
  857TIP3    H1 2577   5.848   4.383   2.028  0.7936  1.9078 -0.8875
  857TIP3    H2 2578   5.894   4.482   2.132 -0.9718  1.2867  0.5274
  858TIP3   OH2 2579   1.582   1.652   3.058  0.2769  0.7073  0.5596
  858TIP3    H1 2580   1.582   1.643   2.962  0.7014 -2.9539  0.7738
  858TIP3    H2 2581   1.644   1.724   3.074  2.1253 -0.1871 -1.8680
  859TIP3   OH2 2582   4.855   3.738   1.476  0.9033  0.4026 -0.2286
  859TIP3    H1 2583   4.832   3.784   1.395  0.1716 -0.3908 -0.4919
  859TIP3    H2 2584   4.783   3.758   1.535  1.2950  0.7447  0.1385
  860TIP3   OH2 2585   2.281   5.003   3.129  0.6841 -0.2183 -0.2925
  860TIP3    H1 2586   2.270   5.067   3.199 -0.6554 -1.7060  0.9591
  860TIP3    H2 2587   2.363   4.959   3.149  2.7285  2.3203 -2.3157
  861TIP3   OH2 2588   1.733   5.198   3.171  0.0439  0.8089  0.5246
  861TIP3    H1 2589   1.673   5.126   3.191 -1.2331  0.8887 -2.5260
  861TIP3    H2 2590   1.678   5.276   3.171  0.4153  1.0974 -0.7797
  862TIP3   OH2 2591   5.819   0.993   3.464  0.1994  0.1723  0.3720
  862TIP3    H1 2592   5.766   0.987   3.544 -1.6791 -1.1306 -0.8676
  862TIP3    H2 2593   5.755   0.985   3.393  1.9676 -0.2425 -1.2497
  863TIP3   OH2 2594   4.531   3.288   3.739  0.0037 -0.1799  0.2911
  863TIP3    H1 2595   4.556   3.337   3.818 -0.1356  0.0776  0.1770
  863TIP3    H2 2596   4.530   3.197   3.767  3.5736 -0.5550 -0.2665
  864TIP3   OH2 2597   2.537   0.600   1.993  0.2242 -0.5926  0.4353
  864TIP3    H1 2598   2.568   0.661   1.926  1.3568 -2.2257 -0.6156
  864TIP3    H2 2599   2.615   0.580   2.045 -0.3440 -0.4168  1.3699
  865TIP3   OH2 2600   4.912   4.918   2.097 -0.0398 -0.1030  0.3994
  865TIP3    H1 2601   5.002   4.929   2.069  0.0613  0.4141  0.8971
  865TIP3    H2 2602   4.870   5.002   2.077 -0.3110 -0.2063  0.5254
  866TIP3   OH2 2603   0.101   3.179   2.122 -0.7451  0.2033 -0.4414
  866TIP3    H1 2604   0.143   3.231   2.053 -0.7632  1.8032  0.7072
  866TIP3    H2 2605   0.019   3.149   2.083  0.1560 -0.6245 -1.7744
  867TIP3   OH2 2606   5.323   1.708   4.613  0.1338  0.2749 -0.3695
  867TIP3    H1 2607   5.393   1.772   4.599  0.9144 -0.3099  0.7556
  867TIP3    H2 2608   5.264   1.721   4.539  0.5429  1.9425 -0.4361
  868TIP3   OH2 2609   0.318   1.926   4.998 -0.3471 -0.5577 -0.2489
  868TIP3    H1 2610   0.241   1.891   5.044  0.0534 -0.3897  0.5666
  868TIP3    H2 2611   0.290   2.011   4.966 -0.1370  0.0576  1.1284
  869TIP3   OH2 2612   3.870   5.680   4.239 -0.5451  0.2510 -0.4444
  869TIP3    H1 2613   3.947   5.628   4.261 -1.0604 -0.5104 -0.4003
  869TIP3    H2 2614   3.848   5.725   4.321 -0.7997 -0.3950 -0.1509
  870TIP3   OH2 2615   5.953   1.250   4.666  0.8931  0.1926 -0.6469
  870TIP3    H1 2616   5.906   1.330   4.690 -0.0932 -0.7893  0.9059
  870TIP3    H2 2617   5.928   1.187   4.733  0.5791 -1.8244 -2.5474
  871TIP3   OH2 2618   1.781   2.044   5.012  0.1214 -0.7295 -0.2157
  871TIP3    H1 2619   1.772   1.984   4.938  0.4300  0.2782 -1.0940
  871TIP3    H2 2620   1.728   2.120   4.988 -2.5614 -1.7024  2.0867
  872TIP3   OH2 2621   3.348   3.988   2.017 -0.7486 -0.1448 -0.6839
  872TIP3    H1 2622   3.309   4.034   2.090  0.8365  1.5666 -0.8421
  872TIP3    H2 2623   3.389   3.911   2.056 -2.4727 -0.8952 -0.2561
  873TIP3   OH2 2624   4.915   3.203   2.611  0.3943 -0.0676 -0.1039
  873TIP3    H1 2625   4.938   3.186   2.703  1.4285  0.3196 -0.2791
  873TIP3    H2 2626   4.993   3.245   2.575 -0.7647  1.7262 -0.6219
  874TIP3   OH2 2627   0.502   1.357   0.498 -0.0207  0.1344  0.3728
  874TIP3    H1 2628   0.593   1.347   0.524 -0.0057 -1.0418 -0.0515
  874TIP3    H2 2629   0.455   1.373   0.580  0.2576 -1.7563  0.9615
  875TIP3   OH2 2630   5.250   0.444   2.170 -0.2227  0.3603 -0.0900
  875TIP3    H1 2631   5.247   0.391   2.250 -1.0760 -1.0923 -1.0549
  875TIP3    H2 2632   5.341   0.438   2.141  0.2201  1.3065  1.0031
  876TIP3   OH2 2633   2.002   3.417   0.191 -0.4106 -0.0728  0.7211
  876TIP3    H1 2634   1.977   3.336   0.145  1.7617  0.2493 -1.2233
  876TIP3    H2 2635   2.078   3.391   0.244  0.4302  0.6736 -0.0753
  877TIP3   OH2 2636   6.198   0.123   4.341 -0.2024 -0.1770  0.1822
  877TIP3    H1 2637   6.169   0.090   4.256  1.6837  1.3172 -1.1355
  877TIP3    H2 2638   6.292   0.104   4.343  0.1430  1.4382  1.1067
  878TIP3   OH2 2639   4.903   4.923   0.016  0.3301  0.4039  1.0853
  878TIP3    H1 2640   4.843   4.858   0.052  0.0821 -0.1805 -0.2801
  878TIP3    H2 2641   4.854   5.005   0.015  0.3411  0.4239  2.0209
  879TIP3   OH2 2642   2.537   2.839   2.227  0.3281 -0.4884  0.0483
  879TIP3    H1 2643   2.547   2.749   2.194  0.0025 -0.5808  0.1969
  879TIP3    H2 2644   2.457   2.871   2.185  0.5690 -0.1847 -0.1825
  880TIP3   OH2 2645   2.786   2.566   4.103  0.6398  0.0893 -0.1050
  880TIP3    H1 2646   2.831   2.483   4.087  0.4209 -0.3994  1.6372
  880TIP3    H2 2647   2.693   2.544   4.101  0.5212  0.6372 -1.3097
  881TIP3   OH2 2648   5.818   2.010   1.621 -0.1142  0.4383  0.2119
  881TIP3    H1 2649   5.726   2.006   1.646 -0.2146  1.5135  0.0580
  881TIP3    H2 2650   5.818   2.018   1.526  0.1406  0.3675  0.2032
  882TIP3   OH2 2651   4.772   4.551   0.366 -0.5491  0.3311  0.6341
  882TIP3    H1 2652   4.835   4.597   0.310 -0.2369  0.1616  0.8429
  882TIP3    H2 2653   4.699   4.531   0.309  0.4360 -1.2515 -0.1287
  883TIP3   OH2 2654   1.495   3.911   0.717  0.3728  0.2834  0.0920
  883TIP3    H1 2655   1.481   3.967   0.794  0.4639 -0.2916  0.5381
  883TIP3    H2 2656   1.533   3.969   0.652 -0.1280  0.8863  0.3253
  884TIP3   OH2 2657   2.719   5.839   0.746 -0.6984 -0.2591 -0.1771
  884TIP3    H1 2658   2.715   5.933   0.726  1.3620 -0.4391 -1.6547
  884TIP3    H2 2659   2.695   5.834   0.839 -0.1545  1.8133  0.1219
  885TIP3   OH2 2660   2.124   1.658   0.667 -0.3962  0.2901 -0.3524
  885TIP3    H1 2661   2.049   1.694   0.621 -1.4959 -2.4357 -0.8517
  885TIP3    H2 2662   2.100   1.660   0.759 -0.8471 -0.0396 -0.4628
  886TIP3   OH2 2663   4.381   4.463   0.663 -0.1069 -0.1167  0.0643
  886TIP3    H1 2664   4.326   4.458   0.741 -0.9613 -3.3607 -0.5865
  886TIP3    H2 2665   4.470   4.462   0.696 -0.4604 -0.2020  1.0521
  887TIP3   OH2 2666   6.047   4.236   0.146 -0.6587  0.3051 -0.4753
  887TIP3    H1 2667   5.953   4.223   0.161 -1.2519  1.5501 -2.5842
  887TIP3    H2 2668   6.064   4.325   0.176 -0.4072  0.4513 -1.0257
  888TIP3   OH2 2669   3.562   0.637   1.771 -0.2355 -0.1664  0.3819
  888TIP3    H1 2670   3.558   0.608   1.862  0.2809 -0.1769  0.4027
  888TIP3    H2 2671   3.470   0.648   1.745 -0.4419 -1.3775  0.5163
  889TIP3   OH2 2672   4.944   1.534   4.916 -0.1679  0.0117  0.0440
  889TIP3    H1 2673   5.000   1.482   4.857  0.1650 -0.2574  0.5838
  889TIP3    H2 2674   4.863   1.484   4.922  1.2682 -2.3582  3.1822
  890TIP3   OH2 2675   3.022   3.614   0.331 -0.1274 -0.0713  0.3611
  890TIP3    H1 2676   3.080   3.669   0.280 -0.7839 -0.9544 -1.4222
  890TIP3    H2 2677   3.036   3.641   0.422  1.6853  0.9805 -0.1926
  891TIP3   OH2 2678   3.476   4.316   1.983 -0.1026 -0.5197 -0.0196
  891TIP3    H1 2679   3.493   4.310   2.077  1.7355 -0.7658 -0.3299
  891TIP3    H2 2680   3.563   4.318   1.943 -0.8171 -2.2864 -1.8275
  892TIP3   OH2 2681   4.709   4.334   4.679 -0.0840 -0.0987 -0.1151
  892TIP3    H1 2682   4.703   4.341   4.774  2.9853 -1.4586  0.2758
  892TIP3    H2 2683   4.732   4.243   4.662  2.1298  0.6900 -1.8990
  893TIP3   OH2 2684   4.721   2.620   2.865 -0.2131  0.0462 -0.1908
  893TIP3    H1 2685   4.637   2.627   2.819  0.2895  2.3490 -0.8780
  893TIP3    H2 2686   4.774   2.691   2.829  2.4567 -1.9875 -0.5772
  894TIP3   OH2 2687   4.158   2.044   4.695  0.4379  0.1557  0.0895
  894TIP3    H1 2688   4.153   2.111   4.763  0.7146 -0.1831  0.4460
  894TIP3    H2 2689   4.090   2.069   4.632 -1.6294 -0.9024  1.7450
  895TIP3   OH2 2690   5.875   2.927   3.237 -0.4409 -0.7980 -0.1151
  895TIP3    H1 2691   5.790   2.955   3.270  0.3567 -0.3501  1.6950
  895TIP3    H2 2692   5.881   2.834   3.261 -0.8285 -1.1075 -1.1770
  896TIP3   OH2 2693   5.691   0.481   3.636 -0.2789 -0.0845  0.3051
  896TIP3    H1 2694   5.657   0.409   3.689  0.3134  0.0202  0.8515
  896TIP3    H2 2695   5.785   0.483   3.657 -0.1097  0.2069 -0.4653
  897TIP3   OH2 2696   0.730   0.600   3.315 -0.1776  0.4527  0.1893
  897TIP3    H1 2697   0.645   0.558   3.326  0.3464 -0.1945  2.1210
  897TIP3    H2 2698   0.709   0.694   3.308 -1.1429  0.1675 -1.3499
  898TIP3   OH2 2699   0.035   0.194   4.625 -0.6304  0.8231  0.8055
  898TIP3    H1 2700   0.065   0.281   4.652 -1.4644  1.1155  0.8322
  898TIP3    H2 2701  -0.060   0.197   4.637 -0.6527 -0.1462  0.9501
  899TIP3   OH2 2702   6.065   3.571   4.518  0.3504  0.6540  0.8361
  899TIP3    H1 2703   6.121   3.499   4.546  0.2512  0.6728  1.0837
  899TIP3    H2 2704   6.018   3.536   4.442  0.0470  0.3383  1.1652
  900TIP3   OH2 2705   4.662   2.383   3.571 -0.2378 -0.3893  0.2677
  900TIP3    H1 2706   4.727   2.345   3.631 -0.3781  0.1635  0.7813
  900TIP3    H2 2707   4.684   2.347   3.485 -0.7575 -2.1502  0.8331
  901TIP3   OH2 2708   6.264   3.494   4.241  0.4644 -0.5586 -0.1696
  901TIP3    H1 2709   6.198   3.539   4.188 -1.8529  0.2846  3.0906
  901TIP3    H2 2710   6.245   3.401   4.231 -0.0346 -0.4029 -0.6959
  902TIP3   OH2 2711   6.204   3.960   4.648 -0.0718 -0.0249 -0.2461
  902TIP3    H1 2712   6.287   3.913   4.660  1.3382  2.2642 -0.4864
  902TIP3    H2 2713   6.226   4.052   4.663 -2.3587  0.7674 -1.3122
  903TIP3   OH2 2714   1.466   1.539   4.786  0.1208  0.1597  0.2687
  903TIP3    H1 2715   1.414   1.576   4.715  0.0952 -0.7938 -0.2348
  903TIP3    H2 2716   1.552   1.522   4.746  1.6854  3.8049  1.6401
  904TIP3   OH2 2717   1.851   2.950   5.070 -0.0631  0.1190  0.1762
  904TIP3    H1 2718   1.905   3.027   5.090  0.5502 -0.0368 -0.7889
  904TIP3    H2 2719   1.914   2.879   5.060 -0.4777 -0.1447 -0.6139
  905TIP3   OH2 2720   5.305   1.533   3.660  0.4721 -0.3939  0.0533
  905TIP3    H1 2721   5.216   1.504   3.678  0.7648 -1.1732  0.2690
  905TIP3    H2 2722   5.297   1.585   3.580 -0.6612  2.1014  1.6416
  906TIP3   OH2 2723   2.390   0.493   4.042  0.7999 -0.3618 -0.3405
  906TIP3    H1 2724   2.320   0.537   4.090  1.9653 -0.8888  1.9683
  906TIP3    H2 2725   2.444   0.564   4.007 -0.0996  0.0229 -1.0052
  907TIP3   OH2 2726   2.975   2.242   2.995 -0.2284 -0.1573  0.2107
  907TIP3    H1 2727   3.023   2.187   3.056  1.3142  0.7455 -0.1439
  907TIP3    H2 2728   2.984   2.198   2.910  0.6551  0.4087  0.0026
  908TIP3   OH2 2729   2.590   5.289   5.036 -0.7107  0.6268 -0.2838
  908TIP3    H1 2730   2.604   5.383   5.047 -1.2641  0.7977 -0.9591
  908TIP3    H2 2731   2.657   5.262   4.974  0.8866  0.1200  1.5571
  909TIP3   OH2 2732   2.895   5.906   4.378  0.3668 -0.0695 -0.3740
  909TIP3    H1 2733   2.910   5.824   4.330  0.7144  0.2709 -0.8543
  909TIP3    H2 2734   2.966   5.964   4.349  0.8558 -0.0036  0.8929
  910TIP3   OH2 2735   5.690   3.441   4.371 -0.0143  0.4521  0.1954
  910TIP3    H1 2736   5.670   3.404   4.285  0.3298 -1.2175  0.7969
  910TIP3    H2 2737   5.783   3.464   4.367  0.0477  0.2019  0.1736
  911TIP3   OH2 2738   3.021   1.859   2.317  0.1676  0.4916 -0.3446
  911TIP3    H1 2739   3.017   1.920   2.244 -0.9193  1.0492  0.1653
  911TIP3    H2 2740   3.023   1.773   2.276 -0.5384  0.7941 -1.0333
  912TIP3   OH2 2741   1.991   0.590   2.660 -0.1867 -0.4103  0.0056
  912TIP3    H1 2742   2.058   0.610   2.595 -0.0817  0.2826  0.3166
  912TIP3    H2 2743   2.015   0.643   2.736 -1.0027 -0.2661  0.1726
  913TIP3   OH2 2744   3.658   0.756   3.105 -0.2058 -0.3872  0.0189
  913TIP3    H1 2745   3.563   0.759   3.117 -0.2555  1.4307 -0.4713
  913TIP3    H2 2746   3.669   0.735   3.012 -0.2708  2.3775 -0.7122
  914TIP3   OH2 2747   0.630   4.486   0.305  0.5306  0.8477 -0.7745
  914TIP3    H1 2748   0.569   4.438   0.361 -0.3562  1.7931 -0.8992
  914TIP3    H2 2749   0.673   4.418   0.253 -1.0872  0.2091 -1.3416
  915TIP3   OH2 2750   0.132   1.422   0.105 -0.3769  0.0501 -0.2200
  915TIP3    H1 2751   0.115   1.328   0.094  1.8078 -0.4436  0.2005
  915TIP3    H2 2752   0.174   1.429   0.191  0.6300  1.2423 -0.7805
  916TIP3   OH2 2753   6.238   1.259   2.478  0.3041 -0.3205 -0.3012
  916TIP3    H1 2754   6.215   1.183   2.532 -0.1742 -0.4762 -0.7168
  916TIP3    H2 2755   6.168   1.264   2.413  1.2843 -0.5948 -1.3857
  917TIP3   OH2 2756   1.728   2.404   0.677 -0.4869 -0.0618 -0.0302
  917TIP3    H1 2757   1.740   2.498   0.688 -1.4637  0.1641 -0.7467
  917TIP3    H2 2758   1.733   2.390   0.582 -0.6840 -0.6819  0.0455
  918TIP3   OH2 2759   6.297   2.337   1.968 -0.0819 -0.4128  0.3830
  918TIP3    H1 2760   6.270   2.249   1.991 -1.1583  0.0255  0.8700
  918TIP3    H2 2761   6.354   2.364   2.040  2.8087 -1.7659 -1.2026
  919TIP3   OH2 2762   5.560   1.893   3.136 -0.1237  0.3462 -0.5026
  919TIP3    H1 2763   5.578   1.877   3.044 -2.3770  0.6752 -1.0665
  919TIP3    H2 2764   5.618   1.965   3.160  2.7773 -1.7312 -0.7139
  920TIP3   OH2 2765   4.889   3.205   3.222  0.3923 -0.3632  0.0673
  920TIP3    H1 2766   4.847   3.206   3.308  0.5558  4.5517  0.3674
  920TIP3    H2 2767   4.819   3.181   3.161 -0.6753 -0.3934  1.2680
  921TIP3   OH2 2768   3.801   2.170   1.456  0.6338 -0.2749  0.1889
  921TIP3    H1 2769   3.890   2.200   1.436  0.3621  0.2283 -0.2861
  921TIP3    H2 2770   3.744   2.240   1.424  0.1816  1.1005  3.5206
  922TIP3   OH2 2771   4.218   1.082   2.594 -0.8878 -0.9507  0.0560
  922TIP3    H1 2772   4.260   0.998   2.611 -2.0916 -2.2058 -2.5494
  922TIP3    H2 2773   4.142   1.060   2.540 -1.8052  1.7537  0.0838
  923TIP3   OH2 2774   3.089   3.261   1.217  0.2927 -0.5342 -0.4589
  923TIP3    H1 2775   3.038   3.181   1.216  0.4851 -0.6580 -1.4366
  923TIP3    H2 2776   3.163   3.244   1.158  0.8631  0.0164  0.0810
  924TIP3   OH2 2777   0.392   3.053   4.601  0.2969  0.1933  0.2877
  924TIP3    H1 2778   0.455   3.059   4.673 -0.2171 -0.2404  0.7844
  924TIP3    H2 2779   0.430   2.989   4.541  0.9056  0.8267 -0.0144
  925TIP3   OH2 2780   2.082   5.826   0.825 -0.0279 -0.3759 -0.3116
  925TIP3    H1 2781   2.017   5.895   0.808 -0.8516 -1.4235 -1.6920
  925TIP3    H2 2782   2.032   5.758   0.871  0.3477 -0.7383 -0.4384
  926TIP3   OH2 2783   5.840   4.285   3.228  0.3431 -0.1154  0.0722
  926TIP3    H1 2784   5.876   4.233   3.156  0.5482  0.3779 -0.1863
  926TIP3    H2 2785   5.745   4.281   3.216  0.2977 -1.2590  0.6428
  927TIP3   OH2 2786   1.757   2.863   3.680 -0.4675 -0.3085  0.2269
  927TIP3    H1 2787   1.715   2.824   3.756 -0.0692 -0.9806  0.1076
  927TIP3    H2 2788   1.789   2.789   3.629  0.1288  0.1617 -0.1001
  928TIP3   OH2 2789   4.619   0.554   3.149 -0.0912  0.4548  0.6905
  928TIP3    H1 2790   4.644   0.641   3.178 -0.2429  0.5395  0.5698
  928TIP3    H2 2791   4.668   0.494   3.206 -0.2515  0.6191  1.0040
  929TIP3   OH2 2792   2.310   1.635   2.070 -0.1126 -0.6237 -0.2870
  929TIP3    H1 2793   2.287   1.720   2.109 -1.2288 -0.9676 -0.1696
  929TIP3    H2 2794   2.405   1.629   2.082 -0.2859 -0.3237  1.6340
  930TIP3   OH2 2795   4.515   0.996   1.298  0.0126  0.0773  0.4537
  930TIP3    H1 2796   4.600   1.033   1.274 -0.7010  0.9083 -0.9660
  930TIP3    H2 2797   4.502   0.925   1.235 -0.9688  0.9193 -0.3350
  931TIP3   OH2 2798   2.467   4.512   2.241 -0.0919 -0.4235 -0.3248
  931TIP3    H1 2799   2.487   4.563   2.163 -0.3732  1.6152  0.8627
  931TIP3    H2 2800   2.552   4.482   2.273  0.4849  2.0993  0.7250
  932TIP3   OH2 2801   3.772   1.070   3.758  0.4816  0.1329 -0.3992
  932TIP3    H1 2802   3.768   1.165   3.752  1.6438  0.1436 -1.1785
  932TIP3    H2 2803   3.795   1.052   3.849 -1.1293  0.5206  0.1246
  933TIP3   OH2 2804   0.433   1.536   4.132 -0.8008 -0.9093 -0.9644
  933TIP3    H1 2805   0.376   1.610   4.113  0.0113 -0.2838 -1.0591
  933TIP3    H2 2806   0.470   1.513   4.046 -0.8493 -1.2497 -0.8938
  934TIP3   OH2 2807   2.775   2.556   1.243  0.6236 -0.6962 -0.0731
  934TIP3    H1 2808   2.870   2.555   1.234  0.6428 -1.8967  0.1147
  934TIP3    H2 2809   2.760   2.591   1.331  0.8015  1.2018 -0.7516
  935TIP3   OH2 2810   3.151   5.235   0.245 -0.4088  0.4274  0.1558
  935TIP3    H1 2811   3.190   5.318   0.215  1.7820 -0.8074 -0.5980
  935TIP3    H2 2812   3.072   5.226   0.192  2.2331 -0.6596 -4.0679
  936TIP3   OH2 2813   3.901   4.733   0.444  0.2366 -0.4662 -0.9633
  936TIP3    H1 2814   3.827   4.673   0.451 -0.6023  0.7268  0.8031
  936TIP3    H2 2815   3.904   4.757   0.351 -2.2228  0.2342 -0.9128
  937TIP3   OH2 2816   5.516   4.092   0.224 -0.4591 -0.0061  0.4488
  937TIP3    H1 2817   5.487   4.001   0.230 -1.6642  0.4292  1.6960
  937TIP3    H2 2818   5.527   4.119   0.315  1.0520  0.7678  0.0743
  938TIP3   OH2 2819   4.330   3.909   3.303  0.2904  0.0525  0.2970
  938TIP3    H1 2820   4.302   3.847   3.370 -1.4893  0.4601 -0.0021
  938TIP3    H2 2821   4.286   3.880   3.223 -1.7845  2.4356  0.4504
  939TIP3   OH2 2822   4.144   3.239   4.585 -0.0538  0.2478  0.0253
  939TIP3    H1 2823   4.075   3.222   4.521  1.0133 -2.9683 -0.4504
  939TIP3    H2 2824   4.099   3.284   4.657 -2.4594 -0.8271 -0.6974
  940TIP3   OH2 2825   2.877   3.090   4.079  0.3099  0.4512  0.4003
  940TIP3    H1 2826   2.844   3.001   4.090 -0.7719  0.8290  0.3889
  940TIP3    H2 2827   2.800   3.141   4.055  0.9578  1.3494  0.1619
  941TIP3   OH2 2828   3.889   2.104   4.549  0.2992 -0.3741 -0.3484
  941TIP3    H1 2829   3.858   2.194   4.535  1.4477  0.0106 -0.4685
  941TIP3    H2 2830   3.821   2.064   4.604 -0.6543  0.2933 -1.0068
  942TIP3   OH2 2831   2.061   1.775   2.947 -0.0176 -0.1551 -0.6350
  942TIP3    H1 2832   2.098   1.741   2.865  2.0445 -1.2396  0.6621
  942TIP3    H2 2833   2.042   1.867   2.928 -0.4729 -0.6073 -2.5959
  943TIP3   OH2 2834   5.277   4.114   1.021 -0.2948  0.1858 -0.0914
  943TIP3    H1 2835   5.301   4.192   1.071 -0.3997  1.4871 -1.9584
  943TIP3    H2 2836   5.189   4.092   1.052  0.3469 -0.1951  1.5825
  944TIP3   OH2 2837   4.942   3.972   0.273  0.0907  0.1172  0.3938
  944TIP3    H1 2838   4.912   4.010   0.356  1.9320  0.5903  0.8873
  944TIP3    H2 2839   5.020   4.022   0.251 -0.7695  0.4884 -2.0588
  945TIP3   OH2 2840   6.334   0.359   2.887  0.0679 -0.2062  0.6545
  945TIP3    H1 2841   6.290   0.274   2.895  0.7378 -0.6433 -0.1197
  945TIP3    H2 2842   6.326   0.380   2.794  1.3697 -0.2359  0.5258
  946TIP3   OH2 2843   5.742   4.671   4.409 -0.6836 -0.4575 -0.1840
  946TIP3    H1 2844   5.735   4.577   4.422  2.5429 -0.7252  0.4192
  946TIP3    H2 2845   5.776   4.680   4.320 -1.3343  0.1953 -0.3795
  947TIP3   OH2 2846   4.247   5.400   1.261 -0.2334 -0.6098 -0.1996
  947TIP3    H1 2847   4.268   5.483   1.302 -2.8133 -0.3586  0.8385
  947TIP3    H2 2848   4.225   5.422   1.171 -1.4249 -0.0390  0.2093
  948TIP3   OH2 2849   4.456   5.701   3.151 -0.1016  0.1173  0.3498
  948TIP3    H1 2850   4.452   5.784   3.199  2.0948  0.4489  0.0797
  948TIP3    H2 2851   4.517   5.648   3.203 -0.8819 -1.0443  0.0939
  949TIP3   OH2 2852   1.678   4.114   2.630  0.1260  0.2512 -0.0198
  949TIP3    H1 2853   1.690   4.123   2.535 -0.8611 -1.2143 -0.3245
  949TIP3    H2 2854   1.733   4.040   2.654 -2.0223 -1.4845 -0.0804
  950TIP3   OH2 2855   4.158   4.412   0.842  0.1092 -0.2986 -0.5792
  950TIP3    H1 2856   4.127   4.345   0.782 -0.3041  0.2278 -0.9616
  950TIP3    H2 2857   4.085   4.473   0.850 -0.0912 -0.7049  0.9755
  951TIP3   OH2 2858   5.170   1.943   3.553  0.2481 -0.2321 -0.3303
  951TIP3    H1 2859   5.149   2.014   3.492  2.0721  0.5889 -0.0636
  951TIP3    H2 2860   5.258   1.915   3.529  0.4767 -0.8067  1.0677
  952TIP3   OH2 2861   3.541   5.836   4.582 -0.1369  0.4611  0.2807
  952TIP3    H1 2862   3.474   5.857   4.516 -0.7963 -1.1935  0.3871
  952TIP3    H2 2863   3.504   5.763   4.632  0.7507  1.0755  1.9110
  953TIP3   OH2 2864   2.934   5.741   1.846  0.0120 -0.1346  0.3458
  953TIP3    H1 2865   2.906   5.829   1.870  0.1728 -0.4303  1.6862
  953TIP3    H2 2866   2.853   5.690   1.844  0.1232 -0.3961  1.6049
  954TIP3   OH2 2867   1.278   5.540   3.900  0.0387  0.6402 -0.5583
  954TIP3    H1 2868   1.280   5.480   3.826  0.1666 -0.3126  0.1928
  954TIP3    H2 2869   1.189   5.531   3.935 -0.1960  1.4963 -0.9149
  955TIP3   OH2 2870   4.281   1.349   5.058  0.1373 -0.2096  0.2273
  955TIP3    H1 2871   4.342   1.409   5.102  1.6741 -1.3676 -0.2385
  955TIP3    H2 2872   4.272   1.276   5.119 -0.8323 -0.0541  0.2923
  956TIP3   OH2 2873   4.412   5.013   3.695 -0.4960 -0.6032  0.3075
  956TIP3    H1 2874   4.362   5.069   3.755  0.7056  0.5911  0.2357
  956TIP3    H2 2875   4.428   5.068   3.618  1.1683 -0.8325  0.4578
  957TIP3   OH2 2876   1.300   1.232   1.896  0.8174  0.1786 -0.7193
  957TIP3    H1 2877   1.299   1.288   1.974 -0.8157 -2.2513  1.1619
  957TIP3    H2 2878   1.340   1.150   1.925 -2.1732 -1.7544 -1.5948
  958TIP3   OH2 2879   2.916   0.886   3.193  0.0053 -0.1531  0.1031
  958TIP3    H1 2880   2.839   0.944   3.198  0.6449  0.7619 -0.2375
  958TIP3    H2 2881   2.893   0.821   3.127 -0.2285  0.5301 -0.5049
  959TIP3   OH2 2882   3.881   4.166   2.537 -0.1198  0.0771  0.1559
  959TIP3    H1 2883   3.952   4.230   2.527  0.1199  0.0468  1.5284
  959TIP3    H2 2884   3.909   4.111   2.610 -0.9424 -0.7757 -0.1605
  960TIP3   OH2 2885   1.904   5.092   0.033  0.0219  0.3503  0.3865
  960TIP3    H1 2886   1.920   5.124   0.122  0.1864  0.3847  0.3443
  960TIP3    H2 2887   1.981   5.119  -0.016  0.1591 -0.1079  0.3465
  961TIP3   OH2 2888   3.177   4.380   1.366 -0.2894 -0.3217 -0.0326
  961TIP3    H1 2889   3.126   4.424   1.434  0.6369  0.7769 -0.0329
  961TIP3    H2 2890   3.262   4.422   1.369  0.0536 -0.8981 -1.2693
  962TIP3   OH2 2891   3.108   5.503   0.098  0.2276  0.3908  0.1637
  962TIP3    H1 2892   3.068   5.499   0.011 -1.1312  0.7196  0.7489
  962TIP3    H2 2893   3.155   5.586   0.099 -0.3671  0.7305  0.0004
  963TIP3   OH2 2894   3.152   3.002   1.289  0.6759 -0.4743 -0.2384
  963TIP3    H1 2895   3.140   2.913   1.322  1.2228 -0.6123 -0.4083
  963TIP3    H2 2896   3.170   3.054   1.368 -0.4578 -0.3528 -0.0366
  964TIP3   OH2 2897   6.102   4.352   0.437  0.8148  0.2973 -0.1074
  964TIP3    H1 2898   6.182   4.405   0.444  2.6773 -1.9140 -2.5077
  964TIP3    H2 2899   6.132   4.270   0.398 -2.5964 -0.8847 -0.5143
  965TIP3   OH2 2900   4.827   0.332   3.704 -0.3970 -0.1143 -0.0777
  965TIP3    H1 2901   4.894   0.266   3.688 -0.5200 -0.7314  1.7335
  965TIP3    H2 2902   4.752   0.303   3.650 -0.2609 -1.1536  0.2680
  966TIP3   OH2 2903   4.518   0.024   0.164  0.7531  0.5026  0.0425
  966TIP3    H1 2904   4.532  -0.020   0.248  0.6736 -0.0219 -0.2187
  966TIP3    H2 2905   4.427   0.054   0.168  0.6201  0.1096 -0.0265
  967TIP3   OH2 2906   5.838   0.493   4.610 -0.1668  0.2934 -0.2339
  967TIP3    H1 2907   5.751   0.523   4.587 -0.4358  0.1467  0.5420
  967TIP3    H2 2908   5.844   0.507   4.705  0.1879 -0.8394 -0.0704
  968TIP3   OH2 2909   4.676   4.686   4.491  0.3900 -0.0367 -0.5952
  968TIP3    H1 2910   4.712   4.774   4.477 -1.4876  1.3705  2.3761
  968TIP3    H2 2911   4.744   4.639   4.539  0.3568  0.7676  0.2579
  969TIP3   OH2 2912   1.306   4.802   3.606 -0.5729 -0.1021 -0.5532
  969TIP3    H1 2913   1.352   4.727   3.644  2.9780  1.7086 -0.8499
  969TIP3    H2 2914   1.261   4.843   3.681  1.8475  0.3715  0.7453
  970TIP3   OH2 2915   2.755   2.089   4.326 -0.4667 -0.3122  0.0200
  970TIP3    H1 2916   2.740   2.085   4.420  2.2213  1.2936  0.6104
  970TIP3    H2 2917   2.772   2.181   4.308 -1.5705 -0.4770 -2.2121
  971TIP3   OH2 2918   5.897   1.031   1.112 -0.0472  0.5403  0.4933
  971TIP3    H1 2919   5.879   1.125   1.116  0.2272  0.5804  0.8724
  971TIP3    H2 2920   5.817   0.992   1.076 -0.3661  0.8600  0.8458
  972TIP3   OH2 2921   4.196   1.936   2.619 -0.4934 -0.4501 -0.2167
  972TIP3    H1 2922   4.183   1.922   2.525 -1.1383 -1.8013  0.0415
  972TIP3    H2 2923   4.290   1.936   2.631 -0.3907  0.3661 -0.9409
  973TIP3   OH2 2924   1.688   2.871   2.251  0.0951  0.3544 -0.2604
  973TIP3    H1 2925   1.651   2.959   2.247 -1.3380 -0.1999  0.4413
  973TIP3    H2 2926   1.619   2.814   2.217  1.7734 -0.3318 -2.8729
  974TIP3   OH2 2927   2.616   2.150   3.660 -0.5652 -0.2743  0.5784
  974TIP3    H1 2928   2.660   2.233   3.678  0.5243 -1.2047  2.5502
  974TIP3    H2 2929   2.523   2.174   3.653 -0.2262  1.1616  0.6441
  975TIP3   OH2 2930   3.600   2.398   4.721  0.3841 -0.2872  0.0015
  975TIP3    H1 2931   3.537   2.467   4.740  0.1140 -0.7313  0.7615
  975TIP3    H2 2932   3.561   2.319   4.757  0.9767 -0.7273 -0.3008
  976TIP3   OH2 2933   0.946   1.943   5.054  0.2586 -0.0471  0.4727
  976TIP3    H1 2934   0.983   2.029   5.075  3.2049 -1.0215 -0.2566
  976TIP3    H2 2935   0.999   1.911   4.981 -0.9843 -2.3438  0.4703
  977TIP3   OH2 2936   0.242   5.000   1.490 -0.1104 -0.3471 -0.3075
  977TIP3    H1 2937   0.209   4.942   1.558  0.9098 -2.7418 -1.6780
  977TIP3    H2 2938   0.315   4.951   1.451 -1.1368  0.4933 -3.6281
  978TIP3   OH2 2939   5.166   2.893   3.872 -0.0356  0.0644 -0.0019
  978TIP3    H1 2940   5.180   2.816   3.817  0.5003  0.4082 -0.3507
  978TIP3    H2 2941   5.170   2.859   3.962 -1.2469 -0.5530 -0.1636
  979TIP3   OH2 2942   0.554   2.822   0.077 -1.4457  0.3567  0.1706
  979TIP3    H1 2943   0.607   2.900   0.092 -1.3801  0.2499  0.5105
  979TIP3    H2 2944   0.464   2.852   0.085 -1.6226  1.2066 -3.4258
  980TIP3   OH2 2945   0.250   3.500   3.062  0.1852  0.1086 -0.5672
  980TIP3    H1 2946   0.203   3.573   3.102  0.9588 -1.0131  2.6296
  980TIP3    H2 2947   0.211   3.422   3.101  0.2827 -1.2073 -2.9061
  981TIP3   OH2 2948   0.057   1.942   3.169 -0.6945  0.2525  0.0667
  981TIP3    H1 2949   0.041   2.035   3.152 -0.4441  0.4276  0.7590
  981TIP3    H2 2950   0.104   1.911   3.092 -1.0559  0.6231 -0.3054
  982TIP3   OH2 2951   4.402   5.178   1.274  0.0042 -0.0484  0.0727
  982TIP3    H1 2952   4.483   5.226   1.296 -0.8646  1.6984 -0.3591
  982TIP3    H2 2953   4.334   5.245   1.274 -1.0898 -1.0775 -1.7655
  983TIP3   OH2 2954   0.582   1.369   4.564  0.6415 -0.0804  0.1679
  983TIP3    H1 2955   0.532   1.449   4.581  0.1450 -0.6649  1.6407
  983TIP3    H2 2956   0.560   1.346   4.474 -1.3233  0.0224  0.5715
  984TIP3   OH2 2957   5.002   4.124   3.849  0.4320  0.3835  0.1239
  984TIP3    H1 2958   4.933   4.169   3.799 -0.0039 -0.5295 -0.1270
  984TIP3    H2 2959   4.987   4.031   3.831  1.4582  0.1472  0.4353
  985TIP3   OH2 2960   1.200   2.578   0.039  0.0597  0.9966 -0.2653
  985TIP3    H1 2961   1.227   2.652  -0.017 -0.5052  0.7922 -0.8190
  985TIP3    H2 2962   1.249   2.591   0.120  3.3823 -0.4055 -1.8366
  986TIP3   OH2 2963   3.408   4.519   1.428 -0.2413 -0.7084  0.2890
  986TIP3    H1 2964   3.395   4.611   1.451 -0.5509 -0.5273 -0.5447
  986TIP3    H2 2965   3.500   4.512   1.405 -0.2706 -0.5423  0.1168
  987TIP3   OH2 2966   0.326   5.700   4.518  0.0934  0.3922  0.0490
  987TIP3    H1 2967   0.372   5.656   4.447 -0.8602  0.0965 -0.4141
  987TIP3    H2 2968   0.260   5.637   4.547 -0.9416  1.2922 -0.2682
  988TIP3   OH2 2969   3.889   3.268   1.042 -0.2933  0.1998  0.8149
  988TIP3    H1 2970   3.903   3.235   1.131 -1.9363  1.3888  1.5673
  988TIP3    H2 2971   3.952   3.341   1.034 -0.4679  0.3956  1.1903
  989TIP3   OH2 2972   0.590   1.530   3.171 -0.3660  0.3035 -0.7416
  989TIP3    H1 2973   0.618   1.568   3.254 -1.1029 -0.4369 -0.1429
  989TIP3    H2 2974   0.650   1.456   3.157  0.8019  1.3794 -1.7012
  990TIP3   OH2 2975   2.977   4.056   4.665  1.0456 -0.2689  1.0209
  990TIP3    H1 2976   2.899   4.110   4.648 -0.8619 -2.4212  2.3565
  990TIP3    H2 2977   2.993   4.067   4.759  2.7494  0.5544  0.6662
  991TIP3   OH2 2978   3.967   1.450   4.511 -0.3589 -0.2347  0.1522
  991TIP3    H1 2979   3.915   1.377   4.479 -0.4218  0.0580 -0.4297
  991TIP3    H2 2980   3.953   1.450   4.606 -1.4515 -0.1373 -0.0005
  992TIP3   OH2 2981   5.483   3.958   1.124 -1.0406  0.0707 -0.2988
  992TIP3    H1 2982   5.551   3.934   1.061 -1.5211  0.7562 -1.0921
  992TIP3    H2 2983   5.412   3.992   1.071 -1.2769  1.0974  0.6494
  993TIP3   OH2 2984   2.814   0.650   3.084  0.2478  0.0828  0.3498
  993TIP3    H1 2985   2.749   0.598   3.036  1.0186 -0.1601 -0.4606
  993TIP3    H2 2986   2.897   0.629   3.042  0.4843  2.7381 -0.7001
  994TIP3   OH2 2987   2.406   2.161   0.723  0.5977  0.1230  0.4635
  994TIP3    H1 2988   2.395   2.066   0.722  1.7966 -0.0370 -0.1232
  994TIP3    H2 2989   2.332   2.194   0.672  2.2653 -0.8257 -2.8654
  995TIP3   OH2 2990   4.072   4.078   2.959 -0.0069 -0.3141  0.3968
  995TIP3    H1 2991   4.158   4.113   2.937 -0.2917  0.4967  0.5307
  995TIP3    H2 2992   4.047   4.124   3.039 -0.7976 -0.1294  0.0547
  996TIP3   OH2 2993   4.083   2.126   2.966  0.7860 -0.2374 -0.3006
  996TIP3    H1 2994   4.142   2.196   2.996 -0.1157  0.5590 -0.3432
  996TIP3    H2 2995   4.084   2.062   3.037  1.1397  0.1107  0.0150
  997TIP3   OH2 2996   1.766   0.879   3.819 -0.0522 -0.0038 -0.1791
  997TIP3    H1 2997   1.682   0.919   3.843 -0.4564 -0.3498 -0.9881
  997TIP3    H2 2998   1.742   0.798   3.774  0.7472 -1.5889  2.0666
  998TIP3   OH2 2999   5.974   2.762   3.017  0.2866 -0.0439  0.2146
  998TIP3    H1 3000   5.931   2.841   2.985 -0.2517 -0.7641 -0.8893
  998TIP3    H2 3001   6.020   2.790   3.097 -0.4600  1.2156  0.2236
  999TIP3   OH2 3002   5.979   5.616   1.340 -0.1667 -0.1533  0.0951
  999TIP3    H1 3003   6.070   5.644   1.343 -0.5558  1.3452 -1.1371
  999TIP3    H2 3004   5.958   5.593   1.431  0.1381  3.7850  1.3301
 1000TIP3   OH2 3005   3.777   4.038   1.120  0.5785 -0.0670  0.5902
 1000TIP3    H1 3006   3.829   4.014   1.044  0.5528  0.7970  0.2872
 1000TIP3    H2 3007   3.696   4.076   1.083  1.4247  2.2903  0.9676
 1001TIP3   OH2 3008   0.722   0.401   1.940 -0.0325 -0.0357  0.0063
 1001TIP3    H1 3009   0.670   0.349   1.879  0.2196 -0.4145  0.1124
 1001TIP3    H2 3010   0.757   0.472   1.886 -1.2133  0.6296  0.0796
 1002TIP3   OH2 3011   6.315   3.710   1.878 -0.0716  0.0080 -0.1221
 1002TIP3    H1 3012   6.313   3.689   1.971 -0.0938  0.5688  0.0071
 1002TIP3    H2 3013   6.274   3.796   1.872 -0.1783 -0.0804 -0.6647
 1003TIP3   OH2 3014   2.313   5.061   1.884  0.2456 -0.0412  0.3392
 1003TIP3    H1 3015   2.351   5.141   1.921 -3.2129  1.7225  0.4818
 1003TIP3    H2 3016   2.297   5.005   1.960 -0.7466  0.7526  0.7307
 1004TIP3   OH2 3017   1.587   0.461   4.136 -0.3179 -1.0543  0.1070
 1004TIP3    H1 3018   1.640   0.382   4.119  0.9763 -0.4710  1.2096
 1004TIP3    H2 3019   1.549   0.446   4.222 -0.4893 -0.6867  0.0962
 1005TIP3   OH2 3020   4.287   1.844   1.774 -0.5645  0.3318  0.2616
 1005TIP3    H1 3021   4.259   1.753   1.759  2.8275 -0.8762  0.4978
 1005TIP3    H2 3022   4.328   1.871   1.692 -0.5282  1.2598  0.5716
 1006TIP3   OH2 3023   0.556   1.275   4.864 -0.5860  0.3745 -0.2951
 1006TIP3    H1 3024   0.522   1.211   4.927 -2.4655  1.1533 -0.4334
 1006TIP3    H2 3025   0.589   1.346   4.918  1.3358 -0.5787 -0.1452
 1007TIP3   OH2 3026   1.122   4.858   1.260 -0.6372 -0.4811  0.1755
 1007TIP3    H1 3027   1.065   4.820   1.327 -0.1943  0.3418  1.0348
 1007TIP3    H2 3028   1.211   4.835   1.289 -0.4086  0.4948  0.2714
 1008TIP3   OH2 3029   2.630   5.830   4.636 -0.4055  0.1154 -0.5910
 1008TIP3    H1 3030   2.715   5.872   4.621 -0.5564  0.6325 -0.0664
 1008TIP3    H2 3031   2.577   5.899   4.677 -1.0717 -0.2067 -0.8965
 1009TIP3   OH2 3032   3.288   3.703   1.182 -0.3715 -0.1704 -0.0613
 1009TIP3    H1 3033   3.248   3.705   1.269  0.9740  1.4669  0.5845
 1009TIP3    H2 3034   3.218   3.730   1.122 -0.8923  0.2490  0.7253
 1010TIP3   OH2 3035   2.063   0.314   1.061 -0.0324 -0.4167  0.1372
 1010TIP3    H1 3036   2.105   0.379   1.117  1.0856  0.0216 -1.1514
 1010TIP3    H2 3037   1.969   0.325   1.078  0.1588  1.2466  0.2816
 1011TIP3   OH2 3038   2.274   1.959   4.365 -0.0682  0.1666 -0.1460
 1011TIP3    H1 3039   2.311   2.044   4.342  1.5414 -0.2625  0.7024
 1011TIP3    H2 3040   2.200   1.948   4.306  1.5058  0.8196 -2.3647
 1012TIP3   OH2 3041   6.202   4.647   4.971 -0.2404  0.7274  0.0486
 1012TIP3    H1 3042   6.136   4.613   5.032 -1.1996  0.0761 -1.3087
 1012TIP3    H2 3043   6.165   4.730   4.941 -0.5603  0.2465 -0.8967
 1013TIP3   OH2 3044   5.297   5.719   0.411  0.3133  0.3011 -0.4607
 1013TIP3    H1 3045   5.233   5.672   0.357  1.2467 -1.2867 -0.2473
 1013TIP3    H2 3046   5.297   5.671   0.494  0.5273  1.3547  0.1633
 1014TIP3   OH2 3047   0.167   5.138   5.085  0.2876  0.3916 -0.4736
 1014TIP3    H1 3048   0.262   5.150   5.083  0.4771 -0.8065  0.5160
 1014TIP3    H2 3049   0.149   5.083   5.009  0.4913 -0.0792 -0.1808
 1015TIP3   OH2 3050   2.957   0.589   1.832 -0.6112  0.4693  0.1396
 1015TIP3    H1 3051   2.881   0.631   1.874 -0.6262  0.3528  0.2300
 1015TIP3    H2 3052   3.025   0.592   1.899 -0.5762  0.4547  0.1043
 1016TIP3   OH2 3053   5.075   3.819   4.721  0.0593  0.6214  0.2349
 1016TIP3    H1 3054   5.022   3.748   4.684  2.1353 -1.4154  0.9360
 1016TIP3    H2 3055   5.045   3.826   4.812  0.2854  0.1636  0.3493
 1017TIP3   OH2 3056   3.742   3.408   2.581  0.3337  0.2843 -0.4286
 1017TIP3    H1 3057   3.710   3.471   2.516  0.0944  0.3695 -0.2275
 1017TIP3    H2 3058   3.748   3.325   2.532  0.0407  0.3227 -0.5320
 1018TIP3   OH2 3059   2.533   3.421   0.956 -0.4171 -0.0607 -0.1893
 1018TIP3    H1 3060   2.616   3.375   0.953 -1.0522 -1.1932 -1.1702
 1018TIP3    H2 3061   2.541   3.480   1.032  1.3189 -0.0043 -0.3713
 1019TIP3   OH2 3062   3.140   0.115   0.198  0.4032 -0.1451 -0.6416
 1019TIP3    H1 3063   3.069   0.065   0.158 -1.1135  1.5223 -0.1542
 1019TIP3    H2 3064   3.129   0.101   0.292  1.7624 -1.1673 -0.5927
 1020TIP3   OH2 3065   5.814   3.420   0.652  0.5101  0.3128 -0.3115
 1020TIP3    H1 3066   5.903   3.393   0.671  0.5832  1.9492  2.1600
 1020TIP3    H2 3067   5.768   3.412   0.735 -1.2405  0.9918 -1.1627
 1021TIP3   OH2 3068   4.493   3.664   4.419  0.0685 -0.2195 -1.0405
 1021TIP3    H1 3069   4.576   3.696   4.386  0.1935  2.9742  1.8184
 1021TIP3    H2 3070   4.438   3.742   4.427 -2.2874 -1.8160 -0.2830
 1022TIP3   OH2 3071   3.766   1.406   1.189 -0.0151  0.1472  0.3506
 1022TIP3    H1 3072   3.680   1.442   1.208 -0.5052  0.0467 -1.5013
 1022TIP3    H2 3073   3.758   1.313   1.209  0.0068  0.3260  1.2206
 1023TIP3   OH2 3074   4.106   4.001   2.705 -0.1028 -0.0492  0.2060
 1023TIP3    H1 3075   4.071   3.912   2.699 -0.5774  0.1020  0.7579
 1023TIP3    H2 3076   4.066   4.039   2.783  1.3315  0.1131  0.9083
 1024TIP3   OH2 3077   1.330   1.719   2.183  0.1523  0.5082  0.4947
 1024TIP3    H1 3078   1.333   1.781   2.256  1.0519  0.2484  0.6958
 1024TIP3    H2 3079   1.250   1.669   2.197  0.9962 -0.4829  2.1307
 1025TIP3   OH2 3080   4.325   0.208   1.080 -0.6054  0.6355 -0.2495
 1025TIP3    H1 3081   4.412   0.186   1.115 -0.6772 -0.9939 -1.0432
 1025TIP3    H2 3082   4.337   0.294   1.039  0.7880  0.1809 -0.8539
 1026TIP3   OH2 3083   4.855   0.370   1.695  0.5257 -0.2785  0.0962
 1026TIP3    H1 3084   4.767   0.405   1.713  0.8537  0.7475 -0.2209
 1026TIP3    H2 3085   4.841   0.276   1.685 -1.0691  0.1339 -2.8164
 1027TIP3   OH2 3086   0.118   2.331   2.981  0.1117 -0.6244 -0.4553
 1027TIP3    H1 3087   0.053   2.402   2.989  1.1012  0.1982  0.4918
 1027TIP3    H2 3088   0.187   2.369   2.927  0.1025 -1.2859 -0.9352
 1028TIP3   OH2 3089   1.662   3.277   5.049  0.0370  1.0525 -0.2884
 1028TIP3    H1 3090   1.617   3.291   4.965 -0.3514 -0.3879 -0.3445
 1028TIP3    H2 3091   1.655   3.360   5.094 -2.3155  1.0186 -0.4823
 1029TIP3   OH2 3092   4.814   5.385   2.951 -0.2395 -0.3760 -0.3132
 1029TIP3    H1 3093   4.866   5.305   2.959  0.2082 -0.0657 -0.0931
 1029TIP3    H2 3094   4.771   5.377   2.866  1.0965 -0.1049 -1.0438
 1030TIP3   OH2 3095   3.267   2.851   4.698  0.1293 -0.3114  0.2571
 1030TIP3    H1 3096   3.316   2.841   4.779  1.7206  0.3578 -0.5761
 1030TIP3    H2 3097   3.185   2.891   4.724  0.4231 -0.5359  1.5881
 1031TIP3   OH2 3098   0.674   4.093   2.757 -0.0158  0.2143  0.1293
 1031TIP3    H1 3099   0.711   4.162   2.702  0.5555  1.6756  2.2164
 1031TIP3    H2 3100   0.694   4.012   2.711  3.7872  1.0756 -0.0200
 1032TIP3   OH2 3101   2.859   4.373   4.345  0.5544  0.3101  0.0955
 1032TIP3    H1 3102   2.853   4.335   4.432 -0.2145  1.0596  0.3823
 1032TIP3    H2 3103   2.881   4.299   4.288 -0.7551 -0.5609  0.6629
 1033TIP3   OH2 3104   5.684   2.483   3.014 -0.4654 -0.1565 -0.4485
 1033TIP3    H1 3105   5.697   2.389   3.000 -1.5886 -0.7726  2.1011
 1033TIP3    H2 3106   5.762   2.523   2.975  0.8619 -2.2784 -0.1934
 1034TIP3   OH2 3107   1.474   1.089   1.311 -0.2587  0.2614 -0.6094
 1034TIP3    H1 3108   1.498   1.062   1.223  1.1771 -2.0003  0.3800
 1034TIP3    H2 3109   1.481   1.185   1.310  2.0058  0.1577 -2.3496
 1035TIP3   OH2 3110   5.945   1.024   5.084 -0.3455  0.4263 -0.6063
 1035TIP3    H1 3111   5.907   1.059   5.003 -1.8616 -0.1724 -0.1838
 1035TIP3    H2 3112   5.899   1.070   5.154  0.8751  0.8574 -0.0454
 1036TIP3   OH2 3113   2.760   2.076   0.215 -0.4346  0.2784  0.3620
 1036TIP3    H1 3114   2.820   2.132   0.264 -0.8970  0.4616  0.7301
 1036TIP3    H2 3115   2.743   2.125   0.134 -1.0964  0.8445  0.8247
 1037TIP3   OH2 3116   0.620   2.241   4.732 -0.1717  0.2193  0.0757
 1037TIP3    H1 3117   0.569   2.179   4.785 -1.5814 -0.8655 -2.3581
 1037TIP3    H2 3118   0.629   2.318   4.787 -2.6469 -0.3689  1.4501
 1038TIP3   OH2 3119   3.676   5.236   0.443 -0.1523 -0.3810 -0.1816
 1038TIP3    H1 3120   3.624   5.316   0.436 -1.0112 -1.0307 -1.3134
 1038TIP3    H2 3121   3.767   5.266   0.434 -0.3977  0.5674  0.3396
 1039TIP3   OH2 3122   4.019   4.880   1.617 -0.8820  1.0428  0.0396
 1039TIP3    H1 3123   4.093   4.909   1.670  0.5044  0.2540 -1.3830
 1039TIP3    H2 3124   3.966   4.959   1.604  0.5618  1.9985 -0.2412
 1040TIP3   OH2 3125   1.307   4.102   0.389  0.5874 -0.0180 -0.3813
 1040TIP3    H1 3126   1.284   4.191   0.359 -0.9274  0.1771  1.2091
 1040TIP3    H2 3127   1.401   4.107   0.408  1.0131  0.6022 -2.3625
 1041TIP3   OH2 3128   1.456   3.149   4.597 -0.0525  0.4714  0.3303
 1041TIP3    H1 3129   1.381   3.208   4.594 -0.1557  0.3227 -0.3340
 1041TIP3    H2 3130   1.504   3.168   4.516  0.6408  0.5829  0.7592
 1042TIP3   OH2 3131   2.003   5.844   0.409  0.3016  0.4141 -0.0887
 1042TIP3    H1 3132   2.047   5.771   0.454  0.6387 -1.2174 -2.8632
 1042TIP3    H2 3133   1.945   5.881   0.475  0.0015 -2.4730  1.4021
 1043TIP3   OH2 3134   5.407   4.351   4.660  0.1016 -0.0649  0.1371
 1043TIP3    H1 3135   5.439   4.264   4.638 -0.7883 -0.1432 -0.9052
 1043TIP3    H2 3136   5.485   4.407   4.655  0.2780 -0.4096 -1.4902
 1044TIP3   OH2 3137   2.947   2.714   3.349  0.0491  0.2728 -0.1480
 1044TIP3    H1 3138   2.893   2.768   3.406  0.0958 -0.1959  0.3557
 1044TIP3    H2 3139   2.885   2.656   3.305  0.2736 -2.3400  2.6362
 1045TIP3   OH2 3140   5.394   5.929   3.924  0.2034 -0.2663  0.0230
 1045TIP3    H1 3141   5.420   5.899   4.011  0.5044 -0.0931 -0.0037
 1045TIP3    H2 3142   5.376   5.849   3.875  1.2224 -0.4301 -0.1187
 1046TIP3   OH2 3143   4.605   4.188   0.593  0.4546  0.5218  0.3204
 1046TIP3    H1 3144   4.636   4.272   0.627  2.8537 -0.1667  0.0017
 1046TIP3    H2 3145   4.569   4.209   0.507  0.8818  1.2499  0.3129
 1047TIP3   OH2 3146   0.596   5.474   3.949 -0.5058  0.3427 -0.1589
 1047TIP3    H1 3147   0.588   5.428   3.865 -1.7002 -0.3185  0.2954
 1047TIP3    H2 3148   0.529   5.542   3.946 -1.5899 -0.6436  0.8377
 1048TIP3   OH2 3149   3.972   1.597   3.693 -0.6221 -1.2300 -0.4443
 1048TIP3    H1 3150   3.882   1.595   3.663 -1.2865 -2.8629  1.3955
 1048TIP3    H2 3151   4.007   1.680   3.661 -3.7840  1.1004  1.5324
 1049TIP3   OH2 3152   1.081   2.876   3.808  0.1537  0.5027 -0.1405
 1049TIP3    H1 3153   1.077   2.953   3.865 -0.7614  0.1881  0.2332
 1049TIP3    H2 3154   1.157   2.892   3.752  0.7725  1.0498  0.8257
 1050TIP3   OH2 3155   3.778   3.825   1.261  0.3571  0.0839 -0.3612
 1050TIP3    H1 3156   3.709   3.765   1.233  0.6320  0.0361 -0.9480
 1050TIP3    H2 3157   3.759   3.907   1.216  0.5202  0.1592 -0.2964
 1051TIP3   OH2 3158   0.244   1.705   3.478 -0.1586  0.0162 -0.1860
 1051TIP3    H1 3159   0.325   1.658   3.493  0.2479  0.2486 -1.4843
 1051TIP3    H2 3160   0.202   1.711   3.564  1.0757 -0.3183  0.4529
 1052TIP3   OH2 3161   0.521   4.073   5.090  0.3024 -0.2983  0.0891
 1052TIP3    H1 3162   0.511   3.996   5.034 -0.2117 -0.8475  0.9108
 1052TIP3    H2 3163   0.446   4.069   5.149  0.8037  0.2865  0.7853
 1053TIP3   OH2 3164   1.405   4.087   1.755  0.1068  0.4392 -0.0973
 1053TIP3    H1 3165   1.482   4.130   1.717 -0.3542  1.0867 -0.3002
 1053TIP3    H2 3166   1.441   4.010   1.800  0.7530  0.1437 -1.0933
 1054TIP3   OH2 3167   1.880   5.778   4.643  0.2893 -0.1906  0.2511
 1054TIP3    H1 3168   1.947   5.841   4.617  0.7955 -1.4305 -1.6173
 1054TIP3    H2 3169   1.809   5.832   4.678  0.2451  1.5378 -2.2730
 1055TIP3   OH2 3170   3.961   3.127   1.248  0.7498  0.2432 -0.3172
 1055TIP3    H1 3171   3.964   3.057   1.183  1.6845  0.4070 -0.4751
 1055TIP3    H2 3172   4.053   3.139   1.274  0.4059  0.2406  0.9780
 1056TIP3   OH2 3173   1.287   5.573   2.535 -0.1003  0.1238 -0.1310
 1056TIP3    H1 3174   1.294   5.486   2.497 -1.2302 -0.1813  0.3484
 1056TIP3    H2 3175   1.360   5.622   2.496  0.4180 -0.9666 -0.5527
 1057TIP3   OH2 3176   2.027   2.597   4.939 -0.3723 -0.6605  0.3388
 1057TIP3    H1 3177   2.036   2.574   4.846  1.5322  1.5814 -0.1444
 1057TIP3    H2 3178   2.050   2.517   4.986 -0.2979 -1.5475 -1.1212
 1058TIP3   OH2 3179   0.390   1.820   0.855  0.4400 -0.1905 -0.1993
 1058TIP3    H1 3180   0.300   1.851   0.845  0.7827  0.4292 -1.6113
 1058TIP3    H2 3181   0.389   1.771   0.937 -1.7060 -2.0153 -1.2023
 1059TIP3   OH2 3182   0.024   3.187   1.520  0.5786 -0.1437  0.3332
 1059TIP3    H1 3183   0.095   3.207   1.580  0.8851 -0.2026 -0.0106
 1059TIP3    H2 3184   0.016   3.092   1.523  1.5843 -0.2913 -0.8332
 1060TIP3   OH2 3185   5.643   0.288   1.030 -0.0765  0.2360  0.2322
 1060TIP3    H1 3186   5.668   0.260   1.118 -3.9428  0.8364  1.7567
 1060TIP3    H2 3187   5.580   0.222   1.001  0.0030  0.8516 -1.4444
 1061TIP3   OH2 3188   2.232   5.358   2.861  0.2185 -0.2931 -0.0451
 1061TIP3    H1 3189   2.323   5.332   2.844  1.2742  0.7397  3.1483
 1061TIP3    H2 3190   2.203   5.298   2.930 -1.7643 -0.8972 -1.3080
 1062TIP3   OH2 3191   2.994   4.761   5.160 -0.2171 -0.1096 -0.5443
 1062TIP3    H1 3192   2.958   4.681   5.122 -1.4638  0.3082 -0.2823
 1062TIP3    H2 3193   3.042   4.731   5.237  0.3171 -0.7095 -1.0893
 1063TIP3   OH2 3194   5.290   2.141   1.904 -0.7787  0.6841  0.1403
 1063TIP3    H1 3195   5.260   2.069   1.960 -0.2123  0.8241  0.6404
 1063TIP3    H2 3196   5.211   2.192   1.885 -0.8482  1.1937  1.6442
 1064TIP3   OH2 3197   1.389   4.182   4.616  0.2364  0.3388 -0.2937
 1064TIP3    H1 3198   1.447   4.247   4.655  2.6347 -2.2002  0.7103
 1064TIP3    H2 3199   1.416   4.099   4.655 -1.9401 -1.4512 -2.2782
 1065TIP3   OH2 3200   2.771   1.204   2.640 -0.0634  0.2539  0.0322
 1065TIP3    H1 3201   2.823   1.134   2.601  0.7836  0.6414  0.4416
 1065TIP3    H2 3202   2.761   1.268   2.569 -0.5041 -0.0877 -0.2232
 1066TIP3   OH2 3203   5.572   3.292   3.122  0.4026 -0.3459  0.1786
 1066TIP3    H1 3204   5.510   3.244   3.175 -2.4620  2.0069 -0.7472
 1066TIP3    H2 3205   5.594   3.370   3.174 -1.4638  1.3435 -1.3693
 1067TIP3   OH2 3206   3.399   3.156   0.310 -0.8423  0.0087 -0.3335
 1067TIP3    H1 3207   3.468   3.116   0.363 -0.0232 -0.7695 -1.9167
 1067TIP3    H2 3208   3.342   3.082   0.286 -1.5919  0.4614  0.0125
 1068TIP3   OH2 3209   1.915   1.312   4.467 -0.0224  0.1188  0.2423
 1068TIP3    H1 3210   1.979   1.242   4.479 -1.2701 -1.2382 -0.7161
 1068TIP3    H2 3211   1.954   1.388   4.512  1.8447 -0.8763  0.4052
 1069TIP3   OH2 3212   2.713   3.029   4.399  0.0623  0.4390  0.2415
 1069TIP3    H1 3213   2.695   3.040   4.493 -0.0797 -0.0374  0.2721
 1069TIP3    H2 3214   2.806   3.051   4.390  0.2800 -0.3141  0.6292
 1070TIP3   OH2 3215   0.633   5.749   4.231 -0.2873 -0.1715 -0.3919
 1070TIP3    H1 3216   0.635   5.742   4.326 -0.1043  2.5048 -0.1278
 1070TIP3    H2 3217   0.553   5.703   4.205  0.3054 -2.0431  0.8683
 1071TIP3   OH2 3218   0.122   2.366   1.422  0.9670 -0.2237  0.4113
 1071TIP3    H1 3219   0.066   2.306   1.470  0.6891 -0.0430  0.3134
 1071TIP3    H2 3220   0.208   2.324   1.423  0.3568 -1.6227 -1.4145
 1072TIP3   OH2 3221   3.951   3.338   0.563  0.0218  0.1616  0.1333
 1072TIP3    H1 3222   3.888   3.319   0.633  0.6189 -2.1696  0.1184
 1072TIP3    H2 3223   3.905   3.400   0.506 -0.9123  1.2218  1.9551
 1073TIP3   OH2 3224   5.785   4.159   4.476 -0.1625  0.2214  0.2074
 1073TIP3    H1 3225   5.758   4.190   4.563 -0.1831 -1.6054  0.8845
 1073TIP3    H2 3226   5.858   4.216   4.453  1.7870 -1.0408  2.7476
 1074TIP3   OH2 3227   4.084   2.349   0.460  0.3294 -0.1204 -0.0021
 1074TIP3    H1 3228   4.002   2.319   0.499 -0.9487  0.7537 -1.8367
 1074TIP3    H2 3229   4.136   2.270   0.448 -0.2580 -0.6987  1.1573
 1075TIP3   OH2 3230   3.718   2.005   2.331 -0.6842  0.0186 -0.3572
 1075TIP3    H1 3231   3.624   2.006   2.314 -0.6535 -0.7928 -0.6198
 1075TIP3    H2 3232   3.756   2.053   2.258 -1.0238  2.1778  0.8076
 1076TIP3   OH2 3233   0.282   1.323   2.120 -0.2793 -0.4389  0.2731
 1076TIP3    H1 3234   0.267   1.251   2.059 -0.6386 -0.3740  0.2803
 1076TIP3    H2 3235   0.215   1.388   2.097 -1.1907 -0.9098  1.5063
 1077TIP3   OH2 3236   5.671   0.702   2.769  0.2082 -0.2067  0.0305
 1077TIP3    H1 3237   5.677   0.612   2.800  0.5291 -0.5787 -1.0894
 1077TIP3    H2 3238   5.744   0.713   2.708  1.2496  1.3648  1.4580
 1078TIP3   OH2 3239   2.431   4.381   4.864  0.6106  0.3084 -0.3435
 1078TIP3    H1 3240   2.426   4.460   4.810  1.6507  0.4659 -0.2306
 1078TIP3    H2 3241   2.517   4.344   4.844 -0.0816 -1.1063 -0.8012
 1079TIP3   OH2 3242   1.044   1.582   0.889 -0.4104  0.0440  0.4291
 1079TIP3    H1 3243   1.110   1.579   0.959  0.3987 -0.3255 -0.3297
 1079TIP3    H2 3244   1.058   1.501   0.840 -0.2207  0.8082 -0.8206
 1080TIP3   OH2 3245   3.963   3.521   1.007  0.5756  0.5475  0.1784
 1080TIP3    H1 3246   3.942   3.569   1.088 -1.1483 -1.5253  1.0653
 1080TIP3    H2 3247   3.879   3.508   0.964  1.1786 -0.4193 -0.7591
 1081TIP3   OH2 3248   6.075   3.493   0.917  0.3705  0.0208  0.3973
 1081TIP3    H1 3249   6.004   3.462   0.973 -1.2609 -1.2913 -2.1806
 1081TIP3    H2 3250   6.109   3.413   0.876  3.9305  0.5106  2.0165
 1082TIP3   OH2 3251   4.366   0.354   4.591 -0.1371  0.1504  0.1041
 1082TIP3    H1 3252   4.432   0.390   4.650  1.5499 -0.3437 -1.3946
 1082TIP3    H2 3253   4.299   0.422   4.585 -0.1898  0.3685  2.2337
 1083TIP3   OH2 3254   5.794   5.384   4.293  0.0316  0.5047  0.0260
 1083TIP3    H1 3255   5.800   5.309   4.352 -0.5917 -1.1830 -1.9603
 1083TIP3    H2 3256   5.881   5.391   4.254 -0.4106 -0.4048 -1.1696
 1084TIP3   OH2 3257   3.984   4.343   0.637 -0.7453  0.1200  0.2655
 1084TIP3    H1 3258   3.988   4.355   0.543 -1.1396 -1.4045  0.0261
 1084TIP3    H2 3259   3.930   4.265   0.649  3.0955 -2.6704  1.4638
 1085TIP3   OH2 3260   1.491   4.158   0.105 -0.4718 -0.0484  0.5884
 1085TIP3    H1 3261   1.442   4.202   0.036 -0.5842  0.0781  0.7497
 1085TIP3    H2 3262   1.483   4.215   0.181  0.1089  0.0842  0.5545
 1086TIP3   OH2 3263   4.616   3.678   3.273  0.7178  0.0415  0.2775
 1086TIP3    H1 3264   4.655   3.621   3.339 -0.5352 -1.4084 -0.1561
 1086TIP3    H2 3265   4.554   3.621   3.227  0.6792  1.3316 -1.3451
 1087TIP3   OH2 3266   4.743   2.236   1.574 -0.5514 -0.0943  0.1981
 1087TIP3    H1 3267   4.783   2.182   1.506 -1.0003  1.8344 -1.7040
 1087TIP3    H2 3268   4.656   2.197   1.586 -0.7605 -0.0264 -0.9266
 1088TIP3   OH2 3269   1.394   3.559   2.764 -0.2291 -0.9208  0.4964
 1088TIP3    H1 3270   1.476   3.510   2.763  1.2358  1.3858 -0.9645
 1088TIP3    H2 3271   1.341   3.519   2.695 -0.5263 -2.5913  1.6222
 1089TIP3   OH2 3272   3.340   2.979   2.251 -0.0305 -0.0304  0.0774
 1089TIP3    H1 3273   3.288   2.971   2.331 -0.1024  1.4160  0.1988
 1089TIP3    H2 3274   3.427   2.950   2.277 -0.2932 -0.5854  0.3831
 1090TIP3   OH2 3275   3.845   0.084   0.071  0.0614  0.5042 -0.3924
 1090TIP3    H1 3276   3.772   0.114   0.126 -0.1606  0.9787 -0.9341
 1090TIP3    H2 3277   3.803   0.045  -0.005  0.3659 -0.4373 -0.0895
 1091TIP3   OH2 3278   3.668   2.624   3.352 -0.1492 -0.0394 -0.2341
 1091TIP3    H1 3279   3.652   2.692   3.287  0.3230 -0.2390 -0.5658
 1091TIP3    H2 3280   3.693   2.671   3.431 -1.7444  0.2509  0.1240
 1092TIP3   OH2 3281   4.176   1.616   4.273 -0.3803  0.7402  0.1262
 1092TIP3    H1 3282   4.134   1.560   4.208 -0.4600  1.3048 -0.3241
 1092TIP3    H2 3283   4.237   1.670   4.222  1.3802 -0.4709  0.8234
 1093TIP3   OH2 3284   0.805   3.987   0.839 -0.0597  0.1065  0.1432
 1093TIP3    H1 3285   0.773   4.046   0.907 -1.9698 -0.5132 -0.1617
 1093TIP3    H2 3286   0.825   4.044   0.765  1.8436  0.7664  1.0974
 1094TIP3   OH2 3287   1.388   3.747   4.099  0.0116 -0.5248 -0.0350
 1094TIP3    H1 3288   1.482   3.764   4.102  0.1112 -0.8366 -0.9707
 1094TIP3    H2 3289   1.371   3.689   4.173  0.6107 -0.6905 -0.0237
 1095TIP3   OH2 3290   5.024   0.135   0.443  0.3276  0.3158 -0.7436
 1095TIP3    H1 3291   5.078   0.157   0.368 -1.4909 -1.6966 -2.8214
 1095TIP3    H2 3292   5.019   0.039   0.442 -1.6470  0.3374  0.4897
 1096TIP3   OH2 3293   4.875   1.525  -0.030 -0.0972  0.1084  0.7916
 1096TIP3    H1 3294   4.864   1.579   0.048  0.6597  0.7394  0.4787
 1096TIP3    H2 3295   4.871   1.435   0.002 -0.7376  0.3552  1.4134
 1097TIP3   OH2 3296   5.387   1.705   4.202 -0.1372  0.1076  0.8802
 1097TIP3    H1 3297   5.295   1.724   4.183 -0.3322 -0.9725  0.6897
 1097TIP3    H2 3298   5.435   1.781   4.169 -0.9709  0.7710  1.1611
 1098TIP3   OH2 3299   6.191   0.387   0.867  0.2239 -1.1595 -0.3868
 1098TIP3    H1 3300   6.259   0.350   0.811  1.7352  0.7108  0.1150
 1098TIP3    H2 3301   6.221   0.370   0.956  1.1958  1.4937 -0.1309
 1099TIP3   OH2 3302   5.589   1.921   3.815  0.1889  0.7391 -0.7235
 1099TIP3    H1 3303   5.648   1.872   3.758 -0.3466 -0.8699  0.0294
 1099TIP3    H2 3304   5.598   1.878   3.900 -2.8324 -0.2942 -0.8133
 1100TIP3   OH2 3305   4.157   0.950   3.611  0.4135 -0.1948 -0.3565
 1100TIP3    H1 3306   4.238   0.999   3.606  0.2139  0.1866  0.0637
 1100TIP3    H2 3307   4.089   1.013   3.589  0.1971 -0.4000 -0.2812
 1101TIP3   OH2 3308   4.240   1.270   4.011  0.0160  0.4072  0.1180
 1101TIP3    H1 3309   4.279   1.281   3.924  0.5901 -1.0834  0.1621
 1101TIP3    H2 3310   4.304   1.310   4.070 -0.1541  1.0043 -0.0909
 1102TIP3   OH2 3311   3.809   3.549   2.263  0.0971  0.3883  0.1414
 1102TIP3    H1 3312   3.722   3.509   2.271 -0.1576  0.6693 -0.9842
 1102TIP3    H2 3313   3.869   3.475   2.259 -0.2789  0.1301 -0.9785
 1103TIP3   OH2 3314   1.193   3.186   0.216 -0.1095  0.3582 -0.8116
 1103TIP3    H1 3315   1.181   3.276   0.186  1.1644  0.9291  0.2974
 1103TIP3    H2 3316   1.274   3.188   0.266 -0.6873 -1.1532  0.2523
 1104TIP3   OH2 3317   0.874   1.250   1.457  0.4213  0.3877 -0.2429
 1104TIP3    H1 3318   0.936   1.279   1.524  0.0762 -1.1771  0.8202
 1104TIP3    H2 3319   0.848   1.162   1.485 -1.7993  0.7493 -0.9933
 1105TIP3   OH2 3320   2.934   1.745   5.079  0.2821  0.7621 -0.4883
 1105TIP3    H1 3321   2.922   1.670   5.139 -0.1964  0.6690 -0.7003
 1105TIP3    H2 3322   2.889   1.817   5.122 -1.7856  0.2372 -1.6319
 1106TIP3   OH2 3323   1.448   1.715   1.410  0.0510  0.2471  0.1529
 1106TIP3    H1 3324   1.484   1.629   1.432  1.4268  1.0154  1.0596
 1106TIP3    H2 3325   1.358   1.697   1.382  0.4227 -1.5096 -0.0245
 1107TIP3   OH2 3326   5.212   5.965   0.529  0.4652 -0.2337  0.5358
 1107TIP3    H1 3327   5.242   6.030   0.466 -1.6497  0.5470  0.2395
 1107TIP3    H2 3328   5.216   5.882   0.483 -0.2810  0.2206 -0.3716
 1108TIP3   OH2 3329   3.409   2.536   3.239 -0.5473  0.2523 -0.2184
 1108TIP3    H1 3330   3.481   2.541   3.302 -1.0389 -1.2275  0.5044
 1108TIP3    H2 3331   3.337   2.499   3.289 -1.9416  1.9895 -0.8529
 1109TIP3   OH2 3332   2.694   4.997   0.739 -0.2471 -0.1810 -0.0388
 1109TIP3    H1 3333   2.785   5.004   0.712 -0.6329  1.7127 -1.0116
 1109TIP3    H2 3334   2.666   5.087   0.755 -1.5455 -0.8219  1.7335
 1110TIP3   OH2 3335   3.939   1.862   0.049 -0.7162  0.2123 -0.1994
 1110TIP3    H1 3336   3.956   1.835   0.139 -1.8367  1.3434  0.3787
 1110TIP3    H2 3337   3.866   1.807   0.021  0.3406 -0.9307 -0.8509
 1111TIP3   OH2 3338   1.594   0.094   3.217 -0.9447 -0.0416 -0.1352
 1111TIP3    H1 3339   1.601   0.054   3.303 -0.5713  0.8444  0.2559
 1111TIP3    H2 3340   1.613   0.187   3.231 -0.3891  0.0345 -1.2463
 1112TIP3   OH2 3341   2.059   1.041   2.589 -0.5699 -0.3829  0.1554
 1112TIP3    H1 3342   1.974   1.062   2.550 -0.7159 -1.9886 -0.4559
 1112TIP3    H2 3343   2.118   1.030   2.514 -0.2392 -0.9919  0.4976
 1113TIP3   OH2 3344   5.680   0.219   4.151  0.3845 -0.1945 -0.3409
 1113TIP3    H1 3345   5.601   0.257   4.190  0.5785 -0.4155  0.2909
 1113TIP3    H2 3346   5.712   0.285   4.091 -0.5020 -0.2606 -0.9009
 1114TIP3   OH2 3347   1.988   4.664   0.766 -0.0286 -0.6137 -0.1267
 1114TIP3    H1 3348   1.965   4.712   0.846  0.2058  0.9098 -0.9328
 1114TIP3    H2 3349   1.975   4.728   0.695  5.2635  0.1172 -0.8538
 1115TIP3   OH2 3350   1.079   4.454   1.121 -0.3291  0.2706 -0.3074
 1115TIP3    H1 3351   1.033   4.415   1.195 -0.2220 -0.8175 -0.8049
 1115TIP3    H2 3352   1.018   4.521   1.088  0.4268  2.2111  1.9649
 1116TIP3   OH2 3353   4.212   0.703   3.403  0.4950 -0.3348  0.3427
 1116TIP3    H1 3354   4.188   0.763   3.474  0.7613  0.8587 -0.5384
 1116TIP3    H2 3355   4.149   0.632   3.409 -2.1049  1.7381 -0.7340
 1117TIP3   OH2 3356   1.285   2.165   4.384  0.1707  0.2214 -0.2763
 1117TIP3    H1 3357   1.220   2.098   4.364  0.4871 -0.0153 -0.5180
 1117TIP3    H2 3358   1.311   2.147   4.475 -1.7634  1.7110  0.6647
 1118TIP3   OH2 3359   0.868   3.959   1.646 -0.1730  0.0559  0.4235
 1118TIP3    H1 3360   0.885   3.918   1.562 -0.5527 -1.5562  1.0865
 1118TIP3    H2 3361   0.906   3.899   1.710 -1.9611 -0.0030  1.5103
 1119TIP3   OH2 3362   4.505   0.280   0.038 -0.2227  0.1905  0.3213
 1119TIP3    H1 3363   4.539   0.191   0.048  0.7445  0.4546 -0.4132
 1119TIP3    H2 3364   4.516   0.319   0.125 -2.7009 -1.0375  1.2862
 1120TIP3   OH2 3365   2.831   1.161   4.839  0.4069 -0.2507  0.1851
 1120TIP3    H1 3366   2.924   1.183   4.850 -0.0452  1.7706  0.4667
 1120TIP3    H2 3367   2.820   1.148   4.745  0.7937  0.5883  0.0108
 1121TIP3   OH2 3368   2.727   4.460   3.246 -0.0098  0.3412 -0.4044
 1121TIP3    H1 3369   2.726   4.554   3.233  1.3654  0.6821  1.4967
 1121TIP3    H2 3370   2.713   4.449   3.340 -1.2045 -1.4201 -0.7368
 1122TIP3   OH2 3371   5.278   5.385   0.435  0.2575  0.3483  0.2437
 1122TIP3    H1 3372   5.246   5.453   0.493  1.9826  1.0498  0.4359
 1122TIP3    H2 3373   5.297   5.311   0.493 -1.9475 -0.4787 -0.0095
 1123TIP3   OH2 3374   4.264   3.473   1.210 -0.2970  0.4667  0.2870
 1123TIP3    H1 3375   4.196   3.521   1.258 -0.1338 -0.0176  1.0276
 1123TIP3    H2 3376   4.265   3.386   1.250 -0.8170 -0.2844 -1.2601
 1124TIP3   OH2 3377   4.061   4.493   4.996  0.5527  0.0908 -0.2472
 1124TIP3    H1 3378   4.103   4.560   5.049 -0.9114  0.4789  0.4773
 1124TIP3    H2 3379   4.026   4.431   5.060 -0.1711 -0.0869 -0.8037
 1125TIP3   OH2 3380   1.496   1.414   5.016  1.1920 -0.3934 -0.0446
 1125TIP3    H1 3381   1.459   1.461   4.941  1.2948 -0.3314 -0.0558
 1125TIP3    H2 3382   1.427   1.416   5.082  0.6489 -1.4458 -0.5460
 1126TIP3   OH2 3383   2.782   0.248   0.236  0.4038 -0.3252  0.0177
 1126TIP3    H1 3384   2.804   0.248   0.329  1.7652 -3.0317 -0.2066
 1126TIP3    H2 3385   2.817   0.331   0.204  0.2328  0.4985  1.8280
 1127TIP3   OH2 3386   0.927   3.141   0.253  0.7088  0.3981 -0.5041
 1127TIP3    H1 3387   1.021   3.129   0.270  0.2331 -2.4357  0.7552
 1127TIP3    H2 3388   0.919   3.232   0.223  3.6064  1.2889  1.0555
 1128TIP3   OH2 3389   0.510   3.602   0.551 -0.4902  0.1241  0.0526
 1128TIP3    H1 3390   0.590   3.636   0.591  0.6285 -1.8536 -0.3471
 1128TIP3    H2 3391   0.480   3.535   0.613 -0.9040 -0.2818 -0.5827
 1129TIP3   OH2 3392   2.791   1.115   1.084 -0.3407 -0.4749  0.1218
 1129TIP3    H1 3393   2.817   1.023   1.083  0.5002 -0.2834  1.6729
 1129TIP3    H2 3394   2.872   1.163   1.101 -0.3605  0.7628 -2.7100
 1130TIP3   OH2 3395   2.022   1.055   0.658  0.7094 -0.1332 -0.3902
 1130TIP3    H1 3396   2.045   1.049   0.751 -0.0174  0.3488 -0.1751
 1130TIP3    H2 3397   2.011   0.964   0.630  1.9829 -0.3397 -0.2822
 1131TIP3   OH2 3398   5.298   2.270   0.370 -0.7185 -0.0376  0.3584
 1131TIP3    H1 3399   5.307   2.268   0.465 -1.3759 -0.6764  0.4141
 1131TIP3    H2 3400   5.384   2.243   0.338  0.2653  2.4326  0.7017
 1132TIP3   OH2 3401   3.719   3.098   3.554  0.0521  0.0985 -0.5166
 1132TIP3    H1 3402   3.661   3.168   3.584 -0.2098 -0.4957  0.3829
 1132TIP3    H2 3403   3.803   3.117   3.595  0.9839  1.7722 -2.9296
 1133TIP3   OH2 3404   5.753   2.955   4.123 -0.0097  0.2793  0.0823
 1133TIP3    H1 3405   5.767   2.862   4.142 -1.2869 -0.2278 -1.3252
 1133TIP3    H2 3406   5.678   2.979   4.177  1.5552  1.1045  2.0474
 1134TIP3   OH2 3407   3.898   1.163   1.814  0.1853  0.5550  0.1692
 1134TIP3    H1 3408   3.945   1.098   1.865  0.5023  0.9362  0.3692
 1134TIP3    H2 3409   3.806   1.149   1.835  0.2284 -0.0147 -0.0132
 1135TIP3   OH2 3410   0.533   0.432   2.254 -0.3021  0.1791 -0.2177
 1135TIP3    H1 3411   0.464   0.497   2.247  0.1518  0.6076 -0.8474
 1135TIP3    H2 3412   0.526   0.381   2.173 -3.3921 -3.3993  1.9883
 1136TIP3   OH2 3413   4.986   2.889   1.601 -0.0579  0.4629 -0.3420
 1136TIP3    H1 3414   4.936   2.970   1.587  1.2087  0.9743 -2.4041
 1136TIP3    H2 3415   5.077   2.916   1.592  0.3790 -1.2693 -1.6058
 1137TIP3   OH2 3416   2.054   4.898   2.525  0.0317 -0.4422  0.1854
 1137TIP3    H1 3417   2.124   4.959   2.550  1.0735 -2.4887  2.6799
 1137TIP3    H2 3418   1.978   4.929   2.574  0.4981 -0.9702  1.2698
 1138TIP3   OH2 3419   0.133   5.250   3.883  0.4456 -0.0829  0.1917
 1138TIP3    H1 3420   0.139   5.155   3.897  0.7058 -0.1042 -0.0668
 1138TIP3    H2 3421   0.204   5.270   3.823  0.0374  0.1932 -0.2044
 1139TIP3   OH2 3422   1.711   2.618   0.196 -0.0288 -0.5527 -0.3106
 1139TIP3    H1 3423   1.638   2.674   0.219 -0.5048 -1.1055 -0.4441
 1139TIP3    H2 3424   1.703   2.606   0.101  0.7309  0.0668 -0.4623
 1140TIP3   OH2 3425   0.631   0.959   1.311 -1.1406 -0.4132 -0.2172
 1140TIP3    H1 3426   0.595   0.871   1.320 -1.0004 -0.5661 -1.0581
 1140TIP3    H2 3427   0.556   1.017   1.317 -1.2463 -0.5948  0.2382
 1141TIP3   OH2 3428   0.182   0.555   1.214  0.3189 -0.0437  0.5870
 1141TIP3    H1 3429   0.113   0.598   1.163  0.3318  0.6368  1.1186
 1141TIP3    H2 3430   0.134   0.499   1.276  0.2749 -0.2448  0.3709
 1142TIP3   OH2 3431   4.181   3.496   0.204  0.0562 -0.1026  0.7476
 1142TIP3    H1 3432   4.108   3.553   0.179 -0.6852 -1.2848  0.1699
 1142TIP3    H2 3433   4.238   3.494   0.127  0.5894  0.6045  1.1058
 1143TIP3   OH2 3434   1.405   3.144   3.847 -0.5661 -0.0148  0.0849
 1143TIP3    H1 3435   1.477   3.164   3.787  0.2410  0.5388  1.1963
 1143TIP3    H2 3436   1.370   3.061   3.816 -0.6845  0.6246 -1.6102
 1144TIP3   OH2 3437   4.322   2.819   1.656 -0.2325 -0.1223 -0.4991
 1144TIP3    H1 3438   4.381   2.894   1.667 -1.2978  0.7938 -0.7254
 1144TIP3    H2 3439   4.325   2.800   1.563  0.2540 -0.5549 -0.3981
 1145TIP3   OH2 3440   2.357   3.952   4.170  0.5506  0.1578 -0.4346
 1145TIP3    H1 3441   2.450   3.930   4.177  0.5716  0.4314  0.2945
 1145TIP3    H2 3442   2.356   4.047   4.159  0.3786  0.0686 -1.2459
 1146TIP3   OH2 3443   2.747   5.573   4.773 -0.0314 -0.1510 -0.1910
 1146TIP3    H1 3444   2.659   5.599   4.747 -1.0976 -2.7498  0.4891
 1146TIP3    H2 3445   2.803   5.602   4.700 -1.7793 -0.3040 -1.6704
 1147TIP3   OH2 3446   2.420   4.006   0.845 -0.2069  0.2802  0.3463
 1147TIP3    H1 3447   2.339   4.048   0.817 -0.9021 -1.1966  0.0840
 1147TIP3    H2 3448   2.489   4.058   0.803 -0.8707  2.6301  1.9498
 1148TIP3   OH2 3449   6.313   0.173   2.408  0.5813 -0.1435 -0.0045
 1148TIP3    H1 3450   6.325   0.176   2.313 -1.2375  0.1872 -0.2625
 1148TIP3    H2 3451   6.382   0.114   2.439 -0.3065 -2.3238 -1.8421
 1149TIP3   OH2 3452   5.531   0.568   2.002 -0.5811  0.0713 -0.4677
 1149TIP3    H1 3453   5.522   0.518   1.920 -2.0621 -0.1845 -0.1859
 1149TIP3    H2 3454   5.544   0.501   2.069  0.8601  0.2948 -0.4877
 1150TIP3   OH2 3455   1.345   1.305   1.447 -0.7931  0.6504 -0.0188
 1150TIP3    H1 3456   1.307   1.236   1.393 -2.2889  1.1690  0.3336
 1150TIP3    H2 3457   1.291   1.307   1.525 -0.2782  1.6961  0.3253
 1151TIP3   OH2 3458   3.115   4.874   1.097  0.2851  0.2103 -0.0109
 1151TIP3    H1 3459   3.170   4.929   1.040 -0.3511 -0.3633 -1.2182
 1151TIP3    H2 3460   3.028   4.912   1.088 -0.3899 -1.5760 -1.7198
 1152TIP3   OH2 3461   2.767   5.900   1.148  0.2475 -0.4005 -0.1878
 1152TIP3    H1 3462   2.785   5.806   1.151  1.9196 -0.0921  1.2725
 1152TIP3    H2 3463   2.755   5.925   1.239  0.6069  0.9251 -0.4822
 1153TIP3   OH2 3464   2.592   1.461   2.707  0.1293 -0.1693  0.0998
 1153TIP3    H1 3465   2.547   1.540   2.678  0.0630 -0.0935  0.4074
 1153TIP3    H2 3466   2.578   1.459   2.802 -0.6203 -1.0161 -0.0161
 1154TIP3   OH2 3467   2.210   5.101   2.624  0.5801 -0.2245  0.3424
 1154TIP3    H1 3468   2.215   5.078   2.717 -0.2269 -1.0734  0.1882
 1154TIP3    H2 3469   2.173   5.189   2.623 -0.1057 -0.4983  0.8099
 1155TIP3   OH2 3470   3.935   5.887   1.344 -0.3593 -0.0603 -0.2195
 1155TIP3    H1 3471   3.991   5.860   1.271 -2.4968 -0.7668 -1.7321
 1155TIP3    H2 3472   3.867   5.820   1.348 -1.5176  1.1093  0.9925
 1156TIP3   OH2 3473   1.118   5.669   1.593  0.2036 -0.2927 -0.5892
 1156TIP3    H1 3474   1.176   5.596   1.572 -1.0207 -0.9203 -1.9630
 1156TIP3    H2 3475   1.122   5.725   1.515 -0.6708 -0.1190 -0.5155
 1157TIP3   OH2 3476   5.725   4.854   3.285 -0.6001  0.2784 -0.1469
 1157TIP3    H1 3477   5.768   4.940   3.283 -1.7707  0.8628 -1.0506
 1157TIP3    H2 3478   5.798   4.791   3.292  0.2190  1.3519  1.8011
 1158TIP3   OH2 3479   1.744   3.785   2.716  0.6088 -0.6541  0.0783
 1158TIP3    H1 3480   1.820   3.781   2.775  0.0541 -0.8453  0.7959
 1158TIP3    H2 3481   1.669   3.780   2.775 -0.0099  1.5225 -0.4294
 1159TIP3   OH2 3482   6.287   3.975   3.392  0.0686 -0.2094 -0.0618
 1159TIP3    H1 3483   6.245   4.052   3.354  0.8507 -0.7340 -2.1204
 1159TIP3    H2 3484   6.218   3.909   3.394 -0.1132 -0.0212 -0.0578
 1160TIP3   OH2 3485   0.224   3.570   4.250 -0.0995 -0.1497  0.0563
 1160TIP3    H1 3486   0.135   3.543   4.225 -0.5149 -0.9288  2.1770
 1160TIP3    H2 3487   0.213   3.609   4.337  1.7388 -1.1041  0.7674
 1161TIP3   OH2 3488   1.382   4.010   0.951 -0.1358  0.5756 -0.1597
 1161TIP3    H1 3489   1.352   3.976   1.035 -1.9670  0.3417 -0.8593
 1161TIP3    H2 3490   1.340   4.095   0.942 -2.1243 -0.4685 -1.8972
 1162TIP3   OH2 3491   4.829   5.457   4.455  0.2384  0.2656  0.8142
 1162TIP3    H1 3492   4.842   5.413   4.539  1.2317 -0.0388  0.5113
 1162TIP3    H2 3493   4.819   5.387   4.392  2.5938  0.3907  0.2077
 1163TIP3   OH2 3494   1.308   1.145   4.284  0.3410  0.7933 -0.4223
 1163TIP3    H1 3495   1.233   1.124   4.229  0.9543  0.2835 -1.0865
 1163TIP3    H2 3496   1.379   1.092   4.249  1.0496  1.3662  0.1126
 1164TIP3   OH2 3497   0.583   0.683   0.170  0.6930  0.0573  0.0404
 1164TIP3    H1 3498   0.582   0.651   0.261  1.5196 -1.1500 -0.3519
 1164TIP3    H2 3499   0.552   0.773   0.176 -2.6752 -1.0097  1.1387
 1165TIP3   OH2 3500   1.961   2.331   4.427  0.1005 -0.1229 -0.8916
 1165TIP3    H1 3501   2.010   2.255   4.459 -0.3804  0.2604  0.8644
 1165TIP3    H2 3502   1.894   2.294   4.370 -2.3290 -1.5452  2.4916
 1166TIP3   OH2 3503   4.650   2.542   4.980 -0.4790  0.2144 -0.4777
 1166TIP3    H1 3504   4.688   2.630   4.974  0.2528 -0.0146  0.5067
 1166TIP3    H2 3505   4.613   2.526   4.893 -0.6852  1.5132 -0.6605
 1167TIP3   OH2 3506   0.865   1.022   3.510  0.0452 -0.4008  0.1440
 1167TIP3    H1 3507   0.810   0.953   3.544 -1.6766  1.0604  0.4686
 1167TIP3    H2 3508   0.888   1.075   3.586 -1.0345  0.9619 -0.4217
 1168TIP3   OH2 3509   4.984   4.065   2.025  0.2676 -0.1888 -0.8508
 1168TIP3    H1 3510   5.023   4.060   2.112  0.8446 -0.7835 -1.1320
 1168TIP3    H2 3511   4.937   4.148   2.024 -0.4906 -0.5790  0.3335
 1169TIP3   OH2 3512   2.679   3.254   1.716  0.9921  0.2302  0.3201
 1169TIP3    H1 3513   2.681   3.317   1.788 -2.3102  1.0720 -0.1451
 1169TIP3    H2 3514   2.708   3.304   1.640  1.2025  0.3477  0.4774
 1170TIP3   OH2 3515   4.827   2.666   0.420  0.1650  0.1409  0.2668
 1170TIP3    H1 3516   4.861   2.577   0.425  1.0885  0.3231 -1.6945
 1170TIP3    H2 3517   4.779   2.669   0.337  0.0564  1.4276  0.3541
 1171TIP3   OH2 3518   5.287   2.520   2.833  0.5502  0.4372 -0.7470
 1171TIP3    H1 3519   5.218   2.455   2.848  0.0870  0.7928 -1.2867
 1171TIP3    H2 3520   5.363   2.468   2.809 -0.4437  0.1131 -3.6057
 1172TIP3   OH2 3521   2.224   0.327   1.740 -0.2051 -0.0077  0.4421
 1172TIP3    H1 3522   2.298   0.380   1.768 -1.5870  1.9239  0.6238
 1172TIP3    H2 3523   2.193   0.284   1.819 -0.2760  0.4741  0.6756
 1173TIP3   OH2 3524   3.542   2.126   4.473  0.1046  0.2322  0.2845
 1173TIP3    H1 3525   3.529   2.142   4.566 -0.7477  0.6397  0.1073
 1173TIP3    H2 3526   3.603   2.194   4.445  0.0805  0.3298  0.4718
 1174TIP3   OH2 3527   5.541   3.487   0.116 -0.3061 -0.4227  0.0647
 1174TIP3    H1 3528   5.528   3.463   0.024 -0.7068 -0.8817  0.2292
 1174TIP3    H2 3529   5.606   3.425   0.148  1.3994  1.0525 -0.4223
 1175TIP3   OH2 3530   1.346   2.894   2.197 -0.1798 -0.1215  0.1166
 1175TIP3    H1 3531   1.409   2.836   2.241 -1.8868 -1.1434  1.3489
 1175TIP3    H2 3532   1.266   2.885   2.248 -2.0867 -0.7853 -2.7410
 1176TIP3   OH2 3533   4.407   4.777   1.360 -0.2123  0.2001  0.2726
 1176TIP3    H1 3534   4.494   4.791   1.323 -0.3783 -0.9654 -0.6121
 1176TIP3    H2 3535   4.358   4.733   1.291 -1.4101  0.5209  0.8808
 1177TIP3   OH2 3536   4.507   3.071   2.143  0.1297 -0.0042  0.2783
 1177TIP3    H1 3537   4.541   3.156   2.114  0.8313 -0.1190  0.7500
 1177TIP3    H2 3538   4.585   3.021   2.168 -0.4245  0.2441  2.7938
 1178TIP3   OH2 3539   2.703   0.802   2.252  0.2453 -0.4074 -0.1826
 1178TIP3    H1 3540   2.762   0.770   2.320  0.5505 -0.8703 -0.6546
 1178TIP3    H2 3541   2.626   0.833   2.299  1.5582  1.9026  0.6170
 1179TIP3   OH2 3542   1.452   2.830   0.401  0.2889 -0.4344 -0.2809
 1179TIP3    H1 3543   1.478   2.864   0.315 -0.0989  0.0539 -0.2103
 1179TIP3    H2 3544   1.358   2.815   0.393  0.3912 -1.1595 -0.1928
 1180TIP3   OH2 3545   1.485   4.635   2.946 -0.3010 -0.1657  0.3756
 1180TIP3    H1 3546   1.510   4.571   2.879  2.9684  1.3870 -0.0722
 1180TIP3    H2 3547   1.468   4.583   3.024  0.0467 -1.7145 -0.5334
 1181TIP3   OH2 3548   0.913   5.259   1.168  0.4020 -0.2659  0.2228
 1181TIP3    H1 3549   0.953   5.345   1.181  0.3509 -0.0837 -0.7650
 1181TIP3    H2 3550   0.856   5.247   1.244 -0.4993  1.0896 -0.2072
 1182TIP3   OH2 3551   0.665   1.549   1.900  0.2473  0.8590 -0.2217
 1182TIP3    H1 3552   0.655   1.464   1.943  0.2232  1.5408  1.1916
 1182TIP3    H2 3553   0.702   1.528   1.814 -0.9818 -0.6709 -0.4367
 1183TIP3   OH2 3554   5.414   5.857   4.418  0.6227  0.0864 -0.3696
 1183TIP3    H1 3555   5.419   5.809   4.500  1.9270 -0.6324 -0.8493
 1183TIP3    H2 3556   5.364   5.936   4.439  2.1453  0.6144  1.4470
 1184TIP3   OH2 3557   0.793   5.164   3.568  0.3122  0.6807 -0.2915
 1184TIP3    H1 3558   0.789   5.234   3.633  0.8841  1.5320 -1.1439
 1184TIP3    H2 3559   0.852   5.099   3.606  1.2629  1.5279 -0.2705
 1185TIP3   OH2 3560   3.841   5.846   0.885  0.2870 -0.2067  0.6053
 1185TIP3    H1 3561   3.763   5.894   0.915 -1.0323 -1.1668 -1.1544
 1185TIP3    H2 3562   3.900   5.915   0.854  0.4568  0.5823  2.5003
 1186TIP3   OH2 3563   1.699   4.492   3.087 -0.4799  0.1855 -0.0369
 1186TIP3    H1 3564   1.774   4.546   3.062 -0.3452  0.3116  0.6422
 1186TIP3    H2 3565   1.729   4.402   3.074 -1.0213  0.2460 -2.1224
 1187TIP3   OH2 3566   2.763   4.212   4.616  0.0839 -0.2190 -0.3446
 1187TIP3    H1 3567   2.681   4.241   4.576 -0.6861  0.3270  1.5140
 1187TIP3    H2 3568   2.763   4.254   4.702  2.6254  0.3048 -0.5358
 1188TIP3   OH2 3569   0.683   5.820   0.307  0.2533  0.2607 -0.0482
 1188TIP3    H1 3570   0.612   5.868   0.349  1.1684 -0.0741  2.0109
 1188TIP3    H2 3571   0.692   5.861   0.221 -2.1397  0.5536 -0.2216
 1189TIP3   OH2 3572   5.911   3.818   0.235 -0.1381  0.4069 -0.2512
 1189TIP3    H1 3573   5.996   3.806   0.277 -0.6710 -0.5656  0.6132
 1189TIP3    H2 3574   5.895   3.734   0.191 -0.9531  0.3242  0.1914
 1190TIP3   OH2 3575   0.163   3.927   0.358 -0.0612 -0.6268 -0.0001
 1190TIP3    H1 3576   0.198   3.877   0.284  1.6472  0.8513 -0.2541
 1190TIP3    H2 3577   0.182   3.873   0.434  0.9305 -0.7997 -0.3562
 1191TIP3   OH2 3578   4.395   5.101   1.015 -0.3162 -0.2142  0.0645
 1191TIP3    H1 3579   4.473   5.120   0.962  1.1848 -0.8061  1.9283
 1191TIP3    H2 3580   4.419   5.128   1.103 -2.2091 -0.5585  0.7292
 1192TIP3   OH2 3581   3.988   5.608   0.896 -0.2863  0.6547 -0.1110
 1192TIP3    H1 3582   3.932   5.685   0.883 -0.5315  0.3688 -0.8692
 1192TIP3    H2 3583   3.992   5.567   0.809  0.2624  0.0990  0.1663
 1193TIP3   OH2 3584   1.362   3.101   3.133  0.2452  0.2076  0.0726
 1193TIP3    H1 3585   1.311   3.025   3.108 -0.9728  0.6568  1.0841
 1193TIP3    H2 3586   1.409   3.073   3.212  1.8763 -0.3005 -1.0097
 1194TIP3   OH2 3587   2.665   5.632   1.931  0.4745 -0.7217  0.0909
 1194TIP3    H1 3588   2.682   5.652   2.023  1.0964  0.4746 -0.2612
 1194TIP3    H2 3589   2.660   5.537   1.927  2.2441 -0.8904  1.0564
 1195TIP3   OH2 3590   6.091   5.600   2.675  0.5107  0.3407  0.4284
 1195TIP3    H1 3591   6.107   5.534   2.743  1.0767  0.5626  0.5171
 1195TIP3    H2 3592   6.071   5.680   2.724 -2.1865 -0.1939  0.3360
 1196TIP3   OH2 3593   2.590   3.588   2.719 -0.1661  0.4238  0.3835
 1196TIP3    H1 3594   2.501   3.576   2.687 -0.5322 -2.3804  2.1817
 1196TIP3    H2 3595   2.637   3.626   2.645 -2.6671  1.3776 -0.8181
 1197TIP3   OH2 3596   1.052   3.964   0.403  0.4453  0.1773  0.1380
 1197TIP3    H1 3597   0.976   4.018   0.423  0.5058 -0.5960  2.7597
 1197TIP3    H2 3598   1.122   4.026   0.384 -0.6983  0.8983 -2.0536
 1198TIP3   OH2 3599   2.245   0.573   4.287  0.4010  0.3715 -0.3522
 1198TIP3    H1 3600   2.218   0.492   4.331  0.1865  0.3652 -0.4956
 1198TIP3    H2 3601   2.339   0.580   4.306  0.1698  0.7582  0.7337
 1199TIP3   OH2 3602   5.894   3.252   4.583 -0.5958 -0.3581 -0.3699
 1199TIP3    H1 3603   5.814   3.203   4.605 -0.5468 -0.3208 -0.1019
 1199TIP3    H2 3604   5.872   3.343   4.605 -0.8107 -0.2037 -1.2012
 1200TIP3   OH2 3605   0.528   3.120   1.759  0.0426 -0.0400  0.2447
 1200TIP3    H1 3606   0.434   3.112   1.776 -0.7060  0.9597 -2.8243
 1200TIP3    H2 3607   0.543   3.214   1.751  0.9090 -0.2743 -1.1288
 1201TIP3   OH2 3608   0.645   0.260   4.306 -0.6381 -0.2998  0.2917
 1201TIP3    H1 3609   0.721   0.268   4.248  0.1900  1.1477  1.5087
 1201TIP3    H2 3610   0.651   0.171   4.340  0.1031 -0.4422 -0.1737
 1202TIP3   OH2 3611   3.067   5.740   1.311  0.0662  0.1410 -0.3777
 1202TIP3    H1 3612   3.042   5.667   1.367 -1.3222  0.4875 -0.4973
 1202TIP3    H2 3613   3.054   5.707   1.222  4.4739 -1.2176 -0.7561
 1203TIP3   OH2 3614   1.080   1.702   0.168  0.1990 -0.2362 -0.2529
 1203TIP3    H1 3615   1.025   1.666   0.237  0.9171  1.7042  1.4611
 1203TIP3    H2 3616   1.120   1.626   0.127 -0.6835 -1.5015  1.1286
 1204TIP3   OH2 3617   2.891   2.536   5.040  0.0133  0.1344 -0.3137
 1204TIP3    H1 3618   2.818   2.589   5.071  0.8421  0.6051  0.9004
 1204TIP3    H2 3619   2.942   2.595   4.984 -0.6834 -0.2844 -1.4155
 1205TIP3   OH2 3620   1.001   2.807   2.654  0.0125  0.8710  0.3602
 1205TIP3    H1 3621   0.911   2.825   2.628 -0.0056 -0.7112 -0.8537
 1205TIP3    H2 3622   1.053   2.867   2.601 -0.2740  0.9477  0.1638
 1206TIP3   OH2 3623   6.305   3.137   4.371 -0.3080  0.1281 -0.4098
 1206TIP3    H1 3624   6.381   3.152   4.427  0.2196 -1.8541 -0.5141
 1206TIP3    H2 3625   6.328   3.060   4.319 -0.6052  2.1315 -3.7443
 1207TIP3   OH2 3626   3.995   5.445   4.088 -0.0122  0.1052 -0.4012
 1207TIP3    H1 3627   4.024   5.458   4.179  1.4950 -0.9455 -0.6818
 1207TIP3    H2 3628   3.918   5.388   4.095  0.3144 -0.2717  0.2065
 1208TIP3   OH2 3629   1.952   1.426   2.965 -0.6805 -0.7280 -0.5067
 1208TIP3    H1 3630   1.959   1.507   2.914 -2.3426 -1.8303 -2.6509
 1208TIP3    H2 3631   1.922   1.454   3.051  0.3575  1.0480 -0.6793
 1209TIP3   OH2 3632   1.901   5.288   4.684  0.0303 -0.2383  0.2666
 1209TIP3    H1 3633   1.899   5.353   4.615 -1.1632 -0.3072  0.2196
 1209TIP3    H2 3634   1.823   5.235   4.670  0.7062 -1.3761  0.6038
 1210TIP3   OH2 3635   3.287   1.223   2.448  0.1599 -0.1517  0.2412
 1210TIP3    H1 3636   3.338   1.304   2.441  1.3474 -0.9282 -0.5364
 1210TIP3    H2 3637   3.225   1.228   2.374 -0.1885  0.3047  0.5543
 1211TIP3   OH2 3638   2.884   2.722   0.698 -0.0156  0.3664  0.4451
 1211TIP3    H1 3639   2.931   2.798   0.733  0.1271  0.9071 -0.8702
 1211TIP3    H2 3640   2.792   2.749   0.699  0.0850  0.7939 -0.5351
 1212TIP3   OH2 3641   6.268   1.705   1.173 -0.7288 -0.7562 -0.2481
 1212TIP3    H1 3642   6.330   1.751   1.229 -0.6798 -1.9895  0.7583
 1212TIP3    H2 3643   6.312   1.700   1.088 -0.0943 -0.2845  0.0428
 1213TIP3   OH2 3644   0.360   1.135   1.601 -0.1599 -0.5498  0.3204
 1213TIP3    H1 3645   0.394   1.089   1.524  2.6576 -0.3453  1.3625
 1213TIP3    H2 3646   0.363   1.070   1.671  1.4362  0.4551  1.2214
 1214TIP3   OH2 3647   1.173   4.441   1.748 -0.2851 -0.4237 -0.4259
 1214TIP3    H1 3648   1.131   4.357   1.729 -0.0450 -0.2522 -1.8179
 1214TIP3    H2 3649   1.164   4.491   1.667 -0.6021  0.9867  0.4602
 1215TIP3   OH2 3650   0.698   0.081   3.089  0.6161  0.0370 -0.3782
 1215TIP3    H1 3651   0.739   0.166   3.102  0.2991  0.1457 -0.0722
 1215TIP3    H2 3652   0.769   0.018   3.099  0.7407  0.2336 -0.0285
 1216TIP3   OH2 3653   3.541   4.451   0.319 -0.0678 -0.2846 -0.6988
 1216TIP3    H1 3654   3.624   4.478   0.279 -0.4876 -0.9794 -2.1280
 1216TIP3    H2 3655   3.520   4.521   0.380  0.7034  0.7766 -1.6063
 1217TIP3   OH2 3656   4.079   5.676   1.476 -0.2927  0.4644  0.1859
 1217TIP3    H1 3657   4.050   5.732   1.404  1.6025 -0.2459 -1.2197
 1217TIP3    H2 3658   4.155   5.721   1.513 -0.1476 -0.0708  0.5544
 1218TIP3   OH2 3659   0.196   3.006   4.979 -0.0032 -0.3605  0.4864
 1218TIP3    H1 3660   0.290   3.024   4.980  0.0893 -0.8593  1.1389
 1218TIP3    H2 3661   0.159   3.075   4.924  0.6136  0.5115  1.1474
 1219TIP3   OH2 3662   2.124   3.914   0.430 -0.3144 -0.0245 -0.4727
 1219TIP3    H1 3663   2.136   3.820   0.442 -0.6426 -0.3142 -2.1916
 1219TIP3    H2 3664   2.030   3.925   0.414 -0.6670  0.8936  1.7571
 1220TIP3   OH2 3665   3.860   4.943   0.164  0.1415  0.0740 -0.1920
 1220TIP3    H1 3666   3.842   5.029   0.125 -4.3878 -0.3684  0.3955
 1220TIP3    H2 3667   3.815   4.945   0.248  0.7727 -2.5534  0.2966
 1221TIP3   OH2 3668   3.578   0.040   1.508 -0.0801 -0.0130  0.1738
 1221TIP3    H1 3669   3.531   0.034   1.591 -1.9822  1.7018 -0.6813
 1221TIP3    H2 3670   3.551  -0.038   1.459  2.0936 -1.7581  1.5461
 1222TIP3   OH2 3671   0.754   2.612   0.089  0.1802  0.0734  0.1693
 1222TIP3    H1 3672   0.691   2.684   0.096  1.4857  1.1689  1.3904
 1222TIP3    H2 3673   0.778   2.610  -0.004  0.3546  1.4672  0.1584
 1223TIP3   OH2 3674   4.847   4.088   4.628  0.0470 -0.0121  0.2002
 1223TIP3    H1 3675   4.821   4.008   4.673  0.7918 -1.9889 -2.6452
 1223TIP3    H2 3676   4.942   4.083   4.623  0.0442  0.6189 -0.7278
 1224TIP3   OH2 3677   0.974   1.198   2.043  0.6646  0.3641  0.2708
 1224TIP3    H1 3678   1.012   1.223   2.127  0.4052  0.5589  0.3319
 1224TIP3    H2 3679   1.046   1.208   1.980  0.3881  1.9852  0.1711
 1225TIP3   OH2 3680   5.292   0.178   5.068  0.9338 -0.3151  0.1641
 1225TIP3    H1 3681   5.255   0.150   5.151  0.5178  1.2222  0.5407
 1225TIP3    H2 3682   5.376   0.134   5.062  0.7471 -0.8224  1.1673
 1226TIP3   OH2 3683   5.809   5.187   1.601 -0.4264  0.5698 -0.1340
 1226TIP3    H1 3684   5.789   5.095   1.618 -0.2026  0.3768 -0.8927
 1226TIP3    H2 3685   5.802   5.229   1.687 -0.1214 -0.2257  0.2884
 1227TIP3   OH2 3686   3.564   0.429   1.220 -0.2967 -0.0412 -0.1295
 1227TIP3    H1 3687   3.586   0.340   1.248 -0.4005 -0.1740 -0.4664
 1227TIP3    H2 3688   3.552   0.478   1.302 -0.5691 -0.4192  0.0606
 1228TIP3   OH2 3689   3.738   2.720   0.557  0.1315  0.7912  0.1196
 1228TIP3    H1 3690   3.733   2.628   0.530  0.2552  0.8550 -0.1247
 1228TIP3    H2 3691   3.827   2.730   0.590  0.2487  0.9205 -0.2254
 1229TIP3   OH2 3692   4.119   3.258   0.338  0.0381 -0.7463  0.1785
 1229TIP3    H1 3693   4.060   3.257   0.414  1.4543 -0.4056  1.3138
 1229TIP3    H2 3694   4.138   3.350   0.324  1.9708 -0.9351  1.2003
 1230TIP3   OH2 3695   5.178   4.307   2.009 -0.1906 -0.1298  0.1433
 1230TIP3    H1 3696   5.083   4.309   2.000 -0.2394  1.2500  0.7698
 1230TIP3    H2 3697   5.194   4.321   2.102  0.6271 -0.5722  0.0801
 1231TIP3   OH2 3698   1.601   2.040   0.358 -0.3972 -0.5929 -0.2399
 1231TIP3    H1 3699   1.663   1.994   0.301  1.3343  0.6005  0.5731
 1231TIP3    H2 3700   1.567   2.112   0.304  0.1805 -0.2924 -0.2122
 1232TIP3   OH2 3701   5.304   5.332   5.138  0.1103  0.0599  0.0888
 1232TIP3    H1 3702   5.225   5.368   5.097 -0.1423 -0.2650  0.2859
 1232TIP3    H2 3703   5.347   5.283   5.069  0.2776  0.4525 -0.0900
 1233TIP3   OH2 3704   2.829   0.349   4.985  0.2135  0.0589 -0.2050
 1233TIP3    H1 3705   2.826   0.365   5.080 -2.0102 -1.1448  0.0032
 1233TIP3    H2 3706   2.905   0.292   4.973 -0.0942 -0.6633  1.0319
 1234TIP3   OH2 3707   4.943   0.351   1.210 -0.2258  0.2918 -0.3081
 1234TIP3    H1 3708   4.938   0.378   1.301 -0.8514 -0.6360 -0.0598
 1234TIP3    H2 3709   5.010   0.282   1.208 -2.0352 -1.5507 -0.0528
 1235TIP3   OH2 3710   0.437   1.642   1.746  0.7101  0.0940  0.8702
 1235TIP3    H1 3711   0.472   1.623   1.833 -0.3199 -0.1998  1.2404
 1235TIP3    H2 3712   0.486   1.718   1.716  1.5016 -0.1813  1.4454
 1236TIP3   OH2 3713   1.725   0.751   4.219  1.1349  0.0240  0.0885
 1236TIP3    H1 3714   1.656   0.813   4.197  0.6231 -1.3475 -2.5189
 1236TIP3    H2 3715   1.697   0.711   4.302 -0.5158  0.4366 -0.2508
 1237TIP3   OH2 3716   5.827   3.754   2.613 -0.0129 -0.1103  0.3204
 1237TIP3    H1 3717   5.910   3.728   2.654  0.3892 -2.0815 -1.5191
 1237TIP3    H2 3718   5.760   3.704   2.661  0.0303  0.3100  0.8250
 1238TIP3   OH2 3719   1.311   1.076   0.620  0.0323 -0.3896 -0.0597
 1238TIP3    H1 3720   1.374   1.068   0.549 -0.0425 -0.9907 -0.0614
 1238TIP3    H2 3721   1.364   1.079   0.700  0.1240  0.4331 -0.1424
 1239TIP3   OH2 3722   0.186   1.480   0.615  0.2735 -0.2273  0.2106
 1239TIP3    H1 3723   0.244   1.440   0.680 -1.1222 -2.3069  0.2604
 1239TIP3    H2 3724   0.101   1.438   0.629 -0.7523  1.2468 -1.1949
 1240TIP3   OH2 3725   3.907   0.133   0.354  0.4966 -0.0440 -0.0898
 1240TIP3    H1 3726   3.985   0.155   0.405 -1.1838  0.0766  2.6484
 1240TIP3    H2 3727   3.871   0.056   0.398 -0.1898 -1.0147 -2.2063
 1241TIP3   OH2 3728   3.361   5.785   2.041 -0.4778  0.1288  0.3177
 1241TIP3    H1 3729   3.437   5.828   2.002  2.4884 -2.3856  2.7720
 1241TIP3    H2 3730   3.328   5.728   1.972  0.6090  0.4293 -0.4715
 1242TIP3   OH2 3731   2.626   0.053   3.473  0.1685 -0.7639  0.1742
 1242TIP3    H1 3732   2.627  -0.043   3.470 -0.5173 -0.7700  0.0270
 1242TIP3    H2 3733   2.534   0.076   3.466 -0.0843 -0.2204  3.5265
 1243TIP3   OH2 3734   4.220   1.059   1.262  0.4524  0.0349  0.3956
 1243TIP3    H1 3735   4.278   0.988   1.289 -0.1923 -1.0582 -0.9674
 1243TIP3    H2 3736   4.278   1.125   1.225  0.9556 -0.3891  0.4155
 1244TIP3   OH2 3737   5.284   3.623   0.565  0.4091 -0.7642 -0.0213
 1244TIP3    H1 3738   5.223   3.624   0.492  0.5143 -1.9036 -0.1404
 1244TIP3    H2 3739   5.250   3.555   0.624  0.7798 -0.4296  0.5864
 1245TIP3   OH2 3740   4.255   0.450   1.716 -0.1970 -0.2780 -0.2115
 1245TIP3    H1 3741   4.252   0.400   1.634  0.3103 -1.3952  0.4234
 1245TIP3    H2 3742   4.310   0.397   1.774 -1.3627 -0.0289  1.1775
 1246TIP3   OH2 3743   5.071   4.655   2.455 -0.0021 -0.3002  0.3846
 1246TIP3    H1 3744   5.124   4.591   2.503 -0.1273 -0.9350 -0.3085
 1246TIP3    H2 3745   5.078   4.736   2.507  0.4673 -0.7669  1.0660
 1247TIP3   OH2 3746   6.081   0.688   4.294  0.3686  0.2147 -0.3025
 1247TIP3    H1 3747   6.013   0.631   4.260 -0.3570  1.3466 -0.8197
 1247TIP3    H2 3748   6.047   0.776   4.282  0.3754  0.7321  2.7790
 1248TIP3   OH2 3749   6.094   1.913   4.988  0.1612 -0.2968 -0.1230
 1248TIP3    H1 3750   6.110   1.983   5.052 -1.2955  1.0543 -1.1730
 1248TIP3    H2 3751   6.158   1.928   4.919  0.1517 -0.2680 -0.1256
 1249TIP3   OH2 3752   2.351   1.495   2.482  0.3818 -0.2540 -1.0298
 1249TIP3    H1 3753   2.407   1.566   2.513  0.8767 -1.3169  0.6629
 1249TIP3    H2 3754   2.267   1.537   2.463 -0.4221  0.4574  3.0788
 1250TIP3   OH2 3755   2.063   2.339   2.219  0.0705  0.3067  0.0304
 1250TIP3    H1 3756   1.992   2.276   2.212  0.4875 -0.1843  0.1836
 1250TIP3    H2 3757   2.062   2.385   2.135 -0.8780  0.8014  0.2914
 1251TIP3   OH2 3758   1.042   2.547   2.192  0.0245 -0.1356  0.1101
 1251TIP3    H1 3759   0.948   2.534   2.207  0.0728  0.3024  0.8531
 1251TIP3    H2 3760   1.047   2.634   2.152  0.0158 -0.7053 -1.1718
 1252TIP3   OH2 3761   0.791   3.596   4.443  0.1942  0.0460  0.0813
 1252TIP3    H1 3762   0.702   3.612   4.475 -1.1704  0.6726 -3.5633
 1252TIP3    H2 3763   0.781   3.526   4.378  1.7873  1.9313 -2.3828
 1253TIP3   OH2 3764   1.464   5.490   0.986  0.9655 -0.5148 -0.0869
 1253TIP3    H1 3765   1.399   5.451   1.045  0.5442 -1.1521 -0.9561
 1253TIP3    H2 3766   1.548   5.456   1.017  0.9963  0.8644  1.4860
 1254TIP3   OH2 3767   4.214   2.366   3.038 -0.1030  0.5930 -0.8794
 1254TIP3    H1 3768   4.281   2.362   3.107 -1.3174 -0.3384  0.2903
 1254TIP3    H2 3769   4.147   2.424   3.074 -1.6138 -1.3301 -0.4189
 1255TIP3   OH2 3770   3.559   4.631   2.994  0.6597 -0.0704 -0.1133
 1255TIP3    H1 3771   3.585   4.722   3.011 -0.3792 -0.0221  1.4290
 1255TIP3    H2 3772   3.559   4.590   3.080  2.6569 -2.0124 -0.9306
 1256TIP3   OH2 3773   0.249   3.438   0.593  0.3029  0.2632  0.2887
 1256TIP3    H1 3774   0.239   3.483   0.509 -1.0630 -0.3380  0.0955
 1256TIP3    H2 3775   0.315   3.371   0.577 -0.6096 -0.4591 -0.5949
 1257TIP3   OH2 3776   0.397   3.236   0.486 -0.3032  0.6240  0.1393
 1257TIP3    H1 3777   0.394   3.287   0.404 -0.7366  0.9348  0.3403
 1257TIP3    H2 3778   0.485   3.199   0.488  0.8340  3.1133  1.0297
 1258TIP3   OH2 3779   4.111   2.781   3.252  0.6663 -0.3138 -0.2748
 1258TIP3    H1 3780   4.026   2.788   3.209  0.6349 -0.7132 -0.2848
 1258TIP3    H2 3781   4.091   2.785   3.345  0.7340  0.5490 -0.2967
 1259TIP3   OH2 3782   3.337   3.342   4.117  0.0666  0.0222  0.1831
 1259TIP3    H1 3783   3.369   3.339   4.027  2.2403  1.1511  0.8454
 1259TIP3    H2 3784   3.271   3.273   4.122  0.0073 -0.1568 -2.2211
 1260TIP3   OH2 3785   3.292   1.365   0.332 -1.1065  0.1771 -0.0949
 1260TIP3    H1 3786   3.205   1.392   0.359 -0.7462  0.7461  0.5070
 1260TIP3    H2 3787   3.289   1.366   0.236 -1.6188  0.6463 -0.0748
 1261TIP3   OH2 3788   2.293   2.897   2.099 -0.0041  0.0751  0.2276
 1261TIP3    H1 3789   2.321   2.917   2.009  0.5378 -0.2969  0.3056
 1261TIP3    H2 3790   2.221   2.957   2.116 -0.4893 -0.2460 -0.6605
 1262TIP3   OH2 3791   5.193   0.215   0.250 -0.6230  0.3892 -0.4097
 1262TIP3    H1 3792   5.276   0.169   0.257 -0.3598  0.5826 -1.9176
 1262TIP3    H2 3793   5.217   0.307   0.238 -1.0760  0.5293 -0.2903
 1263TIP3   OH2 3794   2.277   0.988   0.810 -0.4077  0.0401 -0.0550
 1263TIP3    H1 3795   2.255   1.069   0.762  3.0506  0.5776 -1.0113
 1263TIP3    H2 3796   2.301   0.926   0.741  0.2566 -0.6716  0.8027
 1264TIP3   OH2 3797   4.081   4.099   3.290 -0.1795  0.6265 -0.4373
 1264TIP3    H1 3798   4.162   4.052   3.270 -0.2007  1.4423 -2.7294
 1264TIP3    H2 3799   4.105   4.160   3.360  1.3387  1.1926 -1.4037
 1265TIP3   OH2 3800   1.749   2.359   2.909 -0.3473 -0.0711  0.8938
 1265TIP3    H1 3801   1.805   2.324   2.977 -0.0929 -0.4501  0.4919
 1265TIP3    H2 3802   1.668   2.307   2.915 -0.5820  0.3310  1.3293
 1266TIP3   OH2 3803   1.700   3.819   2.291  0.0206  0.8353  0.3566
 1266TIP3    H1 3804   1.689   3.727   2.267  0.8454  0.4563  1.3541
 1266TIP3    H2 3805   1.749   3.817   2.373 -0.8106  2.1435  0.9223
 1267TIP3   OH2 3806   3.907   3.875   3.516 -0.2044 -0.3241  0.1692
 1267TIP3    H1 3807   3.855   3.888   3.437 -2.0256 -0.2006  1.3103
 1267TIP3    H2 3808   3.850   3.907   3.587  1.6375  0.2373  1.4621
 1268TIP3   OH2 3809   6.039   1.835   1.684 -0.0454 -0.1552  0.2009
 1268TIP3    H1 3810   5.958   1.866   1.724  0.6661 -1.2255  2.6821
 1268TIP3    H2 3811   6.081   1.913   1.650 -0.6613  0.8683  1.6994
 1269TIP3   OH2 3812   0.276   3.782   0.560 -0.2835 -0.0987 -1.2212
 1269TIP3    H1 3813   0.256   3.739   0.643 -0.8584 -0.7652 -1.6915
 1269TIP3    H2 3814   0.347   3.730   0.523  1.5279  1.4892 -0.1643
 1270TIP3   OH2 3815   3.777   4.817   3.514 -0.4653 -0.3138 -0.2723
 1270TIP3    H1 3816   3.682   4.807   3.519 -0.4085 -2.1170 -1.6941
 1270TIP3    H2 3817   3.811   4.742   3.563  0.1674 -0.8733 -1.5121
 1271TIP3   OH2 3818   0.945   5.042   1.977  0.0963  0.3604 -0.4076
 1271TIP3    H1 3819   0.869   5.094   2.002  0.4039  1.1327 -1.0471
 1271TIP3    H2 3820   0.959   5.063   1.885  0.7663 -0.1844 -0.4348
 1272TIP3   OH2 3821   2.113   0.938   3.436  0.1718 -0.3172 -0.4529
 1272TIP3    H1 3822   2.072   0.987   3.508 -2.8145 -1.9072 -0.9509
 1272TIP3    H2 3823   2.136   1.005   3.372  1.0588  0.9141  1.0495
 1273TIP3   OH2 3824   0.411   2.997   1.322 -0.3323  0.2943  0.4101
 1273TIP3    H1 3825   0.475   2.969   1.387  0.2027 -2.5356 -1.1945
 1273TIP3    H2 3826   0.464   3.029   1.249 -0.7420 -0.8878 -0.4284
 1274TIP3   OH2 3827   2.142   3.449   2.316 -0.3685  0.6071  0.2492
 1274TIP3    H1 3828   2.151   3.355   2.334 -0.3994  0.4482 -0.5227
 1274TIP3    H2 3829   2.229   3.477   2.289  0.2125  1.3082  2.6034
 1275TIP3   OH2 3830   5.707   0.196   1.553  0.2027  0.1861  0.1436
 1275TIP3    H1 3831   5.681   0.275   1.506  0.6970  0.8204  0.9075
 1275TIP3    H2 3832   5.625   0.150   1.568 -0.3305  1.4073  1.1861
 1276TIP3   OH2 3833   0.246   0.437   3.011 -0.1446 -0.1585 -0.2907
 1276TIP3    H1 3834   0.158   0.421   2.977  0.1478 -1.4732 -0.4791
 1276TIP3    H2 3835   0.245   0.528   3.038 -1.3214  0.0690 -1.0333
 1277TIP3   OH2 3836   4.962   2.091   1.775  0.7215 -0.5951  0.4787
 1277TIP3    H1 3837   4.893   2.036   1.738  0.4312 -0.3108  0.5922
 1277TIP3    H2 3838   5.038   2.077   1.717 -0.0762  0.7766 -0.9752
 1278TIP3   OH2 3839   1.371   3.709   0.994 -0.2405  0.2366  0.1050
 1278TIP3    H1 3840   1.458   3.749   0.995  0.0309 -0.3059  1.9029
 1278TIP3    H2 3841   1.324   3.752   1.065 -0.4814 -1.4011  1.0108
 1279TIP3   OH2 3842   3.960   0.307   3.893 -0.2895 -1.5651  0.3317
 1279TIP3    H1 3843   3.972   0.374   3.961  0.5069 -1.3208 -0.0355
 1279TIP3    H2 3844   3.865   0.303   3.879 -0.3010  0.2102 -0.3455
 1280TIP3   OH2 3845   5.935   2.087   2.017 -0.1740 -0.6383  0.8901
 1280TIP3    H1 3846   5.925   2.122   1.929  1.4872 -0.0174  0.9018
 1280TIP3    H2 3847   5.928   1.992   2.006  0.8575 -0.6321 -0.0825
 1281TIP3   OH2 3848   3.443   4.699   4.550  0.2800 -1.0183  0.3680
 1281TIP3    H1 3849   3.456   4.612   4.512 -1.7093 -1.2736  0.1863
 1281TIP3    H2 3850   3.418   4.683   4.641  0.1939 -0.6223  0.4167
 1282TIP3   OH2 3851   5.442   5.361   2.816  0.6568  0.2602  0.5888
 1282TIP3    H1 3852   5.453   5.280   2.766  1.4824  1.0178 -0.4896
 1282TIP3    H2 3853   5.514   5.359   2.880  0.9438  0.3495  0.2700
 1283TIP3   OH2 3854   1.038   3.750   4.944  0.4437 -0.5090 -0.3584
 1283TIP3    H1 3855   1.104   3.737   4.876  1.3760 -1.0221  0.6104
 1283TIP3    H2 3856   1.083   3.727   5.025 -1.3091 -2.2097  0.2146
 1284TIP3   OH2 3857   1.977   0.249   3.729  0.2231  0.3811  0.0060
 1284TIP3    H1 3858   1.979   0.342   3.706  2.3537  0.5593  0.7079
 1284TIP3    H2 3859   2.044   0.209   3.673  1.2801 -0.2210  1.6308
 1285TIP3   OH2 3860   3.538   0.121   4.014  0.1932 -0.0972 -0.2510
 1285TIP3    H1 3861   3.565   0.042   3.968  1.8590 -0.1917  0.8025
 1285TIP3    H2 3862   3.610   0.183   4.000 -0.9844  1.1843 -0.8857
 1286TIP3   OH2 3863   3.924   3.748   2.086 -0.0748 -0.1228  0.1282
 1286TIP3    H1 3864   3.898   3.657   2.105 -0.4825  0.3024  1.7613
 1286TIP3    H2 3865   3.856   3.780   2.026 -1.1092 -0.2759  1.1878
 1287TIP3   OH2 3866   5.700   3.931   4.778  0.2657 -0.0959 -0.2610
 1287TIP3    H1 3867   5.778   3.965   4.733  0.3511 -0.2666 -0.2446
 1287TIP3    H2 3868   5.735   3.874   4.847  0.1708  1.1265  0.8304
 1288TIP3   OH2 3869   0.363   2.457   3.961  0.1984 -0.2198 -0.2280
 1288TIP3    H1 3870   0.438   2.426   4.011  0.7948  0.7440 -0.5001
 1288TIP3    H2 3871   0.353   2.393   3.890  0.0106 -0.9969  0.4827
 1289TIP3   OH2 3872   2.221   4.496   1.837  0.0868 -0.8792 -0.0494
 1289TIP3    H1 3873   2.312   4.494   1.866 -0.5498 -0.4235  2.0965
 1289TIP3    H2 3874   2.226   4.512   1.742  2.2594 -2.4005 -0.2571
 1290TIP3   OH2 3875   2.977   2.903   2.709 -0.0426 -0.9557 -1.0972
 1290TIP3    H1 3876   2.967   2.954   2.628  0.5088 -2.0622 -1.8888
 1290TIP3    H2 3877   2.897   2.851   2.715 -0.3191 -0.4901 -0.6300
 1291TIP3   OH2 3878   5.864   5.519   3.187 -0.7541  0.3573  0.3235
 1291TIP3    H1 3879   5.893   5.610   3.200 -1.2178  0.3204  1.9060
 1291TIP3    H2 3880   5.776   5.517   3.224 -0.7722 -0.7325  0.2582
 1292TIP3   OH2 3881   3.938   3.611   1.292 -0.1233  0.0204 -0.5033
 1292TIP3    H1 3882   3.893   3.542   1.342 -1.0988  0.4524 -0.7693
 1292TIP3    H2 3883   3.883   3.689   1.303  0.7374  0.6446 -0.5744
 1293TIP3   OH2 3884   0.637   2.003   3.313  0.2427  0.0563  0.0081
 1293TIP3    H1 3885   0.692   1.943   3.362  0.0147 -1.4708 -1.4983
 1293TIP3    H2 3886   0.697   2.070   3.281  0.4283  0.9541  2.0856
 1294TIP3   OH2 3887   4.758   2.395   0.554  0.4235 -0.4909  0.1666
 1294TIP3    H1 3888   4.685   2.386   0.493  0.5398 -3.7146  0.3123
 1294TIP3    H2 3889   4.722   2.445   0.627 -0.5053  1.1067 -1.3159
 1295TIP3   OH2 3890   0.162   3.958   2.134 -0.2278 -0.3910  0.1139
 1295TIP3    H1 3891   0.166   3.867   2.104 -0.5067  0.0614 -1.3597
 1295TIP3    H2 3892   0.071   3.969   2.162 -0.8736  0.0875 -1.9967
 1296TIP3   OH2 3893   5.136   0.748   0.108  0.1428  0.1865  0.2825
 1296TIP3    H1 3894   5.189   0.822   0.080  0.7306 -0.1618  0.4505
 1296TIP3    H2 3895   5.047   0.772   0.084  0.3860  0.7390 -0.0973
 1297TIP3   OH2 3896   4.317   1.452   2.984 -1.4976  0.4266  0.1998
 1297TIP3    H1 3897   4.396   1.409   3.017 -0.5280  1.7823 -0.2489
 1297TIP3    H2 3898   4.299   1.409   2.901 -0.4145  0.9854 -0.3476
 1298TIP3   OH2 3899   1.763   5.000   4.908  0.4420 -0.0604 -0.2492
 1298TIP3    H1 3900   1.711   5.079   4.919  1.1872  0.5911 -1.2902
 1298TIP3    H2 3901   1.854   5.028   4.921  0.8059 -0.5090 -1.6254
 1299TIP3   OH2 3902   0.494   4.302   4.093  0.5214  0.0537  0.1290
 1299TIP3    H1 3903   0.476   4.257   4.176 -0.4592  1.4866  0.7347
 1299TIP3    H2 3904   0.581   4.272   4.067  0.3191 -1.3870  1.0105
 1300TIP3   OH2 3905   5.150   5.235   0.943 -0.4043  0.5033 -0.2333
 1300TIP3    H1 3906   5.089   5.252   1.015  0.3321  0.2303  0.4596
 1300TIP3    H2 3907   5.174   5.321   0.911 -0.1242  0.6515  0.3657
 1301TIP3   OH2 3908   5.619   0.269   3.799 -0.1206 -0.4162 -0.4689
 1301TIP3    H1 3909   5.533   0.296   3.832 -1.0715 -1.2029 -2.2009
 1301TIP3    H2 3910   5.611   0.175   3.783 -0.1499  0.0519 -3.9631
 1302TIP3   OH2 3911   5.149   4.595   3.273  0.5429 -0.1347 -0.6926
 1302TIP3    H1 3912   5.140   4.521   3.213 -0.5931  0.3461 -1.1390
 1302TIP3    H2 3913   5.059   4.616   3.298  0.9857 -1.9725  3.2567
 1303TIP3   OH2 3914   4.800   5.008   2.932  0.6148  0.7239 -0.2875
 1303TIP3    H1 3915   4.820   4.938   2.870  1.1268 -0.3285  1.0286
 1303TIP3    H2 3916   4.737   5.064   2.886  0.9696 -0.0245 -1.7376
 1304TIP3   OH2 3917   4.940   3.015   2.203  0.3545  0.0520  0.0183
 1304TIP3    H1 3918   4.883   2.953   2.156  1.0836 -0.3332 -0.3761
 1304TIP3    H2 3919   4.881   3.086   2.228 -0.3942 -0.5360 -0.0044
 1305TIP3   OH2 3920   2.427   5.158   2.468  0.1102 -0.0134  0.5880
 1305TIP3    H1 3921   2.423   5.254   2.475  0.1016  0.0087  0.2648
 1305TIP3    H2 3922   2.351   5.128   2.518 -0.5055  0.1886 -0.2204
 1306TIP3   OH2 3923   4.152   0.228   4.187  0.3270 -0.1644  0.1604
 1306TIP3    H1 3924   4.069   0.200   4.227  0.3648  0.0314  0.3770
 1306TIP3    H2 3925   4.213   0.233   4.260  0.1411  1.1583  0.2491
 1307TIP3   OH2 3926   1.914   4.450   1.632  0.2426  0.3003  0.0805
 1307TIP3    H1 3927   1.826   4.464   1.596 -0.4633 -2.5042  0.4240
 1307TIP3    H2 3928   1.918   4.504   1.710 -1.4469  0.0516  0.3812
 1308TIP3   OH2 3929   3.829   3.838   0.263  0.3037 -0.0012 -0.1666
 1308TIP3    H1 3930   3.852   3.917   0.214 -0.3552  1.0978  1.2334
 1308TIP3    H2 3931   3.745   3.858   0.303 -0.0887 -1.5984 -0.1222
 1309TIP3   OH2 3932   4.193   4.638   3.746 -0.2265  0.0297  0.4164
 1309TIP3    H1 3933   4.206   4.558   3.695  2.5814  0.4288  0.3282
 1309TIP3    H2 3934   4.210   4.709   3.684  0.9124  0.5643  1.3043
 1310TIP3   OH2 3935   1.849   3.196   2.671  0.7864  0.2452 -0.1905
 1310TIP3    H1 3936   1.879   3.148   2.748 -0.5183 -2.4720 -1.2342
 1310TIP3    H2 3937   1.919   3.258   2.652  1.5993  0.2986  2.5429
 1311TIP3   OH2 3938   3.801   4.516   0.234 -0.3197 -0.1483  0.1677
 1311TIP3    H1 3939   3.765   4.589   0.184 -1.4930  0.2726  1.5767
 1311TIP3    H2 3940   3.796   4.441   0.174  0.0799  0.7188 -0.9889
 1312TIP3   OH2 3941   4.878   0.223   0.056  0.2113 -0.5634 -0.0850
 1312TIP3    H1 3942   4.867   0.299  -0.001  0.2144 -1.4183 -1.2698
 1312TIP3    H2 3943   4.854   0.254   0.143 -0.0249  0.7190 -0.5901
 1313TIP3   OH2 3944   4.128   0.737   4.087  0.4863 -0.1830 -0.2102
 1313TIP3    H1 3945   4.110   0.796   4.160  1.3894  0.6330 -0.6168
 1313TIP3    H2 3946   4.103   0.787   4.009  1.5007 -0.2209 -0.5777
 1314TIP3   OH2 3947   4.573   0.903   0.333 -0.3600  0.0050 -0.6138
 1314TIP3    H1 3948   4.599   0.826   0.383  2.2172  1.2301  0.1244
 1314TIP3    H2 3949   4.480   0.915   0.353 -0.0164 -1.0021  1.8703
 1315TIP3   OH2 3950   5.948   0.755   3.426 -0.2891  0.0396  0.1417
 1315TIP3    H1 3951   5.952   0.788   3.337 -0.2575 -1.6285 -0.4939
 1315TIP3    H2 3952   5.878   0.806   3.467  1.0272  2.2384 -0.1866
 1316TIP3   OH2 3953   4.759   1.666   0.402 -0.6109 -0.6644 -0.3480
 1316TIP3    H1 3954   4.756   1.665   0.498  0.4968 -0.5689 -0.2995
 1316TIP3    H2 3955   4.685   1.611   0.376 -1.0510 -0.5319  0.5537
 1317TIP3   OH2 3956   4.111   5.285   0.812  0.1079 -0.2247 -0.1400
 1317TIP3    H1 3957   4.049   5.216   0.788 -0.3981  0.0717  0.3099
 1317TIP3    H2 3958   4.188   5.267   0.757 -0.4053 -0.5308 -0.7816
 1318TIP3   OH2 3959   3.802   4.808   1.872  0.2808  0.0044  0.0188
 1318TIP3    H1 3960   3.896   4.812   1.892  0.4326  0.1688 -0.6939
 1318TIP3    H2 3961   3.768   4.739   1.929  0.8754 -0.1806  0.1563
 1319TIP3   OH2 3962   6.033   4.812   2.783 -0.3139 -0.0911  0.2152
 1319TIP3    H1 3963   5.982   4.893   2.785 -1.5174 -0.8388  1.2198
 1319TIP3    H2 3964   6.104   4.827   2.845  1.4830  1.3793 -2.0020
 1320TIP3   OH2 3965   4.942   2.659   2.332  0.3509  0.4018 -0.0279
 1320TIP3    H1 3966   4.873   2.615   2.383  1.3523  0.0838  1.1122
 1320TIP3    H2 3967   5.014   2.670   2.395  0.9625  1.6413 -0.9147
 1321TIP3   OH2 3968   5.435   4.821   0.192 -0.5109  0.6619 -0.9707
 1321TIP3    H1 3969   5.365   4.766   0.156 -0.5182  0.0476 -0.0756
 1321TIP3    H2 3970   5.439   4.795   0.285  1.1698  0.3939 -1.0901
 1322TIP3   OH2 3971   2.182   1.154   2.272  0.1606 -0.5481 -0.4701
 1322TIP3    H1 3972   2.239   1.230   2.260  0.0583 -0.4498 -0.3301
 1322TIP3    H2 3973   2.216   1.089   2.211 -0.3980 -0.0219 -1.3664
 1323TIP3   OH2 3974   0.724   3.057   0.032  0.1584 -0.0507 -0.6140
 1323TIP3    H1 3975   0.787   3.093   0.094 -0.4651  1.4169 -0.8100
 1323TIP3    H2 3976   0.723   3.119  -0.040 -0.1456 -1.0348 -1.4789
 1324TIP3   OH2 3977   4.198   3.828   2.079 -0.3142  0.6274 -0.1193
 1324TIP3    H1 3978   4.223   3.812   2.170 -1.2990  0.5696  0.1559
 1324TIP3    H2 3979   4.114   3.782   2.069  0.4409 -0.5244 -1.4523
 1325TIP3   OH2 3980   5.783   4.339   2.397 -0.1509 -0.2836  0.0087
 1325TIP3    H1 3981   5.755   4.406   2.458  1.7344 -1.4659  2.3268
 1325TIP3    H2 3982   5.813   4.387   2.320 -1.0764  1.3423  0.6224
 1326TIP3   OH2 3983   0.180   1.988   3.689  0.1818  0.1814 -0.0228
 1326TIP3    H1 3984   0.101   2.036   3.662  0.7664  1.3750  0.2835
 1326TIP3    H2 3985   0.149   1.901   3.712 -0.6975 -0.1201 -2.1663
 1327TIP3   OH2 3986   2.277   2.680   3.450 -0.0189 -0.1788 -0.1029
 1327TIP3    H1 3987   2.344   2.668   3.383 -2.3253 -1.8060 -2.2846
 1327TIP3    H2 3988   2.289   2.770   3.480  2.9779 -0.3427 -0.4797
 1328TIP3   OH2 3989   0.839   3.647   1.688  0.0326 -0.1461  0.1721
 1328TIP3    H1 3990   0.840   3.554   1.663  3.6034 -0.2734  0.2121
 1328TIP3    H2 3991   0.817   3.693   1.607  3.1090 -0.9510 -1.3047
 1329TIP3   OH2 3992   2.034   4.226   0.482  0.1744  0.5767  0.4814
 1329TIP3    H1 3993   2.117   4.179   0.481  0.0729  0.3589 -0.9800
 1329TIP3    H2 3994   2.057   4.317   0.465  0.1245  0.5075  0.0214
 1330TIP3   OH2 3995   2.463   3.073   2.565 -0.1030  0.0254 -0.3140
 1330TIP3    H1 3996   2.522   3.148   2.559  1.9862 -1.4760  0.1631
 1330TIP3    H2 3997   2.406   3.081   2.489  1.6859  0.8075 -1.6684
 1331TIP3   OH2 3998   6.080   4.555   3.644  0.1213 -0.0215 -0.4217
 1331TIP3    H1 3999   6.175   4.548   3.648  0.2049  0.6164 -1.0747
 1331TIP3    H2 4000   6.057   4.617   3.713  0.3051  0.7342 -1.0167
 1332TIP3   OH2 4001   0.311   2.294   2.560 -0.1807 -1.1256 -0.0463
 1332TIP3    H1 4002   0.228   2.343   2.562 -0.6199 -1.7665 -1.5370
 1332TIP3    H2 4003   0.367   2.340   2.623 -1.2799  0.0175  0.1385
 1333TIP3   OH2 4004   1.154   0.488   2.462 -0.2376 -0.0962  0.4012
 1333TIP3    H1 4005   1.231   0.447   2.423 -0.2974 -0.2567  0.4521
 1333TIP3    H2 4006   1.128   0.554   2.398  0.0571  0.0910  0.4733
 1334TIP3   OH2 4007   1.109   3.185   2.307 -0.5179  0.0267 -0.2350
 1334TIP3    H1 4008   1.033   3.234   2.277  0.9289  1.1038 -2.3997
 1334TIP3    H2 4009   1.172   3.193   2.236  2.4414  0.9698  2.2712
 1335TIP3   OH2 4010   6.080   1.687   0.758 -1.1639 -0.3050  0.0475
 1335TIP3    H1 4011   6.171   1.697   0.730 -0.9782  2.8306  1.3086
 1335TIP3    H2 4012   6.077   1.602   0.802  0.8690 -0.9310 -0.9069
 1336TIP3   OH2 4013   2.620   3.532   0.725  0.3747  0.1612  0.3635
 1336TIP3    H1 4014   2.688   3.596   0.741 -0.0133  0.5312  0.5551
 1336TIP3    H2 4015   2.578   3.519   0.810 -0.3028  0.5323  0.0924
 1337TIP3   OH2 4016   6.251   0.590   0.077  0.0999 -0.6491 -0.0154
 1337TIP3    H1 4017   6.168   0.604   0.121 -0.3634  0.4511 -1.1934
 1337TIP3    H2 4018   6.316   0.589   0.147 -0.2248  4.0133  0.6334
 1338TIP3   OH2 4019   3.561   3.441   2.283 -0.0678  0.6461  0.0890
 1338TIP3    H1 4020   3.483   3.403   2.243 -0.4460  2.4867 -1.0253
 1338TIP3    H2 4021   3.528   3.511   2.339  0.7740  3.5629 -2.7363
 1339TIP3   OH2 4022   0.400   3.793   5.115  0.1607  0.2599  0.3766
 1339TIP3    H1 4023   0.348   3.743   5.052 -2.8096  1.9355  1.3295
 1339TIP3    H2 4024   0.341   3.808   5.189  1.8255  2.7348  1.3331
 1340TIP3   OH2 4025   5.730   5.941   1.324 -0.2109  0.2459  0.2179
 1340TIP3    H1 4026   5.759   5.873   1.262 -0.7714  0.4580 -0.2826
 1340TIP3    H2 4027   5.742   6.023   1.277 -0.1278  0.4517  0.5948
 1341TIP3   OH2 4028   4.348   1.708   4.989 -0.1247 -0.3773  0.5022
 1341TIP3    H1 4029   4.333   1.666   5.074  0.0423  0.4900  0.9709
 1341TIP3    H2 4030   4.267   1.694   4.941 -0.5660 -0.0921  1.1449
 1342TIP3   OH2 4031   4.538   1.073   3.860 -0.7136  0.3157  0.0861
 1342TIP3    H1 4032   4.472   1.142   3.851  0.4126  1.5979  1.2101
 1342TIP3    H2 4033   4.520   1.034   3.946 -0.4174  0.2268  0.1095
 1343TIP3   OH2 4034   0.208   4.896   3.894 -0.2470 -0.1672  0.2535
 1343TIP3    H1 4035   0.230   4.816   3.942 -0.1669 -1.2758 -1.5386
 1343TIP3    H2 4036   0.113   4.888   3.878 -0.0916 -0.3481 -0.6492
 1344TIP3   OH2 4037   3.377   0.439   3.881 -0.7869  0.4030  0.3156
 1344TIP3    H1 4038   3.322   0.376   3.926 -1.2776  0.1494 -0.6131
 1344TIP3    H2 4039   3.417   0.389   3.810  0.0570  0.7656  0.5235
 1345TIP3   OH2 4040   3.074   1.174   1.508 -0.0603 -0.2848 -0.3753
 1345TIP3    H1 4041   3.108   1.251   1.554 -1.6885  0.0135  0.4005
 1345TIP3    H2 4042   2.990   1.155   1.551 -0.9599 -0.8731 -2.2548
 1346TIP3   OH2 4043   4.073   3.815   0.445 -0.3416 -0.0893 -0.6575
 1346TIP3    H1 4044   4.112   3.898   0.472 -2.7393  0.4762  1.4429
 1346TIP3    H2 4045   3.994   3.840   0.397  0.2466 -1.2036 -2.3022
 1347TIP3   OH2 4046   6.166   2.639   1.681  0.2499 -0.3573 -0.3073
 1347TIP3    H1 4047   6.176   2.679   1.595 -0.4716 -0.4232 -0.4286
 1347TIP3    H2 4048   6.095   2.688   1.723  0.2023 -0.6951  0.0231
 1348TIP3   OH2 4049   3.153   1.238   4.511  0.0065 -0.6660  0.4850
 1348TIP3    H1 4050   3.140   1.144   4.504  0.6874 -0.6553 -1.8127
 1348TIP3    H2 4051   3.235   1.255   4.465 -0.4611  1.1219  0.1991
 1349TIP3   OH2 4052   1.434   1.945   4.020 -0.3253  0.2568 -0.8375
 1349TIP3    H1 4053   1.495   1.877   3.993 -0.3713  0.1892 -0.7721
 1349TIP3    H2 4054   1.356   1.897   4.048 -0.5651  0.3548 -1.3106
 1350TIP3   OH2 4055   3.264   5.905   3.907 -0.2109 -0.3592  0.6198
 1350TIP3    H1 4056   3.359   5.911   3.915 -0.0551 -2.8766  1.4907
 1350TIP3    H2 4057   3.250   5.864   3.822 -0.4774 -0.7695  0.8601
 1351TIP3   OH2 4058   0.236   5.189   0.234 -0.1075  0.1068  0.2552
 1351TIP3    H1 4059   0.248   5.283   0.245  0.9906 -0.0826  0.8282
 1351TIP3    H2 4060   0.309   5.161   0.178 -0.7518 -0.3223 -0.3959
 1352TIP3   OH2 4061   4.087   5.158   1.103 -0.0746 -0.1236  0.2693
 1352TIP3    H1 4062   4.134   5.143   1.185  1.0039  2.9212  0.3122
 1352TIP3    H2 4063   4.156   5.173   1.038 -0.9544 -0.1677 -0.7009
 1353TIP3   OH2 4064   5.784   5.861   2.134 -0.2060  0.3554  0.1925
 1353TIP3    H1 4065   5.855   5.909   2.178 -2.1092  1.7971  1.8586
 1353TIP3    H2 4066   5.720   5.929   2.111 -1.2795 -0.9614 -0.8261
 1354TIP3   OH2 4067   4.573   2.199   2.830  0.3498  0.1781 -0.2232
 1354TIP3    H1 4068   4.534   2.222   2.745  0.1288  1.2145  0.1360
 1354TIP3    H2 4069   4.502   2.158   2.878  0.1077  0.7333 -0.0970
 1355TIP3   OH2 4070   6.161   5.428   4.550 -0.8950  0.2990  0.4646
 1355TIP3    H1 4071   6.093   5.495   4.556 -0.9993  0.4777 -1.8189
 1355TIP3    H2 4072   6.113   5.345   4.545 -0.8849  0.3082  0.2244
 1356TIP3   OH2 4073   3.713   5.086   1.337 -0.1565 -0.1796  0.6049
 1356TIP3    H1 4074   3.697   4.993   1.319  0.3371  0.2106 -2.4019
 1356TIP3    H2 4075   3.798   5.087   1.382 -0.2112 -1.1993  0.7554
 1357TIP3   OH2 4076   2.954   0.276   1.463  0.2971  0.0663 -0.0961
 1357TIP3    H1 4077   2.985   0.233   1.383 -1.5412  0.4016 -1.0454
 1357TIP3    H2 4078   2.870   0.313   1.438 -0.3560  0.1150  2.0421
 1358TIP3   OH2 4079   2.519   1.076   2.178 -0.4331  0.4495  0.3723
 1358TIP3    H1 4080   2.527   1.044   2.268  0.7803 -1.4490 -0.3306
 1358TIP3    H2 4081   2.582   1.148   2.171  0.1838 -0.0388  0.8050
 1359TIP3   OH2 4082   4.965   3.446   2.236  0.2304  0.4285  0.6012
 1359TIP3    H1 4083   4.928   3.519   2.285  0.2980 -0.2615  1.6990
 1359TIP3    H2 4084   5.049   3.430   2.277  0.3018 -0.1486  0.2373
 1360TIP3   OH2 4085   3.453   2.057   2.300  0.1654  0.4037 -0.3944
 1360TIP3    H1 4086   3.402   2.010   2.367 -1.0765  2.4451  0.1941
 1360TIP3    H2 4087   3.387   2.087   2.237  0.7652  2.1873 -0.2060
 1361TIP3   OH2 4088   3.839   3.767   4.537 -0.0415 -0.3386 -0.5350
 1361TIP3    H1 4089   3.804   3.850   4.504  0.5373 -0.0569 -0.4574
 1361TIP3    H2 4090   3.904   3.793   4.602 -1.3827 -0.8837  1.0958
 1362TIP3   OH2 4091   4.191   3.035   3.816  0.5753  0.0695 -0.1352
 1362TIP3    H1 4092   4.268   2.996   3.774  1.4199 -0.3690  1.7210
 1362TIP3    H2 4093   4.226   3.100   3.877 -0.4951 -0.1872  0.7978
 1363TIP3   OH2 4094   0.189   4.928   3.272 -0.3855  0.2146  0.4636
 1363TIP3    H1 4095   0.110   4.983   3.266  0.6757  1.7121 -0.3719
 1363TIP3    H2 4096   0.207   4.903   3.182  0.2094  0.0528  0.6290
 1364TIP3   OH2 4097   2.760   4.143   1.171  0.3699 -0.6082 -0.0513
 1364TIP3    H1 4098   2.809   4.067   1.202  1.7980  0.1341 -0.3824
 1364TIP3    H2 4099   2.812   4.218   1.200 -1.2408  0.2859  0.6867
 1365TIP3   OH2 4100   5.526   5.606   1.915 -0.2064 -0.4441 -0.2287
 1365TIP3    H1 4101   5.617   5.627   1.939 -0.2960  0.4787 -0.6735
 1365TIP3    H2 4102   5.507   5.663   1.841 -1.6155  0.3799  0.7321
 1366TIP3   OH2 4103   4.987   5.781   0.424  0.1901 -0.1337 -0.3180
 1366TIP3    H1 4104   5.026   5.846   0.364 -1.4082  2.1993  0.9934
 1366TIP3    H2 4105   4.934   5.726   0.367 -1.1187  1.8902 -1.1890
 1367TIP3   OH2 4106   1.211   1.946   1.473  0.1379  0.0596  0.0050
 1367TIP3    H1 4107   1.266   1.929   1.550 -0.3798  0.2725  0.4317
 1367TIP3    H2 4108   1.230   2.037   1.449  1.9969 -0.6661 -1.5321
 1368TIP3   OH2 4109   5.308   1.973   0.597 -0.2241 -0.2306 -0.4011
 1368TIP3    H1 4110   5.225   1.973   0.550  0.3799 -0.7651 -1.4989
 1368TIP3    H2 4111   5.291   1.916   0.673 -1.5278  1.5239  0.7021
 1369TIP3   OH2 4112   3.459   2.371   1.448 -0.8005 -0.0307 -0.1340
 1369TIP3    H1 4113   3.459   2.291   1.501  1.1099 -0.3533 -0.5437
 1369TIP3    H2 4114   3.435   2.440   1.509  1.0304 -0.4429  1.1442
 1370TIP3   OH2 4115   0.475   3.848   3.334 -0.0808  0.2633 -0.3907
 1370TIP3    H1 4116   0.498   3.820   3.423 -0.8340 -2.3825 -0.9367
 1370TIP3    H2 4117   0.387   3.885   3.342 -0.1073  0.1221  0.0052
 1371TIP3   OH2 4118   6.041   4.798   3.521 -0.0460  0.0885 -0.0211
 1371TIP3    H1 4119   6.036   4.857   3.597  2.3526  0.3773 -0.0284
 1371TIP3    H2 4120   6.054   4.711   3.559 -4.0169 -0.7084  0.0119
 1372TIP3   OH2 4121   0.708   5.253   3.297 -0.3355 -0.1686 -0.0538
 1372TIP3    H1 4122   0.650   5.281   3.368 -2.1051 -1.6823 -0.8084
 1372TIP3    H2 4123   0.795   5.250   3.336 -1.2192 -0.7301  1.9964
 1373TIP3   OH2 4124   5.370   2.981   1.025 -0.0232  0.0917  0.1142
 1373TIP3    H1 4125   5.449   2.931   1.046 -0.7963 -0.6515  1.3188
 1373TIP3    H2 4126   5.389   3.070   1.055  1.1507  0.4607 -1.5532
 1374TIP3   OH2 4127   6.167   2.565   3.849  0.0474 -0.1100 -0.1997
 1374TIP3    H1 4128   6.250   2.541   3.807 -1.1027  1.5268 -3.8696
 1374TIP3    H2 4129   6.116   2.484   3.847  0.4421 -0.3586 -1.0106
 1375TIP3   OH2 4130   2.986   0.872   4.133  0.4445 -0.1502  0.4670
 1375TIP3    H1 4131   2.949   0.787   4.154  0.4130 -0.7674 -1.7763
 1375TIP3    H2 4132   3.057   0.853   4.072  0.7867  1.3961  0.3309
 1376TIP3   OH2 4133   4.867   2.515   4.276 -0.0485 -0.3868 -0.3447
 1376TIP3    H1 4134   4.858   2.571   4.199  2.6414  0.8866  0.1480
 1376TIP3    H2 4135   4.916   2.439   4.244 -0.1952 -0.5481 -0.1847
 1377TIP3   OH2 4136   3.484   1.268   2.684  0.3156  0.8857 -0.2545
 1377TIP3    H1 4137   3.550   1.268   2.754 -0.1753  1.2880  0.2155
 1377TIP3    H2 4138   3.523   1.320   2.614  0.8042  0.4970 -0.2741
 1378TIP3   OH2 4139   1.875   0.111   3.951 -0.0486 -0.8213 -0.1499
 1378TIP3    H1 4140   1.877   0.174   3.879  0.7341 -0.2269  0.3700
 1378TIP3    H2 4141   1.824   0.154   4.020  0.5682 -0.6968  0.2433
 1379TIP3   OH2 4142   3.441   1.306   4.075  0.2403 -0.3452 -0.4937
 1379TIP3    H1 4143   3.389   1.348   4.143  0.2360 -1.9620  0.5563
 1379TIP3    H2 4144   3.519   1.360   4.067  1.4905 -1.4569  2.6897
 1380TIP3   OH2 4145   2.016   3.463   5.018 -0.5605 -0.3765  0.5438
 1380TIP3    H1 4146   2.017   3.495   5.108 -2.1921 -0.1853  0.5274
 1380TIP3    H2 4147   2.089   3.506   4.976 -2.0011  2.5520  0.7970
 1381TIP3   OH2 4148   5.497   2.295   5.171  0.0955 -0.3796  0.0517
 1381TIP3    H1 4149   5.587   2.313   5.143  0.4670 -0.0098  1.4019
 1381TIP3    H2 4150   5.466   2.228   5.111  1.3826 -0.7300 -0.2538
 1382TIP3   OH2 4151   0.575   4.033   1.864  0.4743 -0.0071  0.3229
 1382TIP3    H1 4152   0.554   4.020   1.772  1.4005 -1.0364  0.2289
 1382TIP3    H2 4153   0.600   3.945   1.895  2.0124  0.6566  1.0646
 1383TIP3   OH2 4154   1.171   0.328   3.534  0.0518 -0.0125  0.3817
 1383TIP3    H1 4155   1.147   0.420   3.520 -2.1490 -0.7658 -1.3250
 1383TIP3    H2 4156   1.262   0.323   3.504 -0.4710  1.1981 -1.5905
 1384TIP3   OH2 4157   0.309   2.877   4.057 -0.4036 -0.0021  0.0900
 1384TIP3    H1 4158   0.397   2.883   4.093  0.3357 -0.2713 -1.5825
 1384TIP3    H2 4159   0.319   2.901   3.965 -1.9849 -0.5607 -0.2579
 1385TIP3   OH2 4160   4.593   5.913   3.838 -0.0643  0.0592 -0.3918
 1385TIP3    H1 4161   4.511   5.896   3.884  0.0532  1.2187  0.2937
 1385TIP3    H2 4162   4.631   5.988   3.885  1.4243 -0.5192 -0.6347
 1386TIP3   OH2 4163   5.451   1.311   4.674  0.3981  0.3684 -0.1609
 1386TIP3    H1 4164   5.422   1.251   4.605 -2.4784  2.4453 -0.9465
 1386TIP3    H2 4165   5.378   1.316   4.735  0.9962  2.1558  0.4925
 1387TIP3   OH2 4166   1.561   1.025   1.574 -0.5915 -0.4117 -0.2009
 1387TIP3    H1 4167   1.537   1.043   1.483 -0.7499  0.1744 -0.0481
 1387TIP3    H2 4168   1.613   0.945   1.570 -0.8606 -0.5611 -0.7708
 1388TIP3   OH2 4169   3.422   5.539   2.999  0.5586  0.5605 -0.2952
 1388TIP3    H1 4170   3.423   5.582   3.085  0.5753  0.0908 -0.0516
 1388TIP3    H2 4171   3.331   5.510   2.989  1.1800 -2.3411  1.1126
 1389TIP3   OH2 4172   4.785   5.398   2.411  0.6487 -0.0578 -0.1619
 1389TIP3    H1 4173   4.691   5.391   2.427  0.7690  0.1290  0.6960
 1389TIP3    H2 4174   4.813   5.309   2.389  0.4736 -0.3672  0.8092
 1390TIP3   OH2 4175   3.140   4.373   4.037 -0.0748  0.0683  0.0210
 1390TIP3    H1 4176   3.139   4.290   4.083 -0.3217 -0.6701 -1.2616
 1390TIP3    H2 4177   3.210   4.423   4.079  0.9933 -1.3104 -0.0569
 1391TIP3   OH2 4178   2.084   1.192   0.383  0.4168 -0.5599 -0.0334
 1391TIP3    H1 4179   2.017   1.247   0.423  0.7170  0.3852 -0.7988
 1391TIP3    H2 4180   2.104   1.127   0.450 -0.2434  0.0040  0.7359
 1392TIP3   OH2 4181   2.533   5.175   2.026  0.3524  0.5061  0.7320
 1392TIP3    H1 4182   2.614   5.152   2.071  1.2318  1.2226 -0.4424
 1392TIP3    H2 4183   2.482   5.223   2.091  1.7706  1.8765  0.8866
 1393TIP3   OH2 4184   0.616   0.946   4.941 -0.0655  0.0060  0.0742
 1393TIP3    H1 4185   0.527   0.949   4.905  0.7431  1.3070 -2.0040
 1393TIP3    H2 4186   0.606   0.970   5.033 -1.7272  1.5916 -0.4652
 1394TIP3   OH2 4187   2.222   4.050   4.422 -0.3347  0.1868 -0.0543
 1394TIP3    H1 4188   2.266   4.060   4.337  1.3888  0.2020  0.8030
 1394TIP3    H2 4189   2.182   4.136   4.438  0.6627  0.6804 -0.1509
 1395TIP3   OH2 4190   2.029   3.873   4.835  0.1881  0.2898  0.2345
 1395TIP3    H1 4191   2.024   3.931   4.912 -1.4183 -2.1277  2.1338
 1395TIP3    H2 4192   2.093   3.806   4.860 -1.6911 -1.5851  0.4007
 1396TIP3   OH2 4193   3.372   5.523   0.980 -0.3013  0.2978  0.3445
 1396TIP3    H1 4194   3.314   5.521   0.904 -1.9408 -0.4758  1.5595
 1396TIP3    H2 4195   3.454   5.559   0.946 -0.7903 -0.5294 -1.9130
 1397TIP3   OH2 4196   2.449   2.350   1.385 -0.4149  0.0588  0.2040
 1397TIP3    H1 4197   2.473   2.342   1.292 -0.6853 -0.4836  0.1800
 1397TIP3    H2 4198   2.358   2.382   1.383 -0.3958  0.1189  0.2869
 1398TIP3   OH2 4199   5.500   2.436   0.630 -0.6492  0.3523 -0.3381
 1398TIP3    H1 4200   5.571   2.378   0.658 -2.0754 -0.8862  0.8352
 1398TIP3    H2 4201   5.426   2.378   0.615 -1.4556  1.6249 -1.5157
 1399TIP3   OH2 4202   0.418   0.988   4.180 -0.1001 -0.3707  0.0621
 1399TIP3    H1 4203   0.378   0.910   4.218 -0.8012 -1.5879 -2.9555
 1399TIP3    H2 4204   0.505   0.992   4.219 -0.8251 -1.3640  1.9018
 1400TIP3   OH2 4205   0.400   2.040   4.515 -0.1460  0.5225  0.2209
 1400TIP3    H1 4206   0.304   2.035   4.524 -0.1850  1.6323  0.5508
 1400TIP3    H2 4207   0.416   2.129   4.484  0.8877  0.9325  1.8236
 1401TIP3   OH2 4208   5.190   3.110   1.768 -0.4487  0.0661 -0.0471
 1401TIP3    H1 4209   5.095   3.114   1.761 -0.3365  1.5277 -1.5903
 1401TIP3    H2 4210   5.208   3.116   1.862 -1.8688  0.9781  0.1985
 1402TIP3   OH2 4211   2.284   3.231   3.262 -0.3557 -0.5844  1.1336
 1402TIP3    H1 4212   2.266   3.184   3.344 -0.0768 -0.8468  1.0445
 1402TIP3    H2 4213   2.268   3.323   3.284  1.1849 -0.4709  1.9225
 1403TIP3   OH2 4214   2.567   0.631   2.587 -0.3653 -0.3484 -0.1512
 1403TIP3    H1 4215   2.602   0.669   2.667 -0.3731 -0.6318 -0.0122
 1403TIP3    H2 4216   2.615   0.548   2.576 -0.0684 -0.1187 -0.6605
 1404TIP3   OH2 4217   1.570   2.108   2.472 -0.1564  0.1648 -0.6616
 1404TIP3    H1 4218   1.509   2.116   2.545 -1.1822 -0.3038 -1.4444
 1404TIP3    H2 4219   1.532   2.162   2.403  0.5933  0.2798 -0.9968
 1405TIP3   OH2 4220  -0.029   1.985   1.683  0.0764 -0.0745  0.4203
 1405TIP3    H1 4221   0.057   1.982   1.726 -0.5054  1.4190  1.7817
 1405TIP3    H2 4222  -0.026   2.063   1.628 -0.6677  0.4097  1.0607
 1406TIP3   OH2 4223   0.303   4.172   0.048 -0.1910  0.0972  0.7798
 1406TIP3    H1 4224   0.339   4.161   0.136 -1.3700  0.1393  1.2985
 1406TIP3    H2 4225   0.259   4.257   0.050  3.1192  2.0306 -1.1180
 1407TIP3   OH2 4226   3.872   0.466   1.241 -0.2380  0.1946 -0.1881
 1407TIP3    H1 4227   3.879   0.535   1.306  1.4622 -0.2940  0.2095
 1407TIP3    H2 4228   3.849   0.388   1.291  2.2056 -0.4388  0.1021
 1408TIP3   OH2 4229   3.145   1.030   1.283  0.6950  0.1451  0.3217
 1408TIP3    H1 4230   3.239   1.039   1.266  0.9665 -1.6283  0.6594
 1408TIP3    H2 4231   3.128   1.090   1.355  1.5313  0.6157  0.1445
 1409TIP3   OH2 4232   1.156   3.269   0.600 -0.0864  0.0011 -0.2412
 1409TIP3    H1 4233   1.229   3.324   0.626 -0.6032  0.4262  0.3512
 1409TIP3    H2 4234   1.195   3.185   0.577  0.5899  0.2508 -0.0158
 1410TIP3   OH2 4235   4.550   1.032   1.956  0.1964 -0.2791 -0.7798
 1410TIP3    H1 4236   4.536   0.956   2.013 -2.1344  1.1001  0.6550
 1410TIP3    H2 4237   4.495   1.015   1.879 -0.6606  0.1016 -0.2663
 1411TIP3   OH2 4238   1.686   2.716   0.773  0.0684 -0.0619  0.2915
 1411TIP3    H1 4239   1.708   2.776   0.701  1.7552  0.6994  1.3979
 1411TIP3    H2 4240   1.609   2.756   0.814  0.9934  1.2185  0.8340
 1412TIP3   OH2 4241   0.818   0.177   3.597 -0.3972  0.3292 -0.2263
 1412TIP3    H1 4242   0.734   0.133   3.581 -1.2820  1.9035 -0.1430
 1412TIP3    H2 4243   0.799   0.240   3.667  0.6384  1.2771 -0.7654
 1413TIP3   OH2 4244   2.626   0.453   2.998  0.0186 -0.5527  0.1059
 1413TIP3    H1 4245   2.605   0.378   2.943 -0.4228 -1.5396  1.5629
 1413TIP3    H2 4246   2.653   0.415   3.082 -0.8859  0.9017  1.1219
 1414TIP3   OH2 4247   2.295   3.544   1.106  0.0709 -0.1824 -0.7217
 1414TIP3    H1 4248   2.389   3.562   1.106 -0.0333  0.3945 -1.2244
 1414TIP3    H2 4249   2.257   3.615   1.158 -0.0643 -0.5846 -0.2622
 1415TIP3   OH2 4250   0.767   3.114   2.741  0.4574  0.6746  0.4890
 1415TIP3    H1 4251   0.765   3.161   2.824 -0.0175  0.9040  0.3524
 1415TIP3    H2 4252   0.860   3.105   2.720  0.5639  1.0410  0.8057
 1416TIP3   OH2 4253   1.449   1.539   0.641 -0.3158 -1.0983  0.4970
 1416TIP3    H1 4254   1.389   1.464   0.632 -2.4831  0.4068  1.5950
 1416TIP3    H2 4255   1.392   1.612   0.664  1.1934  1.7578 -3.7477
 1417TIP3   OH2 4256   3.247   2.760   1.352  0.1036 -0.1942  1.0673
 1417TIP3    H1 4257   3.294   2.819   1.410 -0.7135  2.6210 -0.9405
 1417TIP3    H2 4258   3.313   2.729   1.290 -0.0228  1.2248  0.1860
 1418TIP3   OH2 4259   5.035   2.125   4.452 -0.0363  0.2378  0.6543
 1418TIP3    H1 4260   4.980   2.052   4.480  2.9761 -1.4191  2.8983
 1418TIP3    H2 4261   5.051   2.175   4.532  0.5674  1.4592 -0.2015
 1419TIP3   OH2 4262   5.680   0.823   1.698 -0.0753  0.4021  0.0027
 1419TIP3    H1 4263   5.680   0.919   1.706 -0.0880  0.2957  1.4534
 1419TIP3    H2 4264   5.588   0.798   1.708 -0.2071  0.2796 -1.2958
 1420TIP3   OH2 4265   4.678   4.934   5.003  0.4486  0.3340 -0.1959
 1420TIP3    H1 4266   4.652   4.999   5.067  0.7354  1.5321 -1.2573
 1420TIP3    H2 4267   4.764   4.964   4.972 -0.7550  1.2081 -2.9327
 1421TIP3   OH2 4268   4.429   3.831   1.398 -0.4532  0.1803  0.4049
 1421TIP3    H1 4269   4.364   3.886   1.355  0.3586  0.0192 -1.0714
 1421TIP3    H2 4270   4.439   3.755   1.341 -0.8198 -1.0503  1.9059
 1422TIP3   OH2 4271   3.134   5.729   0.749 -0.1305 -0.0706  0.8316
 1422TIP3    H1 4272   3.044   5.697   0.738  0.4356 -1.6884  0.6755
 1422TIP3    H2 4273   3.184   5.652   0.776  1.3790  0.6083  0.1186
 1423TIP3   OH2 4274   5.879   2.539   1.894  0.4513  0.3539 -0.2787
 1423TIP3    H1 4275   5.895   2.530   1.800  0.8221 -0.3767 -0.1577
 1423TIP3    H2 4276   5.842   2.455   1.920  1.4470  0.1132  0.4327
 1424TIP3   OH2 4277   1.066   3.849   2.190  0.1468 -0.4932  0.4196
 1424TIP3    H1 4278   1.138   3.894   2.236  0.0579 -3.1018  3.4519
 1424TIP3    H2 4279   1.056   3.766   2.236 -3.7695 -0.9850 -0.9380
 1425TIP3   OH2 4280   4.418   2.422   3.213 -0.6326 -0.0616 -0.6351
 1425TIP3    H1 4281   4.503   2.400   3.174 -0.8146 -2.1702  0.0303
 1425TIP3    H2 4282   4.440   2.479   3.286  0.2448 -0.7209 -0.3657
 1426TIP3   OH2 4283   0.446   2.558   1.690  0.2629 -0.1504  0.2822
 1426TIP3    H1 4284   0.404   2.593   1.611  0.1734  0.4001  0.5731
 1426TIP3    H2 4285   0.535   2.536   1.662 -0.0794 -0.9467 -0.2366
 1427TIP3   OH2 4286   0.465   5.008   4.498  0.0699 -0.3046  0.4600
 1427TIP3    H1 4287   0.517   4.995   4.419  0.7170  4.0052 -0.0887
 1427TIP3    H2 4288   0.382   4.963   4.480  0.8654 -0.9715 -1.8781
 1428TIP3   OH2 4289   3.100   4.366   3.291 -0.2600  0.3487 -0.4954
 1428TIP3    H1 4290   3.132   4.358   3.381 -1.0566 -0.5313 -0.2764
 1428TIP3    H2 4291   3.032   4.299   3.284  0.3288 -0.1214 -1.9898
 1429TIP3   OH2 4292   4.400   1.686   1.278 -0.4108  0.5819 -0.1735
 1429TIP3    H1 4293   4.318   1.637   1.287  0.4858 -1.1499 -0.8081
 1429TIP3    H2 4294   4.414   1.692   1.184  0.6697 -0.0334 -0.0687
 1430TIP3   OH2 4295   0.452   4.032   1.615  0.9114 -0.0169  0.4186
 1430TIP3    H1 4296   0.454   3.940   1.588  1.6152 -0.5598  2.1681
 1430TIP3    H2 4297   0.365   4.062   1.591  0.6648 -1.1414 -0.1799
 1431TIP3   OH2 4298   4.125   2.022   1.332  0.1412 -0.0188 -0.2129
 1431TIP3    H1 4299   4.195   2.056   1.276 -0.5736 -0.2605 -1.2879
 1431TIP3    H2 4300   4.084   2.100   1.369 -1.0305  0.3240 -2.0989
 1432TIP3   OH2 4301   0.349   4.808   0.070 -0.1707  0.0219  0.5022
 1432TIP3    H1 4302   0.388   4.889   0.035 -1.9755 -0.2253 -2.4098
 1432TIP3    H2 4303   0.277   4.838   0.125  1.4704  0.3728  2.6110
 1433TIP3   OH2 4304   4.207   3.896   4.879 -0.0895 -0.4221 -0.0312
 1433TIP3    H1 4305   4.148   3.915   4.806 -0.3680 -0.0056  0.2972
 1433TIP3    H2 4306   4.190   3.966   4.942  1.8130  0.6097 -0.5652
 1434TIP3   OH2 4307   3.340   3.112   3.835 -0.3310  0.0917 -0.6006
 1434TIP3    H1 4308   3.390   3.082   3.759 -0.5851  1.5095 -1.3651
 1434TIP3    H2 4309   3.383   3.071   3.910 -0.7734 -2.2765 -1.5547
 1435TIP3   OH2 4310   3.680   3.784   2.616 -0.3700  0.2797 -0.2392
 1435TIP3    H1 4311   3.653   3.774   2.708 -0.1472 -0.9438 -0.2967
 1435TIP3    H2 4312   3.651   3.872   2.593 -3.5535 -0.5960 -0.0394
 1436TIP3   OH2 4313   5.623   0.454   1.467  0.2007  0.3562  0.0425
 1436TIP3    H1 4314   5.565   0.507   1.413  1.3138  0.3087 -1.2407
 1436TIP3    H2 4315   5.684   0.517   1.506 -0.0778  0.2915  0.6022
 1437TIP3   OH2 4316   1.379   4.239   1.522  0.3362 -0.2462  0.1352
 1437TIP3    H1 4317   1.471   4.238   1.550  0.3413  0.8341  0.1683
 1437TIP3    H2 4318   1.331   4.206   1.598  0.6874 -0.8617  0.1034
 1438TIP3   OH2 4319   4.145   1.564   0.864 -0.2901  0.4793 -0.2607
 1438TIP3    H1 4320   4.105   1.555   0.778  0.5727 -1.1724 -0.5346
 1438TIP3    H2 4321   4.071   1.559   0.925 -0.8604  1.2134 -0.8767
 1439TIP3   OH2 4322   0.461   5.297   2.019  0.1649  0.5450  0.3068
 1439TIP3    H1 4323   0.404   5.234   1.976 -0.1246  0.6800  0.4902
 1439TIP3    H2 4324   0.426   5.382   1.994 -0.1611  0.6235  1.0132
 1440TIP3   OH2 4325   5.968   5.519   0.520  0.0561 -0.2339 -0.6446
 1440TIP3    H1 4326   6.061   5.533   0.533 -0.2691  0.1214  1.9342
 1440TIP3    H2 4327   5.931   5.606   0.506  0.1312 -0.4236 -2.2201
 1441TIP3   OH2 4328   0.220   0.808   2.009 -0.1659 -0.9168 -0.1067
 1441TIP3    H1 4329   0.296   0.751   2.016  0.7832  0.1901 -1.0153
 1441TIP3    H2 4330   0.181   0.787   1.925 -0.2650 -0.7567 -0.1016
 1442TIP3   OH2 4331   5.756   1.819   5.060  0.3300 -0.1577 -0.0671
 1442TIP3    H1 4332   5.800   1.736   5.041 -1.6160 -1.0894 -0.8036
 1442TIP3    H2 4333   5.745   1.820   5.156  2.3024  0.3361  0.1895
 1443TIP3   OH2 4334   1.335   4.942   4.219  0.5225 -0.5448 -0.2767
 1443TIP3    H1 4335   1.400   4.900   4.162  1.1714  2.6178 -2.0822
 1443TIP3    H2 4336   1.383   4.960   4.300  1.9421  1.4696 -1.4735
 1444TIP3   OH2 4337   2.038   1.128   1.790 -0.1851  0.0766  0.4305
 1444TIP3    H1 4338   1.970   1.164   1.734 -0.6464 -0.3339  0.7196
 1444TIP3    H2 4339   2.040   1.186   1.866  0.0312  0.2917  0.2608
 1445TIP3   OH2 4340   2.768   1.171   1.804  0.0635  0.4083  0.2517
 1445TIP3    H1 4341   2.810   1.143   1.885 -1.2131  1.6235  1.3832
 1445TIP3    H2 4342   2.683   1.127   1.804 -0.2621  1.0260 -0.0210
 1446TIP3   OH2 4343   5.746   4.464   3.939  0.1704  0.3642  0.2368
 1446TIP3    H1 4344   5.835   4.432   3.948 -0.1373 -0.3026  0.9887
 1446TIP3    H2 4345   5.707   4.409   3.871  0.3852  0.8046 -0.2559
 1447TIP3   OH2 4346   1.997   2.690   1.300 -0.7240 -0.1255  0.4605
 1447TIP3    H1 4347   1.995   2.606   1.256 -0.5982 -0.8466  1.7750
 1447TIP3    H2 4348   2.021   2.669   1.390  1.8049  1.5602  0.2719
 1448TIP3   OH2 4349   0.749   5.392   3.718  0.1787 -0.6166 -0.2541
 1448TIP3    H1 4350   0.815   5.458   3.696 -0.8340  0.6366  0.3810
 1448TIP3    H2 4351   0.669   5.422   3.676 -0.4371 -1.1323  0.5125
 1449TIP3   OH2 4352   1.393   3.441   3.287  0.0105  0.1243  0.5268
 1449TIP3    H1 4353   1.371   3.356   3.324 -0.6333 -0.3070 -0.7618
 1449TIP3    H2 4354   1.436   3.420   3.204 -0.3491  1.0488  0.0960
 1450TIP3   OH2 4355   5.977   2.114   4.034 -0.2244 -0.0717 -0.9123
 1450TIP3    H1 4356   5.972   2.112   4.130 -0.9095 -0.3521 -0.9473
 1450TIP3    H2 4357   6.030   2.038   4.011 -1.1742 -0.7797 -0.8115
 1451TIP3   OH2 4358   4.967   1.648   3.210 -0.0384 -0.5435 -0.2753
 1451TIP3    H1 4359   4.939   1.610   3.293  1.0909  0.2889  0.5224
 1451TIP3    H2 4360   5.063   1.653   3.218 -0.0687  1.4262 -0.7895
 1452TIP3   OH2 4361   1.824   3.496   2.830  0.1927 -0.1327 -0.0303
 1452TIP3    H1 4362   1.835   3.564   2.897  2.0388  0.7249 -1.1256
 1452TIP3    H2 4363   1.814   3.415   2.880 -0.0315  0.6636  1.2866
 1453TIP3   OH2 4364   1.259   5.750   4.067  0.4668 -0.3650  0.0387
 1453TIP3    H1 4365   1.276   5.803   3.989  1.3811 -1.4994 -0.5585
 1453TIP3    H2 4366   1.267   5.659   4.037  0.3228 -0.8301  1.3376
 1454TIP3   OH2 4367   3.155   2.828   0.235  0.4610 -0.3223 -0.2058
 1454TIP3    H1 4368   3.236   2.840   0.185 -0.7973  1.1706 -2.0310
 1454TIP3    H2 4369   3.098   2.779   0.176 -1.3109  2.0833 -0.6371
 1455TIP3   OH2 4370   4.911   2.410   2.807  0.2728  0.0541 -0.1700
 1455TIP3    H1 4371   4.837   2.471   2.810 -0.8057 -1.1967 -0.2606
 1455TIP3    H2 4372   4.959   2.435   2.728  0.1910  1.1327  0.1007
 1456TIP3   OH2 4373   0.545   0.573   1.676  0.1940 -0.3547 -0.2073
 1456TIP3    H1 4374   0.640   0.557   1.673  0.5231  1.0961  1.2485
 1456TIP3    H2 4375   0.507   0.492   1.641  1.9454 -1.0168 -0.7416
 1457TIP3   OH2 4376   1.572   0.765   1.831  0.4362  0.1477 -0.1298
 1457TIP3    H1 4377   1.592   0.713   1.909  0.8904 -1.4553 -1.2753
 1457TIP3    H2 4378   1.658   0.784   1.793  0.1490 -0.3648 -1.0472
 1458TIP3   OH2 4379   5.673   5.366   4.603 -0.2879  0.3003  0.0372
 1458TIP3    H1 4380   5.626   5.421   4.540 -1.0737  0.9752  1.1739
 1458TIP3    H2 4381   5.650   5.402   4.688  0.1987 -1.0144  0.7571
 1459TIP3   OH2 4382   3.318   0.468   2.241  0.5317 -0.0053  0.4398
 1459TIP3    H1 4383   3.230   0.430   2.248  0.3813  0.6330  2.7938
 1459TIP3    H2 4384   3.377   0.396   2.261  0.4836 -0.1148  0.1897
 1460TIP3   OH2 4385   0.128   1.995   4.606  0.4173 -0.3701  0.3200
 1460TIP3    H1 4386   0.120   1.909   4.565  1.2411  0.6560 -2.1841
 1460TIP3    H2 4387   0.072   2.052   4.553  0.4373  0.7904  1.4959
 1461TIP3   OH2 4388   0.144   1.916   0.758 -0.1566  0.3797 -0.4630
 1461TIP3    H1 4389   0.053   1.946   0.768 -0.3835 -0.4979  0.2568
 1461TIP3    H2 4390   0.179   1.970   0.688 -1.0454  1.1735 -0.3252
 1462TIP3   OH2 4391   2.802   2.726   2.039  0.2476 -0.7717 -0.0314
 1462TIP3    H1 4392   2.858   2.657   2.074 -0.1188 -1.0305  0.0516
 1462TIP3    H2 4393   2.820   2.802   2.095  1.7626 -0.3423 -1.0405
 1463TIP3   OH2 4394   6.292   3.373   4.612  0.8340 -0.1557  0.0529
 1463TIP3    H1 4395   6.226   3.325   4.661  0.3522  0.2611 -0.1913
 1463TIP3    H2 4396   6.368   3.374   4.670  0.6000 -0.5395  0.3761
 1464TIP3   OH2 4397   2.297   4.462   4.011  0.0826  0.7957 -0.3575
 1464TIP3    H1 4398   2.292   4.538   3.953  1.3995  1.6384  0.5675
 1464TIP3    H2 4399   2.333   4.496   4.092  0.9174 -0.8554  0.0206
 1465TIP3   OH2 4400   5.140   3.330   4.043 -0.8324  0.5194  0.2314
 1465TIP3    H1 4401   5.172   3.241   4.061  0.2566  1.0649  1.1249
 1465TIP3    H2 4402   5.169   3.381   4.119 -1.8215  1.5574 -0.0647
 1466TIP3   OH2 4403   0.009   4.479   0.486  0.6411 -0.0472 -0.6624
 1466TIP3    H1 4404  -0.031   4.534   0.418  0.4240 -1.3768 -1.6458
 1466TIP3    H2 4405   0.071   4.424   0.438  2.1279  0.5122  0.5548
 1467TIP3   OH2 4406   0.622   0.344   2.888  0.3050 -0.0397  0.3941
 1467TIP3    H1 4407   0.634   0.363   2.981 -0.6924 -1.7316  0.9227
 1467TIP3    H2 4408   0.707   0.360   2.849  0.6985  0.8751  1.5588
 1468TIP3   OH2 4409   6.013   0.799   4.739 -0.1199 -0.6481  0.1859
 1468TIP3    H1 4410   5.954   0.808   4.664 -2.1098 -0.2436  1.7077
 1468TIP3    H2 4411   6.089   0.753   4.705 -0.8118 -0.1944 -2.1378
 1469TIP3   OH2 4412   3.765   3.175   0.299 -1.0491 -0.2845 -0.7712
 1469TIP3    H1 4413   3.809   3.229   0.233  0.6764 -0.4767  0.1542
 1469TIP3    H2 4414   3.692   3.134   0.252 -1.6630  1.8469 -1.8036
 1470TIP3   OH2 4415   3.198   3.255   3.357 -0.2677 -0.6617  0.2329
 1470TIP3    H1 4416   3.152   3.183   3.314  0.4650 -0.6811 -0.5510
 1470TIP3    H2 4417   3.240   3.214   3.433  1.4904 -1.4599 -1.0888
 1471TIP3   OH2 4418   5.390   3.279   3.745 -0.0171  0.3381  0.1808
 1471TIP3    H1 4419   5.455   3.322   3.689 -0.0711  0.1371 -0.0398
 1471TIP3    H2 4420   5.333   3.350   3.774  0.3586  0.5312  0.4576
 1472TIP3   OH2 4421   4.296   3.859   3.837  0.2548 -0.3915 -0.0753
 1472TIP3    H1 4422   4.275   3.774   3.798 -0.5357 -0.8404  1.2503
 1472TIP3    H2 4423   4.215   3.908   3.834  0.4349 -0.0783  0.1150
 1473TIP3   OH2 4424   1.782   0.695   4.748  0.2793  0.2439  0.7407
 1473TIP3    H1 4425   1.802   0.620   4.803 -1.1676 -0.6743  0.0904
 1473TIP3    H2 4426   1.686   0.699   4.747  0.2295  0.0849 -1.8311
 1474TIP3   OH2 4427   5.383   3.459   0.991  0.3614  0.1786  0.0763
 1474TIP3    H1 4428   5.452   3.409   0.947  1.5477  1.3410  0.5663
 1474TIP3    H2 4429   5.390   3.547   0.954 -0.7069  0.3882  0.3340
 1475TIP3   OH2 4430   4.899   0.042   3.152 -0.0177 -0.0621 -0.1273
 1475TIP3    H1 4431   4.907  -0.051   3.129 -2.2815  0.0981 -1.8559
 1475TIP3    H2 4432   4.805   0.057   3.160  0.3624  1.7120  2.0001
 1476TIP3   OH2 4433   1.430   4.560   1.455  0.5181 -0.0635 -0.1730
 1476TIP3    H1 4434   1.497   4.535   1.518 -0.2796 -0.1474  0.6696
 1476TIP3    H2 4435   1.430   4.489   1.390  0.3423 -0.7387  0.5486
 1477TIP3   OH2 4436   1.188   4.810   0.453  0.1926 -0.2836 -0.1855
 1477TIP3    H1 4437   1.116   4.873   0.461  1.2476  0.7621  1.8860
 1477TIP3    H2 4438   1.197   4.773   0.541 -0.0942 -3.0621 -1.2411
 1478TIP3   OH2 4439   4.001   1.214   1.423 -0.0197  0.4301 -0.0958
 1478TIP3    H1 4440   4.044   1.276   1.481  0.7985  0.5501 -0.8181
 1478TIP3    H2 4441   4.072   1.166   1.381 -0.3569  2.6119 -3.5350
 1479TIP3   OH2 4442   5.636   3.508   1.601  0.4680 -0.1252 -0.2470
 1479TIP3    H1 4443   5.638   3.549   1.515 -0.0776 -2.2199 -1.3326
 1479TIP3    H2 4444   5.571   3.558   1.650  2.3731  2.5339 -0.2045
 1480TIP3   OH2 4445   3.197   2.019   2.517 -0.1175 -0.4108 -0.2469
 1480TIP3    H1 4446   3.160   1.953   2.459 -1.0492 -0.7447  0.7065
 1480TIP3    H2 4447   3.186   2.102   2.470  0.2277 -0.8072 -1.0496
 1481TIP3   OH2 4448   3.707   4.621   2.049  0.0109 -0.7315 -0.1375
 1481TIP3    H1 4449   3.682   4.654   2.135  0.5066 -0.5266 -0.0684
 1481TIP3    H2 4450   3.769   4.551   2.067 -0.4821 -1.2214 -0.3089
 1482TIP3   OH2 4451   3.894   1.320   2.173  0.3104 -0.4431 -0.2926
 1482TIP3    H1 4452   3.878   1.370   2.092  0.6907 -1.8860 -1.3004
 1482TIP3    H2 4453   3.825   1.254   2.173 -0.7610  0.6007  1.5173
 1483TIP3   OH2 4454   0.240   5.395   0.509 -0.2094 -0.0562 -0.3294
 1483TIP3    H1 4455   0.289   5.460   0.460 -0.7015  0.4044 -0.2221
 1483TIP3    H2 4456   0.212   5.440   0.589  2.5752 -1.4410  1.5945
 1484TIP3   OH2 4457   4.057   0.622   0.820  0.0632  0.1651  0.4563
 1484TIP3    H1 4458   4.077   0.676   0.743 -0.8691  2.5832  1.8072
 1484TIP3    H2 4459   4.039   0.685   0.890  1.8996 -1.9091  3.0072
 1485TIP3   OH2 4460   4.757   3.185   2.280 -0.4448 -0.4541 -0.8448
 1485TIP3    H1 4461   4.810   3.264   2.272 -0.6138  0.0478  2.1322
 1485TIP3    H2 4462   4.673   3.215   2.313 -0.4070 -1.8707  0.6450
 1486TIP3   OH2 4463   3.960   5.105   5.008  0.4203 -1.0677 -0.0030
 1486TIP3    H1 4464   4.030   5.170   5.019  0.5794 -1.5355  2.0442
 1486TIP3    H2 4465   4.003   5.031   4.966  0.5076 -0.3510 -1.2452
 1487TIP3   OH2 4466   5.637   2.851   0.851  0.5379 -0.5106 -0.2207
 1487TIP3    H1 4467   5.632   2.833   0.757  0.9957 -1.7013 -0.0270
 1487TIP3    H2 4468   5.566   2.799   0.888  0.5680 -0.2989  0.1288
 1488TIP3   OH2 4469   6.264   3.462   1.790 -0.3473 -0.0784  0.1495
 1488TIP3    H1 4470   6.281   3.476   1.697 -1.4550  0.7803  0.0396
 1488TIP3    H2 4471   6.289   3.545   1.831 -1.8017  0.3320  0.2934
 1489TIP3   OH2 4472   3.063   2.545   1.310  0.7560  0.5964 -0.5688
 1489TIP3    H1 4473   3.117   2.619   1.339 -0.3205  1.0158  0.4496
 1489TIP3    H2 4474   3.062   2.485   1.385 -0.8484  0.9966 -0.2389
 1490TIP3   OH2 4475   5.262   4.177   2.997  0.0016 -0.5403 -0.1188
 1490TIP3    H1 4476   5.207   4.228   3.056  1.5799 -0.1662  1.0902
 1490TIP3    H2 4477   5.344   4.167   3.044  1.1279 -0.7077 -2.0473
 1491TIP3   OH2 4478   1.541   5.259   4.403  0.0458  0.3434  0.0926
 1491TIP3    H1 4479   1.455   5.279   4.367  0.1223  0.7698  0.1506
 1491TIP3    H2 4480   1.604   5.288   4.337  0.1682  0.6458  0.3390
 1492TIP3   OH2 4481   2.651   0.468   2.239  0.1895  0.2042  0.3410
 1492TIP3    H1 4482   2.570   0.507   2.271  0.6874  0.2167  1.6747
 1492TIP3    H2 4483   2.623   0.402   2.176 -0.7922  0.9448 -0.0218
 1493TIP3   OH2 4484   2.712   1.446   4.614  0.4649  0.6230  0.1133
 1493TIP3    H1 4485   2.681   1.485   4.532 -1.6985  1.5278  1.2681
 1493TIP3    H2 4486   2.670   1.359   4.615  1.5087  0.0938 -0.2785
 1494TIP3   OH2 4487   0.814   4.134   3.575 -0.4777  0.1598  0.4834
 1494TIP3    H1 4488   0.813   4.038   3.579 -0.0285  0.1852  1.5462
 1494TIP3    H2 4489   0.898   4.155   3.534 -1.0665  0.0865 -0.7955
 1495TIP3   OH2 4490   1.573   5.421   1.407  0.2095  0.2480 -0.1677
 1495TIP3    H1 4491   1.640   5.353   1.399  0.1727  0.1568  0.2754
 1495TIP3    H2 4492   1.615   5.490   1.458 -0.0902  0.1132  0.2672
 1496TIP3   OH2 4493   3.134   5.852   5.165  0.0141 -0.0092  0.0946
 1496TIP3    H1 4494   3.206   5.843   5.103 -0.0886 -2.3334  0.1968
 1496TIP3    H2 4495   3.060   5.883   5.113  0.2595 -0.7463 -0.7026
 1497TIP3   OH2 4496   1.329   6.000   2.869  0.1286  0.0887 -0.1408
 1497TIP3    H1 4497   1.309   6.013   2.776 -0.2299 -0.8693 -0.2100
 1497TIP3    H2 4498   1.367   5.912   2.873 -1.1570 -0.4616  0.7973
 1498TIP3   OH2 4499   5.853   4.853   0.949 -1.0259 -0.0051  0.5282
 1498TIP3    H1 4500   5.815   4.770   0.919 -2.4488  0.7847  0.0214
 1498TIP3    H2 4501   5.856   4.846   1.044 -0.2639 -0.9760  0.4494
 1499TIP3   OH2 4502   5.927   0.536   3.041  0.2324 -0.0227  0.3199
 1499TIP3    H1 4503   5.865   0.498   2.979  0.7425 -0.1681 -0.1152
 1499TIP3    H2 4504   5.876   0.596   3.094 -0.6631 -1.4758  1.1740
 1500TIP3   OH2 4505   5.010   5.668   2.193 -0.0781  0.2073 -0.4087
 1500TIP3    H1 4506   5.078   5.730   2.221 -0.3662  1.0958 -1.6111
 1500TIP3    H2 4507   4.936   5.723   2.167 -1.1360 -0.7394  0.5267
 1501TIP3   OH2 4508   3.750   1.356   5.094 -0.1023  0.1882 -0.1489
 1501TIP3    H1 4509   3.828   1.301   5.105 -0.4784  0.0047  1.9002
 1501TIP3    H2 4510   3.680   1.295   5.074 -0.2523  0.0333  0.7959
 1502TIP3   OH2 4511   3.337   5.070   0.346 -0.9134  0.0455  0.1268
 1502TIP3    H1 4512   3.398   5.029   0.284 -0.5084  0.1387  0.4549
 1502TIP3    H2 4513   3.270   5.111   0.291 -0.1513  0.7720 -0.2799
 1503TIP3   OH2 4514   2.237   2.342   2.849 -0.5725  0.1297 -0.2132
 1503TIP3    H1 4515   2.149   2.350   2.812 -1.1742  0.3184  1.2157
 1503TIP3    H2 4516   2.223   2.329   2.943  0.9491  3.4802  0.6372
 1504TIP3   OH2 4517   0.472   3.819   1.090  0.4810  0.2086 -0.1996
 1504TIP3    H1 4518   0.434   3.868   1.017  1.2371  0.2177 -0.6051
 1504TIP3    H2 4519   0.563   3.805   1.063  1.7270  2.9594  2.0926
 1505TIP3   OH2 4520   0.551   4.672   3.691  0.1209  0.5443  0.0958
 1505TIP3    H1 4521   0.604   4.598   3.661 -0.0706  0.7446 -0.7569
 1505TIP3    H2 4522   0.523   4.647   3.779  1.1248  0.1685  0.3290
 1506TIP3   OH2 4523   2.593   3.865   2.048 -0.0377  0.4146  0.1456
 1506TIP3    H1 4524   2.629   3.791   2.096 -1.3082 -0.3224 -0.0030
 1506TIP3    H2 4525   2.560   3.924   2.117  0.4718  0.5859  0.2460
 1507TIP3   OH2 4526   2.794   5.341   3.696  0.5619 -0.0209  0.2050
 1507TIP3    H1 4527   2.823   5.375   3.781  0.9144 -0.7874  0.4009
 1507TIP3    H2 4528   2.872   5.348   3.640  0.2374  0.7928 -0.1593
 1508TIP3   OH2 4529   4.411   1.303   3.738  0.5195 -0.3535  0.5312
 1508TIP3    H1 4530   4.427   1.398   3.730 -0.7424 -0.2209 -0.9698
 1508TIP3    H2 4531   4.413   1.272   3.647 -0.0530 -1.6009  0.9326
 1509TIP3   OH2 4532   2.494   0.610   0.624 -0.0320 -0.0917  0.2090
 1509TIP3    H1 4533   2.399   0.610   0.612 -0.0621 -0.3472  0.4507
 1509TIP3    H2 4534   2.529   0.606   0.535 -0.2440  0.1226  0.1123
 1510TIP3   OH2 4535   5.106   0.346   2.701 -0.0150 -0.4523 -0.3079
 1510TIP3    H1 4536   5.141   0.430   2.731 -1.5324  0.1771 -0.1910
 1510TIP3    H2 4537   5.146   0.282   2.760  1.4861  0.1151 -0.6553
 1511TIP3   OH2 4538   1.138   1.573   2.611 -0.0870 -0.1625  0.6646
 1511TIP3    H1 4539   1.060   1.578   2.666 -0.5708 -0.1002 -0.0082
 1511TIP3    H2 4540   1.126   1.641   2.545 -0.1616 -1.0808 -0.3140
 1512TIP3   OH2 4541   3.299   5.853   4.945  0.1707  0.7696 -0.3217
 1512TIP3    H1 4542   3.323   5.848   4.852 -1.5259 -0.4311 -0.7505
 1512TIP3    H2 4543   3.374   5.816   4.991 -0.1426 -1.5427 -1.4864
 1513TIP3   OH2 4544   3.531   3.558   4.943  0.3206  0.0418 -0.1052
 1513TIP3    H1 4545   3.453   3.502   4.939  0.0165  0.5269 -2.5601
 1513TIP3    H2 4546   3.582   3.533   4.865  0.2305  3.0029 -1.2278
 1514TIP3   OH2 4547   3.280   3.458   4.359 -0.2542 -0.1422  1.2181
 1514TIP3    H1 4548   3.283   3.417   4.273  0.4998 -0.9557  1.6175
 1514TIP3    H2 4549   3.218   3.531   4.349  0.0604 -0.0304 -0.0872
 1515TIP3   OH2 4550   4.424   0.701   0.882  0.1566  0.4077 -0.0587
 1515TIP3    H1 4551   4.507   0.703   0.836 -0.1946  1.4523 -0.6818
 1515TIP3    H2 4552   4.362   0.744   0.822 -1.1914 -1.7237 -0.3092
 1516TIP3   OH2 4553   2.124   0.849   2.776  0.4557  0.2934  0.2319
 1516TIP3    H1 4554   2.097   0.918   2.716 -0.2186 -0.1930 -0.0467
 1516TIP3    H2 4555   2.215   0.833   2.754  0.5468  0.9201  0.1299
 1517TIP3   OH2 4556   3.085   3.630   4.967 -0.3254 -0.6192 -0.2271
 1517TIP3    H1 4557   3.142   3.559   4.936  0.1420 -0.2612 -0.1950
 1517TIP3    H2 4558   3.069   3.609   5.059  3.0558  1.3547  0.9700
 1518TIP3   OH2 4559   2.775   1.802   2.156 -0.3067  0.0848 -0.6404
 1518TIP3    H1 4560   2.844   1.736   2.166 -0.1220  0.3041 -0.4628
 1518TIP3    H2 4561   2.811   1.880   2.198 -1.4509 -0.3510  1.2281
 1519TIP3   OH2 4562   4.795   0.845   2.398 -0.2936 -0.1017  0.0820
 1519TIP3    H1 4563   4.820   0.769   2.346  0.3432 -0.3887  0.7975
 1519TIP3    H2 4564   4.703   0.859   2.376  0.4062  1.0229 -2.6675
 1520TIP3   OH2 4565   4.348   4.172   2.984  0.8697  0.1009  0.1545
 1520TIP3    H1 4566   4.412   4.212   2.925  0.5727 -1.2144 -1.1114
 1520TIP3    H2 4567   4.363   4.078   2.976 -0.6140 -0.1971  0.5204
 1521TIP3   OH2 4568   3.811   3.358   3.468 -0.1534 -0.1692 -0.3804
 1521TIP3    H1 4569   3.845   3.286   3.522 -0.6680 -0.1448 -0.0167
 1521TIP3    H2 4570   3.831   3.437   3.519  1.8455  0.1138 -1.4972
 1522TIP3   OH2 4571   5.039   0.760   1.546 -0.2184  0.2475  0.5155
 1522TIP3    H1 4572   5.111   0.712   1.586  0.3299 -0.3775 -1.1059
 1522TIP3    H2 4573   5.045   0.848   1.582  2.3461  0.6425 -0.6694
 1523TIP3   OH2 4574   4.826   1.640   1.281 -0.8246 -0.7338 -0.1170
 1523TIP3    H1 4575   4.826   1.552   1.243 -1.5321 -0.8101  0.0456
 1523TIP3    H2 4576   4.816   1.698   1.205 -0.1847 -0.7835 -0.2405
 1524TIP3   OH2 4577   3.887   2.821   3.112 -0.4763 -0.0336  0.3446
 1524TIP3    H1 4578   3.848   2.847   3.028  2.6449  1.8112 -0.7377
 1524TIP3    H2 4579   3.841   2.875   3.177 -2.2404 -0.7267 -0.2779
 1525TIP3   OH2 4580   4.630   3.756   0.485  0.1345 -0.0327  0.3931
 1525TIP3    H1 4581   4.698   3.726   0.425  0.3229  0.0664  0.5561
 1525TIP3    H2 4582   4.577   3.678   0.503 -0.9490  0.2764 -1.2284
 1526TIP3   OH2 4583   0.250   1.451   3.788  0.1260 -0.5852  0.4328
 1526TIP3    H1 4584   0.284   1.363   3.803  2.4217  0.1100 -0.2882
 1526TIP3    H2 4585   0.324   1.499   3.750 -2.1067  0.6300 -2.8112
 1527TIP3   OH2 4586   2.302   5.962   5.125 -0.3117  0.5051 -0.2442
 1527TIP3    H1 4587   2.244   5.992   5.055 -0.8403 -0.8798 -0.4333
 1527TIP3    H2 4588   2.389   5.961   5.085 -0.4223  0.8855 -0.5001
 1528TIP3   OH2 4589   3.994   5.765   3.306  0.1104 -0.1092  0.2812
 1528TIP3    H1 4590   4.019   5.843   3.257 -0.9057  0.6696  0.9592
 1528TIP3    H2 4591   4.073   5.712   3.310  0.4480  0.2082 -1.4345
 1529TIP3   OH2 4592   4.144   4.539   4.173 -0.3738  0.0149  0.2158
 1529TIP3    H1 4593   4.099   4.591   4.106  0.2706 -0.8355 -0.9254
 1529TIP3    H2 4594   4.077   4.477   4.204 -0.6872  0.4397  0.3991
 1530TIP3   OH2 4595   6.022   2.970   1.304 -0.5011 -0.3257  0.1312
 1530TIP3    H1 4596   5.936   2.938   1.278 -0.2667 -1.3105  0.5079
 1530TIP3    H2 4597   6.051   3.023   1.230 -1.3712 -0.0791 -0.0470
 1531TIP3   OH2 4598   4.000   4.216   3.755 -0.1805  0.3146  0.0026
 1531TIP3    H1 4599   3.958   4.290   3.799 -1.6229 -1.2025  1.3402
 1531TIP3    H2 4600   3.927   4.161   3.726  0.7461 -2.4098  2.3761
 1532TIP3   OH2 4601   2.432   2.800   4.764 -0.2135 -0.0206 -0.1214
 1532TIP3    H1 4602   2.348   2.838   4.740  0.6537  1.8876 -0.3475
 1532TIP3    H2 4603   2.460   2.751   4.687 -1.3604 -1.1854  0.1727
 1533TIP3   OH2 4604   2.118   1.788   3.225 -0.1353 -0.0450 -0.2845
 1533TIP3    H1 4605   2.187   1.852   3.209 -0.7807  0.6691 -0.2689
 1533TIP3    H2 4606   2.091   1.759   3.138 -0.9119  0.8897 -0.3844
 1534TIP3   OH2 4607   5.502   5.355   2.402  0.3435 -0.1001 -0.6341
 1534TIP3    H1 4608   5.574   5.351   2.464  0.1757  0.8362 -0.3615
 1534TIP3    H2 4609   5.543   5.381   2.319  0.3851 -0.0742 -0.6051
 1535TIP3   OH2 4610   0.115   0.081   4.273 -0.4073  0.3973 -0.4868
 1535TIP3    H1 4611   0.131   0.120   4.187 -1.1290  1.1714 -0.2820
 1535TIP3    H2 4612   0.198   0.092   4.320 -0.8237  2.4435 -0.1622
 1536TIP3   OH2 4613   4.232   2.296   4.261  0.4844 -0.4377  0.1738
 1536TIP3    H1 4614   4.192   2.295   4.173 -0.6982 -0.1014  0.6852
 1536TIP3    H2 4615   4.321   2.327   4.246  0.4863 -0.9221 -0.9792
 1537TIP3   OH2 4616   0.781   4.806   3.922 -0.4151  0.1378  0.1998
 1537TIP3    H1 4617   0.829   4.779   4.000  0.9553  0.5180 -0.4670
 1537TIP3    H2 4618   0.705   4.748   3.918 -0.9447  0.6372  2.2241
 1538TIP3   OH2 4619   3.195   1.966   1.396 -0.9818  0.4889 -0.5854
 1538TIP3    H1 4620   3.223   1.888   1.347  0.4811  0.8162 -0.3119
 1538TIP3    H2 4621   3.230   2.039   1.346  1.1841  0.8059  1.2788
 1539TIP3   OH2 4622   0.707   0.925   0.372  0.5472 -0.1205  0.8806
 1539TIP3    H1 4623   0.666   0.857   0.425  0.8649 -0.9137  0.1358
 1539TIP3    H2 4624   0.637   0.955   0.313 -0.1234  1.5484  2.4411
 1540TIP3   OH2 4625   1.230   0.913   1.081 -0.0553 -0.0395  0.5027
 1540TIP3    H1 4626   1.290   0.982   1.051  0.9974 -1.3627 -0.5603
 1540TIP3    H2 4627   1.276   0.872   1.154 -0.8168  0.5340  1.3345
 1541TIP3   OH2 4628   3.228   4.338   0.562 -0.3230  0.1424 -0.4715
 1541TIP3    H1 4629   3.288   4.300   0.497  2.3884  2.5346  0.4334
 1541TIP3    H2 4630   3.218   4.429   0.535 -1.6398  0.4140  0.7974
 1542TIP3   OH2 4631   0.421   1.420   0.752 -0.8362 -0.0522 -0.0530
 1542TIP3    H1 4632   0.504   1.388   0.788 -0.8215  0.3787  0.3040
 1542TIP3    H2 4633   0.379   1.465   0.825 -0.3184  1.7918 -0.8272
 1543TIP3   OH2 4634   2.311   5.405   1.177 -0.5489  0.3081  0.4208
 1543TIP3    H1 4635   2.262   5.424   1.257 -0.7633 -1.3829  0.7473
 1543TIP3    H2 4636   2.257   5.340   1.131  0.4090 -0.0539 -0.2252
 1544TIP3   OH2 4637   2.808   1.419   1.300  0.6188  0.4901  0.7411
 1544TIP3    H1 4638   2.792   1.402   1.393 -1.8538 -2.4289 -0.0757
 1544TIP3    H2 4639   2.840   1.336   1.266  1.3402  1.4710 -1.1039
 1545TIP3   OH2 4640   5.748   4.438   5.086  0.3717 -0.4162  0.0579
 1545TIP3    H1 4641   5.777   4.380   5.156  2.2432  0.5378  0.1404
 1545TIP3    H2 4642   5.657   4.412   5.069  1.0085 -3.1005  0.3226
 1546TIP3   OH2 4643   4.025   2.155   0.928  0.5907 -0.4113 -0.3701
 1546TIP3    H1 4644   4.094   2.218   0.951  0.4316 -0.0457 -0.8737
 1546TIP3    H2 4645   3.961   2.162   0.999  0.8608 -0.4377 -0.1218
 1547TIP3   OH2 4646   5.909   0.030   3.125 -0.0655 -0.4717  0.7124
 1547TIP3    H1 4647   5.857  -0.012   3.193 -0.1535 -0.6698  0.5257
 1547TIP3    H2 4648   5.902   0.124   3.142  0.4543 -0.5443  1.3687
 1548TIP3   OH2 4649   1.484   1.857   2.006 -0.2883  0.1847  0.0469
 1548TIP3    H1 4650   1.553   1.881   2.068  0.9509  0.4162 -1.3508
 1548TIP3    H2 4651   1.424   1.802   2.056  0.8098  0.1378  1.3673
 1549TIP3   OH2 4652   1.453   5.156   3.439 -0.3982  0.6692 -0.3071
 1549TIP3    H1 4653   1.489   5.130   3.354 -0.5638  0.6699 -0.3776
 1549TIP3    H2 4654   1.375   5.208   3.417  0.3575  1.8799 -0.1909
 1550TIP3   OH2 4655   2.847   2.570   0.239 -0.4317 -0.3963  0.3354
 1550TIP3    H1 4656   2.924   2.525   0.273  0.2294 -0.4225 -1.1284
 1550TIP3    H2 4657   2.851   2.657   0.279  1.3301  0.1874 -0.9840
 1551TIP3   OH2 4658   4.309   4.218   1.514 -0.2172  0.1377 -0.2796
 1551TIP3    H1 4659   4.321   4.286   1.448 -0.5082  1.3347  0.8645
 1551TIP3    H2 4660   4.390   4.167   1.510 -0.8920 -0.8753 -2.6833
 1552TIP3   OH2 4661   5.590   4.780   1.252 -0.1436  0.0968  0.0180
 1552TIP3    H1 4662   5.635   4.730   1.184 -1.2477 -1.2406  0.2213
 1552TIP3    H2 4663   5.517   4.724   1.279 -0.6333  1.2523  1.2318
 1553TIP3   OH2 4664   1.490   0.701   0.623 -0.3434 -0.3212  0.3273
 1553TIP3    H1 4665   1.562   0.680   0.683 -1.3120 -3.1613  0.6642
 1553TIP3    H2 4666   1.423   0.741   0.679  0.0375  0.1555  0.4548
 1554TIP3   OH2 4667   5.477   4.741   1.900  0.6591  0.2450 -0.3432
 1554TIP3    H1 4668   5.396   4.787   1.877  0.8552  0.2147 -1.1187
 1554TIP3    H2 4669   5.448   4.658   1.937  0.3385 -0.1434 -1.4318
 1555TIP3   OH2 4670   5.598   1.558   1.778 -0.1974 -0.5423 -0.4421
 1555TIP3    H1 4671   5.545   1.488   1.816 -1.6125  0.0506 -1.2317
 1555TIP3    H2 4672   5.617   1.528   1.689 -1.5656  0.4282 -1.0897
 1556TIP3   OH2 4673   4.822   1.868   4.486 -0.0253  0.1665  0.1245
 1556TIP3    H1 4674   4.909   1.830   4.484 -0.1669 -0.1889  0.6037
 1556TIP3    H2 4675   4.795   1.872   4.394 -0.2119 -1.3676  0.0939
 1557TIP3   OH2 4676   0.239   4.558   4.343 -0.0786  0.7237 -0.0074
 1557TIP3    H1 4677   0.151   4.553   4.379 -0.3382  1.7569 -0.4472
 1557TIP3    H2 4678   0.270   4.468   4.342 -0.7868  0.4466  0.9876
 1558TIP3   OH2 4679   5.189   1.136   2.844 -0.0519 -0.2098 -0.0941
 1558TIP3    H1 4680   5.170   1.224   2.878  0.7964 -0.4679  1.1097
 1558TIP3    H2 4681   5.240   1.152   2.764  0.4640  0.3966  0.3453
 1559TIP3   OH2 4682   3.278   0.394   1.963  0.2683  0.2010 -1.0024
 1559TIP3    H1 4683   3.371   0.416   1.972  0.1066  0.1359  1.8698
 1559TIP3    H2 4684   3.233   0.478   1.977 -0.1159 -0.3486  1.7098
 1560TIP3   OH2 4685   0.694   2.435   2.617 -0.1731 -0.0739 -0.8220
 1560TIP3    H1 4686   0.725   2.426   2.527 -0.1258  0.7502 -0.8927
 1560TIP3    H2 4687   0.689   2.530   2.632  0.5094 -0.1929  0.2839
 1561TIP3   OH2 4688   5.843   5.338   3.679 -0.5141 -0.4214  0.1489
 1561TIP3    H1 4689   5.882   5.299   3.601 -0.4947 -2.6112  1.1736
 1561TIP3    H2 4690   5.842   5.432   3.661 -0.3555 -0.8325 -2.3861
 1562TIP3   OH2 4691   5.596   2.854   5.027  0.3114  0.0215 -0.2223
 1562TIP3    H1 4692   5.633   2.936   4.996  1.1694 -0.1921  0.2030
 1562TIP3    H2 4693   5.562   2.874   5.115  1.6051 -0.3449  0.3841
 1563TIP3   OH2 4694   4.200   1.597   3.858  0.4719 -0.1278  0.2516
 1563TIP3    H1 4695   4.119   1.603   3.807  0.1667  1.1656  0.8295
 1563TIP3    H2 4696   4.176   1.634   3.944  1.1341 -1.6602  1.1319
 1564TIP3   OH2 4697   1.033   0.858   2.748  0.0618 -0.1371 -0.2748
 1564TIP3    H1 4698   1.037   0.915   2.825 -0.0581 -1.3148  0.6385
 1564TIP3    H2 4699   0.939   0.850   2.729  0.1197  0.6389 -0.9373
 1565TIP3   OH2 4700   5.510   1.556   3.325  0.2215 -0.2063  0.4601
 1565TIP3    H1 4701   5.536   1.578   3.235 -2.3933  0.2228 -0.2914
 1565TIP3    H2 4702   5.421   1.523   3.316 -1.0527  2.1030  3.1332
 1566TIP3   OH2 4703   1.543   3.267   1.972  0.3692 -0.4721  0.2466
 1566TIP3    H1 4704   1.533   3.224   1.887  2.8222 -1.7776  0.5266
 1566TIP3    H2 4705   1.545   3.361   1.951 -0.0383 -0.7269 -1.0204
 1567TIP3   OH2 4706   1.437   4.047   2.782 -0.3125  0.5001 -0.2756
 1567TIP3    H1 4707   1.453   3.957   2.811  0.7046  0.6008 -0.4758
 1567TIP3    H2 4708   1.515   4.069   2.731  0.5202  2.2437  1.6085
 1568TIP3   OH2 4709   2.817   0.487   3.833  0.1171 -0.2685  0.6203
 1568TIP3    H1 4710   2.909   0.460   3.834 -0.1849 -1.4551  3.1109
 1568TIP3    H2 4711   2.820   0.583   3.831  1.4110 -0.3044  0.4129
 1569TIP3   OH2 4712   0.246   3.391   2.004 -0.0425 -0.5305 -0.0923
 1569TIP3    H1 4713   0.310   3.442   1.955  1.2348 -1.7349  0.2234
 1569TIP3    H2 4714   0.256   3.421   2.094 -0.9865  0.3040 -0.2545
 1570TIP3   OH2 4715   4.667   0.339   1.243  0.6106 -0.3229 -0.3437
 1570TIP3    H1 4716   4.761   0.339   1.229  0.5370 -0.6888 -0.8498
 1570TIP3    H2 4717   4.644   0.247   1.256  0.4438 -0.1548  0.6246
 1571TIP3   OH2 4718   1.152   5.042   2.438  0.1735 -0.3390 -0.0233
 1571TIP3    H1 4719   1.148   5.137   2.449 -0.0398 -0.4643  1.1394
 1571TIP3    H2 4720   1.241   5.019   2.465  1.0762 -0.2300 -2.6495
 1572TIP3   OH2 4721   4.789   4.607   2.991 -0.3797 -0.2798 -0.1332
 1572TIP3    H1 4722   4.805   4.548   2.918  1.6602  1.9310 -1.6437
 1572TIP3    H2 4723   4.862   4.592   3.051  0.5006  1.0384 -0.8267
 1573TIP3   OH2 4724   4.469   3.025   0.342  0.0510  0.1804  0.0029
 1573TIP3    H1 4725   4.454   3.092   0.275  0.2626 -0.6942 -0.9484
 1573TIP3    H2 4726   4.403   3.042   0.408 -0.6371  0.6361 -0.7765
 1574TIP3   OH2 4727   4.394   0.767   4.252 -0.2669  0.0180 -0.0996
 1574TIP3    H1 4728   4.447   0.828   4.303 -1.8192  0.0507  1.5711
 1574TIP3    H2 4729   4.446   0.687   4.249  0.3639  0.3920  0.5132
 1575TIP3   OH2 4730   5.475   0.219   0.497  0.5168 -0.7253  0.1778
 1575TIP3    H1 4731   5.484   0.309   0.529 -2.1176 -0.7056  1.0946
 1575TIP3    H2 4732   5.529   0.167   0.557  0.6880  0.0471  0.7128
 1576TIP3   OH2 4733   0.791   2.631   2.215 -0.1207 -0.1413  0.6487
 1576TIP3    H1 4734   0.823   2.717   2.188 -0.8171 -0.1459 -0.2623
 1576TIP3    H2 4735   0.706   2.623   2.173 -0.0522 -1.2922  0.6883
 1577TIP3   OH2 4736   3.533   0.422   4.724 -0.2263  0.4675 -0.1765
 1577TIP3    H1 4737   3.526   0.341   4.673 -0.4475  1.1783 -1.2996
 1577TIP3    H2 4738   3.549   0.392   4.814 -2.3008 -0.8862 -0.2016
 1578TIP3   OH2 4739   5.379   3.515   3.174 -0.0840  0.1616 -0.1029
 1578TIP3    H1 4740   5.336   3.435   3.204 -1.5339  0.2456 -1.7644
 1578TIP3    H2 4741   5.367   3.577   3.246 -0.5969 -0.5773  0.4620
 1579TIP3   OH2 4742   2.125   1.822   0.311 -0.0105 -0.2845 -0.6076
 1579TIP3    H1 4743   2.081   1.866   0.238  0.3300  0.5689 -0.3115
 1579TIP3    H2 4744   2.105   1.876   0.387  0.6150 -0.5136 -0.2732
 1580TIP3   OH2 4745   5.013   4.384   3.560  0.0594  0.0222 -0.0010
 1580TIP3    H1 4746   5.023   4.302   3.511 -0.1699  0.1133 -0.2007
 1580TIP3    H2 4747   4.930   4.374   3.606  0.5399 -0.2925  0.8124
 1581TIP3   OH2 4748   3.447   0.962   4.478  0.0788 -0.3446  0.0257
 1581TIP3    H1 4749   3.412   0.877   4.453  0.8271 -0.6526 -0.0166
 1581TIP3    H2 4750   3.469   1.005   4.395  0.1636 -0.3173  0.0616
 1582TIP3   OH2 4751   3.595   3.362   0.424  0.5051  0.1121  0.0934
 1582TIP3    H1 4752   3.665   3.297   0.417  1.5196  1.1797  0.0453
 1582TIP3    H2 4753   3.588   3.400   0.336 -0.4522 -0.3015 -0.0154
 1583TIP3   OH2 4754   5.433   4.759   4.115 -0.4221 -0.1688  0.5295
 1583TIP3    H1 4755   5.351   4.808   4.125 -0.1464  0.3612  0.2626
 1583TIP3    H2 4756   5.424   4.684   4.174 -1.7524 -0.9874 -0.6393
 1584TIP3   OH2 4757   5.261   2.468   4.990 -0.5539  0.0025  0.9026
 1584TIP3    H1 4758   5.348   2.506   4.996 -1.1212  1.5337  0.0737
 1584TIP3    H2 4759   5.275   2.381   4.951  0.5062  0.6726 -0.2822
 1585TIP3   OH2 4760   3.628   2.875   2.959 -0.2821 -0.5058  0.2741
 1585TIP3    H1 4761   3.681   2.954   2.950  2.1864 -2.2759 -2.0853
 1585TIP3    H2 4762   3.544   2.898   2.917 -0.3739  1.3907  1.3622
 1586TIP3   OH2 4763   5.771   4.914   4.828 -0.2580 -0.1360 -0.0408
 1586TIP3    H1 4764   5.708   4.876   4.889  0.9570  0.6781  1.8442
 1586TIP3    H2 4765   5.756   5.008   4.834  1.3316  0.1131  0.7803
 1587TIP3   OH2 4766   0.875   5.038   2.453 -0.4903  0.3462  0.0530
 1587TIP3    H1 4767   0.963   5.021   2.489 -0.5700 -1.3080 -0.4462
 1587TIP3    H2 4768   0.887   5.114   2.396  0.1220  1.5721  1.7246
 1588TIP3   OH2 4769   4.809   4.255   3.706  0.6138  0.5702 -0.8425
 1588TIP3    H1 4770   4.768   4.220   3.627  0.2969  0.5572 -0.6719
 1588TIP3    H2 4771   4.736   4.283   3.761  0.8487  1.7001 -1.0622
 1589TIP3   OH2 4772   1.222   5.250   3.852  0.0198 -0.4062 -0.1702
 1589TIP3    H1 4773   1.314   5.270   3.835 -0.2718  1.2428 -0.0289
 1589TIP3    H2 4774   1.211   5.261   3.946 -0.4942  0.2971 -0.2987
 1590TIP3   OH2 4775   4.409   1.710   0.196  0.4323 -0.4653  0.3465
 1590TIP3    H1 4776   4.342   1.643   0.205 -0.9893  0.9117  0.6288
 1590TIP3    H2 4777   4.418   1.747   0.284  0.1037  0.6619 -0.0685
 1591TIP3   OH2 4778   5.354   4.464   3.782  0.2804  0.5679 -0.1344
 1591TIP3    H1 4779   5.402   4.425   3.855 -0.8318  0.7931  0.7584
 1591TIP3    H2 4780   5.421   4.486   3.718  1.2762  0.2098  0.7513
 1592TIP3   OH2 4781   5.245   5.639   1.880 -0.7341  0.0892 -0.1175
 1592TIP3    H1 4782   5.279   5.602   1.962 -1.1508  0.8742  0.4243
 1592TIP3    H2 4783   5.299   5.599   1.812 -1.3299 -1.6999  0.4120
 1593TIP3   OH2 4784   0.359   1.981   1.541  0.1868  0.0496 -0.1649
 1593TIP3    H1 4785   0.393   1.909   1.487 -0.0007  1.4369 -2.2738
 1593TIP3    H2 4786   0.351   2.054   1.480 -1.9074  1.1980  1.3542
 1594TIP3   OH2 4787   0.981   2.641   3.939 -1.0124 -0.4795  0.2903
 1594TIP3    H1 4788   1.008   2.678   4.023 -1.1322 -0.2390  0.2232
 1594TIP3    H2 4789   1.011   2.705   3.874 -2.9873  0.5069  0.2959
 1595TIP3   OH2 4790   4.728   2.376   0.890 -0.0277 -0.0482  0.4015
 1595TIP3    H1 4791   4.703   2.453   0.839  0.2484  0.1033  0.4887
 1595TIP3    H2 4792   4.695   2.394   0.978  0.1950  0.0556  0.4655
 1596TIP3   OH2 4793   2.363   0.795   2.682  0.0854 -0.2584  0.1198
 1596TIP3    H1 4794   2.418   0.851   2.627  1.2335 -0.8515  0.6438
 1596TIP3    H2 4795   2.406   0.710   2.682 -0.9685 -0.8155  0.3500
 1597TIP3   OH2 4796   6.049   5.078   3.762  0.2855  0.3579 -0.3109
 1597TIP3    H1 4797   5.969   5.120   3.794  0.5345 -0.2921  1.2490
 1597TIP3    H2 4798   6.099   5.149   3.722  0.0991  1.3095  1.0732
 1598TIP3   OH2 4799   1.038   2.790   4.994  0.8530  0.3467  0.3587
 1598TIP3    H1 4800   0.995   2.875   5.003 -1.8198 -0.8055 -0.6693
 1598TIP3    H2 4801   0.970   2.725   5.012  2.8415 -1.6383  1.2837
 1599TIP3   OH2 4802   2.467   1.706   2.611  0.2324 -0.1345 -0.1850
 1599TIP3    H1 4803   2.429   1.738   2.692  0.9278 -1.0719  0.5311
 1599TIP3    H2 4804   2.464   1.781   2.552  1.2703  1.0754  1.2400
 1600TIP3   OH2 4805   0.264   2.041   2.909  0.3009  0.2253 -0.2800
 1600TIP3    H1 4806   0.242   2.132   2.930  0.7098  0.1184  0.6423
 1600TIP3    H2 4807   0.344   2.024   2.958  0.2150 -0.6472 -0.4323
 1601TIP3   OH2 4808   5.060   5.876   4.561  0.3392  0.2959  0.1932
 1601TIP3    H1 4809   5.026   5.829   4.485  0.9557 -1.1236  0.7737
 1601TIP3    H2 4810   5.112   5.947   4.524  1.6789 -1.1251 -0.7455
 1602TIP3   OH2 4811   4.661   0.536   3.982 -0.3585 -0.1901  0.7222
 1602TIP3    H1 4812   4.727   0.523   3.914 -0.7048  3.5273 -0.5512
 1602TIP3    H2 4813   4.589   0.478   3.958  0.5620 -0.8309 -0.6009
 1603TIP3   OH2 4814   4.844   0.893   0.292  1.0418  0.0982  0.1231
 1603TIP3    H1 4815   4.867   0.985   0.278 -0.6979  0.3021 -1.8482
 1603TIP3    H2 4816   4.749   0.893   0.302  1.2381 -1.2097  3.2806
 1604TIP3   OH2 4817   3.435   3.946   3.687 -0.4163 -0.2832 -0.1028
 1604TIP3    H1 4818   3.486   3.865   3.692  1.4708  0.7307 -1.5065
 1604TIP3    H2 4819   3.482   4.000   3.624 -2.5904  1.2459 -0.5452
 1605TIP3   OH2 4820   5.682   5.992   3.920  0.6437 -0.2735 -0.2963
 1605TIP3    H1 4821   5.588   5.976   3.909  0.3725 -0.0624  1.4458
 1605TIP3    H2 4822   5.718   5.906   3.943  0.1980  0.2846  2.8719
 1606TIP3   OH2 4823   1.690   4.876   3.211 -0.6512  0.0058 -0.1099
 1606TIP3    H1 4824   1.598   4.850   3.207 -0.7078  0.2997 -0.8263
 1606TIP3    H2 4825   1.725   4.852   3.126  0.2979 -1.3889  0.6418
 1607TIP3   OH2 4826   2.346   2.967   1.836  0.4287 -0.0755  0.1841
 1607TIP3    H1 4827   2.382   3.056   1.831  0.6011 -0.1156  0.6634
 1607TIP3    H2 4828   2.272   2.968   1.776  2.1352 -0.4210 -2.0874
 1608TIP3   OH2 4829   2.205   3.216   2.454  0.0161 -0.5048  0.3585
 1608TIP3    H1 4830   2.215   3.202   2.548 -0.8109  1.1005  0.7161
 1608TIP3    H2 4831   2.129   3.163   2.431 -0.4317 -0.0765  0.8188
 1609TIP3   OH2 4832   4.905   3.386   0.999 -0.1411  0.1939 -0.1089
 1609TIP3    H1 4833   4.865   3.342   0.924  2.3046  1.6991 -2.4884
 1609TIP3    H2 4834   4.876   3.477   0.991 -1.7885 -0.0486  2.2932
 1610TIP3   OH2 4835   1.207   5.808   4.319 -0.3032 -0.0823  0.0367
 1610TIP3    H1 4836   1.244   5.740   4.375  1.7821  0.9892  0.0864
 1610TIP3    H2 4837   1.225   5.779   4.230 -1.2883 -0.5628 -0.0123
 1611TIP3   OH2 4838   1.492   4.150   4.978 -0.1679 -0.3286 -0.4496
 1611TIP3    H1 4839   1.480   4.075   4.922  1.6430 -0.7721 -0.3231
 1611TIP3    H2 4840   1.500   4.114   5.067 -3.3844  0.3860  0.2379
 1612TIP3   OH2 4841   4.828   3.263   3.891 -0.0341 -0.2947  0.5260
 1612TIP3    H1 4842   4.829   3.214   3.809 -0.1370  1.0980 -0.3239
 1612TIP3    H2 4843   4.872   3.345   3.871  0.6072 -0.2203  2.0702
 1613TIP3   OH2 4844   0.357   4.962   2.301 -0.1069  0.0473  0.2918
 1613TIP3    H1 4845   0.438   4.980   2.252 -0.6110 -0.0401 -0.5902
 1613TIP3    H2 4846   0.384   4.964   2.393  0.7137  0.9257  0.0443
 1614TIP3   OH2 4847   5.611   0.378   0.683  0.3752  0.4108 -0.0511
 1614TIP3    H1 4848   5.623   0.473   0.692 -1.7300  0.7440 -0.3724
 1614TIP3    H2 4849   5.521   0.363   0.710  0.9370 -1.6577  0.8533
 1615TIP3   OH2 4850   2.285   3.907   1.502 -0.0162  0.0174  0.2180
 1615TIP3    H1 4851   2.355   3.956   1.459  1.6240 -1.8509  0.5783
 1615TIP3    H2 4852   2.204   3.953   1.478  1.3490  2.6851  0.3434
 1616TIP3   OH2 4853   0.867   0.986   4.847  0.0369  0.1801 -0.1986
 1616TIP3    H1 4854   0.783   0.963   4.885  0.6173 -0.7608  0.5605
 1616TIP3    H2 4855   0.874   1.081   4.858 -1.6941  0.5722 -1.9297
 1617TIP3   OH2 4856   4.055   5.880   0.507  0.0302 -0.3813 -0.1222
 1617TIP3    H1 4857   4.052   5.903   0.600  0.5448 -0.6469 -0.0372
 1617TIP3    H2 4858   4.010   5.952   0.464 -1.0145 -0.6956  0.4098
 1618TIP3   OH2 4859   2.039   4.430   2.912  0.1346 -0.1005 -0.6971
 1618TIP3    H1 4860   2.099   4.446   2.985  1.9960 -2.2207 -1.6447
 1618TIP3    H2 4861   2.054   4.338   2.889 -1.4561  0.1115 -2.8164
 1619TIP3   OH2 4862   3.967   2.324   0.002  0.1260  0.1917  0.1726
 1619TIP3    H1 4863   3.944   2.388   0.069  1.8479  0.5616  0.4571
 1619TIP3    H2 4864   3.990   2.245   0.051  4.0591  1.2601  0.3396
 1620TIP3   OH2 4865   4.258   1.344   2.727  0.3593  0.2044 -0.3179
 1620TIP3    H1 4866   4.329   1.384   2.678 -0.2148  0.2986 -1.0824
 1620TIP3    H2 4867   4.246   1.258   2.688 -0.9070  0.7398 -1.1782
 1621TIP3   OH2 4868   0.471   1.582   3.564  0.0306  0.2301 -0.6070
 1621TIP3    H1 4869   0.461   1.493   3.532  0.1586  0.8012 -2.3239
 1621TIP3    H2 4870   0.559   1.608   3.536 -0.6854  1.4998 -1.7841
 1622TIP3   OH2 4871   2.307   0.896   2.410  0.0374 -0.2519  0.1012
 1622TIP3    H1 4872   2.393   0.907   2.449 -0.2740  0.5351  0.5896
 1622TIP3    H2 4873   2.324   0.879   2.317  0.6726  2.0602 -0.2653
 1623TIP3   OH2 4874   6.338   4.208   4.629 -0.2887 -0.1241 -0.0522
 1623TIP3    H1 4875   6.371   4.251   4.550  0.1126 -1.2462 -0.5096
 1623TIP3    H2 4876   6.297   4.279   4.679 -2.5583  0.2867 -2.2976
 1624TIP3   OH2 4877   3.156   2.297   1.896 -0.1213  0.8007 -0.4215
 1624TIP3    H1 4878   3.073   2.290   1.849 -0.7846  0.2413  0.7708
 1624TIP3    H2 4879   3.163   2.389   1.919  0.5578  1.2271 -2.1584
 1625TIP3   OH2 4880   1.462   0.526   2.719 -0.0538 -0.6151 -0.3069
 1625TIP3    H1 4881   1.467   0.546   2.813  0.9931 -1.6027 -0.1304
 1625TIP3    H2 4882   1.547   0.488   2.699  0.8716  2.1532 -2.2948
 1626TIP3   OH2 4883   4.238   2.416   1.707  0.4979 -0.0529 -0.3522
 1626TIP3    H1 4884   4.211   2.376   1.790  2.1121 -0.7239 -0.1045
 1626TIP3    H2 4885   4.310   2.475   1.731  2.0416 -1.4107 -1.4042
 1627TIP3   OH2 4886   2.817   5.637   1.233 -0.2032 -0.1619  0.0506
 1627TIP3    H1 4887   2.785   5.642   1.323 -1.0368  0.0452 -0.2544
 1627TIP3    H2 4888   2.762   5.571   1.191 -1.2781  1.2896 -0.8924
 1628TIP3   OH2 4889   3.684   0.338   3.906  0.1305 -0.5500 -0.2916
 1628TIP3    H1 4890   3.631   0.413   3.877  0.5195  0.1910  0.8702
 1628TIP3    H2 4891   3.683   0.343   4.001  0.7177 -1.6528 -0.2150
 1629TIP3   OH2 4892   5.146   4.762   3.868  0.0478 -0.4087 -0.0504
 1629TIP3    H1 4893   5.094   4.683   3.879 -0.7263  0.1681  0.6166
 1629TIP3    H2 4894   5.157   4.797   3.957 -0.2153  0.5848 -0.3894
 1630TIP3   OH2 4895   0.062   5.967   1.971  0.3539  0.0899  0.2266
 1630TIP3    H1 4896   0.147   5.985   1.930  0.3989  1.1361  0.7472
 1630TIP3    H2 4897   0.008   5.932   1.900  0.7985  0.7340 -0.4457
 1631TIP3   OH2 4898   4.237   2.494   2.505 -0.4531  0.2275 -0.0754
 1631TIP3    H1 4899   4.219   2.438   2.581 -0.5175  1.1461  0.6167
 1631TIP3    H2 4900   4.151   2.509   2.466 -0.8893  2.0635  1.3885
 1632TIP3   OH2 4901   2.234   4.394   2.250  0.1885 -0.1283 -0.1874
 1632TIP3    H1 4902   2.172   4.467   2.254 -0.4170 -0.6842  1.8653
 1632TIP3    H2 4903   2.320   4.437   2.243 -0.2781  0.7197 -0.8675
 1633TIP3   OH2 4904   1.388   3.351   2.385 -0.2813  0.0548 -0.5441
 1633TIP3    H1 4905   1.334   3.342   2.463 -0.3120 -1.5101 -0.7244
 1633TIP3    H2 4906   1.329   3.331   2.312  0.3361 -0.8869 -0.7946
 1634TIP3   OH2 4907   3.633   3.810   4.902 -0.8520  0.0530  0.2016
 1634TIP3    H1 4908   3.684   3.857   4.836 -1.1578  0.0240 -0.0597
 1634TIP3    H2 4909   3.628   3.720   4.869 -0.4845 -0.1107  0.5737
 1635TIP3   OH2 4910   2.868   5.383   0.728 -0.2300  0.0003 -0.5663
 1635TIP3    H1 4911   2.915   5.359   0.807 -2.5401 -0.1022  0.8687
 1635TIP3    H2 4912   2.924   5.352   0.656  0.3080 -3.2032  1.0681
 1636TIP3   OH2 4913   2.421   4.943   1.317 -0.2957  0.0377  0.0769
 1636TIP3    H1 4914   2.331   4.950   1.285 -0.4644  1.5261  0.7790
 1636TIP3    H2 4915   2.425   5.004   1.391  1.1585 -0.3697  0.3710
 1637TIP3   OH2 4916   3.802   3.170   2.462 -0.3930 -0.1185  0.0841
 1637TIP3    H1 4917   3.758   3.135   2.385  1.3072 -1.1576 -0.4688
 1637TIP3    H2 4918   3.881   3.117   2.471  0.7890  1.6858  0.9781
 1638TIP3   OH2 4919   5.291   2.762   4.114  0.6978  0.1180 -0.3303
 1638TIP3    H1 4920   5.350   2.722   4.178  2.6352  1.2297 -1.3352
 1638TIP3    H2 4921   5.204   2.733   4.141  1.7265 -2.1669  0.7970
 1639TIP3   OH2 4922   1.652   5.852   2.094  0.0926 -0.2884  0.4285
 1639TIP3    H1 4923   1.610   5.915   2.036 -0.0299  0.6329  1.4875
 1639TIP3    H2 4924   1.587   5.835   2.162 -0.0948 -2.0000 -0.1104
 1640TIP3   OH2 4925   0.522   3.721   4.777  0.3017  0.6648  0.3175
 1640TIP3    H1 4926   0.611   3.714   4.811  0.3354  1.3390  0.3863
 1640TIP3    H2 4927   0.530   3.696   4.685  0.3854 -0.2228  0.5654
 1641TIP3   OH2 4928   1.512   0.754   4.787  0.1598 -0.4442  0.1751
 1641TIP3    H1 4929   1.478   0.840   4.812 -0.8311 -0.8428  0.2181
 1641TIP3    H2 4930   1.440   0.711   4.742  0.0206 -1.9355  1.7277
 1642TIP3   OH2 4931   0.601   3.064   0.845  0.0660 -0.0572 -0.2683
 1642TIP3    H1 4932   0.686   3.020   0.841 -0.9496 -2.1946 -0.1742
 1642TIP3    H2 4933   0.543   3.007   0.794 -1.5469  0.7075  0.6415
 1643TIP3   OH2 4934   3.510   3.150   2.470 -0.5304 -0.1569  0.0530
 1643TIP3    H1 4935   3.503   3.058   2.447 -1.2101  0.0829 -0.7404
 1643TIP3    H2 4936   3.581   3.184   2.415 -0.1457 -0.2432  0.4882
 1644TIP3   OH2 4937   0.608   0.024   1.526 -0.1387 -0.0126  0.6274
 1644TIP3    H1 4938   0.589   0.046   1.435  1.1678  1.7007  0.7124
 1644TIP3    H2 4939   0.538  -0.035   1.552 -0.2782 -0.9096 -1.6198
 1645TIP3   OH2 4940   4.408   2.218   2.616  0.0478  0.1176 -0.0324
 1645TIP3    H1 4941   4.337   2.265   2.660  0.9927 -0.3555  2.0898
 1645TIP3    H2 4942   4.380   2.214   2.524 -0.8434  3.3638 -0.0395
 1646TIP3   OH2 4943   3.191   2.146   0.932 -0.4448 -0.4366 -0.7055
 1646TIP3    H1 4944   3.261   2.211   0.937  0.5099 -1.5130  0.5289
 1646TIP3    H2 4945   3.111   2.195   0.946  0.2577  0.4828  0.1814
 1647TIP3   OH2 4946   2.803   0.233   4.559  0.4180  0.1484 -0.0297
 1647TIP3    H1 4947   2.841   0.147   4.580  0.1889  0.5621  2.2899
 1647TIP3    H2 4948   2.739   0.249   4.629  0.6158  2.3122 -0.2832
 1648TIP3   OH2 4949   3.520   3.201   1.674  0.5789  0.3285 -0.0302
 1648TIP3    H1 4950   3.464   3.233   1.603  0.4057 -1.3172 -0.6859
 1648TIP3    H2 4951   3.469   3.217   1.754  0.7779  2.2029 -0.2251
 1649TIP3   OH2 4952   5.380   2.557   3.922 -0.5430 -0.1267 -0.2293
 1649TIP3    H1 4953   5.470   2.570   3.893 -0.5032 -0.5863 -0.3138
 1649TIP3    H2 4954   5.367   2.623   3.990 -1.1060  2.0175 -2.2829
 1650TIP3   OH2 4955   3.508   3.256   4.749 -0.0088 -0.4804  0.4936
 1650TIP3    H1 4956   3.420   3.279   4.780  0.0268  0.0243  0.2370
 1650TIP3    H2 4957   3.497   3.171   4.705 -0.9855  0.8951 -2.1442
 1651TIP3   OH2 4958   1.018   3.234   2.799 -0.4917  0.7507 -0.3203
 1651TIP3    H1 4959   0.953   3.288   2.844  0.1332  0.4906  0.9328
 1651TIP3    H2 4960   1.097   3.243   2.852 -0.5340 -1.9380  0.3181
 1652TIP3   OH2 4961   0.288   2.189   3.861 -0.3830  0.2035  0.2474
 1652TIP3    H1 4962   0.262   2.135   3.786 -0.0898  0.1361  0.1916
 1652TIP3    H2 4963   0.365   2.144   3.897 -1.2139 -0.4039  1.2977
 1653TIP3   OH2 4964   5.837   0.263   3.238 -0.4861 -0.6962 -0.3584
 1653TIP3    H1 4965   5.746   0.259   3.211 -0.8567 -1.3239  0.9004
 1653TIP3    H2 4966   5.844   0.343   3.290 -0.8174 -1.5977  1.1447
 1654TIP3   OH2 4967   1.722   1.899   0.137  0.3994 -0.0376  0.6682
 1654TIP3    H1 4968   1.740   1.809   0.164  2.2478  0.7287  2.1762
 1654TIP3    H2 4969   1.702   1.892   0.043  0.3099 -2.0195  0.7978
 1655TIP3   OH2 4970   1.886   2.704   0.942 -0.2946 -0.2332  0.2121
 1655TIP3    H1 4971   1.813   2.721   0.883 -0.2135 -0.4973  0.0303
 1655TIP3    H2 4972   1.876   2.612   0.966 -0.4167 -0.0857  0.7388
 1656TIP3   OH2 4973   6.190   1.631   4.148  0.1049  0.5651 -0.2153
 1656TIP3    H1 4974   6.268   1.585   4.116  0.9420  0.4489  1.8591
 1656TIP3    H2 4975   6.119   1.566   4.141  0.4702  0.2368 -0.8935
 1657TIP3   OH2 4976   0.938   2.926   3.360  0.1512 -0.9285  0.4038
 1657TIP3    H1 4977   1.008   2.934   3.296  0.5016  1.9411  1.0054
 1657TIP3    H2 4978   0.978   2.879   3.434  0.8754 -0.9091  0.0322
 1658TIP3   OH2 4979   0.727   3.306   4.443 -0.8341  0.6548 -0.0470
 1658TIP3    H1 4980   0.717   3.293   4.349  1.6454  0.7128 -0.3656
 1658TIP3    H2 4981   0.721   3.218   4.481  4.5879 -0.4623 -1.0327
 1659TIP3   OH2 4982   0.891   3.289   2.178  0.0422  0.4618 -0.2814
 1659TIP3    H1 4983   0.816   3.291   2.237 -0.4597 -3.3142 -0.5473
 1659TIP3    H2 4984   0.865   3.344   2.104 -1.6705  0.6653  0.4418
 1660TIP3   OH2 4985   3.004   4.097   2.077  0.0658  0.2031  0.2337
 1660TIP3    H1 4986   3.075   4.068   2.135  0.8402  0.7631 -0.4056
 1660TIP3    H2 4987   2.925   4.059   2.115  0.7060 -0.4411  0.9633
 1661TIP3   OH2 4988   4.674   2.676   0.158  0.1333 -0.1622  0.0989
 1661TIP3    H1 4989   4.587   2.679   0.196 -1.3685  1.0386 -3.0895
 1661TIP3    H2 4990   4.696   2.583   0.154 -0.7296 -0.4443  1.4055
 1662TIP3   OH2 4991   4.200   5.487   1.851 -0.1109  0.0235  0.1666
 1662TIP3    H1 4992   4.137   5.486   1.922 -0.2714 -1.2842  0.0359
 1662TIP3    H2 4993   4.163   5.427   1.786  1.4738 -1.1473  0.2927
 1663TIP3   OH2 4994   2.095   0.679   3.493 -0.2450  0.2647  0.5283
 1663TIP3    H1 4995   2.106   0.773   3.477 -2.1104  0.2990 -0.9313
 1663TIP3    H2 4996   2.046   0.647   3.417  1.0042 -2.0714  0.5912
 1664TIP3   OH2 4997   0.775   0.399   0.551 -0.6038 -0.6722 -0.0051
 1664TIP3    H1 4998   0.815   0.434   0.631 -0.3049  0.0139 -0.4477
 1664TIP3    H2 4999   0.769   0.305   0.567  1.5807 -0.8766 -0.0746
 1665TIP3   OH2 5000   3.979   0.382   0.973  0.2405  0.5252 -0.1236
 1665TIP3    H1 5001   4.016   0.460   0.932  0.1861  0.0617 -1.0827
 1665TIP3    H2 5002   3.944   0.412   1.056 -0.8368  1.7576 -0.9888
 1666TIP3   OH2 5003   1.374   2.940   3.629  0.0961  0.2105  0.3059
 1666TIP3    H1 5004   1.461   2.928   3.591 -0.0787 -0.8733  0.2302
 1666TIP3    H2 5005   1.327   2.860   3.608 -1.3486  1.2782 -0.7302
 1667TIP3   OH2 5006   2.174   5.250   4.169 -0.2850 -0.2099  0.1641
 1667TIP3    H1 5007   2.175   5.346   4.172  1.7795 -0.1477 -0.8541
 1667TIP3    H2 5008   2.256   5.225   4.211 -1.3511 -1.6283  1.5232
 1668TIP3   OH2 5009   5.117   4.789   0.650  0.3835 -0.1040  0.0110
 1668TIP3    H1 5010   5.143   4.708   0.695 -0.7176  0.4043  1.6785
 1668TIP3    H2 5011   5.146   4.858   0.710  0.2035  0.6872 -0.8087
 1669TIP3   OH2 5012   1.582   2.965   3.438  0.3861 -0.4044 -0.2167
 1669TIP3    H1 5013   1.564   2.907   3.364  0.1625  0.3442 -0.7558
 1669TIP3    H2 5014   1.668   2.936   3.470  0.0384 -1.3838 -0.1260
 1670TIP3   OH2 5015   1.327   0.043   0.382 -0.7866  0.3149  0.1231
 1670TIP3    H1 5016   1.241   0.079   0.362 -1.8018 -1.4819  1.0383
 1670TIP3    H2 5017   1.325  -0.046   0.348  0.4602 -0.0018  0.8018
 1671TIP3   OH2 5018   1.537   5.221   2.893  0.3616 -0.0941 -0.5207
 1671TIP3    H1 5019   1.507   5.166   2.821 -2.4240 -1.0757  1.2047
 1671TIP3    H2 5020   1.518   5.311   2.864 -0.4198 -0.4518 -1.1569
 1672TIP3   OH2 5021   0.043   1.000   1.817 -0.1816 -0.2043 -0.1044
 1672TIP3    H1 5022  -0.033   1.018   1.761 -0.4004 -1.4450 -0.2471
 1672TIP3    H2 5023   0.040   0.905   1.831  0.6387 -0.1009  0.9137
 1673TIP3   OH2 5024   0.941   1.538   0.337 -0.2139  0.3548  0.1869
 1673TIP3    H1 5025   0.895   1.470   0.286  1.4485 -0.6171 -0.0921
 1673TIP3    H2 5026   0.943   1.503   0.426 -2.2833  1.6269  0.8237
 1674TIP3   OH2 5027   1.801   0.991   2.416 -0.1414  0.1017  0.1221
 1674TIP3    H1 5028   1.727   0.931   2.416 -0.0732  0.0030 -1.1366
 1674TIP3    H2 5029   1.863   0.954   2.354  0.1232  1.2070 -0.2981
 1675TIP3   OH2 5030   0.349   3.845   4.517  0.2589  0.1921  0.0488
 1675TIP3    H1 5031   0.276   3.869   4.459  0.5009 -1.1940 -0.8971
 1675TIP3    H2 5032   0.321   3.873   4.604 -0.7116  1.1127 -0.5326
 1676TIP3   OH2 5033   5.364   1.244   1.685 -0.9488  0.0951 -0.6410
 1676TIP3    H1 5034   5.321   1.166   1.650  0.9006 -0.8374 -0.9657
 1676TIP3    H2 5035   5.326   1.256   1.772 -1.2612 -1.1670 -0.5926
 1677TIP3   OH2 5036   0.294   4.437   2.111 -0.1027 -0.2114 -0.3791
 1677TIP3    H1 5037   0.325   4.498   2.045  0.4291  0.0885  0.1404
 1677TIP3    H2 5038   0.313   4.350   2.075  0.3826 -0.0448 -0.5243
 1678TIP3   OH2 5039   4.314   3.333   4.990  0.1250  0.1638  0.4153
 1678TIP3    H1 5040   4.249   3.267   4.966  0.1915  0.0776  0.4671
 1678TIP3    H2 5041   4.372   3.287   5.052 -1.4950  1.0987  2.7421
 1679TIP3   OH2 5042   0.191   3.205   1.735  0.3670 -0.0226  0.0588
 1679TIP3    H1 5043   0.154   3.259   1.806  0.4563  0.0768  0.0301
 1679TIP3    H2 5044   0.193   3.117   1.771  2.4425  0.3518  0.9982
 1680TIP3   OH2 5045   2.590   4.064   0.631  0.2740 -0.8702 -0.4272
 1680TIP3    H1 5046   2.568   4.135   0.571 -0.6765 -0.3983  0.4437
 1680TIP3    H2 5047   2.682   4.077   0.651  0.2529 -0.2175 -0.7265
 1681TIP3   OH2 5048   2.121   5.562   2.341 -0.4753 -0.2206 -0.1794
 1681TIP3    H1 5049   2.091   5.652   2.351 -0.2458 -0.2029  0.4580
 1681TIP3    H2 5050   2.154   5.557   2.252 -2.3218 -0.2341 -0.9108
 1682TIP3   OH2 5051   1.726   5.958   3.961 -0.1427 -0.0152  0.0937
 1682TIP3    H1 5052   1.806   6.001   3.989  0.4111 -0.1186 -1.2437
 1682TIP3    H2 5053   1.734   5.868   3.993  1.0170 -0.4523 -1.3073
 1683TIP3   OH2 5054   3.158   1.199   3.489 -0.2192 -0.1738 -0.1375
 1683TIP3    H1 5055   3.232   1.159   3.535 -1.7916 -0.5211  2.2882
 1683TIP3    H2 5056   3.157   1.290   3.518  0.5139  0.4257 -1.8937
 1684TIP3   OH2 5057   3.970   1.007   4.583  0.0276 -0.6292 -0.4954
 1684TIP3    H1 5058   4.040   0.948   4.609 -0.0413 -0.8521 -0.8101
 1684TIP3    H2 5059   3.889   0.956   4.596 -0.1080 -0.2550  0.2053
 1685TIP3   OH2 5060   4.241   2.195   1.587 -0.0627  0.1642 -0.0456
 1685TIP3    H1 5061   4.152   2.164   1.605  0.0998 -0.0540  0.3898
 1685TIP3    H2 5062   4.241   2.286   1.618  0.3073 -0.3055  1.3595
 1686TIP3   OH2 5063   1.178   2.891   3.255  0.4982  0.0624 -0.3000
 1686TIP3    H1 5064   1.255   2.884   3.312  1.3212  1.7827 -1.1094
 1686TIP3    H2 5065   1.195   2.830   3.184  0.2622 -0.8529  0.4091
 1687TIP3   OH2 5066   1.232   0.022   3.233  0.1369  0.3217 -0.1413
 1687TIP3    H1 5067   1.182   0.094   3.272 -0.1016  0.7529 -1.2151
 1687TIP3    H2 5068   1.260   0.055   3.148  2.7377  0.3051  0.6143
 1688TIP3   OH2 5069   6.142   5.862   1.976 -0.4372  0.0019  0.1399
 1688TIP3    H1 5070   6.061   5.900   1.943 -2.4399 -1.5886  2.7992
 1688TIP3    H2 5071   6.191   5.936   2.011 -1.3168  0.8424 -0.3581
 1689TIP3   OH2 5072   3.597   2.346   2.324 -0.5365  0.3488 -0.0642
 1689TIP3    H1 5073   3.656   2.348   2.399  0.9823  2.6048 -1.2133
 1689TIP3    H2 5074   3.633   2.278   2.267 -0.7939 -0.3057  0.5415
 1690TIP3   OH2 5075   1.779   5.052   3.464 -0.0801  0.4395  0.0363
 1690TIP3    H1 5076   1.820   5.033   3.380  0.1124  0.3912  0.1414
 1690TIP3    H2 5077   1.697   5.002   3.462  0.3479 -0.2949  0.2445
 1691TIP3   OH2 5078   6.207   0.959   4.247 -0.4021  0.8435 -0.1916
 1691TIP3    H1 5079   6.231   1.013   4.323 -1.9200 -1.4106  2.0750
 1691TIP3    H2 5080   6.291   0.934   4.208  0.4626  1.8006  0.9706
 1692TIP3   OH2 5081   4.037   3.149   0.102  0.0585  0.2242 -0.1490
 1692TIP3    H1 5082   4.065   3.194   0.182 -2.8609 -0.4180  1.3545
 1692TIP3    H2 5083   3.957   3.194   0.075  0.3573 -0.3095 -2.0920
 1693TIP3   OH2 5084   6.142   3.336   1.529  0.2160 -0.2602 -0.2355
 1693TIP3    H1 5085   6.086   3.290   1.466 -1.2742 -0.3827  1.1115
 1693TIP3    H2 5086   6.221   3.282   1.534 -0.6290 -1.5660 -0.2547
 1694TIP3   OH2 5087   5.917   2.293   2.203  0.7253  0.1467  0.3347
 1694TIP3    H1 5088   5.923   2.217   2.146 -0.9373  1.7442 -2.1161
 1694TIP3    H2 5089   5.824   2.300   2.224  0.9250  1.2737  0.8826
 1695TIP3   OH2 5090   2.666   2.185   4.921 -0.2545 -0.1744  0.5769
 1695TIP3    H1 5091   2.634   2.094   4.925  2.5989 -1.3318 -0.3041
 1695TIP3    H2 5092   2.740   2.187   4.982  2.6008  0.1662 -2.5831
 1696TIP3   OH2 5093   5.134   0.168   3.200 -0.3458  0.0168 -0.3209
 1696TIP3    H1 5094   5.206   0.107   3.182 -0.2642 -0.2977  0.9226
 1696TIP3    H2 5095   5.056   0.113   3.197 -0.2687 -0.2001  0.8407
 1697TIP3   OH2 5096   5.302   1.075   2.194  0.1341 -0.5138 -0.4996
 1697TIP3    H1 5097   5.374   1.124   2.155  0.2863 -1.0351 -0.8854
 1697TIP3    H2 5098   5.336   1.045   2.278 -0.7106  1.9289  0.8197
 1698TIP3   OH2 5099   0.320   5.927   4.649  0.4152  0.3536 -0.3402
 1698TIP3    H1 5100   0.309   5.846   4.599  1.6164 -1.0573  1.5152
 1698TIP3    H2 5101   0.398   5.968   4.612 -1.3851  1.8848 -2.7157
 1699TIP3   OH2 5102   0.689   2.449   0.654 -0.1751 -0.4472 -0.1180
 1699TIP3    H1 5103   0.725   2.369   0.616  0.5675 -0.7049  1.0539
 1699TIP3    H2 5104   0.594   2.436   0.651 -0.1555 -0.3401 -2.0534
 1700TIP3   OH2 5105   0.488   0.304   3.224  0.1474  0.6371  0.4393
 1700TIP3    H1 5106   0.460   0.231   3.169 -0.2852 -0.7764  2.4655
 1700TIP3    H2 5107   0.581   0.314   3.204  0.2905 -0.6799  0.3770
 1701TIP3   OH2 5108   1.851   4.046   1.205  0.3258 -0.3111  0.2759
 1701TIP3    H1 5109   1.771   4.078   1.164 -0.0851 -0.1588  1.1550
 1701TIP3    H2 5110   1.890   3.988   1.140  0.3279  0.8244 -0.7710
 1702TIP3   OH2 5111   1.165   1.848   4.079  0.4009 -0.2309 -0.1564
 1702TIP3    H1 5112   1.136   1.757   4.088 -0.0318 -0.2538 -1.5445
 1702TIP3    H2 5113   1.120   1.880   4.001 -0.9681  1.7840  1.3593
 1703TIP3   OH2 5114   0.090   1.503   4.083 -0.0009  0.3209 -0.2073
 1703TIP3    H1 5115   0.133   1.450   4.151 -1.3363 -0.6093 -0.0472
 1703TIP3    H2 5116   0.130   1.473   4.001 -0.1217 -0.3143 -0.0388
 1704TIP3   OH2 5117   1.038   5.319   0.717  0.0757  0.0337  0.5341
 1704TIP3    H1 5118   1.104   5.281   0.659  0.3479  1.8531 -0.4224
 1704TIP3    H2 5119   1.071   5.302   0.805  0.7859 -0.8324  0.1135
 1705TIP3   OH2 5120   5.040   0.330   0.685 -0.1234  0.0658  0.1840
 1705TIP3    H1 5121   5.049   0.422   0.710  0.2380  0.8534 -2.4973
 1705TIP3    H2 5122   4.995   0.333   0.601  0.6666 -2.1695 -0.3794
 1706TIP3   OH2 5123   2.151   1.371   1.929  0.5205 -0.1827  0.5104
 1706TIP3    H1 5124   2.179   1.390   1.839  0.2929  0.8526  0.6488
 1706TIP3    H2 5125   2.210   1.423   1.984 -0.6033  0.7414  0.8719
 1707TIP3   OH2 5126   3.486   5.243   4.322  0.1006  0.5989 -0.2547
 1707TIP3    H1 5127   3.473   5.209   4.233 -0.3682 -0.0803  0.0570
 1707TIP3    H2 5128   3.502   5.165   4.375  0.2666  0.9885  0.2753
 1708TIP3   OH2 5129   6.265   2.798   0.636  0.2735  0.2973 -0.5729
 1708TIP3    H1 5130   6.301   2.762   0.555  1.3188  0.2674 -0.1072
 1708TIP3    H2 5131   6.177   2.760   0.642  0.1143  0.4344 -1.7695
 1709TIP3   OH2 5132   0.265   2.721   2.710  0.0105  0.1721 -0.2051
 1709TIP3    H1 5133   0.226   2.778   2.643  0.9625  3.7557  1.9667
 1709TIP3    H2 5134   0.350   2.696   2.675 -0.2327  0.4937 -1.0413
 1710TIP3   OH2 5135   3.946   1.835   3.598  0.6275  0.3701 -0.5460
 1710TIP3    H1 5136   3.920   1.854   3.507 -1.3072  0.1446 -0.0799
 1710TIP3    H2 5137   3.961   1.921   3.637  0.0611  0.5410 -0.6961
 1711TIP3   OH2 5138   3.939   3.542   4.409  0.2434 -0.4380 -0.3943
 1711TIP3    H1 5139   4.000   3.538   4.483  1.4473  0.2673 -1.3119
 1711TIP3    H2 5140   3.896   3.627   4.418 -0.7725 -1.0109  0.3546
 1712TIP3   OH2 5141   0.535   2.058   4.909  0.1368  0.2537 -0.4109
 1712TIP3    H1 5142   0.615   2.006   4.915 -0.8615 -1.3679 -0.6590
 1712TIP3    H2 5143   0.470   2.008   4.958 -1.0266  0.9226 -1.2233
 1713TIP3   OH2 5144   4.263   4.988   3.355 -0.3700 -0.1686  0.2854
 1713TIP3    H1 5145   4.262   4.918   3.420  0.3748 -0.1716  0.2920
 1713TIP3    H2 5146   4.355   5.000   3.332 -0.4750  0.8345  0.3144
 1714TIP3   OH2 5147   5.820   4.741   5.162 -0.2315  0.7297  0.0689
 1714TIP3    H1 5148   5.795   4.657   5.202 -1.1390  0.4820 -0.9781
 1714TIP3    H2 5149   5.740   4.772   5.119  0.4103  1.5603 -0.5548
 1715TIP3   OH2 5150   3.756   2.211   2.144  0.2978  0.1213 -0.2791
 1715TIP3    H1 5151   3.844   2.246   2.160  0.0554 -0.1553  1.8202
 1715TIP3    H2 5152   3.752   2.203   2.048  2.1649  1.1109 -0.5009
 1716TIP3   OH2 5153   5.364   2.750   1.405  0.7319  0.5567  0.3996
 1716TIP3    H1 5154   5.293   2.693   1.434  0.0937  1.0973 -0.0665
 1716TIP3    H2 5155   5.321   2.833   1.383  1.4934  0.8568  0.0010
 1717TIP3   OH2 5156   1.280   3.274   2.829 -0.4257 -0.7077 -0.0878
 1717TIP3    H1 5157   1.330   3.193   2.818 -0.1620 -0.5755  0.1201
 1717TIP3    H2 5158   1.320   3.317   2.905 -1.0464 -0.7417  0.2674
 1718TIP3   OH2 5159   2.968   5.551   0.317 -0.4074 -0.0279  0.2466
 1718TIP3    H1 5160   2.900   5.604   0.277 -0.1361  1.1488  1.2690
 1718TIP3    H2 5161   3.024   5.524   0.244 -1.6294 -0.5384 -0.5237
 1719TIP3   OH2 5162   0.629   5.282   3.019  0.8256 -0.1160 -0.4745
 1719TIP3    H1 5163   0.683   5.210   2.986  0.0393 -1.3184  0.7404
 1719TIP3    H2 5164   0.647   5.284   3.113  1.6376  2.0152 -0.6341
 1720TIP3   OH2 5165   1.014   5.313   4.847 -0.2949 -0.2345 -0.1669
 1720TIP3    H1 5166   1.012   5.262   4.766 -1.8261  0.5568 -0.6483
 1720TIP3    H2 5167   1.040   5.249   4.914  0.7578 -0.9572 -1.2142
 1721TIP3   OH2 5168   4.894   0.864   2.641 -0.4313  0.2351  0.4553
 1721TIP3    H1 5169   4.856   0.825   2.562 -2.2521  0.1011  1.3337
 1721TIP3    H2 5170   4.985   0.880   2.619 -1.1139  1.1584 -2.0262
 1722TIP3   OH2 5171   5.778   3.587   3.084 -0.3457 -0.0573 -0.1490
 1722TIP3    H1 5172   5.705   3.624   3.033 -0.4221  0.7089  0.4835
 1722TIP3    H2 5173   5.846   3.569   3.019 -1.1182 -0.8504 -0.7608
 1723TIP3   OH2 5174   0.500   4.939   0.830  0.4407  0.3486 -0.3656
 1723TIP3    H1 5175   0.539   4.998   0.767 -1.1394  0.6537 -1.1030
 1723TIP3    H2 5176   0.489   4.992   0.909 -0.5639  0.9304 -0.8829
 1724TIP3   OH2 5177   0.005   2.859   0.136  0.1814 -0.4183  0.0291
 1724TIP3    H1 5178   0.070   2.900   0.079 -0.8091 -0.0386 -0.8794
 1724TIP3    H2 5179   0.054   2.831   0.213  1.6738 -1.4353 -1.2274
 1725TIP3   OH2 5180   5.362   3.536   1.813 -0.1109  0.5944  0.0233
 1725TIP3    H1 5181   5.317   3.477   1.874  2.2509 -0.4913  0.8561
 1725TIP3    H2 5182   5.315   3.527   1.731 -1.5039 -0.3154  0.8807
 1726TIP3   OH2 5183   2.246   0.949   2.078 -0.0763 -0.1542 -0.0032
 1726TIP3    H1 5184   2.290   0.874   2.117 -0.7375 -1.0389 -0.8967
 1726TIP3    H2 5185   2.237   0.927   1.985 -1.1994  0.5628 -0.0942
 1727TIP3   OH2 5186   6.328   5.709   2.183 -0.6469 -0.0631  0.3704
 1727TIP3    H1 5187   6.258   5.687   2.122 -0.6513 -0.4268  0.5046
 1727TIP3    H2 5188   6.368   5.788   2.147 -0.2951 -0.5808 -0.3990
 1728TIP3   OH2 5189   5.418   1.818   2.583  0.1427 -0.3298  0.3538
 1728TIP3    H1 5190   5.473   1.748   2.548  1.5295  1.3995 -1.1080
 1728TIP3    H2 5191   5.329   1.790   2.563  0.5731 -2.1622  0.7960
 1729TIP3   OH2 5192   4.509   5.063   3.202 -0.0620 -0.0992  0.3245
 1729TIP3    H1 5193   4.581   5.126   3.196  0.3016 -0.1982  2.7213
 1729TIP3    H2 5194   4.550   4.979   3.183  0.3645 -0.0848  1.1216
 1730TIP3   OH2 5195   3.463   2.343   3.875 -0.9570  0.2253 -0.5153
 1730TIP3    H1 5196   3.386   2.321   3.823 -0.9588 -1.8251  0.2608
 1730TIP3    H2 5197   3.448   2.299   3.959  1.3146 -0.7130 -0.5420
 1731TIP3   OH2 5198   2.826   3.237   3.761 -0.1039 -0.0152 -0.2625
 1731TIP3    H1 5199   2.789   3.272   3.843 -0.4067  0.9225 -0.7894
 1731TIP3    H2 5200   2.867   3.312   3.719  0.2852 -0.5486 -0.8586
 1732TIP3   OH2 5201   4.315   0.361   0.385  0.0605 -1.0271  0.0978
 1732TIP3    H1 5202   4.250   0.419   0.344  0.2086 -0.2857  0.8924
 1732TIP3    H2 5203   4.398   0.407   0.375  0.4059 -1.7460 -0.4699
 1733TIP3   OH2 5204   3.317   2.555   2.485  0.3125 -0.2202 -0.2001
 1733TIP3    H1 5205   3.301   2.550   2.580 -1.0801  0.3394 -0.3708
 1733TIP3    H2 5206   3.247   2.612   2.453  0.6476 -0.5737 -1.6036
 1734TIP3   OH2 5207   1.141   1.879   3.770  0.5949  0.2120  0.4035
 1734TIP3    H1 5208   1.094   1.960   3.790  0.9607  0.1053  1.8121
 1734TIP3    H2 5209   1.073   1.812   3.766  0.4525  0.3238  0.8716
 1735TIP3   OH2 5210   1.548   4.814   0.810 -0.1683  0.1411 -0.4222
 1735TIP3    H1 5211   1.614   4.870   0.851 -0.3920  0.0178  0.1093
 1735TIP3    H2 5212   1.596   4.736   0.785  0.5536  1.2653 -2.8168
 1736TIP3   OH2 5213  -0.004   0.853   2.182 -0.4934 -0.3693  0.1025
 1736TIP3    H1 5214   0.034   0.903   2.254 -1.0166  1.7924 -1.0439
 1736TIP3    H2 5215   0.071   0.827   2.129  0.0092 -2.8099  1.7847
 1737TIP3   OH2 5216   0.334   4.070   2.346 -0.0264  0.8384 -0.1704
 1737TIP3    H1 5217   0.415   4.106   2.310  0.9139 -2.0410 -1.2711
 1737TIP3    H2 5218   0.276   4.060   2.270  1.2429 -3.4383 -0.8650
 1738TIP3   OH2 5219   5.068   0.861   1.022  0.1477  0.7066 -0.6825
 1738TIP3    H1 5220   4.990   0.812   1.050 -0.3239  2.4924  1.4899
 1738TIP3    H2 5221   5.055   0.875   0.928 -2.1658  0.8790 -0.4118
 1739TIP3   OH2 5222   3.174   4.144   2.491 -0.9342 -0.2152 -0.2847
 1739TIP3    H1 5223   3.089   4.132   2.534 -0.9416  2.9896  0.8390
 1739TIP3    H2 5224   3.238   4.125   2.560 -0.9350  3.4968  0.9532
 1740TIP3   OH2 5225   4.648   4.180   3.482 -0.6626 -0.2480  0.1838
 1740TIP3    H1 5226   4.575   4.242   3.490 -1.4481 -0.9679 -0.9673
 1740TIP3    H2 5227   4.718   4.231   3.442 -1.1818  0.0214 -0.4187
 1741TIP3   OH2 5228   1.754   3.461   3.710  0.0711  0.3650  0.0419
 1741TIP3    H1 5229   1.686   3.527   3.696  0.7104  1.1810  0.7269
 1741TIP3    H2 5230   1.827   3.509   3.749  0.4132 -0.8184  0.9081
 1742TIP3   OH2 5231   0.047   3.748   4.696 -0.3077  0.0907 -0.0535
 1742TIP3    H1 5232   0.073   3.681   4.633  1.3694 -0.7441  1.4118
 1742TIP3    H2 5233   0.018   3.698   4.773  0.4197  1.0343  0.8619
 1743TIP3   OH2 5234   5.159   4.995   0.790 -0.3743 -0.3089  0.2561
 1743TIP3    H1 5235   5.244   4.953   0.804 -0.3481 -0.6849 -0.9582
 1743TIP3    H2 5236   5.161   5.072   0.847  0.6264 -0.5124  0.5189
 1744TIP3   OH2 5237   0.347   2.623   2.310 -0.6102  0.6906 -0.2479
 1744TIP3    H1 5238   0.340   2.528   2.315  3.2720 -0.0280 -3.3675
 1744TIP3    H2 5239   0.275   2.649   2.252 -2.9920  0.1270  2.2435
 1745TIP3   OH2 5240   1.052   4.907   2.193 -0.1496 -0.5893 -0.0671
 1745TIP3    H1 5241   1.025   4.966   2.123 -0.8819 -0.1380  0.5759
 1745TIP3    H2 5242   1.089   4.965   2.260 -0.3460 -0.9127  0.3271
 1746TIP3   OH2 5243   2.375   0.033   1.806 -0.5110  0.0034 -0.6652
 1746TIP3    H1 5244   2.449   0.091   1.822  1.9126 -2.2643 -2.6195
 1746TIP3    H2 5245   2.349   0.052   1.716 -0.9966 -0.5719 -0.6518
 1747TIP3   OH2 5246   3.028   5.223   1.163  0.2499  0.7917  0.0779
 1747TIP3    H1 5247   2.974   5.155   1.204 -0.6455  1.3149 -0.1976
 1747TIP3    H2 5248   3.091   5.175   1.109 -0.5301  0.1780 -0.3149
 1748TIP3   OH2 5249   5.128   2.483   1.825  0.4808 -0.2113  0.5375
 1748TIP3    H1 5250   5.096   2.440   1.745 -0.9655  1.6795 -0.0048
 1748TIP3    H2 5251   5.222   2.469   1.824  0.1861 -2.5810 -0.0131
 1749TIP3   OH2 5252   2.139   0.359   4.484  0.6908  0.1565 -0.4726
 1749TIP3    H1 5253   2.207   0.398   4.539  1.7921 -1.8991 -0.2869
 1749TIP3    H2 5254   2.060   0.409   4.504  2.1016  2.6977 -0.7533
 1750TIP3   OH2 5255   5.557   4.077   0.493 -0.4956 -0.3701  0.1079
 1750TIP3    H1 5256   5.591   3.994   0.462 -0.2410 -0.3993  0.4567
 1750TIP3    H2 5257   5.598   4.089   0.579 -0.7780 -0.0423  0.1997
 1751TIP3   OH2 5258   2.076   4.202   3.597 -0.0105 -0.1576 -0.4511
 1751TIP3    H1 5259   2.096   4.273   3.536 -0.1369  0.3346  0.0639
 1751TIP3    H2 5260   1.984   4.181   3.580 -0.7622  1.5659  1.0950
 1752TIP3   OH2 5261   0.444   3.181   3.997  0.0026  0.8448 -0.2502
 1752TIP3    H1 5262   0.378   3.183   4.067 -0.3110 -0.4287 -0.4812
 1752TIP3    H2 5263   0.506   3.114   4.026  0.7640  1.4586 -0.4291
 1753TIP3   OH2 5264   3.794   0.521   3.168 -1.0489  0.1989 -0.2732
 1753TIP3    H1 5265   3.768   0.612   3.154  0.9324  0.8415 -0.1157
 1753TIP3    H2 5266   3.888   0.525   3.182 -0.9941 -1.8374  0.2920
 1754TIP3   OH2 5267   1.017   5.970   4.026 -0.8683  0.4903  0.2307
 1754TIP3    H1 5268   0.931   5.947   4.059 -0.2627  0.0702  1.6075
 1754TIP3    H2 5269   1.036   5.904   3.959 -0.7723 -0.6938  1.3930
 1755TIP3   OH2 5270   3.964   3.992   4.349  0.2381  0.2305  0.1101
 1755TIP3    H1 5271   3.897   4.038   4.298  1.4751  0.6076 -1.2582
 1755TIP3    H2 5272   4.018   3.949   4.283  0.6445 -1.0660  1.2484
 1756TIP3   OH2 5273   1.589   5.767   2.729  0.4901 -0.2085  0.2432
 1756TIP3    H1 5274   1.661   5.707   2.744  0.5882  0.3137  2.0562
 1756TIP3    H2 5275   1.521   5.740   2.791 -0.4679 -0.0377 -0.7003
 1757TIP3   OH2 5276   1.927   2.210   3.065  0.2172  0.7012 -0.2075
 1757TIP3    H1 5277   1.943   2.162   2.984  0.3423  1.7828 -0.8367
 1757TIP3    H2 5278   2.014   2.222   3.104  0.2414  0.8349 -0.3005
 1758TIP3   OH2 5279   0.537   3.544   3.040  0.0456 -0.2559 -0.2374
 1758TIP3    H1 5280   0.444   3.560   3.055  0.3291  1.0947  0.1520
 1758TIP3    H2 5281   0.540   3.508   2.951 -0.8256 -0.1420 -0.3247
 1759TIP3   OH2 5282   1.964   5.232   3.507 -0.5690 -0.3121 -0.1039
 1759TIP3    H1 5283   1.920   5.316   3.514  0.2039  0.0499  0.5379
 1759TIP3    H2 5284   1.893   5.168   3.504 -1.1463  0.2666  0.7620
 1760TIP3   OH2 5285   5.724   5.575   2.670  0.6775  0.0262  0.6003
 1760TIP3    H1 5286   5.794   5.528   2.713 -0.0602  0.5193  2.4305
 1760TIP3    H2 5287   5.648   5.565   2.728 -0.3286  0.8468 -0.5063
 1761TIP3   OH2 5288   5.296   5.871   2.105 -0.4804 -0.3521  0.1031
 1761TIP3    H1 5289   5.263   5.948   2.058 -0.7435  0.1702  1.1119
 1761TIP3    H2 5290   5.333   5.815   2.036  0.9667  1.2832 -0.5264
 1762TIP3   OH2 5291   3.176   4.741   2.583 -0.7152  0.3182 -0.2440
 1762TIP3    H1 5292   3.174   4.648   2.604 -0.0705  0.1800 -0.7728
 1762TIP3    H2 5293   3.210   4.782   2.663 -0.1513  0.0027 -0.3143
 1763TIP3   OH2 5294   4.574   3.655   4.082  0.2334  0.0209  0.1176
 1763TIP3    H1 5295   4.646   3.684   4.136  0.1999  0.1039  0.1176
 1763TIP3    H2 5296   4.532   3.735   4.052 -0.0692 -0.0306  0.4004
 1764TIP3   OH2 5297   0.885   0.581   1.075  0.1967 -0.1967 -0.3261
 1764TIP3    H1 5298   0.974   0.617   1.083 -0.5545  1.4506  1.6336
 1764TIP3    H2 5299   0.844   0.600   1.160 -1.4704 -2.5675 -0.5000
 1765TIP3   OH2 5300   0.630   0.722   2.025  0.0150  0.2438  0.8143
 1765TIP3    H1 5301   0.593   0.640   1.992 -0.2493 -0.1438  2.0214
 1765TIP3    H2 5302   0.673   0.761   1.949 -1.9990  0.2272 -0.4202
 1766TIP3   OH2 5303   3.979   5.248   2.470  0.2690 -0.8402  0.1068
 1766TIP3    H1 5304   3.968   5.155   2.490 -1.4006 -0.7144 -0.0624
 1766TIP3    H2 5305   3.908   5.267   2.408 -0.0692  0.7642  0.9390
 1767TIP3   OH2 5306   2.443   1.057   4.320  0.2556 -0.1150 -0.0788
 1767TIP3    H1 5307   2.509   1.013   4.373 -0.2444 -0.0300  0.6264
 1767TIP3    H2 5308   2.422   0.994   4.252  1.7347  0.2076 -0.8894
 1768TIP3   OH2 5309   3.689   1.002   1.884 -0.3996  0.4305 -0.4608
 1768TIP3    H1 5310   3.598   1.032   1.879 -0.2501  1.2925  1.2571
 1768TIP3    H2 5311   3.712   1.012   1.976  2.1685  2.4549 -1.2163
 1769TIP3   OH2 5312   4.990   1.289   0.725  0.1098 -0.3406 -0.2587
 1769TIP3    H1 5313   4.950   1.350   0.788 -0.4899 -0.1826 -0.7819
 1769TIP3    H2 5314   4.928   1.286   0.653  0.8794 -0.3839 -0.9279
 1770TIP3   OH2 5315   4.323   4.171   2.221 -0.1724 -0.0432  0.1660
 1770TIP3    H1 5316   4.301   4.263   2.205 -0.1725  0.0807  0.8374
 1770TIP3    H2 5317   4.352   4.138   2.136  2.2279  1.2528  0.3794
 1771TIP3   OH2 5318   3.641   2.535   3.804 -0.2110 -0.2299  0.3414
 1771TIP3    H1 5319   3.594   2.464   3.850 -0.2791 -0.0864  0.4951
 1771TIP3    H2 5320   3.649   2.504   3.714 -1.3818  0.1205  0.0897
 1772TIP3   OH2 5321   5.595   5.309   3.059  0.2253  0.6602  0.0025
 1772TIP3    H1 5322   5.501   5.294   3.051  0.1877  0.3929  0.8488
 1772TIP3    H2 5323   5.605   5.354   3.143  0.9028  0.1271  0.2206
 1773TIP3   OH2 5324   5.476   3.330   0.597 -0.1803  0.0244 -0.2065
 1773TIP3    H1 5325   5.503   3.290   0.680  1.5470 -0.6700 -1.0479
 1773TIP3    H2 5326   5.469   3.423   0.616  3.4973  0.3977  0.0402
 1774TIP3   OH2 5327   5.339   0.342   0.739 -0.2353 -0.4605  0.8670
 1774TIP3    H1 5328   5.285   0.420   0.753  1.2866  0.6593  0.7817
 1774TIP3    H2 5329   5.285   0.286   0.683 -0.1813  2.0004 -1.9517
 1775TIP3   OH2 5330   5.012   0.898   0.531 -0.4434  0.0526 -0.0372
 1775TIP3    H1 5331   4.943   0.907   0.465 -0.9712 -1.6773  0.2179
 1775TIP3    H2 5332   5.084   0.857   0.484 -0.6138 -0.6664  0.3170
 1776TIP3   OH2 5333   4.558   0.545   4.261  0.0989 -1.2019  0.3667
 1776TIP3    H1 5334   4.615   0.537   4.185  0.2499 -1.7127  0.5307
 1776TIP3    H2 5335   4.611   0.590   4.327  0.1321 -1.2010  0.3386
 1777TIP3   OH2 5336   1.467   0.145   2.052  0.2324  0.1636  0.1205
 1777TIP3    H1 5337   1.492   0.237   2.062 -0.3840  0.3433  0.0340
 1777TIP3    H2 5338   1.549   0.101   2.027  0.4331  0.7695 -0.3259
 1778TIP3   OH2 5339   0.951   0.538   2.189  0.3317 -0.3846  0.6032
 1778TIP3    H1 5340   0.977   0.458   2.236 -0.6240 -1.4838 -0.6406
 1778TIP3    H2 5341   0.872   0.512   2.141  0.0094  1.3272  0.1506
 1779TIP3   OH2 5342   1.416   1.197   3.809 -0.6033  0.2726 -0.6390
 1779TIP3    H1 5343   1.467   1.253   3.750 -1.1451 -0.0748 -1.4479
 1779TIP3    H2 5344   1.478   1.131   3.839 -0.4998  0.0378 -1.3680
 1780TIP3   OH2 5345   1.326   4.351   0.921 -0.0655  0.4049 -0.4221
 1780TIP3    H1 5346   1.252   4.369   0.979 -0.4045 -0.2164 -0.6602
 1780TIP3    H2 5347   1.395   4.412   0.950 -1.1867  2.1549 -1.2396
 1781TIP3   OH2 5348   6.022   1.554   5.161 -0.1680  0.1598  0.0306
 1781TIP3    H1 5349   6.059   1.466   5.151 -3.6806 -1.6101  1.0585
 1781TIP3    H2 5350   5.958   1.562   5.091 -0.8861  1.3614  0.7875
 1782TIP3   OH2 5351   0.425   4.394   1.561 -0.1889  0.0290  0.1903
 1782TIP3    H1 5352   0.371   4.331   1.513  0.0283  0.3832 -0.5481
 1782TIP3    H2 5353   0.363   4.457   1.596 -0.2606  0.4822 -0.7245
 1783TIP3   OH2 5354   0.933   5.129   3.940  0.0949 -0.0855 -0.3853
 1783TIP3    H1 5355   1.025   5.153   3.931  0.1446  0.3917  1.0815
 1783TIP3    H2 5356   0.906   5.105   3.852  1.5486  0.0202 -0.8958
 1784TIP3   OH2 5357   0.858   1.752   4.670  0.0241 -0.3177  1.0120
 1784TIP3    H1 5358   0.827   1.682   4.726 -1.0713 -0.3541  0.3889
 1784TIP3    H2 5359   0.949   1.729   4.650  0.5521 -0.1384  2.9780
 1785TIP3   OH2 5360   4.608   3.443   0.406  0.3904  0.4849 -0.0580
 1785TIP3    H1 5361   4.677   3.390   0.447  0.8847  0.6054 -0.7137
 1785TIP3    H2 5362   4.529   3.391   0.415  0.0871  1.2057  2.5501
 1786TIP3   OH2 5363   4.529   4.076   1.189 -0.0276  0.1026  0.2043
 1786TIP3    H1 5364   4.434   4.079   1.191 -0.0834 -0.4482 -0.9864
 1786TIP3    H2 5365   4.555   4.073   1.281 -1.1903 -0.6105  0.5248
 1787TIP3   OH2 5366   6.208   5.103   0.888 -0.4266 -0.0909  0.3437
 1787TIP3    H1 5367   6.291   5.102   0.840  0.0298  0.5036  1.1012
 1787TIP3    H2 5368   6.141   5.103   0.819  0.2139  0.4918 -0.2964
 1788TIP3   OH2 5369   3.146   2.992   3.654 -0.2941  0.2619  0.2106
 1788TIP3    H1 5370   3.210   3.021   3.589  1.4041 -2.2437  0.6439
 1788TIP3    H2 5371   3.182   3.020   3.738  1.0212 -2.2343  0.5727
 1789TIP3   OH2 5372   5.230   1.244   0.860  0.1201  0.2562 -0.8495
 1789TIP3    H1 5373   5.216   1.156   0.827 -0.3165 -0.3023  0.7215
 1789TIP3    H2 5374   5.175   1.300   0.805  1.1694 -0.2786 -2.5118
 1790TIP3   OH2 5375   4.302   0.213   1.556  0.4419  0.2793 -0.0869
 1790TIP3    H1 5376   4.364   0.267   1.507 -0.1272  0.1233 -0.9980
 1790TIP3    H2 5377   4.357   0.149   1.601  0.8656 -0.8997 -2.1620
 1791TIP3   OH2 5378   2.271   4.641   0.808  0.6694  0.0036  0.0139
 1791TIP3    H1 5379   2.178   4.652   0.788  0.6392  0.9122  0.5851
 1791TIP3    H2 5380   2.276   4.652   0.903  1.3816  0.1511 -0.0372
 1792TIP3   OH2 5381   3.804   4.528   2.358 -0.4451  0.2662 -0.6234
 1792TIP3    H1 5382   3.768   4.615   2.341 -1.9475 -0.4146 -1.1116
 1792TIP3    H2 5383   3.892   4.544   2.391 -0.7907  1.9744 -0.4640
 1793TIP3   OH2 5384   3.716   2.456   0.520 -0.6060 -0.3018  0.4206
 1793TIP3    H1 5385   3.769   2.392   0.568 -2.3241 -1.2646  1.1147
 1793TIP3    H2 5386   3.695   2.412   0.437  0.1223  0.2979 -0.0926
 1794TIP3   OH2 5387   4.574   5.438   1.631  0.2877  0.2040 -0.1022
 1794TIP3    H1 5388   4.639   5.401   1.571 -0.7245  0.4879 -1.4237
 1794TIP3    H2 5389   4.613   5.521   1.660  1.5912 -0.7899  1.1395
 1795TIP3   OH2 5390   2.160   5.201   3.299  0.0216 -0.3841  0.2465
 1795TIP3    H1 5391   2.098   5.199   3.373  0.2702  0.5366  0.4967
 1795TIP3    H2 5392   2.181   5.294   3.289  0.9391 -0.6330 -0.1912
 1796TIP3   OH2 5393   0.806   1.004   1.535  0.3104 -0.1196 -0.1016
 1796TIP3    H1 5394   0.765   0.955   1.607  0.8403 -0.6959 -0.1793
 1796TIP3    H2 5395   0.752   0.984   1.459  0.0822  0.0320  0.0180
 1797TIP3   OH2 5396   4.429   5.552   3.766  0.6642  0.1224  0.0331
 1797TIP3    H1 5397   4.348   5.539   3.816 -0.7462 -0.0351 -2.1706
 1797TIP3    H2 5398   4.470   5.466   3.765 -0.2042 -0.2966 -0.5550
 1798TIP3   OH2 5399   0.604   0.147   2.153 -0.1746 -0.4163 -0.1317
 1798TIP3    H1 5400   0.669   0.208   2.187  0.8444 -0.3179 -2.1391
 1798TIP3    H2 5401   0.653   0.091   2.092 -1.5999 -1.5701 -0.2718
 1799TIP3   OH2 5402   0.207   3.282   4.802 -0.1234  0.0337  0.2846
 1799TIP3    H1 5403   0.273   3.350   4.815  0.3054 -0.5526  1.3020
 1799TIP3    H2 5404   0.236   3.236   4.724 -0.7695  1.3957 -0.7958
 1800TIP3   OH2 5405   4.031   2.666   0.604  0.0487 -0.4751 -0.0227
 1800TIP3    H1 5406   4.116   2.625   0.617  0.7188  0.8802 -0.0333
 1800TIP3    H2 5407   4.028   2.685   0.510  0.0993  0.2573  0.1229
 1801TIP3   OH2 5408   5.559   4.897   4.443  0.4673  0.2703  0.1307
 1801TIP3    H1 5409   5.548   4.939   4.357 -2.0039  0.2165  0.3485
 1801TIP3    H2 5410   5.589   4.808   4.422 -0.1191  0.2483 -0.6953
 1802TIP3   OH2 5411   3.353   3.987   1.457 -0.3047  0.1093  0.7560
 1802TIP3    H1 5412   3.288   4.026   1.515 -0.5872  0.2685  0.3350
 1802TIP3    H2 5413   3.335   3.893   1.462 -1.2665  0.2316 -0.1835
 1803TIP3   OH2 5414   0.560   0.584   5.096  0.1234  0.2233 -0.0470
 1803TIP3    H1 5415   0.621   0.602   5.167  0.1195  2.2617 -0.5024
 1803TIP3    H2 5416   0.566   0.660   5.039 -1.0253 -0.6564 -1.4285
 1804TIP3   OH2 5417   6.017   0.957   4.030  0.2811  0.0139 -0.5376
 1804TIP3    H1 5418   5.980   1.045   4.044 -0.2429 -0.4101  0.9303
 1804TIP3    H2 5419   6.107   0.964   4.061  1.2003  0.7544 -3.1029
 1805TIP3   OH2 5420   2.793   1.026   4.255 -0.7097  0.2121 -0.3768
 1805TIP3    H1 5421   2.828   1.115   4.262 -1.9345  0.7451 -0.7831
 1805TIP3    H2 5422   2.859   0.978   4.204  1.7024 -0.1289  2.7780
 1806TIP3   OH2 5423   1.077   1.051   3.003  0.1927 -0.6372  0.5163
 1806TIP3    H1 5424   1.105   1.116   3.067 -1.4097  0.4796  0.1362
 1806TIP3    H2 5425   1.043   0.978   3.056  0.0342 -0.2609  0.9371
 1807TIP3   OH2 5426   4.938   5.520   5.148  0.3540  0.0978  0.2460
 1807TIP3    H1 5427   4.844   5.540   5.146  0.3405  0.1255  0.9601
 1807TIP3    H2 5428   4.959   5.511   5.241  0.9359 -0.5077  0.0653
 1808TIP3   OH2 5429   1.766   3.526   2.252 -0.3480  0.1057  0.1482
 1808TIP3    H1 5430   1.755   3.519   2.346  0.5577  1.8502  0.4173
 1808TIP3    H2 5431   1.677   3.529   2.217 -0.6971  0.5915  1.0559
 1809TIP3   OH2 5432   1.735   0.530   4.963 -0.5935  0.0734  0.5963
 1809TIP3    H1 5433   1.826   0.513   4.986 -0.3346 -1.4683 -1.3261
 1809TIP3    H2 5434   1.690   0.446   4.976 -1.2965  0.2744 -0.3832
 1810TIP3   OH2 5435   0.778   2.730   3.774  0.1416  0.5039 -0.3742
 1810TIP3    H1 5436   0.830   2.688   3.841 -0.9774 -1.6722 -0.7588
 1810TIP3    H2 5437   0.805   2.822   3.775  2.8041 -0.2108  0.4610
 1811TIP3   OH2 5438   0.704   1.730   1.570 -0.4076  0.2155  0.2915
 1811TIP3    H1 5439   0.796   1.754   1.560  0.0139 -1.4954 -0.3857
 1811TIP3    H2 5440   0.671   1.789   1.637  1.0525  1.1812  0.2197
 1812TIP3   OH2 5441   2.246   1.368   4.640  0.7714 -0.1380 -0.0616
 1812TIP3    H1 5442   2.256   1.353   4.547 -0.5745 -2.1408  0.0536
 1812TIP3    H2 5443   2.189   1.446   4.646  1.4004  0.3982 -0.8720
 1813TIP3   OH2 5444   5.532   3.640   3.774 -0.0821 -0.0671  0.2997
 1813TIP3    H1 5445   5.605   3.585   3.802 -2.0438 -1.5264  3.0087
 1813TIP3    H2 5446   5.507   3.604   3.689  0.2229 -1.8023  0.8983
 1814TIP3   OH2 5447   5.854   3.471   3.525 -0.8665  0.5711 -0.0370
 1814TIP3    H1 5448   5.899   3.450   3.443 -3.2522  0.5241 -1.4407
 1814TIP3    H2 5449   5.840   3.566   3.521 -0.6705  0.6280  0.5173
 1815TIP3   OH2 5450   2.472   0.238   4.086  0.4522 -0.0751 -0.3061
 1815TIP3    H1 5451   2.436   0.324   4.064 -0.9537 -0.2665  1.0759
 1815TIP3    H2 5452   2.480   0.239   4.181  1.3948 -1.1251 -0.3504
 1816TIP3   OH2 5453   3.822   0.300   4.461  0.1563  0.2496 -0.6203
 1816TIP3    H1 5454   3.801   0.238   4.391  0.6606 -1.1879  0.4336
 1816TIP3    H2 5455   3.905   0.268   4.497 -0.5653  0.3315  1.2534
 1817TIP3   OH2 5456   0.727   1.862   3.031 -0.3608 -0.1034 -0.3177
 1817TIP3    H1 5457   0.759   1.856   3.121 -0.0922 -0.7269 -0.4448
 1817TIP3    H2 5458   0.807   1.864   2.978 -0.5133 -1.4058 -0.6301
 1818TIP3   OH2 5459   1.330   3.545   1.399  0.1543 -0.1312 -0.0332
 1818TIP3    H1 5460   1.285   3.537   1.315 -1.1706  1.1608  0.4988
 1818TIP3    H2 5461   1.311   3.463   1.444  2.0797 -1.4632 -1.4763
 1819TIP3   OH2 5462   0.122   4.965   4.392  0.8172 -0.0295  0.5025
 1819TIP3    H1 5463   0.130   5.000   4.481 -0.3970  0.1618  0.5507
 1819TIP3    H2 5464   0.172   4.884   4.394 -1.3035 -1.4012  2.1367
 1820TIP3   OH2 5465   4.554   5.351   0.447 -0.2301 -0.4270 -0.3613
 1820TIP3    H1 5466   4.635   5.304   0.465 -0.6151 -1.0046 -0.1021
 1820TIP3    H2 5467   4.533   5.329   0.357 -1.4205 -2.3447  0.3297
 1821TIP3   OH2 5468   1.263   4.109   4.383  0.1032  0.1528  0.4840
 1821TIP3    H1 5469   1.246   4.202   4.365  1.2509  0.5123  1.1384
 1821TIP3    H2 5470   1.298   4.109   4.472  2.6040 -0.5924 -0.4372
 1822TIP3   OH2 5471   1.984   5.067   0.785 -0.3509  0.2618 -0.0897
 1822TIP3    H1 5472   2.032   5.001   0.734 -0.8177 -0.1995  0.0600
 1822TIP3    H2 5473   1.987   5.146   0.731 -1.7706 -0.5095 -1.3480
 1823TIP3   OH2 5474   2.199   3.420   0.841 -0.8058 -0.1007 -0.3211
 1823TIP3    H1 5475   2.249   3.493   0.877 -2.0247  0.3022  0.6311
 1823TIP3    H2 5476   2.179   3.365   0.917 -1.7944 -0.2372 -0.6662
 1824TIP3   OH2 5477   2.337   4.215   1.547 -0.0313 -0.1444  0.3938
 1824TIP3    H1 5478   2.246   4.242   1.541  0.6603  2.3349 -0.1082
 1824TIP3    H2 5479   2.363   4.196   1.457  0.3611  0.7640  0.3031
 1825TIP3   OH2 5480   6.209   4.933   4.690 -0.0871  0.5117 -0.2294
 1825TIP3    H1 5481   6.273   5.000   4.713  1.1477 -0.0961 -1.7514
 1825TIP3    H2 5482   6.173   4.905   4.774  1.0727  1.4137  0.6069
 1826TIP3   OH2 5483   1.563   1.937   0.883 -0.2627 -0.3442 -0.5727
 1826TIP3    H1 5484   1.572   1.957   0.790  0.5674 -0.6980 -0.5756
 1826TIP3    H2 5485   1.515   1.854   0.885  1.4671 -1.3882 -0.7746
 1827TIP3   OH2 5486   5.362   0.667   0.973 -0.0624  0.3082  0.3986
 1827TIP3    H1 5487   5.351   0.735   1.039 -0.5980  1.1068 -0.4968
 1827TIP3    H2 5488   5.418   0.706   0.906 -1.0107  0.1666 -0.5029
 1828TIP3   OH2 5489   5.011   5.507   3.892 -0.3065  0.0719 -0.8487
 1828TIP3    H1 5490   5.046   5.552   3.968  0.3664 -1.3859 -0.2502
 1828TIP3    H2 5491   4.989   5.419   3.924 -0.9820 -0.2481 -2.1023
 1829TIP3   OH2 5492   2.263   0.085   2.502 -0.2240  0.0895 -0.4105
 1829TIP3    H1 5493   2.232   0.024   2.569  1.9645  0.1354  0.7031
 1829TIP3    H2 5494   2.348   0.051   2.476 -1.0117  0.0416 -3.2736
 1830TIP3   OH2 5495   1.261   0.197   2.944  0.1566  0.5191  0.2250
 1830TIP3    H1 5496   1.192   0.164   2.887  0.3357 -2.3278  1.5156
 1830TIP3    H2 5497   1.224   0.277   2.981 -1.8198 -0.0917 -0.2891
 1831TIP3   OH2 5498   0.854   1.988   2.153  0.4553  0.0092 -0.0770
 1831TIP3    H1 5499   0.889   2.075   2.172  1.8048 -0.4786 -0.2007
 1831TIP3    H2 5500   0.845   1.945   2.238 -1.5300  0.7019  0.1234
 1832TIP3   OH2 5501   2.479   3.302   4.695 -0.2988  0.0681 -0.4226
 1832TIP3    H1 5502   2.487   3.216   4.735 -0.7490  0.4479  0.5488
 1832TIP3    H2 5503   2.387   3.325   4.708 -0.1675  0.7135 -0.6055
 1833TIP3   OH2 5504   2.897   5.228   0.085  0.8177 -0.4813  0.0360
 1833TIP3    H1 5505   2.821   5.170   0.078  0.7635 -0.8720  2.7542
 1833TIP3    H2 5506   2.864   5.315   0.063 -0.6874 -0.5212  1.8596
 1834TIP3   OH2 5507   5.376   4.041   4.274 -0.1181 -0.0828  0.2480
 1834TIP3    H1 5508   5.450   4.102   4.273 -1.2874  1.4117 -0.0619
 1834TIP3    H2 5509   5.299   4.098   4.275 -1.2760 -1.5816 -0.1512
 1835TIP3   OH2 5510   1.975   1.198   4.170  0.3514  0.5067 -0.6610
 1835TIP3    H1 5511   2.000   1.189   4.262 -2.2724  0.4524  0.1345
 1835TIP3    H2 5512   1.999   1.287   4.148 -0.5522  1.1257  0.6710
 1836TIP3   OH2 5513   2.495   1.325   0.387 -0.8441  0.3623  0.9660
 1836TIP3    H1 5514   2.442   1.281   0.321  0.3352  0.6458 -0.2018
 1836TIP3    H2 5515   2.505   1.260   0.457  2.2007 -1.9770 -1.3979
 1837TIP3   OH2 5516   0.447   2.886   3.434  0.3919  0.1822 -0.0481
 1837TIP3    H1 5517   0.386   2.827   3.391  1.8807 -2.1198  0.7758
 1837TIP3    H2 5518   0.470   2.950   3.367  0.3201 -1.4711 -1.7562
 1838TIP3   OH2 5519   2.611   4.545   0.308 -0.2185 -0.4938 -0.1279
 1838TIP3    H1 5520   2.586   4.551   0.216 -2.8483  1.5866  0.5684
 1838TIP3    H2 5521   2.528   4.552   0.356  1.1454 -0.2498  2.4107
 1839TIP3   OH2 5522   4.533   5.280   2.428  1.0029  0.8817 -0.2615
 1839TIP3    H1 5523   4.488   5.221   2.488  2.1355  0.6583  0.4096
 1839TIP3    H2 5524   4.479   5.282   2.349  0.7067 -0.7040 -0.1236
 1840TIP3   OH2 5525   3.206   0.800   2.755 -0.1354  0.5809  0.0513
 1840TIP3    H1 5526   3.211   0.836   2.844  1.3783  0.7556 -0.0669
 1840TIP3    H2 5527   3.245   0.868   2.700  2.0846 -0.8332 -0.2837
 1841TIP3   OH2 5528   0.588   2.675   0.520  0.7711 -0.0839 -0.3664
 1841TIP3    H1 5529   0.533   2.608   0.480 -0.6985  0.4328  0.6985
 1841TIP3    H2 5530   0.646   2.627   0.579 -0.8263 -0.3957  1.0154
 1842TIP3   OH2 5531   5.653   1.462   2.246 -0.0193  0.1653 -0.0868
 1842TIP3    H1 5532   5.743   1.438   2.225  0.0724 -2.4580  2.7535
 1842TIP3    H2 5533   5.600   1.410   2.186  0.2427  1.6431 -1.6982
 1843TIP3   OH2 5534   3.920   5.006   2.531 -0.2817 -0.2772  0.0892
 1843TIP3    H1 5535   3.967   4.962   2.460  0.6790  0.1934  0.4133
 1843TIP3    H2 5536   3.916   4.940   2.601 -0.3819 -0.4239 -0.0545
 1844TIP3   OH2 5537   1.066   5.513   3.552  0.2503 -0.0602  0.2943
 1844TIP3    H1 5538   0.985   5.533   3.505  0.3562 -0.6347 -0.1437
 1844TIP3    H2 5539   1.125   5.584   3.530  0.1958 -0.1643 -0.1864
 1845TIP3   OH2 5540   3.364   1.453   4.785  0.7320  0.8497 -0.2101
 1845TIP3    H1 5541   3.437   1.496   4.831  0.3459  0.0087  1.2587
 1845TIP3    H2 5542   3.291   1.457   4.847 -0.0445  0.3624 -1.0715
 1846TIP3   OH2 5543   2.811   0.919   2.524  0.2762  0.2206 -0.1129
 1846TIP3    H1 5544   2.890   0.889   2.478  0.9827  0.1786  1.0915
 1846TIP3    H2 5545   2.809   0.867   2.604 -2.0101 -1.1017 -0.9339
 1847TIP3   OH2 5546   0.745   2.170   2.796  0.0448 -0.1743  0.1528
 1847TIP3    H1 5547   0.718   2.240   2.737 -0.5788 -0.1137  0.4946
 1847TIP3    H2 5548   0.820   2.206   2.843  1.4308 -0.7124 -1.5329
 1848TIP3   OH2 5549   2.671   2.097   2.804 -0.0416  0.0772  0.0030
 1848TIP3    H1 5550   2.726   2.052   2.741 -1.8637  0.4476 -1.9546
 1848TIP3    H2 5551   2.582   2.066   2.785 -0.6690 -0.0279  2.6135
 1849TIP3   OH2 5552   1.221   4.805   1.635 -0.1867 -0.6664  0.5546
 1849TIP3    H1 5553   1.173   4.871   1.585  1.0190 -0.1913 -0.0066
 1849TIP3    H2 5554   1.219   4.727   1.580 -0.9984 -0.9089  0.9035
 1850TIP3   OH2 5555   4.977   4.411   1.196 -0.2157 -0.0308 -0.1144
 1850TIP3    H1 5556   5.026   4.477   1.148  1.0733 -1.1773 -0.4362
 1850TIP3    H2 5557   5.033   4.333   1.193 -1.2181 -0.8310  1.1442
 1851TIP3   OH2 5558   4.738   5.369   2.102  0.9975 -0.4278 -0.1953
 1851TIP3    H1 5559   4.756   5.362   2.196 -0.5308 -1.3858  0.0647
 1851TIP3    H2 5560   4.664   5.429   2.096  0.2583 -1.3570 -0.6566
 1852TIP3   OH2 5561   4.023   5.554   4.896  1.0440 -0.0159 -0.2984
 1852TIP3    H1 5562   4.056   5.469   4.867  2.4497  0.5240 -0.3763
 1852TIP3    H2 5563   4.088   5.617   4.864  0.2169  1.0492  0.0727
 1853TIP3   OH2 5564   0.515   5.501   3.610  0.2240  0.8460 -0.0070
 1853TIP3    H1 5565   0.540   5.590   3.636  0.9641  0.7928 -0.4970
 1853TIP3    H2 5566   0.420   5.501   3.613  0.1618  2.0428 -1.1927
 1854TIP3   OH2 5567   5.305   3.261   4.846  0.0476 -0.0559  0.1498
 1854TIP3    H1 5568   5.238   3.290   4.785  1.6226 -0.2266 -1.7910
 1854TIP3    H2 5569   5.344   3.341   4.880  1.3841  0.1842 -1.7430
 1855TIP3   OH2 5570   3.658   1.707   0.448 -0.1330 -0.0111 -0.0228
 1855TIP3    H1 5571   3.644   1.649   0.373  0.0240  0.2904 -0.2818
 1855TIP3    H2 5572   3.609   1.665   0.519 -2.7802  1.2123 -0.9869
 1856TIP3   OH2 5573   6.111   4.297   4.985  0.5258  0.3565 -0.4377
 1856TIP3    H1 5574   6.093   4.377   4.935 -1.0993  0.1411 -0.2418
 1856TIP3    H2 5575   6.207   4.291   4.986  0.6412  0.8503 -2.7543
 1857TIP3   OH2 5576   5.620   4.944   2.507 -0.1108 -0.0190  0.1129
 1857TIP3    H1 5577   5.535   4.901   2.507 -0.0263 -0.2397  1.7443
 1857TIP3    H2 5578   5.636   4.966   2.415 -1.1801 -1.4300 -0.4434
 1858TIP3   OH2 5579   3.930   2.914   4.882 -0.1902  0.0385 -0.7353
 1858TIP3    H1 5580   3.991   2.860   4.931 -0.4023  0.1992 -0.2852
 1858TIP3    H2 5581   3.906   2.861   4.806  1.3312  0.3885 -1.5097
 1859TIP3   OH2 5582   1.082   2.214   0.524 -0.5672 -0.5802 -0.4101
 1859TIP3    H1 5583   1.122   2.187   0.607 -0.7099  0.7423  0.1104
 1859TIP3    H2 5584   1.152   2.203   0.459 -0.0723 -0.4843  0.0957
 1860TIP3   OH2 5585   1.130   4.895   4.043  0.0891  0.8175 -0.7154
 1860TIP3    H1 5586   1.048   4.884   4.091  1.2450 -0.0672  1.1971
 1860TIP3    H2 5587   1.198   4.890   4.111  1.7139  2.0291 -2.1519
 1861TIP3   OH2 5588   3.753   0.007   1.040  0.3483 -0.4582  0.4605
 1861TIP3    H1 5589   3.744   0.101   1.023 -1.9758 -1.0998 -3.3230
 1861TIP3    H2 5590   3.822  -0.021   0.981 -0.7252 -1.4156 -0.3896
 1862TIP3   OH2 5591   3.784   3.118   2.871 -0.6893 -0.8346 -0.0543
 1862TIP3    H1 5592   3.845   3.129   2.798 -0.7568  0.1923  0.0274
 1862TIP3    H2 5593   3.832   3.149   2.947 -0.7594 -1.5329  0.2813
 1863TIP3   OH2 5594   0.947   4.499   2.640 -0.5093  0.0132 -0.0287
 1863TIP3    H1 5595   1.041   4.502   2.622  0.0478 -1.4987  2.2249
 1863TIP3    H2 5596   0.938   4.548   2.722 -1.1639 -2.2707  1.3537
 1864TIP3   OH2 5597   2.140   2.359   4.129 -0.0611 -0.2613  1.1869
 1864TIP3    H1 5598   2.055   2.401   4.131 -0.0559 -0.1742 -0.0080
 1864TIP3    H2 5599   2.121   2.265   4.129 -0.0767 -0.3241  3.6035
 1865TIP3   OH2 5600   4.838   4.126   1.356 -0.3516 -0.2042  0.5092
 1865TIP3    H1 5601   4.895   4.197   1.326  0.7167  0.2851  3.3226
 1865TIP3    H2 5602   4.881   4.046   1.326 -0.8955  0.2318 -1.6140
 1866TIP3   OH2 5603   3.614   2.027   1.177  0.3575 -0.3561 -0.3953
 1866TIP3    H1 5604   3.628   1.974   1.256  2.3419  1.4869  0.6038
 1866TIP3    H2 5605   3.534   2.076   1.195  0.1737 -0.7890 -0.0133
 1867TIP3   OH2 5606   6.145   1.523   1.937 -0.1936 -0.2256 -0.4678
 1867TIP3    H1 5607   6.197   1.599   1.964  0.0564 -0.3632 -0.5605
 1867TIP3    H2 5608   6.154   1.520   1.842 -0.4781 -0.1751 -0.4986
 1868TIP3   OH2 5609   2.403   4.282   2.925  0.0319 -0.0427  0.2015
 1868TIP3    H1 5610   2.425   4.300   3.016  2.1244 -1.5524  0.0409
 1868TIP3    H2 5611   2.474   4.322   2.874 -1.1350  0.8429 -0.8271
 1869TIP3   OH2 5612   5.998   0.509   2.227  0.6087  0.1101 -0.1048
 1869TIP3    H1 5613   5.981   0.587   2.174  1.0398  0.8960  0.8841
 1869TIP3    H2 5614   5.935   0.514   2.298 -0.9180 -1.6749 -1.2281
 1870TIP3   OH2 5615   4.068   3.989   1.428  0.0500  0.4951  0.4371
 1870TIP3    H1 5616   4.056   3.927   1.500  0.0838 -1.1228 -0.8908
 1870TIP3    H2 5617   3.988   4.042   1.428 -1.4710 -1.6859 -0.3650
 1871TIP3   OH2 5618   1.310   0.334   3.952 -0.1131 -0.3334  0.5409
 1871TIP3    H1 5619   1.290   0.247   3.987  0.2707 -0.8104 -0.3914
 1871TIP3    H2 5620   1.326   0.388   4.030  0.4082 -1.2829  1.1145
 1872TIP3   OH2 5621   5.880   3.515   4.754  0.2178 -0.2082  0.0404
 1872TIP3    H1 5622   5.899   3.582   4.688 -0.0770  0.5872  0.7441
 1872TIP3    H2 5623   5.835   3.563   4.824  1.0587 -0.9286  1.0929
 1873TIP3   OH2 5624   5.806   2.793   0.184 -0.2391 -0.8044 -0.6539
 1873TIP3    H1 5625   5.861   2.773   0.108 -0.3998  0.5257 -1.1522
 1873TIP3    H2 5626   5.847   2.746   0.257  2.1740  0.8861 -0.7987
 1874TIP3   OH2 5627   1.847   1.273   2.586  0.2013  0.2613  0.2376
 1874TIP3    H1 5628   1.808   1.329   2.654 -0.8173 -0.9316  0.6851
 1874TIP3    H2 5629   1.798   1.191   2.592  0.7384 -0.2068 -1.3190
 1875TIP3   OH2 5630   1.818   2.845   3.350  0.2382  0.7237 -0.2233
 1875TIP3    H1 5631   1.891   2.888   3.394  0.2963 -0.1609  0.5816
 1875TIP3    H2 5632   1.857   2.768   3.309 -0.4808 -0.8451  1.8239
 1876TIP3   OH2 5633   4.341   1.758   0.741 -0.2782 -0.2995  0.3182
 1876TIP3    H1 5634   4.267   1.700   0.763 -0.5256 -0.7452 -1.5327
 1876TIP3    H2 5635   4.324   1.838   0.791 -1.5773 -0.7137  0.5855
 1877TIP3   OH2 5636   4.739   1.715   1.021  0.5265 -0.0250  0.2476
 1877TIP3    H1 5637   4.716   1.808   1.010  1.8356  0.4746  1.4196
 1877TIP3    H2 5638   4.657   1.669   1.010  0.0064  1.1764 -1.3778
 1878TIP3   OH2 5639   5.799   0.098   0.043  0.1782  0.0264  0.1299
 1878TIP3    H1 5640   5.883   0.053   0.052  1.1351  1.7366  0.3344
 1878TIP3    H2 5641   5.816   0.167  -0.022 -1.4978 -0.5091 -0.9313
 1879TIP3   OH2 5642   6.295   5.587   2.913  0.1581 -0.6354 -0.1414
 1879TIP3    H1 5643   6.360   5.614   2.847  0.1371 -1.7310 -0.6314
 1879TIP3    H2 5644   6.293   5.659   2.975  0.0116  0.5562 -1.4658
 1880TIP3   OH2 5645   4.539   0.668   4.584  0.3268 -0.5344 -0.3487
 1880TIP3    H1 5646   4.459   0.666   4.532  0.2078 -1.3182 -0.1472
 1880TIP3    H2 5647   4.610   0.669   4.519  0.1618 -0.2071 -0.5257
 1881TIP3   OH2 5648   3.480   2.249   3.391 -0.2884  0.3495 -0.1427
 1881TIP3    H1 5649   3.407   2.232   3.331  0.2661 -0.4937 -0.5991
 1881TIP3    H2 5650   3.553   2.197   3.356  0.4386  0.9123  0.4940
 1882TIP3   OH2 5651   6.313   4.398   1.119 -0.7136  0.6335 -0.8724
 1882TIP3    H1 5652   6.390   4.437   1.077 -0.5570 -0.1028 -1.2752
 1882TIP3    H2 5653   6.239   4.436   1.073 -0.6458  2.1248  0.1763
 1883TIP3   OH2 5654   0.953   2.207   1.044  0.0314 -0.1713 -0.3188
 1883TIP3    H1 5655   1.023   2.258   1.003  0.3027  0.4771  0.8951
 1883TIP3    H2 5656   0.950   2.125   0.995  1.5456 -0.1553 -0.4674
 1884TIP3   OH2 5657   0.502   0.541   0.800 -0.2023  0.3444 -0.1111
 1884TIP3    H1 5658   0.554   0.508   0.873 -1.4676 -1.6192 -0.0175
 1884TIP3    H2 5659   0.456   0.617   0.836  1.0096  0.8565  0.3998
 1885TIP3   OH2 5660   5.926   0.532   0.881 -0.4206  0.5325  0.0818
 1885TIP3    H1 5661   6.011   0.494   0.856 -1.2017 -0.4963 -1.1140
 1885TIP3    H2 5662   5.932   0.623   0.854  0.0337  0.2817 -0.7011
 1886TIP3   OH2 5663   2.835   1.722   3.689 -0.4931  0.2043  0.0475
 1886TIP3    H1 5664   2.817   1.810   3.721 -0.9575  0.2338 -0.2882
 1886TIP3    H2 5665   2.925   1.705   3.717 -0.6691  0.4727  0.8088
 1887TIP3   OH2 5666   1.355   2.421   3.990  0.0093 -0.2605  0.4928
 1887TIP3    H1 5667   1.343   2.326   3.996 -1.2862 -0.0492  2.1756
 1887TIP3    H2 5668   1.298   2.448   3.917  1.5613 -0.9061 -1.0088
 1888TIP3   OH2 5669   6.353   3.460   1.044  0.1322 -0.1507 -0.3187
 1888TIP3    H1 5670   6.361   3.404   0.967 -1.1408 -1.8627  0.7255
 1888TIP3    H2 5671   6.271   3.432   1.085  0.2813  1.4059  1.1219
 1889TIP3   OH2 5672   5.880   2.069   5.117 -0.4805  0.2389 -0.4524
 1889TIP3    H1 5673   5.895   1.980   5.087  1.5205  0.6546 -0.8037
 1889TIP3    H2 5674   5.946   2.083   5.185 -0.6796  1.5047 -0.4972
 1890TIP3   OH2 5675   1.946   2.925   2.161 -0.1707  0.6444 -0.5252
 1890TIP3    H1 5676   1.972   2.880   2.080 -0.0971  0.5156 -0.4299
 1890TIP3    H2 5677   1.854   2.903   2.172 -0.1680  0.6219 -0.5481
 1891TIP3   OH2 5678   3.858   1.554   0.984 -0.2332 -0.2870  0.3362
 1891TIP3    H1 5679   3.816   1.638   1.005 -0.5427 -0.6069  1.0370
 1891TIP3    H2 5680   3.828   1.495   1.053  1.3803 -0.5273  0.8742
 1892TIP3   OH2 5681   1.602   1.438   2.629  0.6284 -0.5134 -0.0206
 1892TIP3    H1 5682   1.583   1.344   2.635 -2.0574  0.0126  1.8700
 1892TIP3    H2 5683   1.571   1.464   2.542 -1.1179 -0.9708  0.4317
 1893TIP3   OH2 5684   4.046   5.713   4.535 -0.4515 -0.3990  0.0030
 1893TIP3    H1 5685   4.130   5.755   4.519  0.2735 -1.5267  0.7261
 1893TIP3    H2 5686   3.985   5.785   4.549  0.9467  0.4639  2.1891
 1894TIP3   OH2 5687  -0.006   2.457   4.265  0.1117  0.6961 -0.3863
 1894TIP3    H1 5688   0.087   2.439   4.259  0.5540  2.9815 -1.1841
 1894TIP3    H2 5689  -0.025   2.514   4.191 -1.7794  0.9198  0.2004
 1895TIP3   OH2 5690   6.322   1.127   0.933  0.2184  0.3073  0.1299
 1895TIP3    H1 5691   6.315   1.170   1.018 -0.7850 -1.4202  0.9736
 1895TIP3    H2 5692   6.336   1.199   0.871 -1.1275  1.8285  1.4819
 1896TIP3   OH2 5693   0.915   4.908   4.463  0.2303  0.7236  0.0205
 1896TIP3    H1 5694   0.918   4.846   4.536  1.6657  2.3749  1.4550
 1896TIP3    H2 5695   1.007   4.915   4.434 -0.3587 -0.2836 -2.3562
 1897TIP3   OH2 5696   0.411   5.776   4.934  0.5361  0.0500 -0.1882
 1897TIP3    H1 5697   0.357   5.823   4.870 -1.8767 -0.7472  1.1216
 1897TIP3    H2 5698   0.389   5.816   5.018  0.6860 -1.4479  0.5968
 1898TIP3   OH2 5699   0.076   0.432   4.760  0.1055  0.8229 -0.0711
 1898TIP3    H1 5700   0.053   0.423   4.852  2.4627  0.3418  0.5354
 1898TIP3    H2 5701   0.163   0.472   4.761 -0.4260  2.2248 -2.1555
 1899TIP3   OH2 5702   0.262   0.582   3.584 -0.1122 -0.0919 -0.1622
 1899TIP3    H1 5703   0.191   0.532   3.624 -1.9174  1.6795 -0.9946
 1899TIP3    H2 5704   0.284   0.533   3.505  0.4795 -1.2945  0.7163
 1900TIP3   OH2 5705   3.712   0.815   2.451 -0.3576  0.4387  0.3237
 1900TIP3    H1 5706   3.649   0.803   2.380 -0.7114  0.0934  0.6856
 1900TIP3    H2 5707   3.663   0.858   2.521  0.3607  2.0986 -0.1561
 1901TIP3   OH2 5708   5.145   5.571   4.555 -0.6017 -0.4032  0.0255
 1901TIP3    H1 5709   5.061   5.602   4.523  0.3463  1.3036 -0.9632
 1901TIP3    H2 5710   5.208   5.595   4.487  0.9180 -0.2484  1.3989
 1902TIP3   OH2 5711   1.505   3.505   1.847  0.4392  0.0905 -0.2808
 1902TIP3    H1 5712   1.456   3.520   1.927  1.1254  0.7705  0.0219
 1902TIP3    H2 5713   1.579   3.565   1.852  1.9425 -1.6828 -0.2074
 1903TIP3   OH2 5714   2.618   5.727   4.235  0.1569  0.3026 -0.0243
 1903TIP3    H1 5715   2.695   5.780   4.255  0.8105 -0.0846 -1.3899
 1903TIP3    H2 5716   2.644   5.674   4.160  0.1140 -3.2342  2.2428
 1904TIP3   OH2 5717   3.754   3.263   4.887  0.3439 -0.3225 -0.0976
 1904TIP3    H1 5718   3.765   3.175   4.923  0.7077 -0.4756 -0.5687
 1904TIP3    H2 5719   3.677   3.256   4.831  0.8258 -0.5390 -0.7361
 1905TIP3   OH2 5720   1.007   3.544   1.135  0.4207 -0.3951 -0.6728
 1905TIP3    H1 5721   0.996   3.639   1.137  1.7157 -0.2331 -0.2788
 1905TIP3    H2 5722   0.919   3.509   1.145  0.0662  0.7597  0.3875
 1906TIP3   OH2 5723   2.775   5.760   3.148 -0.1925  0.2314  0.5113
 1906TIP3    H1 5724   2.746   5.686   3.200 -0.3233  0.1900  0.3821
 1906TIP3    H2 5725   2.720   5.757   3.069 -0.5751  0.7736  0.7461
 1907TIP3   OH2 5726   0.949   3.889   1.939 -0.3224  0.3513 -0.3476
 1907TIP3    H1 5727   1.030   3.867   1.893 -1.1925 -1.1659 -1.2584
 1907TIP3    H2 5728   0.972   3.888   2.032  0.2286 -2.4812 -0.4333
 1908TIP3   OH2 5729   4.025   3.139   1.827  0.2816  0.3181 -0.1320
 1908TIP3    H1 5730   4.066   3.098   1.903  1.1433  1.6229  0.1474
 1908TIP3    H2 5731   3.933   3.112   1.832  0.3775  0.1503  1.2164
 1909TIP3   OH2 5732   3.121   0.432   4.163 -0.7297 -0.0524  0.4478
 1909TIP3    H1 5733   3.087   0.346   4.187  0.8422 -0.7044  0.4820
 1909TIP3    H2 5734   3.108   0.437   4.068 -1.4139 -0.0398  0.5371
 1910TIP3   OH2 5735   4.187   1.138   4.557 -0.1178 -0.2690 -0.0998
 1910TIP3    H1 5736   4.209   1.114   4.467 -1.0937  0.4176 -0.5402
 1910TIP3    H2 5737   4.092   1.128   4.562 -0.0007 -1.0759  1.1041
 1911TIP3   OH2 5738   0.702   5.767   3.964 -0.8448 -0.4171  0.2979
 1911TIP3    H1 5739   0.678   5.853   3.930  0.5662 -0.0203  0.2392
 1911TIP3    H2 5740   0.680   5.771   4.057 -0.8777 -0.0326  0.2733
 1912TIP3   OH2 5741   5.673   5.997   4.963  0.0457 -0.2873  0.0724
 1912TIP3    H1 5742   5.577   5.994   4.972  0.1134 -0.5192  0.7444
 1912TIP3    H2 5743   5.691   5.947   4.883 -0.3056 -1.3158  0.6184
 1913TIP3   OH2 5744   4.784   0.422   0.576 -0.2495 -0.0085 -0.3370
 1913TIP3    H1 5745   4.741   0.431   0.662  0.5020 -1.5127  0.2279
 1913TIP3    H2 5746   4.839   0.500   0.570 -1.1720  0.7024  0.0177
 1914TIP3   OH2 5747   1.116   5.583   5.017 -0.0282 -0.2828 -0.0043
 1914TIP3    H1 5748   1.050   5.552   5.078  0.1995 -2.7105 -0.8713
 1914TIP3    H2 5749   1.080   5.561   4.930  1.1136 -0.0295 -0.5585
 1915TIP3   OH2 5750   5.756   3.880   4.421  0.3973 -0.1119  0.6843
 1915TIP3    H1 5751   5.767   3.970   4.451  2.6139  0.4104 -1.3934
 1915TIP3    H2 5752   5.832   3.834   4.454 -0.2649 -1.0329  0.9727
 1916TIP3   OH2 5753   3.169   3.880   4.794 -0.1950 -0.6714  0.8560
 1916TIP3    H1 5754   3.079   3.882   4.762 -1.0341 -0.6985  3.0401
 1916TIP3    H2 5755   3.176   3.797   4.841  1.4703 -1.3726 -0.5340
 1917TIP3   OH2 5756   4.506   0.830   3.699 -0.0495  0.5819  0.0547
 1917TIP3    H1 5757   4.524   0.900   3.762  1.7206 -1.6138  2.1751
 1917TIP3    H2 5758   4.434   0.780   3.738  0.0656  0.0369 -0.4099
 1918TIP3   OH2 5759   3.864   5.444   2.896 -0.4195  0.1052 -0.7131
 1918TIP3    H1 5760   3.923   5.432   2.821  0.4210 -0.4911  0.0158
 1918TIP3    H2 5761   3.918   5.487   2.963 -1.2309  0.8596 -0.5299
 1919TIP3   OH2 5762   4.335   0.804   0.652  0.6320  0.3823 -0.4528
 1919TIP3    H1 5763   4.250   0.785   0.612  0.1515  0.1511  0.6302
 1919TIP3    H2 5764   4.334   0.899   0.666  0.0855  0.2468  0.5336
 1920TIP3   OH2 5765   4.997   0.928   1.301  0.4592 -0.3951 -0.4905
 1920TIP3    H1 5766   5.034   0.847   1.335  1.2260 -0.6089 -1.7426
 1920TIP3    H2 5767   5.018   0.926   1.207 -0.0965  0.9311 -0.6691
 1921TIP3   OH2 5768   0.200   2.133   4.847  0.3772 -0.0620  0.0501
 1921TIP3    H1 5769   0.207   2.117   4.752  1.2173 -0.7007  0.2064
 1921TIP3    H2 5770   0.172   2.224   4.853 -0.6871 -0.3066 -0.8220
 1922TIP3   OH2 5771   2.712   5.357   1.443 -0.2175 -0.7914 -0.2965
 1922TIP3    H1 5772   2.715   5.393   1.532  4.0808  0.2561 -0.6450
 1922TIP3    H2 5773   2.653   5.415   1.396 -0.3700  0.3709  1.2357
 1923TIP3   OH2 5774   1.872   5.495   5.022 -0.2351 -0.1497  0.0340
 1923TIP3    H1 5775   1.931   5.569   5.036 -0.3217 -0.2759  1.1922
 1923TIP3    H2 5776   1.926   5.429   4.978  0.2958  0.0037  0.4500
 1924TIP3   OH2 5777   1.128   1.164   1.352  0.0602  0.4681  0.2957
 1924TIP3    H1 5778   1.040   1.184   1.384  0.3050  0.1862  1.1954
 1924TIP3    H2 5779   1.133   1.206   1.267  0.4917  4.1628  1.9386
 1925TIP3   OH2 5780   0.298   3.772   0.156 -0.7538  0.6220 -0.0499
 1925TIP3    H1 5781   0.305   3.833   0.082  0.2731  0.3615 -0.1779
 1925TIP3    H2 5782   0.286   3.687   0.114  2.3698  0.0733 -0.0749
 1926TIP3   OH2 5783   2.469   4.585   4.646  0.1695 -0.1187 -0.7060
 1926TIP3    H1 5784   2.432   4.666   4.611  0.8343  0.0172 -1.1148
 1926TIP3    H2 5785   2.552   4.612   4.686  0.3724 -0.5874 -0.8046
 1927TIP3   OH2 5786   5.115   3.445   0.707  0.3063  0.0540  0.0442
 1927TIP3    H1 5787   5.138   3.367   0.757  0.3355 -0.5062 -0.8303
 1927TIP3    H2 5788   5.059   3.496   0.766  1.7351  0.2518  1.2933
 1928TIP3   OH2 5789   5.171   5.947   3.162  0.0238  0.2535 -0.4730
 1928TIP3    H1 5790   5.171   5.887   3.236 -1.7797  0.8387  0.0547
 1928TIP3    H2 5791   5.237   6.013   3.184  1.1353 -0.8307 -0.4866
 1929TIP3   OH2 5792   3.179   4.663   4.387 -0.6643  0.4048  0.4548
 1929TIP3    H1 5793   3.094   4.702   4.369  0.0087  2.0567  0.6503
 1929TIP3    H2 5794   3.177   4.643   4.481 -1.3531 -0.9650  0.1720
 1930TIP3   OH2 5795   3.214   1.769   5.051 -0.1168 -0.3700 -0.0365
 1930TIP3    H1 5796   3.123   1.777   5.080 -0.1952  0.4060 -0.4584
 1930TIP3    H2 5797   3.216   1.814   4.967  0.8075  0.2266  0.2871
 1931TIP3   OH2 5798   1.071   4.183   1.719  0.3585 -0.5417 -0.3216
 1931TIP3    H1 5799   1.086   4.106   1.664 -1.1729 -2.1690  1.3852
 1931TIP3    H2 5800   0.991   4.163   1.767 -2.1166  3.5216 -2.1259
 1932TIP3   OH2 5801   1.203   5.109   3.013  0.6384  0.0137 -0.3796
 1932TIP3    H1 5802   1.150   5.189   3.020  0.7403  0.2263 -1.7190
 1932TIP3    H2 5803   1.177   5.071   2.929  0.7459 -1.2646  0.1435
 1933TIP3   OH2 5804   0.267   1.827   1.976  0.0415 -0.1996 -0.4910
 1933TIP3    H1 5805   0.275   1.921   1.995  2.7043 -0.0417 -1.8957
 1933TIP3    H2 5806   0.243   1.824   1.883 -1.7934 -0.9606 -0.0320
 1934TIP3   OH2 5807   4.070   3.834   1.661  0.5133 -0.1993  1.0305
 1934TIP3    H1 5808   3.983   3.794   1.656  0.8598 -0.8064 -0.6927
 1934TIP3    H2 5809   4.117   3.782   1.727 -0.6259  0.5919  2.5210
 1935TIP3   OH2 5810   4.851   2.160   2.844 -0.0539  0.2356  0.3173
 1935TIP3    H1 5811   4.759   2.151   2.818  0.5291 -0.5844 -1.6969
 1935TIP3    H2 5812   4.875   2.249   2.818  0.3213 -0.3372 -1.4693
 1936TIP3   OH2 5813   3.171   3.027   1.794 -0.2631 -0.2203 -0.2682
 1936TIP3    H1 5814   3.170   3.031   1.889 -1.2808  0.4065 -0.2900
 1936TIP3    H2 5815   3.082   3.002   1.770  0.1796 -1.1049 -1.0333
 1937TIP3   OH2 5816   5.060   5.535   2.739  0.0749  0.7156 -0.3489
 1937TIP3    H1 5817   5.023   5.623   2.739  0.0252  0.7436  1.4839
 1937TIP3    H2 5818   5.106   5.529   2.823 -2.9374 -2.1825  1.3384
 1938TIP3   OH2 5819   4.280   4.703   2.485  0.1833 -0.3594  0.2471
 1938TIP3    H1 5820   4.287   4.787   2.439 -0.3121 -0.7945 -0.6640
 1938TIP3    H2 5821   4.332   4.643   2.431  1.3051 -0.4461  1.3998
 1939TIP3   OH2 5822   4.504   1.553   0.652 -0.6433 -0.0561 -0.4330
 1939TIP3    H1 5823   4.416   1.591   0.646 -1.2625 -0.4865  3.4177
 1939TIP3    H2 5824   4.489   1.459   0.656 -0.1174 -0.1058  0.9159
 1940TIP3   OH2 5825   0.782   5.867   3.349 -0.0233 -0.1062  0.1193
 1940TIP3    H1 5826   0.813   5.903   3.266 -0.5963  0.4722  0.1515
 1940TIP3    H2 5827   0.807   5.933   3.414 -0.6562  0.0231  0.2403
 1941TIP3   OH2 5828   0.517   4.836   1.709 -0.1903 -0.3012 -0.2126
 1941TIP3    H1 5829   0.551   4.926   1.704  0.1505 -0.2338  2.2365
 1941TIP3    H2 5830   0.483   4.828   1.798  0.3491 -2.8111 -0.1577
 1942TIP3   OH2 5831   4.114   5.427   0.109 -0.3312 -0.3615  0.1621
 1942TIP3    H1 5832   4.184   5.487   0.084 -1.0527  1.1524  1.5993
 1942TIP3    H2 5833   4.057   5.478   0.166 -3.0764 -1.2548 -1.5358
 1943TIP3   OH2 5834   5.063   2.510   2.583  0.4432  0.1574  0.5491
 1943TIP3    H1 5835   5.155   2.535   2.580  0.8242 -1.2734 -0.6729
 1943TIP3    H2 5836   5.021   2.580   2.634  1.8418  1.9694 -0.6359
 1944TIP3   OH2 5837   1.555   5.070   1.859  0.3061 -0.2959 -0.2182
 1944TIP3    H1 5838   1.470   5.030   1.840 -0.1933  0.3214  0.6619
 1944TIP3    H2 5839   1.556   5.151   1.807  0.5656 -0.5346 -0.5951
 1945TIP3   OH2 5840   6.260   5.102   4.883  0.5167  0.0298  0.2364
 1945TIP3    H1 5841   6.256   5.196   4.866  1.2726  0.0662  0.2247
 1945TIP3    H2 5842   6.174   5.081   4.919 -0.1940  0.4454 -1.1254
 1946TIP3   OH2 5843   2.719   5.295   3.009 -0.2512 -0.3542 -0.0382
 1946TIP3    H1 5844   2.735   5.329   3.096 -0.8657  0.6587 -0.3079
 1946TIP3    H2 5845   2.750   5.204   3.012  0.1556 -0.1847  1.0835
 1947TIP3   OH2 5846   5.190   0.449   4.121  0.0717 -0.0524 -0.0080
 1947TIP3    H1 5847   5.126   0.445   4.050  0.6192 -0.1305 -0.4985
 1947TIP3    H2 5848   5.137   0.464   4.200 -0.8770 -3.0126  0.0415
 1948TIP3   OH2 5849   5.409   3.700   1.207  0.7503 -0.2504  0.5879
 1948TIP3    H1 5850   5.482   3.682   1.267  1.2684  1.4709  0.5503
 1948TIP3    H2 5851   5.423   3.791   1.181 -0.6253 -0.3418 -0.5572
 1949TIP3   OH2 5852   5.937   5.429   1.575  0.6456  0.7709  0.4608
 1949TIP3    H1 5853   5.944   5.335   1.556  0.6842  1.0889 -1.2770
 1949TIP3    H2 5854   5.861   5.436   1.633  1.2066 -0.4114  1.3959
 1950TIP3   OH2 5855   0.154   5.213   1.181 -0.0504 -0.1241  0.3282
 1950TIP3    H1 5856   0.157   5.197   1.275  2.2202  0.3186  0.3884
 1950TIP3    H2 5857   0.146   5.126   1.142 -1.9851 -0.2501  0.8952
 1951TIP3   OH2 5858   1.537   2.289   4.328  0.1693  0.1979  0.0164
 1951TIP3    H1 5859   1.456   2.253   4.365 -0.6689  1.7060 -0.2396
 1951TIP3    H2 5860   1.544   2.376   4.369  2.3162 -0.3667  0.9422
 1952TIP3   OH2 5861   2.119   1.651   4.296  0.4521  0.6557  0.1857
 1952TIP3    H1 5862   2.093   1.743   4.294 -0.0392  0.5736 -3.0865
 1952TIP3    H2 5863   2.066   1.612   4.365 -0.0918  2.5945  0.9339
 1953TIP3   OH2 5864   1.852   5.787   2.524 -0.0568  0.4956  0.8111
 1953TIP3    H1 5865   1.885   5.865   2.570 -0.5032  1.3435 -0.2590
 1953TIP3    H2 5866   1.903   5.783   2.444 -1.2123  0.6964  0.0468
 1954TIP3   OH2 5867   3.756   0.418   2.780 -0.1969 -0.5114 -0.5250
 1954TIP3    H1 5868   3.770   0.354   2.849 -1.3828 -0.9884 -0.7011
 1954TIP3    H2 5869   3.779   0.502   2.819 -1.1753 -0.7270  0.5736
 1955TIP3   OH2 5870   0.229   1.421   4.328 -0.0495 -0.0310  0.4577
 1955TIP3    H1 5871   0.307   1.451   4.281 -1.1254 -0.1447 -1.5295
 1955TIP3    H2 5872   0.221   1.481   4.402  0.0673  2.1627 -1.1940
 1956TIP3   OH2 5873   1.129   2.960   0.528  0.1465  0.7295 -0.1893
 1956TIP3    H1 5874   1.072   2.883   0.519  1.9399 -0.5661 -1.1101
 1956TIP3    H2 5875   1.154   2.982   0.438  3.1432 -0.4352  0.2253
 1957TIP3   OH2 5876   4.507   1.189   2.656  0.4290 -0.2228  0.2970
 1957TIP3    H1 5877   4.602   1.182   2.664  0.5722 -1.1242 -1.5669
 1957TIP3    H2 5878   4.473   1.132   2.725  1.2531 -0.2469  0.6936
 1958TIP3   OH2 5879   3.162   2.593   0.884 -0.0442  0.3753  0.1542
 1958TIP3    H1 5880   3.166   2.547   0.800 -0.6538 -0.6952  0.6831
 1958TIP3    H2 5881   3.076   2.570   0.919 -1.5120  3.9667 -0.6468
 1959TIP3   OH2 5882   3.886   4.801   4.206 -0.6480 -0.1465 -0.2709
 1959TIP3    H1 5883   3.903   4.761   4.291 -0.6879 -1.2581 -0.7683
 1959TIP3    H2 5884   3.947   4.758   4.146  0.3391  1.6022 -0.5723
 1960TIP3   OH2 5885   1.256   1.178   2.820  0.0312 -0.0625  0.1630
 1960TIP3    H1 5886   1.185   1.177   2.884  0.2675 -0.9147  0.4157
 1960TIP3    H2 5887   1.331   1.141   2.867  0.1920 -0.7463 -0.6206
 1961TIP3   OH2 5888   3.012   1.427   0.281 -0.1022  0.9900 -0.6080
 1961TIP3    H1 5889   2.923   1.443   0.312 -0.0531  0.1699 -0.0020
 1961TIP3    H2 5890   3.021   1.483   0.204 -0.5467  2.3548  0.3093
 1962TIP3   OH2 5891   1.852   3.070   4.359 -0.4542  0.3166  0.3513
 1962TIP3    H1 5892   1.800   3.031   4.430 -0.6139 -2.3391 -1.0974
 1962TIP3    H2 5893   1.794   3.136   4.321 -1.1257  0.3608  1.4048
 1963TIP3   OH2 5894   1.881   4.749   3.733 -0.3065  0.4467 -0.6098
 1963TIP3    H1 5895   1.920   4.664   3.751 -2.7820 -0.4906  0.8243
 1963TIP3    H2 5896   1.884   4.757   3.638  1.7168 -0.3233 -0.6499
 1964TIP3   OH2 5897   2.400   0.166   0.330  0.3470  0.3712 -0.0085
 1964TIP3    H1 5898   2.479   0.156   0.383 -0.0831  1.2761  0.8481
 1964TIP3    H2 5899   2.353   0.240   0.371 -0.1991  0.8322 -1.4123
 1965TIP3   OH2 5900   3.896   5.074   4.138  0.0519  0.2081  0.5044
 1965TIP3    H1 5901   3.911   4.989   4.179  3.2907  0.8266  0.8280
 1965TIP3    H2 5902   3.900   5.137   4.210  2.5017  1.0000 -0.2318
 1966TIP3   OH2 5903   3.746   2.516   1.768 -0.1988 -0.0406  0.2806
 1966TIP3    H1 5904   3.807   2.518   1.695 -0.8736  0.6066 -0.2798
 1966TIP3    H2 5905   3.794   2.557   1.840  0.9951 -1.9876  0.6472
 1967TIP3   OH2 5906   2.053   4.519   2.551  0.5195  0.1175 -0.1106
 1967TIP3    H1 5907   2.136   4.564   2.536 -0.3503  0.9316 -3.2282
 1967TIP3    H2 5908   2.007   4.575   2.614  2.4288 -0.6007  2.0341
 1968TIP3   OH2 5909   6.033   4.358   1.529 -0.3102 -0.3365  0.1694
 1968TIP3    H1 5910   5.988   4.439   1.552  0.8937  0.1315  0.9993
 1968TIP3    H2 5911   5.985   4.324   1.453 -1.3430  0.7042  0.3295
 1969TIP3   OH2 5912   4.796   2.780   3.922  0.5006  0.0145  0.5844
 1969TIP3    H1 5913   4.754   2.862   3.947 -2.0182 -0.9451 -0.2007
 1969TIP3    H2 5914   4.825   2.793   3.832 -1.2326 -0.3791 -0.0623
 1970TIP3   OH2 5915   5.285   4.450   4.915 -0.5285  0.7965 -0.0782
 1970TIP3    H1 5916   5.325   4.365   4.896 -0.0102  0.7052  1.3094
 1970TIP3    H2 5917   5.315   4.507   4.844  0.2601  0.1648 -0.2703
 1971TIP3   OH2 5918   1.514   2.861   1.309 -0.1111 -0.1614  0.2222
 1971TIP3    H1 5919   1.570   2.879   1.234  0.4350  2.1548  1.0930
 1971TIP3    H2 5920   1.425   2.861   1.274  0.0910  1.4897 -0.3704
 1972TIP3   OH2 5921   4.040   5.412   3.569 -0.1725  0.1849  0.1340
 1972TIP3    H1 5922   4.089   5.339   3.530  1.2123  0.0502  1.9805
 1972TIP3    H2 5923   3.982   5.442   3.499  2.3538  0.1543 -2.1352
 1973TIP3   OH2 5924   1.831   1.316   3.586 -0.2068  0.4169 -0.1455
 1973TIP3    H1 5925   1.883   1.394   3.567 -1.6931  0.7700 -3.3592
 1973TIP3    H2 5926   1.853   1.254   3.516 -1.7708 -0.6254  0.2363
 1974TIP3   OH2 5927   3.012   4.525   2.727 -0.3406 -0.2303  0.6033
 1974TIP3    H1 5928   2.976   4.502   2.641 -0.8842 -0.1548  0.8072
 1974TIP3    H2 5929   3.017   4.442   2.774  0.0700 -0.2893  0.4594
 1975TIP3   OH2 5930   4.714   5.924   0.553 -0.0360  0.1192  0.1131
 1975TIP3    H1 5931   4.727   5.978   0.631  1.4835 -0.2809  0.1739
 1975TIP3    H2 5932   4.638   5.870   0.574 -1.6486  2.2203  0.0272
 1976TIP3   OH2 5933   4.075   1.893   3.144 -0.3313  0.6272 -0.3989
 1976TIP3    H1 5934   4.147   1.942   3.184 -0.3690  0.3521  0.0116
 1976TIP3    H2 5935   4.110   1.804   3.133 -0.1516  0.8237 -1.4450
 1977TIP3   OH2 5936   1.648   2.941   1.515  0.2429  0.5831 -0.4331
 1977TIP3    H1 5937   1.585   2.916   1.448  1.2660 -2.7973 -0.3155
 1977TIP3    H2 5938   1.733   2.942   1.471  0.9061 -1.4915  0.6512
 1978TIP3   OH2 5939   5.303   4.179   2.641  0.3476  0.5616 -0.1044
 1978TIP3    H1 5940   5.278   4.092   2.611  0.5110  0.8671 -1.1532
 1978TIP3    H2 5941   5.398   4.180   2.633  0.4904  0.3581  1.2660
 1979TIP3   OH2 5942   0.080   5.219   1.510 -0.4371  0.0889  0.0985
 1979TIP3    H1 5943   0.007   5.190   1.455 -1.2812 -0.0801  1.2660
 1979TIP3    H2 5944   0.146   5.151   1.500 -0.2803  0.4094 -1.2401
 1980TIP3   OH2 5945   1.679   0.651   2.098 -0.2891 -0.5952 -0.1453
 1980TIP3    H1 5946   1.767   0.683   2.077 -0.0594 -0.4242  1.0009
 1980TIP3    H2 5947   1.682   0.632   2.192 -1.3383 -1.0529 -0.1876
 1981TIP3   OH2 5948   0.529   0.285   0.361  0.3687 -0.2993  0.0818
 1981TIP3    H1 5949   0.608   0.332   0.333  1.1673 -1.1001  0.8901
 1981TIP3    H2 5950   0.555   0.193   0.357 -0.3981 -0.5508  0.7459
 1982TIP3   OH2 5951   5.628   2.563   3.428  0.4162  0.1216 -0.2725
 1982TIP3    H1 5952   5.560   2.627   3.450  0.2001 -0.0005 -0.5764
 1982TIP3    H2 5953   5.711   2.611   3.439  0.2668  0.3787 -0.2567
 1983TIP3   OH2 5954   4.294   2.030   3.209 -0.1073  0.1095 -0.4895
 1983TIP3    H1 5955   4.332   2.054   3.293  0.1794  0.0720 -0.6061
 1983TIP3    H2 5956   4.360   2.056   3.144 -0.4918  0.4958 -0.7309
 1984TIP3   OH2 5957   6.012   4.016   1.196 -0.3603 -0.3535 -0.6365
 1984TIP3    H1 5958   6.094   4.012   1.246 -0.7002  1.9402  0.2098
 1984TIP3    H2 5959   6.033   4.070   1.120 -1.3351  1.2581  0.1963
 1985TIP3   OH2 5960   6.136   4.618   1.333  0.4678 -0.6796  0.0452
 1985TIP3    H1 5961   6.158   4.687   1.396  0.4417  0.2598 -0.9525
 1985TIP3    H2 5962   6.206   4.553   1.345  0.5688 -0.4355  0.9047
 1986TIP3   OH2 5963   0.076   1.752   4.517 -0.2716  0.0738 -0.3041
 1986TIP3    H1 5964   0.113   1.669   4.548 -0.4615  0.1586  0.1644
 1986TIP3    H2 5965  -0.009   1.727   4.480 -1.0804  0.2581  1.3448
 1987TIP3   OH2 5966   2.248   4.018   0.207  0.0150  0.5332 -0.4680
 1987TIP3    H1 5967   2.242   3.997   0.300  2.4747  1.9515  0.0676
 1987TIP3    H2 5968   2.288   3.940   0.168 -0.0429  0.3534 -0.1733
 1988TIP3   OH2 5969   6.257   4.861   3.372  0.1887 -0.2726 -0.1315
 1988TIP3    H1 5970   6.244   4.956   3.374  2.4104  0.0550  0.7743
 1988TIP3    H2 5971   6.180   4.826   3.418 -0.0758  1.1572  0.5770
 1989TIP3   OH2 5972   1.233   3.415   3.623 -0.7939 -0.2506 -0.3060
 1989TIP3    H1 5973   1.185   3.494   3.595 -0.5407 -0.0426 -0.1540
 1989TIP3    H2 5974   1.295   3.446   3.689  0.0015 -0.4113 -0.9606
 1990TIP3   OH2 5975   0.320   0.903   0.536  0.0909 -0.3591 -0.1859
 1990TIP3    H1 5976   0.236   0.947   0.544  0.5422  0.7051 -1.0965
 1990TIP3    H2 5977   0.362   0.915   0.621 -0.9518 -1.5154  0.5143
 1991TIP3   OH2 5978   3.028   2.045   2.106  0.4803  0.7693 -0.5615
 1991TIP3    H1 5979   3.065   1.976   2.051 -0.6216  0.1688 -0.5722
 1991TIP3    H2 5980   2.981   2.102   2.046  1.7554  1.8140 -0.6142
 1992TIP3   OH2 5981   4.121   5.845   5.002  0.4639  0.8790  0.2906
 1992TIP3    H1 5982   4.180   5.798   4.943  0.3422  1.3775 -0.2413
 1992TIP3    H2 5983   4.054   5.881   4.944 -0.1441  0.6540  0.8422
 1993TIP3   OH2 5984   3.288   3.362   0.500  0.2684  0.2365 -0.3323
 1993TIP3    H1 5985   3.295   3.435   0.562 -1.2561 -0.6381  0.9845
 1993TIP3    H2 5986   3.350   3.382   0.431  2.5120  1.0137  1.7519
 1994TIP3   OH2 5987   4.252   1.384   3.356 -0.2679  0.7002  0.0779
 1994TIP3    H1 5988   4.220   1.399   3.445 -0.3174  2.2502 -0.1730
 1994TIP3    H2 5989   4.180   1.339   3.312  0.1226 -0.9706  1.0525
 1995TIP3   OH2 5990   0.714   3.616   4.083  0.0447  0.2016  0.0188
 1995TIP3    H1 5991   0.728   3.522   4.080  1.2924  0.3382  1.1145
 1995TIP3    H2 5992   0.721   3.644   3.992 -1.9786 -0.9548 -0.5512
 1996TIP3   OH2 5993   2.238   4.225   0.722  0.3864 -0.5770  0.1240
 1996TIP3    H1 5994   2.153   4.243   0.763  0.4653 -1.5922  0.7745
 1996TIP3    H2 5995   2.285   4.309   0.726 -1.2053  0.4889 -1.8547
 1997TIP3   OH2 5996   2.070   4.314   1.166 -0.2508 -0.2925 -0.1057
 1997TIP3    H1 5997   1.997   4.269   1.208  0.2623 -0.4019  0.6869
 1997TIP3    H2 5998   2.117   4.357   1.238  0.1712  0.2047 -0.6648
 1998TIP3   OH2 5999   2.641   3.978   1.569 -0.0533  0.3022  0.1125
 1998TIP3    H1 6000   2.736   3.967   1.572  0.1129 -1.2566 -3.9469
 1998TIP3    H2 6001   2.608   3.917   1.636  1.7813 -0.8180  0.0660
 1999TIP3   OH2 6002   3.828   1.474   0.724 -0.0274 -0.0861 -0.0491
 1999TIP3    H1 6003   3.919   1.484   0.696  0.2142 -0.9699  0.3712
 1999TIP3    H2 6004   3.822   1.526   0.804  0.2680 -0.4872  0.2360
 2000TIP3   OH2 6005   4.004   1.372   4.775  0.0516 -0.5184 -0.1884
 2000TIP3    H1 6006   4.024   1.294   4.829  1.2855 -0.1525 -0.0862
 2000TIP3    H2 6007   4.082   1.427   4.783  0.1976 -0.3649 -2.2207
 2001TIP3   OH2 6008   1.565   3.097   2.155  0.2936 -0.2398  0.1179
 2001TIP3    H1 6009   1.561   3.173   2.097 -0.0023 -1.1416 -1.0671
 2001TIP3    H2 6010   1.473   3.077   2.174  0.2930 -1.2737 -0.8924
 2002TIP3   OH2 6011   1.361   2.336   1.017 -0.3088  0.0761  0.1306
 2002TIP3    H1 6012   1.334   2.413   0.967 -0.4360 -0.4368 -0.6080
 2002TIP3    H2 6013   1.441   2.305   0.973 -0.4551 -0.4168  0.2049
 2003TIP3   OH2 6014   0.506   5.452   0.895 -0.1521 -0.3752 -0.0546
 2003TIP3    H1 6015   0.414   5.440   0.917 -0.1647  1.3527  1.0205
 2003TIP3    H2 6016   0.554   5.418   0.971  0.0902 -0.9138 -0.4419
 2004TIP3   OH2 6017   0.166   1.487   3.316  0.2078 -0.5531  0.2403
 2004TIP3    H1 6018   0.189   1.569   3.359  0.7568 -0.8173  0.4691
 2004TIP3    H2 6019   0.110   1.442   3.379 -0.6331 -0.0831 -0.1511
 2005TIP3   OH2 6020   1.529   2.679   2.155  0.3351  0.4436 -0.0979
 2005TIP3    H1 6021   1.527   2.609   2.220  1.3198 -0.2200 -0.7593
 2005TIP3    H2 6022   1.570   2.640   2.078 -0.1710  1.4095 -0.8957
 2006TIP3   OH2 6023   5.056   3.175   3.471  0.2611  0.1589 -0.7702
 2006TIP3    H1 6024   5.085   3.165   3.562 -1.6583  2.4000  0.1917
 2006TIP3    H2 6025   5.026   3.088   3.446 -1.5910 -0.0221  1.6851
 2007TIP3   OH2 6026   6.044   2.503   2.936 -0.1230  0.0621  0.2482
 2007TIP3    H1 6027   6.027   2.594   2.960 -2.0428  0.5339 -2.4235
 2007TIP3    H2 6028   5.993   2.452   2.999  1.0541  0.7775  1.8407
 2008TIP3   OH2 6029   0.376   2.132   3.203  0.5328  0.1416  0.6863
 2008TIP3    H1 6030   0.434   2.119   3.278 -0.7471 -0.0638  1.6784
 2008TIP3    H2 6031   0.433   2.127   3.127  2.3229  2.9632  1.7098
 2009TIP3   OH2 6032   4.488   0.184   3.137 -0.0070  0.4829 -0.2139
 2009TIP3    H1 6033   4.472   0.263   3.084 -0.4700 -0.1185 -1.0006
 2009TIP3    H2 6034   4.563   0.207   3.192 -0.1942  1.5051 -0.3674
 2010TIP3   OH2 6035   4.246   2.139   0.395 -0.4548 -0.0091 -0.5036
 2010TIP3    H1 6036   4.283   2.124   0.308 -0.8707 -0.3010 -0.6282
 2010TIP3    H2 6037   4.321   2.167   0.448 -0.3380  0.9611 -1.1480
 2011TIP3   OH2 6038   4.804   5.149   2.300 -0.2246 -0.4517 -0.3780
 2011TIP3    H1 6039   4.714   5.134   2.271 -1.1674  0.7052  1.7087
 2011TIP3    H2 6040   4.825   5.073   2.354  0.1755 -0.8427 -1.0663
 2012TIP3   OH2 6041   1.033   5.557   3.225 -0.0854 -0.3302  0.3057
 2012TIP3    H1 6042   0.948   5.577   3.187  0.0488 -1.0822 -0.4137
 2012TIP3    H2 6043   1.016   5.484   3.285 -0.0660 -0.0148  0.6997
 2013TIP3   OH2 6044   1.511   2.190   0.142  0.8371  0.4634 -0.0117
 2013TIP3    H1 6045   1.452   2.148   0.081  1.0270  0.6144 -0.3000
 2013TIP3    H2 6046   1.583   2.224   0.088  1.3070  0.0768  0.3558
 2014TIP3   OH2 6047   3.705   1.853   0.763 -0.3231 -0.1014 -0.4266
 2014TIP3    H1 6048   3.697   1.924   0.700 -3.6707 -0.0546 -0.0970
 2014TIP3    H2 6049   3.621   1.808   0.760  0.1207 -1.3648  2.5023
 2015TIP3   OH2 6050   2.419   5.333   4.545  0.1739  0.0067 -0.4179
 2015TIP3    H1 6051   2.324   5.340   4.552  0.2584  0.1745  0.8664
 2015TIP3    H2 6052   2.445   5.407   4.491 -0.2994  0.8394  0.4615
 2016TIP3   OH2 6053   2.160   4.175   2.860 -0.7056 -0.4595  0.3407
 2016TIP3    H1 6054   2.237   4.208   2.907 -0.7392  0.5452 -0.2819
 2016TIP3    H2 6055   2.196   4.109   2.800 -0.4522 -0.6219  0.6666
 2017TIP3   OH2 6056   1.321   4.351  -0.000 -0.3132  0.3279 -0.0791
 2017TIP3    H1 6057   1.311   4.434   0.047 -1.2893 -0.2194  0.7137
 2017TIP3    H2 6058   1.237   4.306   0.013 -0.1860 -0.3275 -1.4044
 2018TIP3   OH2 6059   4.828   5.229   5.187  0.5188 -0.3361 -0.0873
 2018TIP3    H1 6060   4.821   5.318   5.219 -2.0658 -0.9280  1.2690
 2018TIP3    H2 6061   4.898   5.232   5.121 -0.1265  2.8493 -0.7766
 2019TIP3   OH2 6062   5.103   1.775   4.165 -0.3761  0.0316  0.3006
 2019TIP3    H1 6063   5.063   1.853   4.127 -1.2495  0.3804  1.8600
 2019TIP3    H2 6064   5.050   1.703   4.132 -0.2598  0.1923 -0.2510
 2020TIP3   OH2 6065   2.506   4.245   2.596  0.3582  0.7984  0.2466
 2020TIP3    H1 6066   2.568   4.281   2.659  0.3848  3.8533 -1.3605
 2020TIP3    H2 6067   2.551   4.251   2.512  0.1101 -2.6523 -0.2681
 2021TIP3   OH2 6068   1.790   5.701   4.144  0.0743 -0.0467  0.9550
 2021TIP3    H1 6069   1.882   5.696   4.121 -0.3824 -0.0681 -1.0336
 2021TIP3    H2 6070   1.782   5.647   4.223  1.2421 -2.6887 -0.5968
 2022TIP3   OH2 6071   1.216   1.375   0.446  0.6936 -0.0393 -0.0570
 2022TIP3    H1 6072   1.309   1.396   0.438  0.5099  0.9204  0.1471
 2022TIP3    H2 6073   1.174   1.428   0.377  0.2162  0.1886  0.3986
 2023TIP3   OH2 6074   4.760   3.859   0.958 -0.6671 -0.1940  0.5285
 2023TIP3    H1 6075   4.773   3.953   0.969 -1.1615 -0.0671  0.1016
 2023TIP3    H2 6076   4.666   3.850   0.938 -0.4466 -0.6813 -0.3559
 2024TIP3   OH2 6077   4.376   5.554   4.122 -0.3756 -0.3675 -0.6821
 2024TIP3    H1 6078   4.377   5.483   4.187  0.2325 -0.3112 -0.6179
 2024TIP3    H2 6079   4.393   5.633   4.173 -0.2716 -0.2774 -0.8561
 2025TIP3   OH2 6080   2.870   4.461   3.937  0.2869 -0.3289  0.3393
 2025TIP3    H1 6081   2.827   4.406   3.871 -1.4049 -0.4638  1.5040
 2025TIP3    H2 6082   2.950   4.414   3.959  0.1116 -1.0471 -0.5114
 2026TIP3   OH2 6083   0.485   1.298   2.619 -0.1666  0.0913  0.1823
 2026TIP3    H1 6084   0.392   1.314   2.631 -0.2745 -0.9212  0.7500
 2026TIP3    H2 6085   0.491   1.245   2.539 -0.2479 -1.3842  1.1207
 2027TIP3   OH2 6086   4.699   1.879   0.258 -0.2491 -0.0717 -0.0477
 2027TIP3    H1 6087   4.650   1.844   0.184 -2.7355  1.3264  0.7949
 2027TIP3    H2 6088   4.740   1.803   0.299  0.2979 -0.9910 -2.2127
 2028TIP3   OH2 6089   0.063   3.569   1.351  0.4609  0.0725  0.7370
 2028TIP3    H1 6090   0.096   3.626   1.282 -3.4860 -0.3238 -1.8477
 2028TIP3    H2 6091   0.027   3.629   1.417 -1.4372  0.7022 -0.7651
 2029TIP3   OH2 6092   2.070   1.084   4.474 -0.6491 -0.2080  0.4621
 2029TIP3    H1 6093   2.148   1.038   4.441 -0.3006  2.5362 -3.1924
 2029TIP3    H2 6094   1.997   1.025   4.455  0.1026 -0.7656 -0.8507
 2030TIP3   OH2 6095   4.002   1.013   0.496 -0.5304 -0.1121  1.1136
 2030TIP3    H1 6096   3.958   0.986   0.416  0.9092  1.7821 -0.4294
 2030TIP3    H2 6097   3.942   1.077   0.536  0.3949  1.9405 -0.6159
 2031TIP3   OH2 6098   1.159   3.496   0.180 -0.3892  0.5233  0.2863
 2031TIP3    H1 6099   1.081   3.547   0.202 -0.1331  0.6842  0.8466
 2031TIP3    H2 6100   1.219   3.512   0.253  0.6666  1.4132 -0.7387
 2032TIP3   OH2 6101   5.443   1.201   0.483 -0.2963  0.1205 -0.3659
 2032TIP3    H1 6102   5.505   1.146   0.436  1.2472  0.3415  1.2721
 2032TIP3    H2 6103   5.481   1.210   0.570 -2.6201  0.3586  0.7058
 2033TIP3   OH2 6104   4.641   3.519   1.122 -0.0347  0.0019 -0.0901
 2033TIP3    H1 6105   4.595   3.598   1.152  0.1015  0.1097 -0.1634
 2033TIP3    H2 6106   4.725   3.522   1.167 -0.3765 -0.5657  0.5884
 2034TIP3   OH2 6107   5.764   2.653   4.131  0.0936 -0.0535 -0.1861
 2034TIP3    H1 6108   5.782   2.662   4.225 -0.9628 -1.4435  0.1889
 2034TIP3    H2 6109   5.841   2.607   4.097 -0.8804 -2.5036  0.6729
 2035TIP3   OH2 6110   2.423   4.007   2.227 -0.3403  0.2722 -0.5735
 2035TIP3    H1 6111   2.363   4.081   2.237 -1.0898 -0.3733 -0.1797
 2035TIP3    H2 6112   2.431   3.970   2.315 -0.4571 -0.4808 -0.8718
 2036TIP3   OH2 6113   5.721   3.753   4.099 -0.3815 -0.5944 -0.0425
 2036TIP3    H1 6114   5.735   3.847   4.100 -0.1877 -0.5840 -1.6664
 2036TIP3    H2 6115   5.682   3.734   4.185 -1.4219  1.1198 -0.0824
 2037TIP3   OH2 6116   4.587   0.075   4.684  0.1481  0.2461  0.1168
 2037TIP3    H1 6117   4.526   0.040   4.619 -0.2863 -0.5219  0.9235
 2037TIP3    H2 6118   4.563   0.168   4.692 -1.1074 -0.1065  0.6276
 2038TIP3   OH2 6119   2.360   0.178   1.546 -0.1958  0.2403  0.0329
 2038TIP3    H1 6120   2.443   0.219   1.521  1.2663 -1.8439  1.1395
 2038TIP3    H2 6121   2.325   0.235   1.615  0.8089  0.6501  0.2287
 2039TIP3   OH2 6122   6.306   0.440   1.852 -0.4366  0.3206 -0.8780
 2039TIP3    H1 6123   6.371   0.454   1.783 -1.8302  0.2934 -2.2680
 2039TIP3    H2 6124   6.285   0.347   1.846 -0.0751  0.1747  0.0566
 2040TIP3   OH2 6125   3.551   0.235   0.372 -0.5175 -0.0218  0.6439
 2040TIP3    H1 6126   3.628   0.186   0.341 -0.5761 -1.1388  2.1151
 2040TIP3    H2 6127   3.477   0.177   0.354 -0.6926 -0.1175  1.6093
 2041TIP3   OH2 6128   1.568   0.983   4.195  0.8738 -0.3497  0.0296
 2041TIP3    H1 6129   1.601   1.056   4.142  4.6480 -1.2700  0.8510
 2041TIP3    H2 6130   1.580   1.012   4.285  0.8652 -1.3272  0.3565
 2042TIP3   OH2 6131   0.923   2.150   1.905  0.0039  0.7771 -0.2046
 2042TIP3    H1 6132   0.828   2.150   1.888 -0.3870 -0.1816  1.7050
 2042TIP3    H2 6133   0.951   2.239   1.882 -1.6768  1.5926  0.6929
 2043TIP3   OH2 6134   4.539   0.061   1.294  0.1481  0.7819  0.2366
 2043TIP3    H1 6135   4.591  -0.002   1.344 -0.8009 -1.6851 -1.6608
 2043TIP3    H2 6136   4.450   0.029   1.299 -0.5173  2.4339 -0.2106
 2044TIP3   OH2 6137   0.008   4.121   4.094 -0.0705 -0.1479  0.1149
 2044TIP3    H1 6138  -0.040   4.039   4.088  0.1683 -0.2693 -0.1785
 2044TIP3    H2 6139   0.050   4.119   4.180  1.7711 -1.3717 -0.7298
 2045TIP3   OH2 6140   5.151   0.481   1.893 -0.0628  0.1153  0.5760
 2045TIP3    H1 6141   5.199   0.486   1.975 -1.2220  1.2583  1.2359
 2045TIP3    H2 6142   5.060   0.464   1.919 -0.2304 -0.9103 -0.5620
 2046TIP3   OH2 6143   4.549   2.207   4.473  0.5611  0.3812  0.2177
 2046TIP3    H1 6144   4.535   2.113   4.470 -0.8628  0.4537  2.4593
 2046TIP3    H2 6145   4.625   2.219   4.530  0.4978  0.6108  0.2571
 2047TIP3   OH2 6146   4.582   1.665   2.673  0.1598  0.0877 -0.1049
 2047TIP3    H1 6147   4.544   1.640   2.589 -1.5968 -0.6407  0.8591
 2047TIP3    H2 6148   4.546   1.752   2.691 -2.1662 -1.0611  1.3450
 2048TIP3   OH2 6149   0.015   1.876   0.381 -0.0288  0.7154 -0.6741
 2048TIP3    H1 6150   0.079   1.943   0.358  0.1231  0.1579 -1.9605
 2048TIP3    H2 6151   0.041   1.800   0.329  0.7709 -0.9186  1.9039
 2049TIP3   OH2 6152   0.569   1.064   2.012  0.4208  0.0329 -0.0001
 2049TIP3    H1 6153   0.492   1.026   2.055 -1.7850  1.7127 -2.1966
 2049TIP3    H2 6154   0.581   1.010   1.934  0.5236  0.6621 -0.4246
 2050TIP3   OH2 6155   1.591   1.002   2.105  0.1158 -0.1107 -0.1478
 2050TIP3    H1 6156   1.596   1.025   2.012 -0.0954  1.1268  0.1319
 2050TIP3    H2 6157   1.646   1.067   2.148  0.0674 -0.5722  0.6122
 2051TIP3   OH2 6158   6.102   1.754   2.856 -0.5646  0.0794 -0.4720
 2051TIP3    H1 6159   6.107   1.731   2.948 -0.7758  0.3395 -0.3937
 2051TIP3    H2 6160   6.156   1.833   2.848  0.7753 -0.8482 -0.8817
 2052TIP3   OH2 6161   0.271   5.313   3.098 -0.3739  0.2521  0.1633
 2052TIP3    H1 6162   0.243   5.317   3.007  1.6165  1.4813 -0.4788
 2052TIP3    H2 6163   0.323   5.233   3.103 -1.9009 -0.7348  0.7090
 2053TIP3   OH2 6164   1.819   4.200   3.607  0.7691  0.2871  0.4041
 2053TIP3    H1 6165   1.772   4.131   3.654 -0.2592  0.7876  0.1513
 2053TIP3    H2 6166   1.776   4.281   3.636  1.1523  0.7178 -0.2248
 2054TIP3   OH2 6167   5.597   0.414   0.321  0.0760  0.0790  0.4016
 2054TIP3    H1 6168   5.613   0.319   0.325  0.4698  0.0798 -0.6663
 2054TIP3    H2 6169   5.513   0.426   0.366  0.5426 -0.6283  1.4996
 2055TIP3   OH2 6170   2.709   4.072   2.417 -0.1933  0.5827 -0.1663
 2055TIP3    H1 6171   2.773   4.035   2.357  1.1433  1.3463  0.7287
 2055TIP3    H2 6172   2.697   4.162   2.387  1.6706  1.4841  1.5167
 2056TIP3   OH2 6173   2.146   1.408   3.429  0.2218 -0.2364 -0.2642
 2056TIP3    H1 6174   2.136   1.385   3.336  0.8601 -0.8226 -0.2030
 2056TIP3    H2 6175   2.195   1.490   3.428 -0.7229  0.3328 -0.4624
 2057TIP3   OH2 6176   3.850   2.613   3.969  0.0545 -0.1753 -0.1330
 2057TIP3    H1 6177   3.778   2.585   3.912  1.6977 -2.3707 -1.2780
 2057TIP3    H2 6178   3.884   2.692   3.928  0.0842 -0.7410 -1.2348
 2058TIP3   OH2 6179   5.690   2.658   2.312 -0.2373 -0.1394  0.2462
 2058TIP3    H1 6180   5.614   2.601   2.323 -0.0839 -0.2472  0.7874
 2058TIP3    H2 6181   5.743   2.642   2.391  0.7130 -0.6286 -0.4746
 2059TIP3   OH2 6182   5.883   1.330   0.973 -0.2749  0.4022 -0.0984
 2059TIP3    H1 6183   5.854   1.282   0.896 -0.0755  0.1025  0.0119
 2059TIP3    H2 6184   5.810   1.322   1.035 -0.0269 -0.2174  0.1208
 2060TIP3   OH2 6185   4.629   5.615   2.806 -0.2292 -0.2380 -0.2713
 2060TIP3    H1 6186   4.690   5.642   2.875 -2.9698 -1.4756  2.9307
 2060TIP3    H2 6187   4.630   5.519   2.810 -1.0858 -0.3179 -1.3766
 2061TIP3   OH2 6188   1.195   3.908   4.197  0.2982  0.0607 -0.1732
 2061TIP3    H1 6189   1.219   3.984   4.250  0.4516  0.7022 -1.1199
 2061TIP3    H2 6190   1.274   3.855   4.192  0.3682  0.1529 -0.0177
 2062TIP3   OH2 6191   4.187   3.506   2.233 -0.2109 -0.0756 -0.1935
 2062TIP3    H1 6192   4.184   3.583   2.290  1.2657 -0.2842  0.2093
 2062TIP3    H2 6193   4.149   3.435   2.285 -0.8740  0.1989 -0.2889
 2063TIP3   OH2 6194   2.589   2.766   3.724 -0.5720  0.8266  0.0739
 2063TIP3    H1 6195   2.630   2.760   3.810 -0.7332 -0.9704  0.0709
 2063TIP3    H2 6196   2.553   2.855   3.720  0.8582  1.5014  1.1806
 2064TIP3   OH2 6197   2.693   1.005  -0.024  0.9075  0.5168 -0.2111
 2064TIP3    H1 6198   2.672   1.058   0.053 -0.3373 -1.2565  0.7393
 2064TIP3    H2 6199   2.745   0.932   0.010  1.3476  0.3343 -1.2421
 2065TIP3   OH2 6200   4.052   3.643   0.733  0.3336 -0.0476 -0.4874
 2065TIP3    H1 6201   3.963   3.606   0.740  1.2458 -2.6902 -1.5045
 2065TIP3    H2 6202   4.087   3.637   0.821 -0.0624 -0.2266 -0.3363
 2066TIP3   OH2 6203   4.045   0.297   3.608 -0.4764 -0.4668  0.3144
 2066TIP3    H1 6204   4.009   0.299   3.697  0.7782  0.7036  0.8340
 2066TIP3    H2 6205   4.113   0.364   3.608 -0.6581 -0.2117 -1.6380
 2067TIP3   OH2 6206   3.052   2.135   4.987  0.6294 -0.6880 -0.1282
 2067TIP3    H1 6207   3.022   2.080   4.915 -1.4095 -0.1189  0.2260
 2067TIP3    H2 6208   3.044   2.079   5.065 -0.1187 -0.3281  0.0534
 2068TIP3   OH2 6209   4.010   0.202   2.661 -0.1615 -0.0262 -0.6065
 2068TIP3    H1 6210   3.924   0.223   2.696  0.0460  0.2685 -0.2685
 2068TIP3    H2 6211   4.060   0.172   2.737  0.0963  0.0005 -0.7635
 2069TIP3   OH2 6212   0.608   4.351   3.393  0.3206  0.0796  0.9308
 2069TIP3    H1 6213   0.545   4.409   3.350  1.0660 -0.8318 -1.6218
 2069TIP3    H2 6214   0.555   4.290   3.443 -0.6721  0.6573  0.6162
 2070TIP3   OH2 6215   0.875   1.862   3.278  0.3933 -0.5230  0.7993
 2070TIP3    H1 6216   0.906   1.775   3.254  1.0661  0.0079 -0.3078
 2070TIP3    H2 6217   0.955   1.915   3.284 -0.0462  0.1253  1.0024
 2071TIP3   OH2 6218   5.661   1.997   3.443 -0.0255  0.1973 -0.0886
 2071TIP3    H1 6219   5.687   2.029   3.357  2.1741 -0.7127  0.1521
 2071TIP3    H2 6220   5.706   2.054   3.505 -0.6110  0.0994  0.4392
 2072TIP3   OH2 6221   2.772   4.887   1.800  0.0679  0.3592 -0.4625
 2072TIP3    H1 6222   2.732   4.960   1.752  1.4073  1.6067  0.2611
 2072TIP3    H2 6223   2.772   4.915   1.891  1.2198 -0.2386 -0.2600
 2073TIP3   OH2 6224   0.310   5.462   3.328  0.0887 -0.0160  0.8486
 2073TIP3    H1 6225   0.357   5.395   3.378  2.7717  0.6683 -0.5499
 2073TIP3    H2 6226   0.299   5.424   3.241 -1.4555  0.1049  0.9695
 2074TIP3   OH2 6227   3.468   1.750   2.034 -0.0361  0.1134  0.4838
 2074TIP3    H1 6228   3.509   1.710   2.110  0.7072 -1.7553 -0.8290
 2074TIP3    H2 6229   3.395   1.693   2.012  0.6928 -0.2892 -1.0941
 2075TIP3   OH2 6230   1.872   0.527   0.949  0.4138 -0.2885 -0.3398
 2075TIP3    H1 6231   1.935   0.462   0.917  0.9958  0.9078 -1.7255
 2075TIP3    H2 6232   1.922   0.608   0.957 -0.2873  0.0056  1.4083
 2076TIP3   OH2 6233   6.198   2.483   2.344 -0.0554 -0.1662 -0.5478
 2076TIP3    H1 6234   6.209   2.574   2.372 -1.1414 -0.4003  0.7125
 2076TIP3    H2 6235   6.116   2.482   2.296 -0.2382 -0.5490 -0.2329
 2077TIP3   OH2 6236   0.828   2.233   3.447  0.2281  0.0479  0.6825
 2077TIP3    H1 6237   0.760   2.293   3.478  0.0191  0.0256  0.2819
 2077TIP3    H2 6238   0.808   2.222   3.353  1.0000  0.3210  0.4840
 2078TIP3   OH2 6239   0.116   3.979   1.197 -0.7176  0.1610 -0.3426
 2078TIP3    H1 6240   0.107   3.988   1.102  1.2941 -1.7026 -0.8068
 2078TIP3    H2 6241   0.177   4.048   1.222 -0.5523  0.1016 -0.5768
 2079TIP3   OH2 6242   4.105   0.537   0.399  0.6528 -0.3168  0.0820
 2079TIP3    H1 6243   4.147   0.505   0.479  1.2929 -0.5724 -0.3417
 2079TIP3    H2 6244   4.136   0.627   0.390  0.2924 -0.1704  0.3156
 2080TIP3   OH2 6245   1.064   5.460   2.236 -0.3130 -0.2459  0.1061
 2080TIP3    H1 6246   1.019   5.413   2.166 -0.0600 -0.0044 -0.2231
 2080TIP3    H2 6247   1.002   5.528   2.263  0.7256  1.6482 -1.9967
 2081TIP3   OH2 6248   4.550   3.664   3.667  0.2689  0.3334  0.1556
 2081TIP3    H1 6249   4.590   3.642   3.583 -1.1491 -0.7142 -0.2785
 2081TIP3    H2 6250   4.552   3.760   3.670  0.4881  0.3713 -0.9896
 2082TIP3   OH2 6251   1.517   3.677   5.136 -0.6307 -0.0125  0.2079
 2082TIP3    H1 6252   1.542   3.643   5.050 -0.5455  1.3290 -0.3213
 2082TIP3    H2 6253   1.544   3.608   5.198 -0.5023 -0.8977 -0.8070
 2083TIP3   OH2 6254   1.081   0.164   0.350  0.1466 -0.3813  0.3176
 2083TIP3    H1 6255   1.105   0.252   0.377  0.3003 -0.7258  1.3398
 2083TIP3    H2 6256   1.031   0.177   0.269 -2.4274  0.9130  1.9753
 2084TIP3   OH2 6257   0.810   5.562   3.078  0.2755  0.1218  0.4454
 2084TIP3    H1 6258   0.787   5.482   3.031  0.2794  0.8909 -0.9162
 2084TIP3    H2 6259   0.731   5.617   3.072  0.6528  0.6658  0.3925
 2085TIP3   OH2 6260   5.826   1.149   4.223  0.4706  0.3309  0.2617
 2085TIP3    H1 6261   5.885   1.138   4.298 -1.1743 -0.0968  1.5670
 2085TIP3    H2 6262   5.756   1.086   4.239  0.0380  0.2576 -1.6559
 2086TIP3   OH2 6263   4.162   2.995   1.463 -0.3270 -0.4439  0.2774
 2086TIP3    H1 6264   4.120   2.952   1.537 -0.6171 -2.6386 -1.0742
 2086TIP3    H2 6265   4.207   2.924   1.417  0.0429  0.8861 -1.5097
 2087TIP3   OH2 6266   2.171   0.956   4.985 -0.0018 -0.3813  0.0553
 2087TIP3    H1 6267   2.250   0.940   5.037  0.3158 -0.8137 -0.5527
 2087TIP3    H2 6268   2.175   1.049   4.964 -0.1383 -0.2000  0.8122
 2088TIP3   OH2 6269   5.987   3.143   2.774 -0.1446 -0.4519 -0.1564
 2088TIP3    H1 6270   5.934   3.222   2.787  0.5656  0.0480 -0.2096
 2088TIP3    H2 6271   5.923   3.072   2.769 -0.8070  0.1291 -0.2075
 2089TIP3   OH2 6272   4.772   4.314   3.004 -0.1210 -0.1613 -0.1555
 2089TIP3    H1 6273   4.862   4.337   3.029 -0.0600  0.4779 -0.9641
 2089TIP3    H2 6274   4.741   4.260   3.077  0.9632 -0.5080  0.0723
 2090TIP3   OH2 6275   5.525   0.968   3.015 -0.0494 -0.0121 -0.4958
 2090TIP3    H1 6276   5.568   1.012   2.942 -0.5007  1.0086 -0.1704
 2090TIP3    H2 6277   5.470   0.902   2.975  0.2288  0.0785 -1.0392
 2091TIP3   OH2 6278   4.918   4.909   4.136 -0.2953 -0.0014  0.0517
 2091TIP3    H1 6279   4.855   4.966   4.181 -0.5384 -1.9686  2.3899
 2091TIP3    H2 6280   4.863   4.851   4.083 -0.1866  0.3725 -0.4876
 2092TIP3   OH2 6281   4.760   0.803   1.470  0.3313  0.1861  0.1618
 2092TIP3    H1 6282   4.783   0.880   1.521  1.7499  2.3242 -3.2905
 2092TIP3    H2 6283   4.844   0.762   1.448 -0.0196  0.3570 -1.7163
 2093TIP3   OH2 6284   2.703   0.044   5.000  0.2505  0.2241 -0.5481
 2093TIP3    H1 6285   2.658   0.034   5.084  1.6057  0.2801  0.2076
 2093TIP3    H2 6286   2.646  -0.001   4.937  0.4647 -2.0591  0.8191
 2094TIP3   OH2 6287   0.922   4.098   1.417 -0.1639 -0.0550  0.1644
 2094TIP3    H1 6288   0.854   4.124   1.479 -1.1520 -2.3412  0.1487
 2094TIP3    H2 6289   0.911   4.003   1.408  1.6597 -0.1729 -1.4953
 2095TIP3   OH2 6290   2.061   3.979   1.388  0.0099 -0.5349 -0.2844
 2095TIP3    H1 6291   2.050   4.064   1.346  0.1655 -0.2747  0.1925
 2095TIP3    H2 6292   2.003   3.982   1.464 -0.0487 -0.8869 -0.3133
 2096TIP3   OH2 6293   2.962   5.051   1.466  0.7136  0.2086 -0.1834
 2096TIP3    H1 6294   3.007   4.977   1.426 -1.1560 -1.9054  1.3896
 2096TIP3    H2 6295   2.963   5.032   1.560 -2.6062  0.4687  0.0194
 2097TIP3   OH2 6296   4.616   3.653   1.625 -0.0126 -0.9514  0.2254
 2097TIP3    H1 6297   4.636   3.623   1.713 -1.3546 -1.6698  0.3136
 2097TIP3    H2 6298   4.542   3.713   1.636 -0.2596 -1.1309 -0.4156
 2098TIP3   OH2 6299   3.106   3.960   1.864  0.2587 -0.9638  0.1414
 2098TIP3    H1 6300   3.056   4.023   1.915  1.4117  0.2710 -0.1865
 2098TIP3    H2 6301   3.198   3.985   1.878  0.6426 -1.0604 -1.8996
 2099TIP3   OH2 6302   0.768   2.779   4.452 -0.2556  0.3407  0.3435
 2099TIP3    H1 6303   0.819   2.698   4.451  0.4364  0.7393  1.6198
 2099TIP3    H2 6304   0.789   2.820   4.368  0.1070 -0.3598  0.0780
 2100TIP3   OH2 6305   4.761   4.348   4.981 -0.7572 -0.0168 -0.1064
 2100TIP3    H1 6306   4.840   4.340   5.033 -1.6879 -2.1557  1.1315
 2100TIP3    H2 6307   4.695   4.382   5.041 -1.0871  0.5313 -0.7654
 2101TIP3   OH2 6308   3.986   1.124   3.954  0.5107 -0.4047 -0.0577
 2101TIP3    H1 6309   4.051   1.166   4.009 -0.3589 -1.0605  1.5438
 2101TIP3    H2 6310   3.918   1.190   3.942 -0.3102 -0.9133  1.5002
 2102TIP3   OH2 6311   4.294   0.077   4.879 -0.2661  0.3729  0.1054
 2102TIP3    H1 6312   4.207   0.115   4.892 -0.1094  0.9689 -0.5063
 2102TIP3    H2 6313   4.298   0.056   4.785  1.4391  3.5321 -0.6816
 2103TIP3   OH2 6314   3.140   4.905   4.795  0.3539  0.6720 -0.1791
 2103TIP3    H1 6315   3.150   4.933   4.885  0.0664 -0.3730  0.1996
 2103TIP3    H2 6316   3.076   4.965   4.757 -1.7626 -0.6004  1.1669
 2104TIP3   OH2 6317   3.542   4.157   4.874  0.2199  0.6407  0.1005
 2104TIP3    H1 6318   3.498   4.125   4.795  0.0382  0.7755  0.1446
 2104TIP3    H2 6319   3.517   4.094   4.942  0.1458  0.6815  0.1114
 2105TIP3   OH2 6320   5.118   5.465   4.946  0.0631  0.0097 -0.0610
 2105TIP3    H1 6321   5.147   5.552   4.917 -0.0691 -0.3850 -1.4515
 2105TIP3    H2 6322   5.059   5.483   5.019  1.5891  0.9745  0.9896
 2106TIP3   OH2 6323   1.091   3.278   3.842 -0.1869  0.3998 -0.1662
 2106TIP3    H1 6324   1.100   3.270   3.747  1.9831 -0.7544  0.0567
 2106TIP3    H2 6325   1.100   3.372   3.859 -0.1262  0.5671 -1.0585
 2107TIP3   OH2 6326   4.701   5.834   4.731 -0.5538 -0.3031 -0.2214
 2107TIP3    H1 6327   4.709   5.909   4.790 -1.2754 -1.0728  0.8884
 2107TIP3    H2 6328   4.626   5.855   4.676 -0.0275  0.3101 -0.7177
 2108TIP3   OH2 6329   0.319   5.874   4.165  0.0656  0.0838  0.8563
 2108TIP3    H1 6330   0.308   5.860   4.259 -0.5999 -2.7679  0.4508
 2108TIP3    H2 6331   0.231   5.893   4.133 -0.2159 -1.7311  0.4722
 2109TIP3   OH2 6332   2.216   4.725   4.973 -0.0690 -0.3139 -0.2424
 2109TIP3    H1 6333   2.233   4.819   4.965 -1.6919 -0.0450 -0.9768
 2109TIP3    H2 6334   2.166   4.703   4.894 -0.5951 -1.5679  0.4156
 2110TIP3   OH2 6335   3.425   0.235   3.072 -0.3031  0.2073 -0.5600
 2110TIP3    H1 6336   3.386   0.305   3.019  0.1924 -0.6029 -2.0472
 2110TIP3    H2 6337   3.449   0.168   3.008  1.9735 -0.0377  0.4743
 2111TIP3   OH2 6338   4.058   1.026   1.624 -0.0131 -0.1783 -0.0623
 2111TIP3    H1 6339   4.024   1.073   1.547  2.1903  0.6342 -0.6214
 2111TIP3    H2 6340   3.992   1.041   1.692 -1.2640  0.4068 -1.3433
 2112TIP3   OH2 6341   1.298   5.169   2.119  0.4937  0.3844  0.2255
 2112TIP3    H1 6342   1.382   5.154   2.161  1.3349  1.0137 -1.1777
 2112TIP3    H2 6343   1.298   5.111   2.043  0.4582  1.6931 -0.8087
 2113TIP3   OH2 6344   1.405   4.739   4.976 -0.2803 -0.0521  0.5149
 2113TIP3    H1 6345   1.422   4.682   5.051  1.0098 -1.9725 -1.1323
 2113TIP3    H2 6346   1.315   4.720   4.952  0.3655 -2.1249 -0.5021
 2114TIP3   OH2 6347   6.259   2.293   4.814  0.3079 -0.1170  0.5195
 2114TIP3    H1 6348   6.203   2.355   4.863  0.5023 -0.3242  1.0075
 2114TIP3    H2 6349   6.311   2.349   4.756  0.1723  0.1451  0.6457
 2115TIP3   OH2 6350   5.659   2.431   2.620  0.1355 -0.0959 -0.2493
 2115TIP3    H1 6351   5.609   2.467   2.693 -0.6283 -1.7304  0.0786
 2115TIP3    H2 6352   5.732   2.492   2.609 -0.4248  0.8628  1.0565
 2116TIP3   OH2 6353   5.819   1.557   1.358 -0.6542  0.2636  0.2462
 2116TIP3    H1 6354   5.830   1.512   1.442 -1.3869 -0.5257 -0.0602
 2116TIP3    H2 6355   5.828   1.650   1.379  0.2555  0.0257  1.0103
 2117TIP3   OH2 6356   1.054   0.852   5.077 -0.6302  0.5396  0.2095
 2117TIP3    H1 6357   0.963   0.828   5.057  0.1799  0.0552 -3.7609
 2117TIP3    H2 6358   1.073   0.925   5.018  2.1343 -0.8170 -0.7515
 2118TIP3   OH2 6359   1.861   2.270   2.489 -0.0359 -0.4252  0.1171
 2118TIP3    H1 6360   1.797   2.339   2.472  2.0418  1.5677 -0.1750
 2118TIP3    H2 6361   1.894   2.246   2.402  0.8857 -0.0785  0.3545
 2119TIP3   OH2 6362   1.053   0.226   3.192 -0.1669 -0.2819 -0.0925
 2119TIP3    H1 6363   1.023   0.280   3.265  0.8328 -0.2367  0.2945
 2119TIP3    H2 6364   1.101   0.287   3.136  0.6556 -0.6991  0.1595
 2120TIP3   OH2 6365   1.467   0.873   2.726 -0.0062 -0.4967 -0.3328
 2120TIP3    H1 6366   1.539   0.913   2.775 -0.1922 -2.0544  1.2876
 2120TIP3    H2 6367   1.388   0.901   2.773 -0.3788 -0.0373 -1.2066
 2121TIP3   OH2 6368   4.445   3.818   0.865  0.3098  0.4481  0.4903
 2121TIP3    H1 6369   4.453   3.782   0.776  1.7814  0.5200  0.5640
 2121TIP3    H2 6370   4.369   3.773   0.902  0.2304 -0.2748 -0.4957
 2122TIP3   OH2 6371   0.510   4.374   4.707  0.5576 -0.1221 -0.4632
 2122TIP3    H1 6372   0.418   4.349   4.712  0.7504 -0.6419  0.8896
 2122TIP3    H2 6373   0.552   4.325   4.778  1.7058  0.8364 -0.4555
 2123TIP3   OH2 6374   6.201   1.662   4.729 -1.3583 -0.2520  0.0836
 2123TIP3    H1 6375   6.175   1.675   4.638  1.8666  1.0686 -0.7967
 2123TIP3    H2 6376   6.248   1.742   4.752 -0.9483 -1.0951  2.5094
 2124TIP3   OH2 6377   5.999   2.870   2.569  0.5333 -0.2228 -0.4170
 2124TIP3    H1 6378   6.023   2.924   2.494  0.2407 -0.6321 -0.8130
 2124TIP3    H2 6379   6.025   2.921   2.646  0.2074  0.5009 -0.7807
 2125TIP3   OH2 6380   5.265   0.923   3.181 -0.0404 -0.4618 -0.4546
 2125TIP3    H1 6381   5.247   1.017   3.181 -0.1172 -0.4762 -0.6221
 2125TIP3    H2 6382   5.355   0.917   3.212 -0.3391 -0.3965  0.4629
 2126TIP3   OH2 6383   2.878   3.821   4.851  0.6537  0.1645 -0.2830
 2126TIP3    H1 6384   2.810   3.795   4.790 -0.1916 -1.3036  1.2225
 2126TIP3    H2 6385   2.927   3.741   4.868  1.6789  0.8323  0.0161
 2127TIP3   OH2 6386   4.791   1.860   2.604 -0.2534 -0.5606  0.6938
 2127TIP3    H1 6387   4.839   1.809   2.669 -0.9509 -1.4145  0.5514
 2127TIP3    H2 6388   4.802   1.812   2.522 -1.5515 -0.9136  0.7060
 2128TIP3   OH2 6389   4.350   4.566   0.098 -0.3171  0.0144 -0.2408
 2128TIP3    H1 6390   4.302   4.629   0.044 -0.3775  0.4003  0.2603
 2128TIP3    H2 6391   4.303   4.484   0.086 -0.0309 -0.0261 -1.1780
 2129TIP3   OH2 6392   2.946   0.882   1.124  0.8035 -0.1145  0.3239
 2129TIP3    H1 6393   2.990   0.858   1.043  0.2523  0.1852 -0.0724
 2129TIP3    H2 6394   3.014   0.923   1.178  1.0186  0.2932 -0.2518
 2130TIP3   OH2 6395   4.981   2.009   4.071  0.1334  0.4285 -0.4098
 2130TIP3    H1 6396   5.005   2.013   3.978  0.5682  0.6483 -0.2872
 2130TIP3    H2 6397   4.993   2.098   4.103  0.0050  0.3484 -0.1346
 2131TIP3   OH2 6398   3.631   2.658   4.315 -0.9130 -0.4008  0.3247
 2131TIP3    H1 6399   3.714   2.704   4.331  0.1472 -1.0305 -2.6288
 2131TIP3    H2 6400   3.652   2.566   4.332 -1.3779 -0.4372  0.7154
 2132TIP3   OH2 6401   6.088   0.484   4.487  0.0899 -0.3870  0.3102
 2132TIP3    H1 6402   6.091   0.568   4.442 -0.2892 -0.6422 -0.2076
 2132TIP3    H2 6403   5.998   0.476   4.519 -0.3124 -1.2292 -0.9242
 2133TIP3   OH2 6404   0.974   0.561   5.184  0.0294 -0.2673 -0.1031
 2133TIP3    H1 6405   0.944   0.496   5.120 -1.6049  0.3835 -0.0337
 2133TIP3    H2 6406   1.065   0.577   5.160  0.7375 -3.0843  0.3002
 2134TIP3   OH2 6407   0.313   1.783   4.030 -0.5739 -0.1231 -0.1804
 2134TIP3    H1 6408   0.355   1.858   3.989  0.9176 -0.6071  0.3757
 2134TIP3    H2 6409   0.327   1.797   4.124 -0.5345 -0.9271 -0.0596
 2135TIP3   OH2 6410   5.324   1.310   4.136  0.1712  0.1379 -0.0353
 2135TIP3    H1 6411   5.406   1.275   4.169 -0.1449 -1.6364 -0.9897
 2135TIP3    H2 6412   5.347   1.356   4.055  0.0090 -2.7499 -1.8825
 2136TIP3   OH2 6413   0.202   5.079   4.644 -0.2882 -0.2080 -0.1692
 2136TIP3    H1 6414   0.231   5.170   4.633  1.0023 -0.3825  1.4492
 2136TIP3    H2 6415   0.244   5.050   4.725 -1.4419 -1.9586 -0.1475
 2137TIP3   OH2 6416   2.142   3.557   4.604  0.0551 -0.5064  0.1548
 2137TIP3    H1 6417   2.138   3.542   4.510  2.1020  0.1943 -0.0927
 2137TIP3    H2 6418   2.151   3.652   4.613  3.9122 -0.7679  0.7547
 2138TIP3   OH2 6419   5.717   5.961   0.850  0.3188  0.0002  0.5015
 2138TIP3    H1 6420   5.746   5.892   0.909  0.9256  0.7191  1.0648
 2138TIP3    H2 6421   5.677   5.915   0.777  1.1701 -0.9652  0.6208
 2139TIP3   OH2 6422   5.017   0.255   4.746  0.4635 -0.0830  0.4752
 2139TIP3    H1 6423   5.041   0.260   4.653  0.4513 -1.2342  0.3939
 2139TIP3    H2 6424   4.938   0.308   4.753  0.7228  0.3788 -0.0875
 2140TIP3   OH2 6425   5.056   5.233   4.789 -0.2364  0.0110  0.7408
 2140TIP3    H1 6426   5.078   5.313   4.837 -0.9951  0.2932  0.6356
 2140TIP3    H2 6427   5.111   5.237   4.710 -0.6711  0.7277  0.4547
 2141TIP3   OH2 6428   1.139   1.379   4.928 -0.1755 -0.2618 -0.0770
 2141TIP3    H1 6429   1.132   1.344   4.839  1.0942 -0.2827 -0.1863
 2141TIP3    H2 6430   1.142   1.301   4.983 -1.4936 -0.2448  0.0507
 2142TIP3   OH2 6431   1.358   2.216   3.111  0.0232  0.1344  0.3715
 2142TIP3    H1 6432   1.424   2.203   3.042 -0.3234  0.3498 -0.0023
 2142TIP3    H2 6433   1.406   2.198   3.192  0.4421 -0.1054  0.0813
 2143TIP3   OH2 6434   1.571   0.251   0.288  0.2145  0.5046  0.0492
 2143TIP3    H1 6435   1.498   0.212   0.336  0.3341  0.2400  0.0217
 2143TIP3    H2 6436   1.586   0.191   0.214  1.1886 -0.0695  0.6802
 2144TIP3   OH2 6437   1.903   0.155   2.650  0.1943  0.0412 -0.8602
 2144TIP3    H1 6438   1.942   0.226   2.702 -1.2234  0.3201 -0.1332
 2144TIP3    H2 6439   1.922   0.076   2.701 -0.3085  0.1948 -0.4252
 2145TIP3   OH2 6440   0.734   1.054   3.236  0.6420 -0.2363 -0.1679
 2145TIP3    H1 6441   0.666   1.026   3.297 -0.2872 -0.3342 -1.2057
 2145TIP3    H2 6442   0.797   1.102   3.290  0.0116 -0.5870  0.9029
 2146TIP3   OH2 6443   2.144   5.625   1.920  0.1776  0.0756  0.4275
 2146TIP3    H1 6444   2.067   5.671   1.955  0.3174 -0.3486  1.3393
 2146TIP3    H2 6445   2.116   5.534   1.914  1.5363 -0.7314  3.9177
 2147TIP3   OH2 6446   6.084   1.021   2.975  0.6637  0.5478  0.3984
 2147TIP3    H1 6447   6.037   0.994   3.054  0.9037 -1.7377 -0.1927
 2147TIP3    H2 6448   6.088   1.117   2.982 -3.2804  0.8385  0.9227
 2148TIP3   OH2 6449   2.811   1.304   2.903 -0.1848  0.0958  0.0770
 2148TIP3    H1 6450   2.774   1.299   2.815 -1.4331  0.0403  0.5891
 2148TIP3    H2 6451   2.745   1.349   2.955 -1.5856 -3.7498  2.0355
 2149TIP3   OH2 6452   1.094   1.024   1.728  0.6116 -0.0573  0.2439
 2149TIP3    H1 6453   1.176   0.979   1.748 -0.1036 -2.0542 -1.0579
 2149TIP3    H2 6454   1.035   0.955   1.697 -1.4199  1.3907  0.6558
 2150TIP3   OH2 6455   2.373   0.437   0.417 -0.3088  0.2195 -0.1935
 2150TIP3    H1 6456   2.307   0.398   0.474 -0.0214  0.2484  0.1597
 2150TIP3    H2 6457   2.326   0.454   0.335 -0.1846 -1.8972 -0.7762
 2151TIP3   OH2 6458   5.431   2.719   0.668  0.4986 -0.1159  0.1123
 2151TIP3    H1 6459   5.336   2.728   0.674  0.6184  0.4071  2.4964
 2151TIP3    H2 6460   5.446   2.625   0.671  0.0700 -0.1728  1.7998
 2152TIP3   OH2 6461   3.271   3.906   4.375 -0.5606  0.4409 -0.4263
 2152TIP3    H1 6462   3.182   3.896   4.407 -0.4625  1.0608  0.0513
 2152TIP3    H2 6463   3.325   3.912   4.453  0.1197 -1.5026 -0.6776
 2153TIP3   OH2 6464   1.395   5.705   2.885 -0.3680  0.0405  0.4640
 2153TIP3    H1 6465   1.358   5.726   2.970 -0.0076  3.8394 -0.1233
 2153TIP3    H2 6466   1.326   5.729   2.822  0.0488 -0.8882 -0.3746
 2154TIP3   OH2 6467   3.130   1.137   0.643  0.4495  0.1867  0.4056
 2154TIP3    H1 6468   3.097   1.048   0.656 -0.8263  0.5482 -0.1562
 2154TIP3    H2 6469   3.097   1.163   0.557  3.7386 -0.0401 -1.0746
 2155TIP3   OH2 6470   2.739   2.273   4.678 -0.4451  0.3898 -0.6745
 2155TIP3    H1 6471   2.719   2.251   4.768 -0.7240  0.4991 -0.7089
 2155TIP3    H2 6472   2.661   2.318   4.646 -0.2504  0.5797 -0.8913
 2156TIP3   OH2 6473   3.416   5.656   4.796 -0.1099 -0.0357  0.0793
 2156TIP3    H1 6474   3.497   5.609   4.819  0.1228  0.4174  0.2056
 2156TIP3    H2 6475   3.346   5.603   4.834 -0.2594 -2.6300 -3.3068
 2157TIP3   OH2 6476   4.559   5.754   3.627  0.2175 -0.2445 -0.0817
 2157TIP3    H1 6477   4.549   5.673   3.678 -1.9126  0.9823  1.5808
 2157TIP3    H2 6478   4.589   5.819   3.690 -0.5039  0.8439 -0.8288
 2158TIP3   OH2 6479   4.509   3.354   2.085  0.0052  0.2998 -0.2094
 2158TIP3    H1 6480   4.468   3.342   1.999  0.4063  0.7239 -0.4664
 2158TIP3    H2 6481   4.494   3.446   2.106 -0.0234  0.2169  0.1434
 2159TIP3   OH2 6482   0.108   2.493   0.951  0.0847  0.1262  0.0031
 2159TIP3    H1 6483   0.122   2.406   0.989  0.2202  0.2529  0.2406
 2159TIP3    H2 6484   0.144   2.485   0.862 -0.1874 -0.1516 -0.0858
 2160TIP3   OH2 6485   3.606   4.355   2.527  0.0038 -0.0255 -0.0540
 2160TIP3    H1 6486   3.659   4.374   2.450  1.7892  0.9651  1.3339
 2160TIP3    H2 6487   3.659   4.387   2.600 -1.1736 -1.8431  1.6758
 2161TIP3   OH2 6488   1.849   0.597   1.240 -1.1635 -0.1588  0.5962
 2161TIP3    H1 6489   1.844   0.555   1.154 -0.2104  0.3208  0.2859
 2161TIP3    H2 6490   1.884   0.684   1.222  1.8168 -0.9902  1.6989
 2162TIP3   OH2 6491   4.100   3.306   2.761  0.4542 -0.0295  0.1675
 2162TIP3    H1 6492   4.042   3.382   2.770 -0.6460 -0.8927  0.5602
 2162TIP3    H2 6493   4.166   3.334   2.698  0.3038  1.3898  0.6034
 2163TIP3   OH2 6494   1.611   0.636   2.487  0.0462 -0.4631  0.1311
 2163TIP3    H1 6495   1.550   0.599   2.551 -0.9164 -2.7325 -1.9559
 2163TIP3    H2 6496   1.564   0.710   2.449 -0.3093 -0.5466  0.3993
 2164TIP3   OH2 6497   1.408   3.562   3.775  0.0922 -0.1323  0.5453
 2164TIP3    H1 6498   1.387   3.530   3.863 -1.3170  1.8847  0.9994
 2164TIP3    H2 6499   1.475   3.629   3.789  0.5109 -0.4192 -0.0313
 2165TIP3   OH2 6500   2.116   5.728   2.733 -0.2295  0.0470 -0.3425
 2165TIP3    H1 6501   2.206   5.718   2.703 -0.2928 -1.6022 -0.0956
 2165TIP3    H2 6502   2.120   5.799   2.798  0.9366 -0.1683 -0.1561
 2166TIP3   OH2 6503   3.397   4.838   3.119  0.0524  0.3218 -0.2272
 2166TIP3    H1 6504   3.461   4.899   3.156 -0.5817  0.3627  0.8594
 2166TIP3    H2 6505   3.320   4.847   3.176 -1.2065  0.8229 -1.9020
 2167TIP3   OH2 6506   3.619   2.705   4.727  0.0022 -0.5554  0.1611
 2167TIP3    H1 6507   3.558   2.666   4.664  0.7658  1.3100 -1.8841
 2167TIP3    H2 6508   3.573   2.700   4.811 -2.1179 -1.0106 -0.9458
 2168TIP3   OH2 6509   2.428   1.828   3.766  0.3965 -0.1185 -0.1985
 2168TIP3    H1 6510   2.506   1.783   3.797  0.3487 -0.8244 -1.0696
 2168TIP3    H2 6511   2.385   1.859   3.846  0.3114 -1.8207  0.4505
 2169TIP3   OH2 6512   1.013   2.103   2.519  0.4573  0.0919 -0.2059
 2169TIP3    H1 6513   1.021   2.155   2.439 -0.8977  0.5080 -0.1093
 2169TIP3    H2 6514   1.019   2.167   2.590 -1.2909  0.1997 -0.0898
 2170TIP3   OH2 6515   5.383   5.140   0.183 -0.1638 -0.0687  0.4484
 2170TIP3    H1 6516   5.332   5.221   0.174 -1.2670 -0.7040  0.8013
 2170TIP3    H2 6517   5.318   5.070   0.178  1.0382 -1.1413 -2.8085
 2171TIP3   OH2 6518   4.106   0.284   0.052  0.0382 -0.3057  0.2521
 2171TIP3    H1 6519   4.180   0.253   0.105 -0.2510  0.7382  1.3133
 2171TIP3    H2 6520   4.031   0.235   0.085 -0.1817  0.5053  1.0061
 2172TIP3   OH2 6521   3.458   1.756   2.903  0.2632  0.0712 -0.2339
 2172TIP3    H1 6522   3.467   1.710   2.820  1.8282 -0.6744  0.2993
 2172TIP3    H2 6523   3.408   1.695   2.958 -0.1605  0.2611 -0.4052
 2173TIP3   OH2 6524   2.937   4.731   3.820  0.0664 -0.1014 -0.4001
 2173TIP3    H1 6525   2.922   4.661   3.756 -0.5839 -0.5551  0.2395
 2173TIP3    H2 6526   2.876   4.713   3.891  0.7847  0.3903  0.3667
 2174TIP3   OH2 6527   4.550   2.052   2.236 -0.6132 -0.8028 -0.1635
 2174TIP3    H1 6528   4.570   1.970   2.281  0.3024 -0.4547  0.0821
 2174TIP3    H2 6529   4.547   2.029   2.144 -0.7765 -1.1908 -0.0626
 2175TIP3   OH2 6530   3.386   2.546   4.801 -0.5110  0.6850  0.5052
 2175TIP3    H1 6531   3.364   2.632   4.837 -0.3713  0.6155  0.7614
 2175TIP3    H2 6532   3.313   2.489   4.826 -0.7089  0.7799  0.1460
 2176TIP3   OH2 6533   0.040   2.184   4.404  0.4352 -0.0511 -0.1984
 2176TIP3    H1 6534   0.071   2.121   4.339 -0.3350 -0.2896 -0.3397
 2176TIP3    H2 6535   0.093   2.263   4.387  0.8406 -0.3911 -0.5437
 2177TIP3   OH2 6536   2.739   0.153   2.612 -0.1545 -0.0786 -0.2376
 2177TIP3    H1 6537   2.815   0.098   2.628  0.7986  1.2910  0.1036
 2177TIP3    H2 6538   2.674   0.094   2.573  1.0625 -1.2714 -0.5179
 2178TIP3   OH2 6539   1.639   4.636   2.257  0.1596 -0.1062 -0.3817
 2178TIP3    H1 6540   1.690   4.558   2.278  1.5038  0.8459 -0.0119
 2178TIP3    H2 6541   1.626   4.680   2.341 -0.1689  0.3314 -0.6543
 2179TIP3   OH2 6542   6.214   5.509   1.693 -0.4278 -1.0129  0.0995
 2179TIP3    H1 6543   6.127   5.493   1.657 -1.1037 -1.6892  1.9311
 2179TIP3    H2 6544   6.199   5.537   1.783  1.2562 -1.9614  0.7326
 2180TIP3   OH2 6545   0.026   2.135   5.049 -0.0753  0.2733  0.2086
 2180TIP3    H1 6546   0.031   2.229   5.035 -1.9319  0.2705 -0.8135
 2180TIP3    H2 6547   0.062   2.097   4.968 -0.0913  0.1122  0.2776
 2181TIP3   OH2 6548   3.432   5.252   3.544 -0.4116 -0.1183 -0.3633
 2181TIP3    H1 6549   3.492   5.194   3.498 -1.5831  0.4127 -2.6800
 2181TIP3    H2 6550   3.383   5.193   3.603  1.4799 -0.7185  0.7030
 2182TIP3   OH2 6551   0.798   4.436   1.942  0.1046 -0.1668 -0.2588
 2182TIP3    H1 6552   0.832   4.350   1.917 -0.1077 -0.3875  0.2117
 2182TIP3    H2 6553   0.807   4.488   1.862  0.5816 -0.5142 -0.4429
 2183TIP3   OH2 6554   5.354   4.415   0.524  0.6645  0.2250  0.2893
 2183TIP3    H1 6555   5.443   4.416   0.488 -0.0051  1.2518 -1.4352
 2183TIP3    H2 6556   5.326   4.323   0.516  1.9498 -0.3816  1.9835
 2184TIP3   OH2 6557   4.934   3.744   0.574  0.4916 -0.1960 -0.4286
 2184TIP3    H1 6558   4.967   3.711   0.491 -0.1233  2.1917 -1.6882
 2184TIP3    H2 6559   4.839   3.750   0.562  0.5058  1.2039  0.0395
 2185TIP3   OH2 6560   4.592   1.935   4.867  0.0533 -0.1140  0.6157
 2185TIP3    H1 6561   4.683   1.942   4.897  0.1864 -3.8647  1.6959
 2185TIP3    H2 6562   4.598   1.942   4.772  1.3121  0.7558  0.7393
 2186TIP3   OH2 6563  -0.003   5.937   0.812  0.2178 -0.1515  0.2023
 2186TIP3    H1 6564  -0.028   5.958   0.722  0.6133 -1.0768 -0.1325
 2186TIP3    H2 6565   0.091   5.954   0.816  0.1914 -0.0552  0.4623
 2187TIP3   OH2 6566   1.752   4.128   1.447 -0.4068 -0.0212  0.4681
 2187TIP3    H1 6567   1.728   4.036   1.461 -2.4134  0.1698 -1.2821
 2187TIP3    H2 6568   1.807   4.126   1.369  3.0078 -0.0762  2.6557
 2188TIP3   OH2 6569   6.232   3.078   2.851  0.1474  0.0630  0.2445
 2188TIP3    H1 6570   6.180   3.115   2.780  0.3466 -1.3850 -0.7098
 2188TIP3    H2 6571   6.175   3.082   2.927 -0.7771 -0.0251 -0.4233
 2189TIP3   OH2 6572   0.230   2.986   2.594 -0.7048  0.2019 -0.3448
 2189TIP3    H1 6573   0.212   3.077   2.616 -0.0209  0.1403  0.5047
 2189TIP3    H2 6574   0.325   2.983   2.583 -0.0797 -1.2408  3.8076
 2190TIP3   OH2 6575   2.155   3.009   1.631 -0.5811 -0.2253  0.4316
 2190TIP3    H1 6576   2.071   2.963   1.633 -1.5155  1.3288 -0.7033
 2190TIP3    H2 6577   2.140   3.088   1.682 -0.0067  0.3696 -0.3029
 2191TIP3   OH2 6578   6.304   1.271   1.194 -0.2592 -0.1865 -0.2296
 2191TIP3    H1 6579   6.365   1.249   1.265  0.8833 -0.0158 -1.1539
 2191TIP3    H2 6580   6.262   1.352   1.223 -1.7779 -1.4543  1.4711
 2192TIP3   OH2 6581   6.335   1.340   0.779 -0.4150  0.7124  0.2815
 2192TIP3    H1 6582   6.278   1.332   0.703 -0.3546  3.0525 -0.0880
 2192TIP3    H2 6583   6.281   1.385   0.844  0.2312  0.7063  0.8299
 2193TIP3   OH2 6584   2.680   4.341   2.356 -0.1201 -0.7526  0.2626
 2193TIP3    H1 6585   2.682   4.309   2.266  1.3776 -3.0837  1.0012
 2193TIP3    H2 6586   2.752   4.403   2.361 -1.7481  1.3272 -0.6819
 2194TIP3   OH2 6587   2.580   1.426   2.985  0.8150 -0.5366 -0.7447
 2194TIP3    H1 6588   2.613   1.394   3.070  1.0690 -1.2466 -1.1005
 2194TIP3    H2 6589   2.485   1.423   2.994  0.7781 -2.8193 -1.2428
 2195TIP3   OH2 6590   6.260   0.420   4.060 -0.4648 -0.5489 -0.1670
 2195TIP3    H1 6591   6.231   0.497   4.011  0.4849  1.5931  2.3797
 2195TIP3    H2 6592   6.181   0.368   4.073 -1.1638  0.0382 -1.7985
 2196TIP3   OH2 6593   2.200   2.459   2.448 -0.1765  0.2018  0.3812
 2196TIP3    H1 6594   2.147   2.495   2.519  0.6871  0.9266  0.6673
 2196TIP3    H2 6595   2.135   2.427   2.384 -0.9724 -0.8428  1.6426
 2197TIP3   OH2 6596   2.070   0.298   1.455 -0.0514  0.0558  0.2706
 2197TIP3    H1 6597   2.059   0.205   1.434 -0.9161  0.0998  0.5012
 2197TIP3    H2 6598   2.116   0.298   1.540  2.9088 -0.1220 -1.2019
 2198TIP3   OH2 6599   4.294   3.605   3.691 -0.1602  0.4393 -0.0805
 2198TIP3    H1 6600   4.275   3.511   3.689 -0.4290  0.4486  1.1347
 2198TIP3    H2 6601   4.388   3.610   3.704 -0.1823  0.3298  0.1317
 2199TIP3   OH2 6602   6.127   1.613   2.396 -0.1290  0.3887 -0.4996
 2199TIP3    H1 6603   6.122   1.593   2.490  0.2006  0.1272 -0.5364
 2199TIP3    H2 6604   6.075   1.545   2.354  0.7574 -0.2436 -0.6020
 2200TIP3   OH2 6605   1.788   2.151   4.299  0.2084 -0.1690 -0.3930
 2200TIP3    H1 6606   1.754   2.161   4.210  1.8165 -0.2516 -1.0370
 2200TIP3    H2 6607   1.729   2.204   4.353  0.6586  1.9324 -1.8553
 2201TIP3   OH2 6608   0.825   1.469   3.654 -0.0361 -0.5299  0.0263
 2201TIP3    H1 6609   0.760   1.401   3.670  0.4494 -1.1133 -0.4402
 2201TIP3    H2 6610   0.844   1.463   3.560 -0.1780  0.4276 -0.0811
 2202TIP3   OH2 6611   4.610   5.047   4.763  0.0177 -0.1183  0.1878
 2202TIP3    H1 6612   4.609   5.015   4.853 -0.5561  0.7627  0.5122
 2202TIP3    H2 6613   4.557   4.983   4.715 -0.6534  0.0236  0.7112
 2203TIP3   OH2 6614   3.699   5.064   1.973 -0.1681 -0.2420 -0.2433
 2203TIP3    H1 6615   3.779   5.110   1.997 -1.4472  2.0853 -0.1138
 2203TIP3    H2 6616   3.714   5.034   1.883  0.0179  2.4168 -1.2058
 2204TIP3   OH2 6617   5.794   1.234   1.502 -0.0555  0.1764  0.0623
 2204TIP3    H1 6618   5.849   1.220   1.425  0.6962  1.2011  0.3927
 2204TIP3    H2 6619   5.850   1.281   1.564 -1.0536  0.5511  0.7118
 2205TIP3   OH2 6620   5.897   4.847   4.591 -0.3816  0.4336 -0.3376
 2205TIP3    H1 6621   5.850   4.859   4.674  0.1129  0.3958 -0.0434
 2205TIP3    H2 6622   5.829   4.837   4.525 -0.7862  0.9104  0.0025
 2206TIP3   OH2 6623   1.914   2.187   0.638  0.1999  0.0397  0.3317
 2206TIP3    H1 6624   1.941   2.150   0.722  1.2155 -1.6970 -0.6947
 2206TIP3    H2 6625   1.886   2.277   0.658 -1.6570 -1.0037  2.8309
 2207TIP3   OH2 6626   5.783   1.826   1.352 -0.3104 -0.7917 -0.0516
 2207TIP3    H1 6627   5.763   1.918   1.369 -0.4784 -0.7679 -0.3698
 2207TIP3    H2 6628   5.853   1.829   1.286 -0.4252 -0.8947 -0.1770
 2208TIP3   OH2 6629   4.701   0.527   2.201  0.5269 -0.5389  0.3225
 2208TIP3    H1 6630   4.661   0.577   2.129  0.0728 -2.2695 -0.6945
 2208TIP3    H2 6631   4.776   0.580   2.228  2.2675 -0.9114 -3.1455
 2209TIP3   OH2 6632   0.063   2.168   3.528  0.3954 -0.3213  0.2352
 2209TIP3    H1 6633   0.066   2.187   3.434 -1.1548 -0.3617  0.1563
 2209TIP3    H2 6634   0.140   2.213   3.564 -0.2957  1.7268 -0.7005
 2210TIP3   OH2 6635   0.947   0.360   4.517 -0.3075 -0.1243  0.1612
 2210TIP3    H1 6636   0.862   0.399   4.496 -0.1431 -0.0956 -0.4493
 2210TIP3    H2 6637   1.010   0.430   4.500  0.0084 -0.6817 -1.0886
 2211TIP3   OH2 6638   6.079   5.098   1.131  0.2216  0.2345  0.1930
 2211TIP3    H1 6639   6.121   5.134   1.052  1.3671 -0.9391  0.2366
 2211TIP3    H2 6640   6.068   5.005   1.111 -1.7427  0.3728  0.4804
 2212TIP3   OH2 6641   6.231   4.886   0.255 -0.1119 -0.6715 -0.3525
 2212TIP3    H1 6642   6.234   4.791   0.239  0.0227 -0.4775 -1.6428
 2212TIP3    H2 6643   6.143   4.901   0.289 -1.1250 -0.9572 -2.6341
 2213TIP3   OH2 6644   5.245   5.646   1.461 -0.2411  0.1884  0.3839
 2213TIP3    H1 6645   5.174   5.584   1.443  0.0601  0.0450 -0.3496
 2213TIP3    H2 6646   5.208   5.709   1.523 -0.7965 -0.2696  0.5210
 2214TIP3   OH2 6647   5.451   5.446   3.499  0.3001 -0.4669  0.5232
 2214TIP3    H1 6648   5.485   5.384   3.563  2.8794  0.5728  0.2629
 2214TIP3    H2 6649   5.450   5.530   3.545 -0.5639 -0.2010  0.0438
 2215TIP3   OH2 6650   0.233   1.716   4.803 -0.1866 -0.5168  0.3417
 2215TIP3    H1 6651   0.286   1.773   4.747 -1.0540 -1.2732 -1.3353
 2215TIP3    H2 6652   0.297   1.658   4.846  0.4484 -0.6376 -0.7254
 2216TIP3   OH2 6653   5.164   3.799   0.083 -0.1477 -0.1571  0.7741
 2216TIP3    H1 6654   5.171   3.714   0.039  0.0574  0.9335 -1.4671
 2216TIP3    H2 6655   5.101   3.848   0.030 -0.9068  0.8328  2.5084
 2217TIP3   OH2 6656   2.318   5.575   2.136  0.4056  0.2699  1.1655
 2217TIP3    H1 6657   2.292   5.624   2.058 -0.1138 -0.4323  0.8809
 2217TIP3    H2 6658   2.414   5.580   2.137  0.5011 -0.6825 -0.1862
 2218TIP3   OH2 6659   3.304   1.887   4.038 -0.0307  0.2135 -0.3187
 2218TIP3    H1 6660   3.227   1.836   4.013 -0.3414  0.2383  0.5375
 2218TIP3    H2 6661   3.321   1.944   3.963 -0.8230  0.1691 -0.5385
 2219TIP3   OH2 6662   4.153   4.904   3.085 -0.6211  0.2737  0.4232
 2219TIP3    H1 6663   4.186   4.943   3.166  2.1157  1.2920 -1.0285
 2219TIP3    H2 6664   4.201   4.822   3.077 -0.7170  0.2761 -0.2408
 2220TIP3   OH2 6665   2.130   0.777   3.783  0.3280 -0.2794  0.1487
 2220TIP3    H1 6666   2.164   0.821   3.860 -2.7564  0.3747  1.3038
 2220TIP3    H2 6667   2.122   0.845   3.717 -0.2935 -0.0286  0.4677
 2221TIP3   OH2 6668   1.293   2.968   0.764  0.4362  0.0483 -0.3865
 2221TIP3    H1 6669   1.245   2.957   0.682  1.6982  0.1416 -1.1651
 2221TIP3    H2 6670   1.233   3.017   0.820 -0.5915 -0.3279 -1.1169
 2222TIP3   OH2 6671   1.425   4.362   0.330 -0.0898  0.1149 -0.5793
 2222TIP3    H1 6672   1.356   4.424   0.354  0.2034 -0.2962  1.4980
 2222TIP3    H2 6673   1.487   4.415   0.279 -1.2617  0.7941 -1.3577
 2223TIP3   OH2 6674   0.309   5.132   4.261 -0.0528  0.6735  0.6018
 2223TIP3    H1 6675   0.387   5.077   4.258  0.6414  1.6536 -0.7587
 2223TIP3    H2 6676   0.238   5.073   4.286  0.3187 -1.2858 -2.4762
 2224TIP3   OH2 6677   2.002   0.131   4.577  0.1687  0.8417  0.0031
 2224TIP3    H1 6678   2.062   0.189   4.529 -0.4273  1.3003 -0.2028
 2224TIP3    H2 6679   1.995   0.171   4.663 -1.4874  2.0220 -0.6210
 2225TIP3   OH2 6680   5.101   1.219   3.586  0.6479 -0.0228 -0.0085
 2225TIP3    H1 6681   5.051   1.299   3.571  0.3301  0.2794  2.3357
 2225TIP3    H2 6682   5.042   1.149   3.556  1.4503  0.5447 -3.3739
 2226TIP3   OH2 6683   4.503   4.899   3.955 -0.3574  0.5925  0.3418
 2226TIP3    H1 6684   4.511   4.919   3.862 -0.0368  2.7297  0.7821
 2226TIP3    H2 6685   4.444   4.823   3.958 -0.2631  0.3939 -1.5918
 2227TIP3   OH2 6686   1.187   3.802   0.031 -0.5659 -0.4009  0.7539
 2227TIP3    H1 6687   1.230   3.720   0.005 -0.4186 -0.0846 -0.0419
 2227TIP3    H2 6688   1.238   3.833   0.106  0.7760  0.0846 -0.3119
 2228TIP3   OH2 6689   4.051   4.904   2.293 -0.0799  0.0818 -0.7899
 2228TIP3    H1 6690   4.027   4.858   2.213  0.4554  0.9915 -1.4840
 2228TIP3    H2 6691   4.069   4.994   2.266 -0.7802  0.6382  0.4944
 2229TIP3   OH2 6692   1.042   3.433   3.072  0.1963 -0.3163  0.8966
 2229TIP3    H1 6693   0.962   3.485   3.062 -0.3884 -1.5742 -2.0005
 2229TIP3    H2 6694   1.108   3.481   3.021  1.0309  0.1345  2.3551
 2230TIP3   OH2 6695   4.133   5.651   5.194 -0.1855 -0.1322 -0.1466
 2230TIP3    H1 6696   4.113   5.715   5.126 -0.3169  1.1840  1.0822
 2230TIP3    H2 6697   4.205   5.599   5.157 -0.4161  0.3737 -1.3733
 2231TIP3   OH2 6698   2.285   3.313   1.362 -0.3341 -0.3584 -0.5876
 2231TIP3    H1 6699   2.290   3.326   1.267  1.0746 -0.6871 -0.5903
 2231TIP3    H2 6700   2.285   3.218   1.374  1.0378 -0.3446 -0.2451
 2232TIP3   OH2 6701   6.033   5.267   3.197  0.0722  0.1944 -0.3278
 2232TIP3    H1 6702   6.098   5.269   3.127 -0.2778 -0.9629 -0.7166
 2232TIP3    H2 6703   5.975   5.340   3.178  0.5426  0.4800 -0.6864
 2233TIP3   OH2 6704   3.275   2.104   0.339 -0.7162  0.1112 -0.1187
 2233TIP3    H1 6705   3.365   2.098   0.373 -0.5810 -0.1173 -0.5105
 2233TIP3    H2 6706   3.253   2.014   0.316 -0.2581  0.4609 -2.0337
 2234TIP3   OH2 6707   3.417   5.028   0.070  0.4195  0.7160 -0.5293
 2234TIP3    H1 6708   3.367   4.948   0.089  0.6367  0.5841 -0.5036
 2234TIP3    H2 6709   3.389   5.054  -0.017 -0.2152  1.0411 -0.2335
 2235TIP3   OH2 6710   3.542   5.939   4.120  0.3513  0.7351  0.5402
 2235TIP3    H1 6711   3.564   6.031   4.133 -1.8682  1.2810  0.7329
 2235TIP3    H2 6712   3.478   5.919   4.188 -0.2277 -0.5515 -0.3355
 2236TIP3   OH2 6713   4.296   5.736   0.997  0.0956  0.0398  0.2876
 2236TIP3    H1 6714   4.378   5.775   0.967  1.1653 -0.9742  1.7209
 2236TIP3    H2 6715   4.264   5.686   0.923 -0.4848  2.2819 -1.0667
 2237TIP3   OH2 6716   5.812   5.712   1.719  0.4814  0.2136  0.2034
 2237TIP3    H1 6717   5.724   5.676   1.706 -0.2431  1.8662  0.3061
 2237TIP3    H2 6718   5.844   5.667   1.798 -0.2398 -0.4481  0.1386
 2238TIP3   OH2 6719   3.476   3.840   4.187  0.5929  0.0008 -0.1596
 2238TIP3    H1 6720   3.453   3.750   4.162  0.7445 -0.4907  1.3653
 2238TIP3    H2 6721   3.400   3.872   4.234  0.1469  1.0566 -1.5285
 2239TIP3   OH2 6722   2.557   5.208   3.743  0.5124  0.0628 -0.2576
 2239TIP3    H1 6723   2.505   5.202   3.662 -0.0393  1.9254 -0.0990
 2239TIP3    H2 6724   2.641   5.243   3.715  0.8030 -0.5516 -0.1752
 2240TIP3   OH2 6725   4.354   4.264   5.103  0.3109  0.3730 -0.1470
 2240TIP3    H1 6726   4.360   4.169   5.104  0.2480  0.3680 -0.2547
 2240TIP3    H2 6727   4.296   4.285   5.176  2.1004  0.4622  1.3243
 2241TIP3   OH2 6728   2.544   1.852   0.939  0.0391 -0.2899  0.0732
 2241TIP3    H1 6729   2.508   1.913   0.874  1.3251  0.7070  0.2536
 2241TIP3    H2 6730   2.636   1.876   0.946  0.7351 -2.6688 -0.2664
 2242TIP3   OH2 6731   1.051   0.604   4.443 -0.0629  0.2212 -0.3776
 2242TIP3    H1 6732   1.017   0.683   4.483  0.0538  0.8612 -1.4994
 2242TIP3    H2 6733   1.133   0.631   4.402 -0.0660 -0.4501 -0.8439
 2243TIP3   OH2 6734   5.701   2.437   0.390  0.4519  0.4517 -0.5809
 2243TIP3    H1 6735   5.643   2.488   0.447  0.3562  1.3961 -1.4895
 2243TIP3    H2 6736   5.754   2.384   0.451 -1.4462 -0.5636  0.2678
 2244TIP3   OH2 6737   2.079   1.415   2.668  0.1876 -0.2431  0.2256
 2244TIP3    H1 6738   2.155   1.360   2.685  0.1627 -0.5661 -0.6824
 2244TIP3    H2 6739   2.012   1.354   2.636 -0.1236  0.1838  0.0548
 2245TIP3   OH2 6740   5.770   4.357   2.923 -0.3003  0.7909 -0.5654
 2245TIP3    H1 6741   5.850   4.303   2.924  0.3331  1.6931  0.5920
 2245TIP3    H2 6742   5.802   4.447   2.926 -1.3636  1.2236 -1.5024
 2246TIP3   OH2 6743   2.000   2.835   4.690 -0.3768  0.0057  0.1197
 2246TIP3    H1 6744   1.996   2.829   4.595  0.8710  0.4396  0.0179
 2246TIP3    H2 6745   1.995   2.744   4.720 -1.1096 -0.1109 -0.3308
 2247TIP3   OH2 6746   1.428   4.764   3.260 -0.6106  0.4665 -0.0981
 2247TIP3    H1 6747   1.405   4.671   3.267 -0.2180  0.1105 -2.7825
 2247TIP3    H2 6748   1.360   4.801   3.204 -0.3232  1.6472  0.3100
 2248TIP3   OH2 6749   0.908   2.614   1.335  0.1972 -0.2861 -0.2641
 2248TIP3    H1 6750   0.911   2.520   1.321 -0.9356 -0.3616 -0.1284
 2248TIP3    H2 6751   0.850   2.647   1.265 -1.6784 -0.0687  1.3024
 2249TIP3   OH2 6752   1.101   4.206   4.669  0.0721  0.2441  0.1571
 2249TIP3    H1 6753   1.195   4.200   4.685  0.3167  0.1186 -1.2625
 2249TIP3    H2 6754   1.092   4.272   4.600 -0.6809 -1.3656 -1.3447
 2250TIP3   OH2 6755   6.237   1.244   3.709  0.5159  0.1922  0.1943
 2250TIP3    H1 6756   6.250   1.265   3.801 -0.1736  0.3898  0.2541
 2250TIP3    H2 6757   6.161   1.296   3.683 -0.0564 -0.7750 -0.1519
 2251TIP3   OH2 6758   0.664   5.046   0.629  0.3782 -0.4162 -0.0224
 2251TIP3    H1 6759   0.620   5.040   0.545 -1.6017 -1.1375  1.0091
 2251TIP3    H2 6760   0.641   5.133   0.662 -0.9734 -1.0768  0.8507
 2252TIP3   OH2 6761   3.038   0.808   2.363  0.1154  0.2454  0.4300
 2252TIP3    H1 6762   3.124   0.836   2.332  0.5631 -0.2806  1.1616
 2252TIP3    H2 6763   3.052   0.720   2.399 -1.1092 -0.6499 -1.1399
 2253TIP3   OH2 6764   4.616   4.337   3.891  0.0265 -0.2477 -0.3220
 2253TIP3    H1 6765   4.557   4.263   3.906 -2.2235  1.5501  0.4151
 2253TIP3    H2 6766   4.649   4.359   3.978  0.8566 -0.5197 -0.5668
 2254TIP3   OH2 6767   2.450   5.612   4.007  0.4970 -0.7401  0.0297
 2254TIP3    H1 6768   2.436   5.520   3.986  1.1428 -0.6436 -0.9007
 2254TIP3    H2 6769   2.540   5.629   3.980  0.3893  0.1673  0.2057
 2255TIP3   OH2 6770   6.203   0.274   0.593 -0.7039  0.0461 -0.1197
 2255TIP3    H1 6771   6.211   0.274   0.498  0.9308 -1.0627 -0.0257
 2255TIP3    H2 6772   6.182   0.365   0.615  2.2917  1.1671 -1.3652
 2256TIP3   OH2 6773   4.934   1.034   3.441  0.2778 -0.0100  0.2350
 2256TIP3    H1 6774   4.872   1.082   3.386 -3.3380 -2.6669  1.6152
 2256TIP3    H2 6775   4.956   0.956   3.391  0.8555 -0.1239  0.6501
 2257TIP3   OH2 6776   4.135   4.851   4.915  0.2038  0.4092  0.4443
 2257TIP3    H1 6777   4.215   4.838   4.863  1.0115  0.4810  1.6478
 2257TIP3    H2 6778   4.141   4.787   4.985 -0.6777  0.5980  0.7038
 2258TIP3   OH2 6779   2.572   1.416   1.153  0.3307  0.0308 -0.3231
 2258TIP3    H1 6780   2.539   1.506   1.149  0.4359  0.0968  0.2404
 2258TIP3    H2 6781   2.653   1.423   1.204  1.4845 -0.0471 -2.0509
 2259TIP3   OH2 6782   2.583   4.744   0.909  0.1406  0.2941 -0.2507
 2259TIP3    H1 6783   2.493   4.745   0.878  0.0500 -0.0605 -0.0119
 2259TIP3    H2 6784   2.580   4.788   0.994  0.1711  0.1830 -0.1912
 2260TIP3   OH2 6785   1.220   3.800   5.151 -0.3300 -0.9222  0.0241
 2260TIP3    H1 6786   1.203   3.868   5.086 -0.5947 -0.8723  0.1403
 2260TIP3    H2 6787   1.307   3.768   5.131  0.5438  0.6669  1.0494
 2261TIP3   OH2 6788   1.384   5.477   4.761  0.2431 -0.2724 -0.4629
 2261TIP3    H1 6789   1.376   5.529   4.841  2.3972  0.3978 -0.6069
 2261TIP3    H2 6790   1.458   5.517   4.714 -0.4928 -1.1215 -2.4289
 2262TIP3   OH2 6791   0.991   2.209   2.238 -0.0448  0.5599 -0.3934
 2262TIP3    H1 6792   0.945   2.291   2.254 -0.5599  0.2121 -0.0447
 2262TIP3    H2 6793   1.075   2.235   2.200 -0.6964  1.1866 -1.4401
 2263TIP3   OH2 6794   3.233   5.123   3.790  0.0776  0.1146  0.4470
 2263TIP3    H1 6795   3.141   5.124   3.765  0.0202  1.0632  0.6471
 2263TIP3    H2 6796   3.247   5.037   3.829 -0.4636 -0.4112 -0.5010
 2264TIP3   OH2 6797   6.275   4.153   2.706 -0.1293 -0.1724 -0.2776
 2264TIP3    H1 6798   6.363   4.141   2.670  0.8330  1.8116  1.2191
 2264TIP3    H2 6799   6.262   4.077   2.763  0.3161 -0.8067 -0.9930
 2265TIP3   OH2 6800   4.683   4.061   0.156 -0.3050  1.0484  0.2437
 2265TIP3    H1 6801   4.776   4.075   0.143  0.2126 -0.6203  1.6919
 2265TIP3    H2 6802   4.674   3.966   0.165 -1.7115  1.3202  2.7542
 2266TIP3   OH2 6803   2.054   2.982   2.403  0.6430  0.0493 -0.6414
 2266TIP3    H1 6804   2.017   2.935   2.328  0.7949 -2.5054  0.7472
 2266TIP3    H2 6805   2.130   2.929   2.428 -0.6801 -0.5765  2.6471
 2267TIP3   OH2 6806   1.184   5.211   4.121  0.3374 -0.4118  0.7096
 2267TIP3    H1 6807   1.209   5.276   4.187  1.6352 -0.7615  0.5958
 2267TIP3    H2 6808   1.204   5.127   4.162 -0.4907 -0.7109  0.5182
 2268TIP3   OH2 6809   1.615   5.163   0.338 -0.3920 -0.2874 -1.1008
 2268TIP3    H1 6810   1.615   5.208   0.253 -2.0035  0.2324 -0.8612
 2268TIP3    H2 6811   1.535   5.109   0.336 -1.2182  0.7883  0.6052
 2269TIP3   OH2 6812   2.659   4.851   0.393  0.6727  0.0264  0.3386
 2269TIP3    H1 6813   2.753   4.848   0.410  1.0622  2.8005 -0.8220
 2269TIP3    H2 6814   2.644   4.783   0.328  1.5309 -1.5168  1.6891
 2270TIP3   OH2 6815   0.586   3.580   1.279  0.3232 -0.4397 -0.0770
 2270TIP3    H1 6816   0.512   3.640   1.275  0.8432  0.1632 -1.3285
 2270TIP3    H2 6817   0.663   3.637   1.286  0.9027 -0.8412 -2.2776
 2271TIP3   OH2 6818   1.353   0.537   4.648 -0.2131 -0.5600 -0.1063
 2271TIP3    H1 6819   1.376   0.444   4.653  0.1299 -0.4673  0.1166
 2271TIP3    H2 6820   1.279   0.547   4.708 -0.4938 -0.7616 -0.4186
 2272TIP3   OH2 6821   0.152   4.981   2.519 -0.1959  0.8843 -0.7726
 2272TIP3    H1 6822   0.113   4.956   2.603  1.8775  1.5580  0.4766
 2272TIP3    H2 6823   0.083   4.966   2.455 -1.3332 -1.2628  0.8135
 2273TIP3   OH2 6824   2.142   5.058   2.909 -0.2654  0.0675  0.0641
 2273TIP3    H1 6825   2.059   5.095   2.940  0.3977  0.6027  1.2806
 2273TIP3    H2 6826   2.190   5.037   2.989  0.8822  0.0140 -0.6171
 2274TIP3   OH2 6827   3.583   0.467   1.992  0.8349  0.4145  0.2165
 2274TIP3    H1 6828   3.605   0.406   1.922 -1.5455 -0.0176 -0.2456
 2274TIP3    H2 6829   3.583   0.413   2.071  1.6929  0.4965  0.2800
 2275TIP3   OH2 6830   6.358   3.909   5.116 -0.0888  0.2025 -0.4197
 2275TIP3    H1 6831   6.315   3.878   5.036 -0.3408  1.2989 -0.7406
 2275TIP3    H2 6832   6.353   4.005   5.109  1.6244  0.3535 -0.0286
 2276TIP3   OH2 6833   1.447   0.372   4.377 -0.3295  0.1739  0.2084
 2276TIP3    H1 6834   1.373   0.327   4.335 -0.3932 -0.0427  0.5436
 2276TIP3    H2 6835   1.475   0.311   4.445  1.2110 -0.4877 -0.9521
 2277TIP3   OH2 6836   1.907   2.955   1.400  0.0166  0.2260 -0.0047
 2277TIP3    H1 6837   1.976   3.021   1.395  0.1952 -0.0374 -1.5658
 2277TIP3    H2 6838   1.945   2.877   1.359 -0.8929 -0.2110 -0.0509
 2278TIP3   OH2 6839   4.572   0.169   0.741 -0.7390  0.5513 -0.1017
 2278TIP3    H1 6840   4.664   0.144   0.731 -1.3306 -1.9721  0.1348
 2278TIP3    H2 6841   4.570   0.222   0.821  0.4117 -0.0310  0.3303
 2279TIP3   OH2 6842   4.743   1.315   0.568 -0.2442 -0.2104 -0.5754
 2279TIP3    H1 6843   4.668   1.283   0.618 -1.2526  1.2329 -1.1112
 2279TIP3    H2 6844   4.708   1.387   0.515  1.7405  1.1830 -0.0696
 2280TIP3   OH2 6845   2.553   1.215   4.551 -0.1709 -0.0582  0.3176
 2280TIP3    H1 6846   2.493   1.225   4.477  0.5826  1.8321 -0.0979
 2280TIP3    H2 6847   2.496   1.212   4.628 -0.8823  2.5275  0.0053
 2281TIP3   OH2 6848   0.511   0.024   3.282 -0.1469  0.0202 -0.3864
 2281TIP3    H1 6849   0.533   0.103   3.331  1.0379 -0.8340  0.5064
 2281TIP3    H2 6850   0.561   0.031   3.200 -1.7389  1.2044 -1.3164
 2282TIP3   OH2 6851   4.935   5.887   0.886  0.5842 -0.4936  0.1936
 2282TIP3    H1 6852   4.913   5.964   0.939  1.5245  0.7469 -1.1353
 2282TIP3    H2 6853   4.942   5.815   0.949 -0.6183  0.4334  1.4313
 2283TIP3   OH2 6854   3.366   4.558   2.356 -0.3695 -0.5309  0.0107
 2283TIP3    H1 6855   3.410   4.591   2.434 -0.4116  0.3697 -0.3338
 2283TIP3    H2 6856   3.434   4.512   2.308 -0.5209 -1.7713  0.9407
 2284TIP3   OH2 6857   5.411   4.161   1.946  0.3926 -0.4946  0.0473
 2284TIP3    H1 6858   5.396   4.077   1.989 -0.0155  0.1827  1.2862
 2284TIP3    H2 6859   5.331   4.211   1.963  1.1780  0.6282  0.5471
 2285TIP3   OH2 6860   2.657   1.389   2.442 -0.5083  0.3373  0.0706
 2285TIP3    H1 6861   2.627   1.416   2.529 -1.3110 -1.5098  0.4239
 2285TIP3    H2 6862   2.576   1.369   2.394 -0.0340  0.3685 -0.7576
 2286TIP3   OH2 6863   2.219   2.688   1.852  0.7613 -0.1847  0.1992
 2286TIP3    H1 6864   2.300   2.693   1.902  0.5491 -1.8081  0.7750
 2286TIP3    H2 6865   2.150   2.713   1.913  0.4975 -2.2097  0.8178
 2287TIP3   OH2 6866   2.230   0.607   0.677  0.2429  0.0184 -0.6287
 2287TIP3    H1 6867   2.220   0.512   0.680 -1.0427  0.1334  2.6562
 2287TIP3    H2 6868   2.211   0.636   0.766  1.0536  3.3442 -1.4065
 2288TIP3   OH2 6869   2.275   1.142   1.286 -0.5644 -0.4572  0.7074
 2288TIP3    H1 6870   2.367   1.131   1.261 -0.3124 -0.2497  1.5095
 2288TIP3    H2 6871   2.226   1.124   1.206  0.2345  0.7555 -0.0791
 2289TIP3   OH2 6872   5.529   2.353   1.131  0.3847  0.0859  0.5962
 2289TIP3    H1 6873   5.573   2.417   1.075  0.6283 -0.8785 -0.3312
 2289TIP3    H2 6874   5.568   2.368   1.218  1.6530  0.1017  0.0527
 2290TIP3   OH2 6875   1.016   4.282   0.329 -0.3365  0.2147  0.4227
 2290TIP3    H1 6876   1.036   4.373   0.309 -1.2394  0.3658  0.1653
 2290TIP3    H2 6877   0.968   4.284   0.411 -0.6642  0.0071  0.2410
 2291TIP3   OH2 6878   2.090   1.552   0.340  0.1181 -0.3081  0.3468
 2291TIP3    H1 6879   2.001   1.555   0.304 -0.0205  0.0333  0.7071
 2291TIP3    H2 6880   2.132   1.630   0.306 -0.1769  0.2952  1.3191
 2292TIP3   OH2 6881   4.157   3.739   5.117  0.6904  0.5736 -0.2662
 2292TIP3    H1 6882   4.108   3.780   5.046  1.6396 -2.3325 -2.8090
 2292TIP3    H2 6883   4.093   3.683   5.162  0.6742  0.2423 -0.6921
 2293TIP3   OH2 6884   5.232   2.199   4.850  0.3400 -0.0559  0.3082
 2293TIP3    H1 6885   5.203   2.114   4.883 -1.3753  0.0073 -0.8899
 2293TIP3    H2 6886   5.153   2.237   4.811  0.9101  2.3511  1.3404
 2294TIP3   OH2 6887   4.421   5.744   2.638 -0.5370 -0.0634  0.4041
 2294TIP3    H1 6888   4.446   5.822   2.589  0.7235 -0.7992 -0.1601
 2294TIP3    H2 6889   4.493   5.730   2.700  0.5725 -2.2211 -1.2533
 2295TIP3   OH2 6890   4.080   5.514   3.073  0.5883  0.0563 -0.0682
 2295TIP3    H1 6891   4.128   5.553   3.146  1.0927  1.4508 -1.0950
 2295TIP3    H2 6892   4.142   5.513   3.001 -0.0302 -0.8974 -0.6168
 2296TIP3   OH2 6893   3.112   5.624   3.995  0.4175 -0.6505 -0.9104
 2296TIP3    H1 6894   3.145   5.707   3.959  0.7742 -0.7037 -0.7104
 2296TIP3    H2 6895   3.190   5.581   4.030 -0.1749  0.3989  1.9841
 2297TIP3   OH2 6896   2.321   5.491   0.864  0.1839 -0.0258 -0.1284
 2297TIP3    H1 6897   2.394   5.509   0.804 -0.0821 -0.3639 -0.5639
 2297TIP3    H2 6898   2.349   5.527   0.948  0.5065  0.5830 -0.4928
 2298TIP3   OH2 6899   3.672   2.819   1.222  0.0151  0.2121 -0.0397
 2298TIP3    H1 6900   3.659   2.890   1.159  0.5467  2.1051  1.8896
 2298TIP3    H2 6901   3.627   2.847   1.301  2.7033 -0.1476  1.7652
 2299TIP3   OH2 6902   6.211   3.194   2.435  0.3015  0.1234  0.8078
 2299TIP3    H1 6903   6.118   3.215   2.437  0.0599 -0.7591 -0.2158
 2299TIP3    H2 6904   6.215   3.103   2.406  1.4805  0.0972  0.9961
 2300TIP3   OH2 6905   1.519   1.630   3.564  0.4330 -0.4637 -0.4739
 2300TIP3    H1 6906   1.558   1.675   3.639  1.0343  0.4374 -1.2993
 2300TIP3    H2 6907   1.444   1.685   3.540  1.3452  0.3183 -1.6705
 2301TIP3   OH2 6908   4.359   5.640   4.580 -0.0406 -0.2548  0.4836
 2301TIP3    H1 6909   4.451   5.637   4.555  0.0398 -2.1629  0.8528
 2301TIP3    H2 6910   4.337   5.733   4.579  1.3647  0.1159 -1.4381
 2302TIP3   OH2 6911   4.556   4.277   2.813 -0.8106  0.1507  0.5920
 2302TIP3    H1 6912   4.589   4.309   2.729 -1.2133  2.4394  1.2330
 2302TIP3    H2 6913   4.635   4.262   2.865 -0.5795  2.7228  1.1184
 2303TIP3   OH2 6914   2.692   3.767   3.966  0.0393 -0.1307 -0.2218
 2303TIP3    H1 6915   2.785   3.744   3.972  0.5007  1.6501 -0.0985
 2303TIP3    H2 6916   2.672   3.759   3.873  0.6352  0.5937 -0.4214
 2304TIP3   OH2 6917   4.714   3.545   3.880  0.1197  0.0452 -0.0497
 2304TIP3    H1 6918   4.648   3.601   3.838  1.0702  1.7279  0.5822
 2304TIP3    H2 6919   4.697   3.555   3.974  0.6147 -0.3229  0.0811
 2305TIP3   OH2 6920   2.905   0.661   4.819 -0.8293  0.1456  0.3725
 2305TIP3    H1 6921   2.839   0.708   4.768  0.3594  0.0563 -1.3327
 2305TIP3    H2 6922   2.924   0.583   4.768  0.1627 -0.1434  1.1480
 2306TIP3   OH2 6923   1.784   5.976   1.560 -0.2627  0.6925 -0.2736
 2306TIP3    H1 6924   1.782   5.973   1.465 -0.3109  1.3145 -0.2934
 2306TIP3    H2 6925   1.693   5.985   1.586 -0.3025 -0.0081 -0.1440
 2307TIP3   OH2 6926   0.435   5.889   0.447 -0.1839 -0.8301  0.2810
 2307TIP3    H1 6927   0.354   5.859   0.407  0.4746 -2.0208 -0.1983
 2307TIP3    H2 6928   0.429   5.862   0.539 -0.6087 -0.3239  0.4048
 2308TIP3   OH2 6929   3.527   5.766   5.081 -0.1147  0.3366 -0.1599
 2308TIP3    H1 6930   3.597   5.711   5.046  0.3620  0.1556  1.0396
 2308TIP3    H2 6931   3.568   5.816   5.152 -1.1480  0.3557  0.4459
 2309TIP3   OH2 6932   3.685   0.040   0.728 -0.5531  0.1938  0.2238
 2309TIP3    H1 6933   3.647   0.125   0.707 -0.0326  0.3975  0.0766
 2309TIP3    H2 6934   3.611  -0.019   0.735 -0.9895  0.8166  1.0813
 2310TIP3   OH2 6935   4.279   4.499   1.625 -0.4236  0.1116 -0.4384
 2310TIP3    H1 6936   4.231   4.564   1.574  0.0483 -0.2757 -1.4116
 2310TIP3    H2 6937   4.249   4.415   1.590  0.9227 -0.1338 -1.0478
 2311TIP3   OH2 6938   3.543   0.825   3.451  0.2220  0.5528  0.4365
 2311TIP3    H1 6939   3.493   0.886   3.397  0.5043  0.3184 -0.0974
 2311TIP3    H2 6940   3.490   0.745   3.452 -0.0749  0.7503  1.0115
 2312TIP3   OH2 6941   2.193   3.202   2.722  0.0447 -0.3606  0.4747
 2312TIP3    H1 6942   2.207   3.296   2.722  1.8498 -0.5924  0.0328
 2312TIP3    H2 6943   2.209   3.175   2.812 -1.4116 -0.1436  0.8149
 2313TIP3   OH2 6944   5.723   1.112   0.582 -0.3221  0.3698 -0.7199
 2313TIP3    H1 6945   5.751   1.073   0.499  1.1494  1.0947 -0.5944
 2313TIP3    H2 6946   5.704   1.037   0.638  1.1626 -0.1846 -0.9092
 2314TIP3   OH2 6947   4.425   2.004   1.955 -0.3866 -0.5733  0.2626
 2314TIP3    H1 6948   4.513   2.010   1.917  0.0077  0.1904  1.2623
 2314TIP3    H2 6949   4.373   1.960   1.887  0.6176 -0.4946 -0.5885
 2315TIP3   OH2 6950   3.583   5.442   2.791  0.1789  0.2553  0.3019
 2315TIP3    H1 6951   3.533   5.479   2.864 -1.2813 -1.6250  0.3187
 2315TIP3    H2 6952   3.672   5.431   2.826  0.1687  1.7970  0.9078
 2316TIP3   OH2 6953   1.856   5.539   3.194 -0.4140  0.4553  0.0569
 2316TIP3    H1 6954   1.777   5.514   3.146 -1.6987 -1.4874  2.9043
 2316TIP3    H2 6955   1.832   5.530   3.286  2.8861  0.6932  1.0625
 2317TIP3   OH2 6956   5.750   5.361   5.119 -0.1600  0.2808 -0.2333
 2317TIP3    H1 6957   5.776   5.398   5.203  1.4322  0.9757 -0.9925
 2317TIP3    H2 6958   5.729   5.269   5.139  0.1175  0.4542  0.9167
 2318TIP3   OH2 6959   4.779   2.400   0.170 -0.5631  0.1330  0.5228
 2318TIP3    H1 6960   4.865   2.367   0.198 -1.3943 -2.2401  0.4395
 2318TIP3    H2 6961   4.785   2.403   0.075 -0.1070  1.4396  0.5677
 2319TIP3   OH2 6962   4.921   5.253   3.972  0.0245  0.0416 -0.0474
 2319TIP3    H1 6963   4.991   5.189   3.967 -0.6715 -0.7769  0.4557
 2319TIP3    H2 6964   4.871   5.229   4.050 -1.6010 -0.2280 -1.1203
 2320TIP3   OH2 6965   5.584   0.411   5.139  0.3734  0.5741 -0.4402
 2320TIP3    H1 6966   5.591   0.481   5.074  1.0409  0.6615 -0.2902
 2320TIP3    H2 6967   5.536   0.451   5.212 -0.4895  0.4336 -0.9307
 2321TIP3   OH2 6968   4.607   5.586   0.634 -0.2806  0.3902  0.0817
 2321TIP3    H1 6969   4.595   5.491   0.629 -0.9117  0.3489  1.9185
 2321TIP3    H2 6970   4.697   5.596   0.665 -0.5382  0.3700  0.8355
 2322TIP3   OH2 6971   6.001   4.437   1.185 -0.2374  0.7744 -0.0092
 2322TIP3    H1 6972   5.943   4.395   1.248  1.1375  0.1092  0.8522
 2322TIP3    H2 6973   6.036   4.513   1.232 -2.4870  2.8686 -1.4491
 2323TIP3   OH2 6974   5.717   4.443   1.486  0.2186  0.4380 -0.1236
 2323TIP3    H1 6975   5.769   4.372   1.448 -0.5884 -0.5845  0.6142
 2323TIP3    H2 6976   5.665   4.400   1.554 -0.4999  1.7017  0.1475
 2324TIP3   OH2 6977   2.636   1.820   1.533 -0.5756 -0.1545  0.1799
 2324TIP3    H1 6978   2.670   1.856   1.615 -2.4294 -1.8700  1.8209
 2324TIP3    H2 6979   2.712   1.784   1.489  0.2065 -1.3006  2.3244
 2325TIP3   OH2 6980   4.104   0.570   0.068 -0.1296 -0.3647  0.7316
 2325TIP3    H1 6981   4.129   0.480   0.047  2.0495  0.5733 -1.0557
 2325TIP3    H2 6982   4.183   0.609   0.105 -1.4789  0.4541  2.9490
 2326TIP3   OH2 6983   1.016   5.545   4.020 -0.1451  0.5170  0.0173
 2326TIP3    H1 6984   0.970   5.463   4.035  1.5217 -0.2771  1.0327
 2326TIP3    H2 6985   0.961   5.612   4.061 -2.8486  0.3766 -3.0369
 2327TIP3   OH2 6986   1.445   0.014   3.554 -0.6201  0.5024 -0.5473
 2327TIP3    H1 6987   1.478   0.042   3.639 -0.3748  0.9851 -0.7914
 2327TIP3    H2 6988   1.350   0.025   3.559 -0.5873  0.7178 -0.3992
 2328TIP3   OH2 6989   2.953   0.707   2.755  0.0439  0.0015 -0.4294
 2328TIP3    H1 6990   3.029   0.756   2.783  0.4073 -1.0281  0.4504
 2328TIP3    H2 6991   2.980   0.665   2.673  0.3341 -0.1282 -0.2694
 2329TIP3   OH2 6992   6.127   4.493   3.112  0.0188  0.2819 -0.2121
 2329TIP3    H1 6993   6.114   4.424   3.046  1.0197  1.1585 -1.3509
 2329TIP3    H2 6994   6.142   4.445   3.193 -0.6376 -0.8292 -0.7228
 2330TIP3   OH2 6995   6.315   3.565   0.717  0.0264  0.2781 -0.6896
 2330TIP3    H1 6996   6.275   3.585   0.801 -0.0744 -0.4793 -0.5447
 2330TIP3    H2 6997   6.355   3.478   0.729  0.7314  0.5213 -1.1707
 2331TIP3   OH2 6998   5.203   1.887   2.033  0.4546  0.0177  0.1131
 2331TIP3    H1 6999   5.134   1.843   1.984  0.6204  0.5202 -0.5957
 2331TIP3    H2 7000   5.283   1.843   2.007  0.9690  2.2456 -2.5794
 2332TIP3   OH2 7001   4.267   4.861   0.953  0.1131 -0.1011 -0.7145
 2332TIP3    H1 7002   4.174   4.884   0.943 -0.2274 -0.7933  0.6388
 2332TIP3    H2 7003   4.312   4.946   0.949 -0.7893  0.4860  0.7077
 2333TIP3   OH2 7004   2.651   4.373   2.781  0.2073  0.4061 -0.2504
 2333TIP3    H1 7005   2.628   4.455   2.824  1.5821  0.9274 -0.4544
 2333TIP3    H2 7006   2.704   4.326   2.844  0.1646  0.0660 -0.4644
 2334TIP3   OH2 7007   4.715   0.824   5.031 -0.0321  0.3260 -0.0392
 2334TIP3    H1 7008   4.664   0.889   5.079  0.6138  1.0384 -0.2908
 2334TIP3    H2 7009   4.650   0.770   4.986 -0.5577  1.9694 -1.3377
 2335TIP3   OH2 7010   0.748   2.048   4.093 -0.3367  0.1626  0.7448
 2335TIP3    H1 7011   0.711   2.136   4.102 -0.5066  0.0544  1.1457
 2335TIP3    H2 7012   0.753   2.015   4.183  1.2836  0.3940  0.7743
 2336TIP3   OH2 7013   0.734   5.857   0.803  0.4955  0.4487 -0.4198
 2336TIP3    H1 7014   0.668   5.886   0.866  0.4354 -1.2310  0.3638
 2336TIP3    H2 7015   0.816   5.858   0.853  0.5331 -0.3958 -0.4458
 2337TIP3   OH2 7016   4.376  -0.010   2.862  0.0163 -0.6935  0.3179
 2337TIP3    H1 7017   4.448   0.000   2.801  1.7812 -2.2273  2.0078
 2337TIP3    H2 7018   4.397   0.047   2.936 -2.2296  1.3684 -0.4878
 2338TIP3   OH2 7019   3.365   4.165   0.750 -0.0863  0.5927  0.2877
 2338TIP3    H1 7020   3.423   4.240   0.758 -1.0995  1.5026 -0.5341
 2338TIP3    H2 7021   3.291   4.197   0.698  0.1198 -1.3643 -1.3246
 2339TIP3   OH2 7022   5.812   1.647   0.257 -0.2442  0.2787  0.1211
 2339TIP3    H1 7023   5.737   1.689   0.300 -0.4047 -0.7367  0.8848
 2339TIP3    H2 7024   5.880   1.714   0.256 -1.1015  1.1577 -0.4202
 2340TIP3   OH2 7025   4.541   2.248   1.245 -0.1530  0.1826  0.0121
 2340TIP3    H1 7026   4.540   2.213   1.334  1.7031 -2.1718 -0.7837
 2340TIP3    H2 7027   4.472   2.199   1.199 -0.0062  0.1933 -0.2227
 2341TIP3   OH2 7028   3.061   3.346   0.273  0.0621  0.0197 -0.5263
 2341TIP3    H1 7029   3.132   3.317   0.331  0.5146  0.5299 -0.8032
 2341TIP3    H2 7030   3.054   3.440   0.291 -0.1906  0.0678 -0.8749
 2342TIP3   OH2 7031   2.873   2.160   1.902  0.3041 -0.2983  0.2165
 2342TIP3    H1 7032   2.820   2.212   1.963 -1.4596 -2.4355  0.6190
 2342TIP3    H2 7033   2.842   2.185   1.815 -1.4978 -1.5549  0.4474
 2343TIP3   OH2 7034   0.814   1.127   0.064  0.7858  0.5720 -0.1778
 2343TIP3    H1 7035   0.798   1.113  -0.029 -1.9464  0.4052  0.2417
 2343TIP3    H2 7036   0.860   1.048   0.093 -1.0664 -0.7927 -0.8064
 2344TIP3   OH2 7037   0.046   4.320   2.389 -0.0302 -0.1304  0.3469
 2344TIP3    H1 7038   0.100   4.289   2.462 -1.6737 -0.4581  1.4591
 2344TIP3    H2 7039   0.108   4.363   2.331  1.9673 -3.0359  0.0873
 2345TIP3   OH2 7040   0.899   3.101   5.125 -0.1841 -0.4208  0.1355
 2345TIP3    H1 7041   0.835   3.151   5.176  0.0020  1.7232 -1.5631
 2345TIP3    H2 7042   0.983   3.140   5.148  0.1080 -0.7799 -0.3233
 2346TIP3   OH2 7043   2.803   5.042   4.889  0.1601 -0.7687  0.3423
 2346TIP3    H1 7044   2.802   5.018   4.982  1.6679  1.6830  1.0895
 2346TIP3    H2 7045   2.840   5.130   4.888  0.1146 -0.7022 -2.6088
 2347TIP3   OH2 7046   1.459   5.874   4.834 -0.2367  0.2584 -0.2014
 2347TIP3    H1 7047   1.378   5.899   4.791 -0.9433 -0.3990  0.7159
 2347TIP3    H2 7048   1.432   5.819   4.908  1.0014  0.4385  0.4242
 2348TIP3   OH2 7049   4.112   5.719   2.498 -0.2616  0.3778 -0.3503
 2348TIP3    H1 7050   4.116   5.741   2.591  1.2285 -0.2011 -0.2481
 2348TIP3    H2 7051   4.023   5.744   2.471 -1.1794 -0.6572  1.5282
 2349TIP3   OH2 7052   0.288   4.583   3.633 -0.4602  0.2537  0.6878
 2349TIP3    H1 7053   0.220   4.644   3.605  1.1979  2.2741  0.8279
 2349TIP3    H2 7054   0.353   4.638   3.677  0.3935 -1.8504  2.2298
 2350TIP3   OH2 7055   3.590   5.940   4.864  0.2046 -0.3048  0.0079
 2350TIP3    H1 7056   3.563   5.870   4.805 -1.3979 -0.1532  0.5210
 2350TIP3    H2 7057   3.531   5.933   4.938  0.7161  0.9348  0.5594
 2351TIP3   OH2 7058   1.758   3.285   2.996  0.3479 -0.6732 -0.3231
 2351TIP3    H1 7059   1.767   3.267   3.090  0.5898 -3.3304 -0.7886
 2351TIP3    H2 7060   1.784   3.204   2.953 -0.9697  0.0526 -2.6721
 2352TIP3   OH2 7061   3.231   0.853   0.435 -0.2266  0.2751  0.0570
 2352TIP3    H1 7062   3.222   0.814   0.349  0.9655  0.1468 -0.0276
 2352TIP3    H2 7063   3.151   0.828   0.482 -0.8144  0.2338 -0.9550
 2353TIP3   OH2 7064   4.875   3.601   4.994 -1.0503  0.2879 -0.1422
 2353TIP3    H1 7065   4.879   3.664   4.923 -0.8662  0.0002 -0.3868
 2353TIP3    H2 7066   4.952   3.620   5.047 -1.2421  0.5692  0.0401
 2354TIP3   OH2 7067   4.310   2.515   1.436  0.0261 -0.2440 -0.1614
 2354TIP3    H1 7068   4.400   2.514   1.403  0.4031 -2.6826  0.7643
 2354TIP3    H2 7069   4.317   2.483   1.526 -1.9385 -2.5798 -0.7239
 2355TIP3   OH2 7070   0.461   3.996   4.775  1.0024  0.3428 -0.1577
 2355TIP3    H1 7071   0.385   4.018   4.721  1.2274 -0.2924 -0.7485
 2355TIP3    H2 7072   0.459   3.900   4.782  2.3969  0.2139 -1.1599
 2356TIP3   OH2 7073   2.212   5.132   1.482  0.1291 -0.4885 -0.3433
 2356TIP3    H1 7074   2.219   5.227   1.477  1.2595 -0.5594 -0.3219
 2356TIP3    H2 7075   2.210   5.103   1.391  0.3818 -0.4872 -0.3480
 2357TIP3   OH2 7076   6.296   1.680   0.592  0.1652  0.0278 -0.5107
 2357TIP3    H1 7077   6.312   1.744   0.522  0.4150 -1.4944 -1.9158
 2357TIP3    H2 7078   6.383   1.662   0.628  0.0829  0.5346 -0.0492
 2358TIP3   OH2 7079   2.425   4.285   0.198 -0.3012  0.2530 -0.1072
 2358TIP3    H1 7080   2.370   4.292   0.276 -0.1286 -0.9486  0.1470
 2358TIP3    H2 7081   2.379   4.222   0.142 -0.4296  1.1111 -0.9958
 2359TIP3   OH2 7082   5.234   3.720   0.902 -0.4388 -0.1885  0.0485
 2359TIP3    H1 7083   5.143   3.694   0.884 -0.3209  0.1948 -1.2637
 2359TIP3    H2 7084   5.260   3.768   0.823  0.7302  0.1750  0.6412
 2360TIP3   OH2 7085   4.970   2.896   4.932  0.5745 -0.0833  0.8514
 2360TIP3    H1 7086   5.013   2.826   4.883  1.4300 -0.0956  1.5834
 2360TIP3    H2 7087   4.886   2.859   4.960  0.5306 -0.4223  0.2721
 2361TIP3   OH2 7088   5.958   4.253   3.901  0.3850 -0.0256  0.5011
 2361TIP3    H1 7089   6.020   4.241   3.829 -0.9182 -1.3104 -0.4696
 2361TIP3    H2 7090   6.013   4.260   3.979  1.8114  0.7662 -0.5296
 2362TIP3   OH2 7091   3.494   0.727   2.305  0.2492  0.2233 -0.2467
 2362TIP3    H1 7092   3.536   0.712   2.220  0.8935 -0.1617  0.1326
 2362TIP3    H2 7093   3.470   0.640   2.336  0.7506  0.2781  0.3240
 2363TIP3   OH2 7094   2.594   5.596   2.359  0.0643  0.5944  0.1359
 2363TIP3    H1 7095   2.529   5.585   2.429  0.3269  1.8928  0.6140
 2363TIP3    H2 7096   2.677   5.575   2.400 -0.0800 -1.7308 -0.6570
 2364TIP3   OH2 7097   5.020   1.061   2.262 -0.0718 -0.2385  0.2964
 2364TIP3    H1 7098   4.990   0.981   2.218  1.7312 -0.7806 -0.0183
 2364TIP3    H2 7099   5.115   1.050   2.269  0.0919  1.4612  1.1202
 2365TIP3   OH2 7100   4.669   1.454   3.794  0.5549  0.1228  0.2744
 2365TIP3    H1 7101   4.626   1.528   3.839  0.4676 -0.0537  0.4829
 2365TIP3    H2 7102   4.716   1.408   3.863  0.7973  0.1131  0.1042
 2366TIP3   OH2 7103   4.215   5.162   5.088 -0.4872  0.2632  0.3277
 2366TIP3    H1 7104   4.213   5.244   5.138 -0.1411  0.8231 -0.5581
 2366TIP3    H2 7105   4.301   5.161   5.047 -0.6724 -0.3121 -0.0538
 2367TIP3   OH2 7106   1.996   1.845   2.213  0.6320 -0.3566  0.4864
 2367TIP3    H1 7107   2.029   1.893   2.289  1.0778  1.5764 -0.8624
 2367TIP3    H2 7108   2.071   1.836   2.155 -0.4864  1.6132 -1.3851
 2368TIP3   OH2 7109   6.208   5.803   3.173 -0.2831  0.2542 -0.3364
 2368TIP3    H1 7110   6.181   5.857   3.098 -0.4610 -0.0540 -0.4935
 2368TIP3    H2 7111   6.229   5.867   3.241  0.3464  0.5599 -0.8013
 2369TIP3   OH2 7112   0.913   0.564   2.597 -0.2519  0.4150 -0.0439
 2369TIP3    H1 7113   1.000   0.553   2.558 -0.8051 -0.2263 -1.1315
 2369TIP3    H2 7114   0.854   0.516   2.539 -1.0473 -1.1234  1.9045
 2370TIP3   OH2 7115   5.479   5.764   1.405  0.4041 -0.1601  0.4028
 2370TIP3    H1 7116   5.484   5.814   1.323  1.6150  1.0832  1.1901
 2370TIP3    H2 7117   5.394   5.721   1.402  0.6268 -0.5793 -1.7424
 2371TIP3   OH2 7118   5.949   1.813   1.992  0.0736  0.5885  0.2080
 2371TIP3    H1 7119   5.891   1.788   2.063 -0.5322  0.1522 -0.4233
 2371TIP3    H2 7120   5.901   1.789   1.912  0.8012  0.9155 -0.3429
 2372TIP3   OH2 7121   0.707   0.834   1.752  0.0503  0.3961 -0.0260
 2372TIP3    H1 7122   0.742   0.747   1.733 -1.8128 -0.5794  0.7582
 2372TIP3    H2 7123   0.770   0.872   1.813  1.0125 -0.3005 -0.5526
 2373TIP3   OH2 7124   0.775   5.809   1.875 -0.1759 -0.0440 -0.3411
 2373TIP3    H1 7125   0.756   5.829   1.784 -2.1343  1.6823  0.3498
 2373TIP3    H2 7126   0.698   5.841   1.923  0.6019 -1.2709  1.8804
 2374TIP3   OH2 7127   6.275   4.325   4.360  0.0473  0.6097  0.0440
 2374TIP3    H1 7128   6.358   4.312   4.315 -0.2281 -0.6556 -0.1425
 2374TIP3    H2 7129   6.251   4.415   4.341  1.5315  1.1033  0.3895
 2375TIP3   OH2 7130   0.837   4.887   0.757  0.2606  0.0360  0.3790
 2375TIP3    H1 7131   0.782   4.951   0.712  0.0658 -0.0268  0.5262
 2375TIP3    H2 7132   0.872   4.934   0.832  0.1473 -0.0183  0.4664
 2376TIP3   OH2 7133   5.818   5.373   2.850  0.4622  0.3061  0.2561
 2376TIP3    H1 7134   5.906   5.352   2.881  0.5288  1.9868  1.3870
 2376TIP3    H2 7135   5.760   5.340   2.919  0.1158 -1.4127 -0.8085
 2377TIP3   OH2 7136   3.915   3.239   4.438 -0.5889  0.2324  0.9996
 2377TIP3    H1 7137   3.838   3.247   4.494 -1.1631  0.4911  0.1860
 2377TIP3    H2 7138   3.937   3.329   4.415  0.9967  0.3100  2.5828
 2378TIP3   OH2 7139   1.727   1.204   4.638  0.3801 -0.1471 -0.3341
 2378TIP3    H1 7140   1.783   1.134   4.674  0.3907  0.7330  1.4872
 2378TIP3    H2 7141   1.787   1.261   4.591  0.6241 -0.5052 -0.4601
 2379TIP3   OH2 7142   3.358   3.960   0.949  0.0787 -0.0783  0.2766
 2379TIP3    H1 7143   3.350   4.041   0.899 -2.1361  0.2266  1.0037
 2379TIP3    H2 7144   3.368   3.989   1.040 -0.4633 -0.5966  0.5131
 2380TIP3   OH2 7145   0.276   4.729   2.136 -0.0401  0.5446  0.1449
 2380TIP3    H1 7146   0.307   4.785   2.207  0.2053  0.5310  0.0485
 2380TIP3    H2 7147   0.256   4.645   2.179  1.9326 -0.0911 -0.0921
 2381TIP3   OH2 7148   2.233   2.180   2.380 -0.0749 -0.0978  0.3696
 2381TIP3    H1 7149   2.191   2.184   2.466 -0.7212  1.5715  0.0247
 2381TIP3    H2 7150   2.176   2.231   2.323  0.0401 -1.6495 -1.2116
 2382TIP3   OH2 7151   1.339   0.256   4.722 -0.1168  0.4586  0.0660
 2382TIP3    H1 7152   1.286   0.307   4.784  2.1392  0.5256  2.0951
 2382TIP3    H2 7153   1.316   0.165   4.739 -1.7358  0.5797 -1.2374
 2383TIP3   OH2 7154   4.431   1.344   4.210  0.1481  0.2043  0.2888
 2383TIP3    H1 7155   4.499   1.411   4.210 -1.9799  2.5587 -0.6691
 2383TIP3    H2 7156   4.382   1.359   4.291  0.5582 -1.3133  0.8624
 2384TIP3   OH2 7157   1.181   0.380   1.215  0.2830 -0.2406 -0.4962
 2384TIP3    H1 7158   1.106   0.346   1.166 -0.5280  1.4430 -0.4805
 2384TIP3    H2 7159   1.199   0.465   1.176  1.6457 -0.2363  0.0833
 2385TIP3   OH2 7160   0.269   1.073   0.860  0.2368  0.3212  0.1173
 2385TIP3    H1 7161   0.263   1.139   0.928  1.3305  0.6739 -0.0951
 2385TIP3    H2 7162   0.210   1.103   0.791  0.1808  0.6983  0.3312
 2386TIP3   OH2 7163   3.924   0.312   0.695  0.2851  0.6543  0.3076
 2386TIP3    H1 7164   3.948   0.352   0.779  0.3264 -1.2359  1.2593
 2386TIP3    H2 7165   4.002   0.323   0.641  0.2302  1.9722  0.4772
 2387TIP3   OH2 7166   5.692   5.539   0.320  0.2944  0.1093  0.0890
 2387TIP3    H1 7167   5.657   5.451   0.327 -0.6251  0.6005  2.6265
 2387TIP3    H2 7168   5.758   5.545   0.390 -1.2062  2.0587  1.4516
 2388TIP3   OH2 7169   5.698   3.232   0.199 -0.6775  0.4358  0.0892
 2388TIP3    H1 7170   5.649   3.223   0.280 -0.1595  0.1965  0.3847
 2388TIP3    H2 7171   5.667   3.160   0.144  0.9465 -1.1817  1.1381
 2389TIP3   OH2 7172   2.928   5.047   0.600 -0.4527 -0.1868 -0.6039
 2389TIP3    H1 7173   2.926   4.983   0.528 -2.0569  0.2919 -1.0317
 2389TIP3    H2 7174   2.906   5.130   0.558 -0.1843  0.3235  0.2520
 2390TIP3   OH2 7175   1.085   0.862   3.796  0.1868  0.4348  0.0847
 2390TIP3    H1 7176   1.101   0.874   3.702  0.9778  1.5361  0.3345
 2390TIP3    H2 7177   1.051   0.946   3.825  0.3066  0.2199  0.8579
 2391TIP3   OH2 7178   1.116   3.669   3.578 -0.0302 -0.4636 -0.6810
 2391TIP3    H1 7179   1.061   3.663   3.500  0.5038 -0.8037 -1.0483
 2391TIP3    H2 7180   1.115   3.762   3.602  0.1109 -0.2874 -1.3320
 2392TIP3   OH2 7181   5.642   3.095   1.361 -0.5265  0.3355 -0.1306
 2392TIP3    H1 7182   5.662   3.137   1.445 -2.4487 -1.0618  1.1257
 2392TIP3    H2 7183   5.575   3.152   1.321 -1.7869 -0.4860  0.7226
 2393TIP3   OH2 7184   4.849   2.269   3.284  0.1733  0.5849  0.6855
 2393TIP3    H1 7185   4.832   2.347   3.231  0.0951  0.7078  0.8886
 2393TIP3    H2 7186   4.820   2.196   3.229 -1.1792  0.8005  1.0713
 2394TIP3   OH2 7187   0.254   3.976   3.104 -0.0972  0.4344 -0.0300
 2394TIP3    H1 7188   0.228   4.008   3.018  2.4401 -0.2302 -1.1427
 2394TIP3    H2 7189   0.326   4.033   3.130 -1.2141  1.0294  2.0176
 2395TIP3   OH2 7190   1.768   0.182   1.394 -0.1091  0.3670 -0.2147
 2395TIP3    H1 7191   1.778   0.254   1.332 -1.6738  0.6958 -0.1137
 2395TIP3    H2 7192   1.816   0.109   1.354 -2.4013  0.0668 -2.6496
 2396TIP3   OH2 7193   3.196   4.819   3.851  0.2671 -0.1671  0.3385
 2396TIP3    H1 7194   3.109   4.781   3.839 -0.4487  1.7317 -1.0894
 2396TIP3    H2 7195   3.188   4.872   3.930  0.4162 -0.6746  0.7032
 2397TIP3   OH2 7196   0.445   5.113   3.193 -0.2305 -0.2912 -0.1236
 2397TIP3    H1 7197   0.395   5.044   3.235  1.6387 -0.6197  1.7374
 2397TIP3    H2 7198   0.511   5.138   3.257  0.1042  2.2161 -1.2958
 2398TIP3   OH2 7199   6.306   1.751   3.338 -0.3174  0.1957  0.7939
 2398TIP3    H1 7200   6.343   1.719   3.420 -0.0958 -1.0965  0.2027
 2398TIP3    H2 7201   6.365   1.822   3.311  1.1492 -1.1408  0.3953
 2399TIP3   OH2 7202   3.619   3.323   4.124  0.6710  0.0861  0.6902
 2399TIP3    H1 7203   3.523   3.325   4.124  0.6779  0.9484  1.5902
 2399TIP3    H2 7204   3.645   3.414   4.119  1.4774 -0.1934 -0.8241
 2400TIP3   OH2 7205   1.212   1.305   3.664 -0.2088 -0.6243  0.0544
 2400TIP3    H1 7206   1.292   1.265   3.696  0.6101  0.7715 -0.1556
 2400TIP3    H2 7207   1.241   1.370   3.599 -1.5357 -0.4513 -0.4172
 2401TIP3   OH2 7208   3.015   4.189   0.653  0.4728 -0.3693 -0.0692
 2401TIP3    H1 7209   3.091   4.244   0.633 -0.2643  0.0111 -1.9611
 2401TIP3    H2 7210   2.985   4.220   0.738  0.4440  1.7555 -0.8050
 2402TIP3   OH2 7211   1.178   3.157   4.865  0.4778 -0.4120  0.5031
 2402TIP3    H1 7212   1.240   3.106   4.918 -0.4717 -2.0011  0.1314
 2402TIP3    H2 7213   1.220   3.164   4.779 -0.3081 -2.5207 -0.1112
 2403TIP3   OH2 7214   1.598   1.338   1.208  0.2032 -0.0996  0.2062
 2403TIP3    H1 7215   1.679   1.305   1.248 -0.1221 -1.4704 -0.1998
 2403TIP3    H2 7216   1.627   1.392   1.135  0.7689  1.0454  1.2322
 2404TIP3   OH2 7217   5.409   1.420   3.887  0.4624 -0.0166 -0.0301
 2404TIP3    H1 7218   5.467   1.352   3.851 -2.5401 -1.8075 -1.9471
 2404TIP3    H2 7219   5.395   1.480   3.813  0.9608  1.2246  0.8533
 2405TIP3   OH2 7220   4.996   5.249   2.644  0.4352  0.2081 -0.1466
 2405TIP3    H1 7221   4.917   5.198   2.624 -1.5416  2.7030  0.8072
 2405TIP3    H2 7222   5.032   5.207   2.723  0.1840 -1.0475 -0.6765
 2406TIP3   OH2 7223   3.155   0.924   2.017 -0.0926  0.5793  0.6301
 2406TIP3    H1 7224   3.078   0.941   2.071 -0.1536 -1.5125  1.2958
 2406TIP3    H2 7225   3.228   0.921   2.079  0.1797  0.3356  0.3020
 2407TIP3   OH2 7226   2.235   0.829   0.186 -0.0512  0.4187  0.2769
 2407TIP3    H1 7227   2.216   0.737   0.203 -0.6631  0.5916  0.5800
 2407TIP3    H2 7228   2.328   0.839   0.206 -0.2134  0.0882  1.2332
 2408TIP3   OH2 7229   0.029   5.933   4.157  0.1133  0.3909  0.1589
 2408TIP3    H1 7230  -0.056   5.918   4.198  0.1188 -1.7434 -0.4920
 2408TIP3    H2 7231   0.039   6.028   4.155 -1.4656  0.6338  1.8176
 2409TIP3   OH2 7232   1.575   3.687   1.351  0.2072  0.0562 -0.2923
 2409TIP3    H1 7233   1.498   3.632   1.363  0.1486  0.4824  1.5394
 2409TIP3    H2 7234   1.553   3.744   1.277 -2.0211  1.4311  1.3031
 2410TIP3   OH2 7235   0.477   3.052   3.234 -0.1296 -0.6829  0.1020
 2410TIP3    H1 7236   0.383   3.058   3.222  0.0626 -1.4355 -2.4836
 2410TIP3    H2 7237   0.510   3.138   3.209 -0.0881 -0.6789  0.1722
 2411TIP3   OH2 7238   1.954   1.906   3.707  0.2616  0.0251  0.4123
 2411TIP3    H1 7239   1.859   1.910   3.703  0.2796  0.6475  0.6293
 2411TIP3    H2 7240   1.974   1.880   3.797  0.3546  2.1120  1.0316
 2412TIP3   OH2 7241   4.895   4.398   1.465 -0.1331  0.6329 -0.3061
 2412TIP3    H1 7242   4.967   4.439   1.514 -0.5775  1.3092 -0.1981
 2412TIP3    H2 7243   4.934   4.374   1.381  0.8759 -1.3611  0.6556
 2413TIP3   OH2 7244   4.329   5.209   3.011  0.3596  0.2421 -0.4182
 2413TIP3    H1 7245   4.299   5.290   3.051 -1.4521 -0.5724 -0.0306
 2413TIP3    H2 7246   4.372   5.161   3.081  0.1853  0.2654 -0.2960
 2414TIP3   OH2 7247   3.540   1.331   0.795 -0.4496 -0.2080  0.4362
 2414TIP3    H1 7248   3.585   1.401   0.748 -0.7341  1.3161  2.3035
 2414TIP3    H2 7249   3.448   1.342   0.770 -0.3906 -0.4647  0.0931
 2415TIP3   OH2 7250   0.223   0.496   2.171 -0.2048  0.3150 -0.4494
 2415TIP3    H1 7251   0.263   0.477   2.086  0.7905 -0.4037  0.1606
 2415TIP3    H2 7252   0.143   0.444   2.172 -0.6577  0.9579 -1.2585
 2416TIP3   OH2 7253   1.569   0.405   2.001  0.1340  0.0334 -0.2966
 2416TIP3    H1 7254   1.511   0.482   2.003 -0.9837 -0.7915 -0.2169
 2416TIP3    H2 7255   1.621   0.412   2.081 -1.8928 -0.7152  1.1731
 2417TIP3   OH2 7256   5.043   4.370   0.537 -0.1298  0.0745  0.4457
 2417TIP3    H1 7257   5.003   4.454   0.556 -1.3724 -0.2841 -0.4544
 2417TIP3    H2 7258   5.112   4.390   0.474 -2.2798  0.1693 -2.0626
 2418TIP3   OH2 7259   3.449   0.132   4.288  1.2395  0.0503  0.4308
 2418TIP3    H1 7260   3.506   0.121   4.212  0.6814 -0.3836  0.0705
 2418TIP3    H2 7261   3.384   0.062   4.280  0.3980  0.7922  0.6083
 2419TIP3   OH2 7262   2.733   1.397   4.141  0.0222 -0.0668 -0.2436
 2419TIP3    H1 7263   2.643   1.366   4.133 -0.3717  1.1579 -0.8859
 2419TIP3    H2 7264   2.782   1.348   4.076  0.0072 -1.2970  0.6264
 2420TIP3   OH2 7265   5.248   1.147   1.248 -0.6411  0.6204  1.0979
 2420TIP3    H1 7266   5.299   1.227   1.233  1.2125 -0.5585  0.8307
 2420TIP3    H2 7267   5.165   1.163   1.205 -0.1810  2.2739  0.7525
 2421TIP3   OH2 7268   0.938   5.891   0.971 -0.4796  0.2255  0.4064
 2421TIP3    H1 7269   1.028   5.918   0.988 -0.0118 -1.3477  0.6116
 2421TIP3    H2 7270   0.903   5.868   1.058 -0.4925 -0.8338  0.1306
 2422TIP3   OH2 7271   5.664   2.168   2.473 -0.1560 -0.1163  1.1252
 2422TIP3    H1 7272   5.658   2.255   2.512  2.0208  0.1099  1.0814
 2422TIP3    H2 7273   5.648   2.183   2.380 -0.7492  0.0686  1.2513
 2423TIP3   OH2 7274   3.707   5.358   2.316 -0.0909 -0.2396  0.2128
 2423TIP3    H1 7275   3.645   5.422   2.280 -0.2433 -0.1875  0.5606
 2423TIP3    H2 7276   3.693   5.362   2.410 -0.4400 -1.1265  0.2066
 2424TIP3   OH2 7277   2.128   2.089   3.756  0.0798 -0.1296 -0.5986
 2424TIP3    H1 7278   2.129   2.095   3.851 -1.3529  0.5859 -0.5938
 2424TIP3    H2 7279   2.039   2.059   3.735  0.7154 -1.3631 -1.6669
 2425TIP3   OH2 7280   0.737   2.650   3.200  0.0814  0.0870  0.4663
 2425TIP3    H1 7281   0.715   2.743   3.199 -0.5028 -0.0110 -1.7794
 2425TIP3    H2 7282   0.655   2.607   3.227 -0.4159  0.1242 -0.9019
 2426TIP3   OH2 7283   1.274   5.261   4.603 -0.4774 -0.2769  0.2797
 2426TIP3    H1 7284   1.306   5.335   4.655  3.2215 -0.7742 -0.9848
 2426TIP3    H2 7285   1.317   5.185   4.642  3.2572 -0.5877 -3.6828
 2427TIP3   OH2 7286   1.903   3.954   3.223  0.0474  0.1616  0.1394
 2427TIP3    H1 7287   1.910   4.049   3.223 -1.9874  0.3458  0.0993
 2427TIP3    H2 7288   1.992   3.924   3.241  0.2832  2.0967  2.7535
 2428TIP3   OH2 7289   0.385   4.525   3.388  0.1128  0.7332  0.2646
 2428TIP3    H1 7290   0.349   4.562   3.469 -0.6686 -0.1557  0.3446
 2428TIP3    H2 7291   0.332   4.446   3.372  0.3843  0.7774 -0.9954
 2429TIP3   OH2 7292   6.170   0.777   3.648 -0.3343  0.4231  0.0803
 2429TIP3    H1 7293   6.105   0.714   3.617  1.0114 -0.3224 -1.3470
 2429TIP3    H2 7294   6.245   0.765   3.590  1.4162  0.6678  2.1766
 2430TIP3   OH2 7295   1.395   5.773   2.218  0.3427 -0.1536  0.0219
 2430TIP3    H1 7296   1.447   5.744   2.293 -0.5984 -2.0774 -0.0301
 2430TIP3    H2 7297   1.308   5.737   2.232  0.0399 -0.2585 -1.8146
 2431TIP3   OH2 7298   4.971   5.791   2.755  0.4728  0.3717 -0.4109
 2431TIP3    H1 7299   4.894   5.841   2.779 -0.3590 -1.7613  1.8047
 2431TIP3    H2 7300   5.045   5.847   2.778 -0.4021  1.5958 -0.5344
 2432TIP3   OH2 7301   5.393   2.064   5.071 -0.2252 -0.2218 -0.0798
 2432TIP3    H1 7302   5.333   2.004   5.025 -0.4858 -0.3527  0.4308
 2432TIP3    H2 7303   5.473   2.063   5.017  0.1903 -1.8957  0.5011
 2433TIP3   OH2 7304   4.712   0.114   1.095 -0.1089  0.1105 -0.1953
 2433TIP3    H1 7305   4.779   0.047   1.107  1.1548  1.5269  1.1844
 2433TIP3    H2 7306   4.639   0.086   1.150 -0.1877 -0.8246 -0.7516
 2434TIP3   OH2 7307   1.887   3.235   1.913  0.1893 -0.3352  0.4776
 2434TIP3    H1 7308   1.880   3.269   2.002  0.3569  1.6945 -0.2441
 2434TIP3    H2 7309   1.820   3.281   1.863  1.3998  0.0751 -0.8585
 2435TIP3   OH2 7310   3.668   2.598   0.815  0.2000  0.8783  0.2560
 2435TIP3    H1 7311   3.634   2.563   0.733  0.8757  0.5866  0.0968
 2435TIP3    H2 7312   3.686   2.690   0.797 -0.6212  1.0726  0.3823
 2436TIP3   OH2 7313   0.592   3.935   0.438 -0.1606  0.3116  0.0379
 2436TIP3    H1 7314   0.669   3.990   0.454 -0.8196  0.8079  1.7387
 2436TIP3    H2 7315   0.565   3.907   0.526 -2.4638  0.9175 -0.4287
 2437TIP3   OH2 7316   2.781   1.083   0.402 -0.1459 -0.6779 -0.1164
 2437TIP3    H1 7317   2.801   1.006   0.456 -1.1501  1.4716  3.7377
 2437TIP3    H2 7318   2.865   1.126   0.389 -0.0108 -0.6070  0.9046
 2438TIP3   OH2 7319   0.094   5.646   0.992 -0.3637 -0.1989 -0.0850
 2438TIP3    H1 7320   0.189   5.641   1.002 -0.6147 -1.0760  2.5601
 2438TIP3    H2 7321   0.072   5.574   0.933  0.6413  0.4693 -1.3303
 2439TIP3   OH2 7322   3.889   3.902   0.907  0.0413  0.5156 -0.3192
 2439TIP3    H1 7323   3.862   3.909   0.816 -0.7309 -2.5402 -0.4137
 2439TIP3    H2 7324   3.978   3.938   0.909  0.1140  0.5274 -2.2941
 2440TIP3   OH2 7325   0.698   3.483   0.916 -0.4345 -0.3214  0.4073
 2440TIP3    H1 7326   0.713   3.567   0.960  0.2780  0.0609 -0.5413
 2440TIP3    H2 7327   0.611   3.490   0.878  0.7470  1.2343 -2.2928
 2441TIP3   OH2 7328   3.490   0.711   4.705  0.0734 -0.4041 -0.6016
 2441TIP3    H1 7329   3.501   0.620   4.731 -1.7040 -0.4176  0.2477
 2441TIP3    H2 7330   3.522   0.762   4.781 -0.4302 -0.3536 -0.4215
 2442TIP3   OH2 7331   6.302   0.758   1.545 -0.5442 -0.4820  0.2528
 2442TIP3    H1 7332   6.208   0.766   1.533 -0.5570  0.8285  1.1172
 2442TIP3    H2 7333   6.311   0.709   1.627 -0.4754 -0.4124  0.2867
 2443TIP3   OH2 7334   6.128   3.205   4.185 -0.5910 -0.4855  0.3277
 2443TIP3    H1 7335   6.179   3.166   4.114 -0.6932 -2.0569  1.0639
 2443TIP3    H2 7336   6.179   3.186   4.264 -0.7473  0.7593  0.7555
 2444TIP3   OH2 7337   5.707   3.095   3.376 -0.3024 -0.0079  0.1843
 2444TIP3    H1 7338   5.714   3.063   3.466  0.5052 -1.5281 -0.3785
 2444TIP3    H2 7339   5.618   3.128   3.370 -0.6792 -0.7494  1.2797
 2445TIP3   OH2 7340   2.557   5.486   1.230 -0.2292  0.0318 -0.2206
 2445TIP3    H1 7341   2.547   5.571   1.187  0.7688  0.5433  0.5166
 2445TIP3    H2 7342   2.477   5.439   1.209 -0.9707  1.2938 -0.3173
 2446TIP3   OH2 7343   3.741   4.232   0.853 -0.4091 -0.0663 -0.0728
 2446TIP3    H1 7344   3.752   4.164   0.787  0.5423 -0.4655  0.4704
 2446TIP3    H2 7345   3.660   4.277   0.828 -0.8569 -1.1466 -0.6568
 2447TIP3   OH2 7346   3.483   4.785   1.040  0.0298 -0.4223 -0.2560
 2447TIP3    H1 7347   3.539   4.707   1.043 -2.1149 -2.1090 -1.1505
 2447TIP3    H2 7348   3.404   4.756   0.994 -1.4943  1.8962  0.7093
 2448TIP3   OH2 7349   0.629   2.233   1.713  0.4913  0.1599  0.2176
 2448TIP3    H1 7350   0.664   2.307   1.664  0.4470 -0.0933 -0.1998
 2448TIP3    H2 7351   0.613   2.268   1.801 -0.7757  0.9946 -0.3215
 2449TIP3   OH2 7352   2.439   4.856   4.583  0.2668 -0.6163  0.0884
 2449TIP3    H1 7353   2.386   4.935   4.572  1.1709  0.0777  0.6205
 2449TIP3    H2 7354   2.500   4.877   4.654  2.6580 -0.6348 -1.8240
 2450TIP3   OH2 7355   5.360   1.687   1.641 -0.3593 -0.1438 -0.5648
 2450TIP3    H1 7356   5.436   1.688   1.584 -0.1760 -2.5616 -0.4874
 2450TIP3    H2 7357   5.392   1.718   1.726  0.0705  0.6502 -1.0151
 2451TIP3   OH2 7358   5.490   2.678   1.016  0.2108  0.1380 -0.3162
 2451TIP3    H1 7359   5.579   2.656   1.042  0.7917  0.3618 -2.0302
 2451TIP3    H2 7360   5.440   2.598   1.032  0.8826 -0.2477 -0.1144
 2452TIP3   OH2 7361   1.928   4.514   0.468  0.1829  0.2892  0.7428
 2452TIP3    H1 7362   1.865   4.553   0.407  2.9826  0.6244 -2.2479
 2452TIP3    H2 7363   1.983   4.588   0.495  2.4928 -0.6408 -1.0466
 2453TIP3   OH2 7364   5.026   4.842   5.118  0.0192  0.2598  0.5575
 2453TIP3    H1 7365   4.992   4.761   5.080  0.3949  0.1183  0.5133
 2453TIP3    H2 7366   4.974   4.912   5.078 -0.3957  0.0313  0.6953
 2454TIP3   OH2 7367   0.242   0.774   4.204 -0.5321 -0.3264 -0.3902
 2454TIP3    H1 7368   0.163   0.816   4.238 -0.4618 -0.2560 -0.3149
 2454TIP3    H2 7369   0.210   0.721   4.131 -0.4564  0.8477 -1.3170
 2455TIP3   OH2 7370   0.467   1.556   4.734 -0.3180  0.0232 -0.3675
 2455TIP3    H1 7371   0.536   1.615   4.762 -2.1182  1.9755  0.2373
 2455TIP3    H2 7372   0.461   1.491   4.803 -0.0184  0.6825  0.2886
 2456TIP3   OH2 7373   5.052   1.748   4.738 -0.5193 -0.0966  0.0861
 2456TIP3    H1 7374   5.079   1.711   4.654 -2.9982 -1.0839 -0.3635
 2456TIP3    H2 7375   5.005   1.677   4.782 -1.6387  1.1950  1.0919
 2457TIP3   OH2 7376   5.489   0.155   1.888  0.3271  0.0200 -1.0353
 2457TIP3    H1 7377   5.415   0.206   1.854  0.9520  0.4597 -1.7760
 2457TIP3    H2 7378   5.560   0.218   1.896  1.2763 -0.7913 -2.4667
 2458TIP3   OH2 7379   0.455   3.487   0.800  0.2690 -0.2349 -0.1631
 2458TIP3    H1 7380   0.402   3.538   0.861  0.9320 -0.1079  0.3292
 2458TIP3    H2 7381   0.401   3.412   0.777  0.4190 -0.9092  1.5091
 2459TIP3   OH2 7382   1.648   1.316   5.203  0.0837 -0.4765  0.5021
 2459TIP3    H1 7383   1.588   1.326   5.129  0.8184  0.2612 -0.0125
 2459TIP3    H2 7384   1.735   1.330   5.165  0.5116 -0.6226  1.4082
 2460TIP3   OH2 7385   2.155   1.390   4.175 -0.2482  0.2030  0.2077
 2460TIP3    H1 7386   2.147   1.477   4.216 -0.3128 -0.3066  1.3212
 2460TIP3    H2 7387   2.167   1.409   4.082  0.2441  1.4323  0.4891
 2461TIP3   OH2 7388   2.603   4.905   4.788  0.1723  0.6024  0.0411
 2461TIP3    H1 7389   2.617   4.816   4.819  1.4870  0.9042  0.3536
 2461TIP3    H2 7390   2.673   4.956   4.827  0.2826  1.5072 -1.2685
 2462TIP3   OH2 7391   3.211   0.327   4.549  0.3297 -0.2869 -0.7862
 2462TIP3    H1 7392   3.270   0.303   4.620 -0.5432 -2.0787 -0.6143
 2462TIP3    H2 7393   3.152   0.392   4.586  0.7550 -0.1854 -0.2900
 2463TIP3   OH2 7394   2.734   3.678   1.716  0.4186 -0.3433 -0.0916
 2463TIP3    H1 7395   2.701   3.607   1.771  0.0064  0.2129  0.3845
 2463TIP3    H2 7396   2.658   3.708   1.667  0.6529 -0.4163 -0.5046
 2464TIP3   OH2 7397   4.914   1.170   0.363  0.2100  0.3725 -0.0222
 2464TIP3    H1 7398   4.862   1.226   0.421  2.3816 -0.2873  2.8075
 2464TIP3    H2 7399   5.003   1.177   0.397  0.7167 -4.3806  0.2780
 2465TIP3   OH2 7400   1.838   3.936   0.423 -0.3275  0.0264 -0.6699
 2465TIP3    H1 7401   1.777   3.965   0.355  2.1428 -1.5385 -3.7993
 2465TIP3    H2 7402   1.841   3.841   0.415  0.0039 -0.2392  1.7697
 2466TIP3   OH2 7403   2.543   4.594   3.823  0.2517 -0.2412  0.5106
 2466TIP3    H1 7404   2.628   4.561   3.792 -0.1041 -1.8787  1.2016
 2466TIP3    H2 7405   2.559   4.618   3.914  0.0525 -0.2179  0.5390
 2467TIP3   OH2 7406   2.204   1.543   1.492  0.9804  0.2175  0.1005
 2467TIP3    H1 7407   2.161   1.464   1.459 -2.2635  1.4684  0.8943
 2467TIP3    H2 7408   2.261   1.512   1.563 -1.0853 -1.3896  1.1717
 2468TIP3   OH2 7409   5.224   3.844   1.753  0.0148  0.7442 -0.3257
 2468TIP3    H1 7410   5.318   3.844   1.737  0.3576  0.4233  1.4564
 2468TIP3    H2 7411   5.189   3.776   1.695  1.3276 -1.2515  1.1060
 2469TIP3   OH2 7412   4.375   5.624   1.356 -0.3381 -0.5212  0.0999
 2469TIP3    H1 7413   4.383   5.626   1.452  1.1528 -2.4938  0.0868
 2469TIP3    H2 7414   4.421   5.702   1.326  1.1560 -1.0368  0.9431
 2470TIP3   OH2 7415   3.613   0.518   0.171  0.4925 -0.5155  0.6153
 2470TIP3    H1 7416   3.541   0.494   0.114 -0.3729 -0.6579  1.7323
 2470TIP3    H2 7417   3.652   0.435   0.197 -0.0923 -0.5395  1.4448
 2471TIP3   OH2 7418   6.006   2.899   4.282 -0.2050 -0.6151  0.2789
 2471TIP3    H1 7419   6.070   2.837   4.246  0.1103 -0.5815  0.7669
 2471TIP3    H2 7420   6.019   2.893   4.377 -0.0353  0.3433  0.3230
 2472TIP3   OH2 7421   5.477   2.934   4.259 -0.3360  0.5764  0.3008
 2472TIP3    H1 7422   5.511   3.024   4.261  0.7904  0.2527 -1.6485
 2472TIP3    H2 7423   5.402   2.939   4.200 -0.5892  0.3168  0.5987
 2473TIP3   OH2 7424   5.706   3.114   3.640 -0.1300  0.3759  0.0564
 2473TIP3    H1 7425   5.772   3.162   3.689 -0.3229  0.5178  0.1809
 2473TIP3    H2 7426   5.631   3.174   3.637 -0.0604  0.4469 -0.5617
 2474TIP3   OH2 7427   4.250   3.278   3.322  0.3770 -0.2234  0.2309
 2474TIP3    H1 7428   4.158   3.290   3.298  0.8515 -0.3734 -1.9047
 2474TIP3    H2 7429   4.272   3.191   3.289  0.8979 -0.8673  2.1598
 2475TIP3   OH2 7430   4.405   3.206   1.028 -0.5586  0.0008 -0.2696
 2475TIP3    H1 7431   4.311   3.198   1.042 -0.3516 -3.1632 -0.0606
 2475TIP3    H2 7432   4.436   3.258   1.102 -1.9840  0.1829  0.2284
 2476TIP3   OH2 7433   4.802   0.760   1.069  0.5102 -0.7063 -0.2458
 2476TIP3    H1 7434   4.745   0.683   1.072  0.7317 -0.9180 -1.1003
 2476TIP3    H2 7435   4.781   0.808   1.149  0.2305 -1.5542  0.2096
 2477TIP3   OH2 7436   5.335   2.569   1.628  0.0853  0.2865 -0.1057
 2477TIP3    H1 7437   5.359   2.533   1.713  0.0124  0.2044 -0.1193
 2477TIP3    H2 7438   5.295   2.654   1.648 -1.3603 -0.4108  0.0658
 2478TIP3   OH2 7439   2.056   2.708   2.768 -0.7054  0.3545 -0.2073
 2478TIP3    H1 7440   2.039   2.640   2.702 -0.4228  2.3106 -2.4093
 2478TIP3    H2 7441   2.145   2.737   2.749 -0.1507  0.1626  1.8749
 2479TIP3   OH2 7442   3.249   1.702   2.613 -0.1846 -0.4027 -0.3371
 2479TIP3    H1 7443   3.334   1.658   2.615 -0.3669 -0.7303  0.9586
 2479TIP3    H2 7444   3.194   1.650   2.672 -1.0027  0.3812 -0.3974
 2480TIP3   OH2 7445   3.489   1.191   2.250  0.2553 -0.8943 -0.1070
 2480TIP3    H1 7446   3.474   1.267   2.194  1.2453 -0.7115 -0.1380
 2480TIP3    H2 7447   3.450   1.215   2.334 -1.5699 -1.3164 -0.7858
 2481TIP3   OH2 7448   3.577   0.189   4.563 -0.0552 -0.5019  0.1188
 2481TIP3    H1 7449   3.648   0.237   4.521 -1.4171  2.0279  0.5345
 2481TIP3    H2 7450   3.540   0.135   4.492  1.1026 -0.4564 -0.5443
 2482TIP3   OH2 7451   4.711   1.788   1.497 -0.1280 -0.4167 -0.0133
 2482TIP3    H1 7452   4.700   1.785   1.402  1.2183 -1.9026 -0.1538
 2482TIP3    H2 7453   4.699   1.698   1.526 -0.1836 -0.0439  1.2016
 2483TIP3   OH2 7454   5.165   2.086   1.594 -0.3366  0.3456  0.1941
 2483TIP3    H1 7455   5.257   2.111   1.585 -0.3342 -0.1104 -1.2788
 2483TIP3    H2 7456   5.156   2.006   1.542 -0.9912 -1.1567  2.4665
 2484TIP3   OH2 7457   4.616   0.324   0.958 -0.2023  0.2030  0.0268
 2484TIP3    H1 7458   4.639   0.260   1.024 -0.1812 -0.8699 -0.9836
 2484TIP3    H2 7459   4.692   0.382   0.953  1.8302 -2.3889 -2.1906
 2485TIP3   OH2 7460   3.392   1.316   4.390 -0.3687  0.2079 -0.1547
 2485TIP3    H1 7461   3.412   1.399   4.347  0.4829 -0.4188 -0.9986
 2485TIP3    H2 7462   3.437   1.321   4.474  1.3170 -0.1472 -0.9923
 2486TIP3   OH2 7463  -0.021   4.525   0.749 -0.3707 -0.3399  0.0922
 2486TIP3    H1 7464   0.042   4.475   0.802 -0.8928 -0.7287  0.3486
 2486TIP3    H2 7465   0.011   4.515   0.659  1.4248  1.6170  0.4329
 2487TIP3   OH2 7466   3.356   0.977   3.317 -0.2713  0.1639  0.0055
 2487TIP3    H1 7467   3.391   1.054   3.362 -0.2028  0.4464 -0.5264
 2487TIP3    H2 7468   3.266   0.968   3.350 -0.4408  0.7551 -0.2846
 2488TIP3   OH2 7469   3.096   3.683   4.236 -0.8264  0.2737 -0.0395
 2488TIP3    H1 7470   3.165   3.663   4.174 -1.0489 -1.1072  0.1228
 2488TIP3    H2 7471   3.100   3.778   4.248  1.6096  0.1456  0.6339
 2489TIP3   OH2 7472   2.431   0.037   3.874 -0.1383  0.1757 -0.3294
 2489TIP3    H1 7473   2.482   0.046   3.954 -0.8044  0.4181  0.0814
 2489TIP3    H2 7474   2.417   0.127   3.844  0.2047  0.0791 -0.7793
 2490TIP3   OH2 7475   3.461   5.418   0.366 -0.5739  0.3713 -0.6238
 2490TIP3    H1 7476   3.531   5.457   0.314 -0.8958  1.9276  0.0613
 2490TIP3    H2 7477   3.425   5.350   0.310  2.3489 -1.4600 -0.4878
 2491TIP3   OH2 7478   2.117   1.382   1.278  0.5022  0.3356  0.6265
 2491TIP3    H1 7479   2.165   1.300   1.288 -0.1853 -0.5979 -2.6405
 2491TIP3    H2 7480   2.152   1.421   1.198 -1.9740  1.1932 -0.1278
 2492TIP3   OH2 7481   5.078   1.014   0.764 -0.3027  0.3460 -0.2005
 2492TIP3    H1 7482   5.028   1.095   0.760 -0.1255  0.4193 -1.2390
 2492TIP3    H2 7483   5.036   0.957   0.699  0.1418 -0.0631 -0.1353
 2493TIP3   OH2 7484   0.031   5.362   3.308  0.3497  0.0150  0.0678
 2493TIP3    H1 7485   0.110   5.405   3.340 -0.3920  0.8438  0.8417
 2493TIP3    H2 7486  -0.037   5.429   3.314 -0.4345 -0.7118 -0.4876
 2494TIP3   OH2 7487   1.250   1.535   1.105 -0.5231 -0.4539 -0.5326
 2494TIP3    H1 7488   1.253   1.440   1.116 -3.1471 -0.7248 -1.3067
 2494TIP3    H2 7489   1.219   1.568   1.190 -0.0926 -0.3373 -0.4194
 2495TIP3   OH2 7490   4.705   4.614   2.203 -0.0787  0.5360 -0.1098
 2495TIP3    H1 7491   4.610   4.600   2.201  0.0588 -0.3621 -2.0324
 2495TIP3    H2 7492   4.733   4.602   2.113  2.3057 -2.4812  0.8555
 2496TIP3   OH2 7493   4.938   0.578   3.646  0.2929  0.3611 -0.4384
 2496TIP3    H1 7494   4.967   0.593   3.736  2.5072 -0.1706 -1.0135
 2496TIP3    H2 7495   4.870   0.511   3.654 -1.2224  1.9602  1.0022
 2497TIP3   OH2 7496   1.669   1.926   3.116  0.1018  0.1954  0.2109
 2497TIP3    H1 7497   1.753   1.944   3.158  0.0623 -0.0979  0.4142
 2497TIP3    H2 7498   1.614   2.001   3.140  0.5770  0.8481 -0.6744
 2498TIP3   OH2 7499   4.595   1.863   3.425  0.3119 -0.0605 -0.3095
 2498TIP3    H1 7500   4.564   1.924   3.357  2.3203  1.4881  0.0776
 2498TIP3    H2 7501   4.686   1.889   3.441  0.5034 -1.6826  1.5768
 2499TIP3   OH2 7502   5.331   4.785   3.666  0.1036 -0.0017 -0.1243
 2499TIP3    H1 7503   5.411   4.772   3.718 -0.0966  1.8214  0.7345
 2499TIP3    H2 7504   5.263   4.804   3.730 -0.5073  0.7269 -0.9558
 2500TIP3   OH2 7505   5.641   5.457   1.705  0.1421  0.3460 -0.5454
 2500TIP3    H1 7506   5.546   5.461   1.721  0.0131  0.0054 -1.2006
 2500TIP3    H2 7507   5.676   5.411   1.782 -0.4463 -1.0883 -1.0900
 2501TIP3   OH2 7508   1.901   2.915   1.790 -0.3142  0.2419  0.2005
 2501TIP3    H1 7509   1.850   2.983   1.834 -1.3086 -1.0867  1.1805
 2501TIP3    H2 7510   1.899   2.840   1.850  1.1482 -0.5186 -0.6229
 2502TIP3   OH2 7511   4.719   1.712   0.669 -0.1211 -0.2781 -0.5297
 2502TIP3    H1 7512   4.638   1.660   0.675  0.2074 -0.8149 -0.6892
 2502TIP3    H2 7513   4.696   1.797   0.707 -0.3889 -0.8540  0.6284
 2503TIP3   OH2 7514   4.161   1.590   3.174  0.0797  0.5390  0.1942
 2503TIP3    H1 7515   4.211   1.565   3.252  0.2296 -1.1947 -0.4041
 2503TIP3    H2 7516   4.209   1.549   3.101 -0.4716  1.5010 -0.7326
 2504TIP3   OH2 7517   0.613   5.343   2.655 -0.1681 -0.1076 -0.1628
 2504TIP3    H1 7518   0.612   5.282   2.581 -0.1043 -0.7457  0.3499
 2504TIP3    H2 7519   0.685   5.312   2.710 -0.4677  0.1220  0.3644
 2505TIP3   OH2 7520   3.366   1.172   1.237 -0.3014  0.2129 -0.5669
 2505TIP3    H1 7521   3.458   1.183   1.213  0.4135  1.8742  2.3442
 2505TIP3    H2 7522   3.325   1.257   1.218 -0.9110 -0.0974 -0.6660
 2506TIP3   OH2 7523   1.388   0.160   1.045 -0.0336  0.2126 -0.1581
 2506TIP3    H1 7524   1.424   0.246   1.026  1.1399 -0.0720  0.6874
 2506TIP3    H2 7525   1.409   0.108   0.967 -2.2402  1.0677 -1.4339
 2507TIP3   OH2 7526   3.074   5.822   2.607  0.0583  0.4640  0.0748
 2507TIP3    H1 7527   3.133   5.765   2.557 -1.8405 -1.5812 -0.0159
 2507TIP3    H2 7528   2.994   5.826   2.553 -0.4683  1.7970  0.9309
 2508TIP3   OH2 7529   5.053   5.755   1.241  0.4638 -0.2496 -0.3553
 2508TIP3    H1 7530   5.041   5.785   1.331 -0.2052 -0.6588 -0.3006
 2508TIP3    H2 7531   5.116   5.817   1.203  1.9347 -0.9350  0.8272
 2509TIP3   OH2 7532   4.071   4.216   1.224 -0.1841 -0.0115 -0.0853
 2509TIP3    H1 7533   4.159   4.178   1.232  0.3253  1.0754 -0.3999
 2509TIP3    H2 7534   4.056   4.259   1.308 -0.7816 -0.9009  0.2855
 2510TIP3   OH2 7535   0.337   3.449   3.980 -0.2734 -0.2023 -0.2137
 2510TIP3    H1 7536   0.283   3.430   4.057  1.6798 -0.4828  1.1320
 2510TIP3    H2 7537   0.403   3.381   3.979  3.0776  2.6925  1.1123
 2511TIP3   OH2 7538   1.744   1.807   1.682 -0.2683 -0.6021 -0.0225
 2511TIP3    H1 7539   1.650   1.793   1.669 -0.3808 -0.5977  0.7489
 2511TIP3    H2 7540   1.772   1.733   1.736  0.2897 -0.9056 -0.7203
 2512TIP3   OH2 7541   5.063   0.023   0.975 -0.1533  0.2098 -0.3910
 2512TIP3    H1 7542   5.100   0.101   1.017 -1.9675  1.0784 -0.3162
 2512TIP3    H2 7543   5.002  -0.012   1.040  0.7233 -1.3905 -0.3699
 2513TIP3   OH2 7544   1.709   0.771   1.466 -0.2188 -0.2855  0.4038
 2513TIP3    H1 7545   1.788   0.732   1.505  0.2473  0.4047  0.1832
 2513TIP3    H2 7546   1.656   0.697   1.437  1.8536 -0.8100 -2.4815
 2514TIP3   OH2 7547   5.567   4.367   1.032 -0.1168 -0.6005  0.2402
 2514TIP3    H1 7548   5.600   4.345   0.945 -0.7622  0.5001 -0.3022
 2514TIP3    H2 7549   5.483   4.410   1.016 -0.1258 -0.1455  1.3913
 2515TIP3   OH2 7550   3.620   4.557   5.176 -0.8931  0.3493  0.2405
 2515TIP3    H1 7551   3.663   4.582   5.094 -1.9659  0.3242 -0.3459
 2515TIP3    H2 7552   3.658   4.472   5.198  1.0510  1.3484  0.9957
 2516TIP3   OH2 7553   4.584   5.045   2.191 -0.1109  0.2119  0.2354
 2516TIP3    H1 7554   4.522   4.972   2.197  0.8220 -0.6269 -0.2165
 2516TIP3    H2 7555   4.532   5.118   2.157 -0.3736 -1.0856 -2.3633
 2517TIP3   OH2 7556   0.189   5.083   2.037 -0.0604 -0.1273 -0.0115
 2517TIP3    H1 7557   0.104   5.086   1.992 -0.9097 -0.1298  1.5305
 2517TIP3    H2 7558   0.181   5.009   2.097  0.4532  0.8423  1.2681
 2518TIP3   OH2 7559   2.600   5.200   1.086 -0.6187 -0.0848 -0.1337
 2518TIP3    H1 7560   2.670   5.262   1.068 -0.0890  0.0894  2.1742
 2518TIP3    H2 7561   2.626   5.157   1.168 -2.9276 -0.4232  0.5051
 2519TIP3   OH2 7562   1.401   4.269   3.024 -0.1548 -0.8889  0.1964
 2519TIP3    H1 7563   1.313   4.241   2.999 -0.1073 -0.7764 -0.1058
 2519TIP3    H2 7564   1.387   4.343   3.082 -0.2466 -0.1769 -0.7126
 2520TIP3   OH2 7565   0.958   0.787   0.787 -0.5640 -0.1256  0.6700
 2520TIP3    H1 7566   0.985   0.854   0.725  0.0685 -0.2023  0.8539
 2520TIP3    H2 7567   0.967   0.828   0.873  1.4423 -0.9527  0.9011
 2521TIP3   OH2 7568   3.682   2.010   5.037  0.4057  0.0052  0.1781
 2521TIP3    H1 7569   3.592   2.003   5.069  0.6800 -0.4944  0.8490
 2521TIP3    H2 7570   3.737   2.006   5.115  1.0003  0.8341 -0.1777
 2522TIP3   OH2 7571   2.424   4.220   4.172 -0.1668 -0.0314  0.4149
 2522TIP3    H1 7572   2.519   4.230   4.171 -0.1578  0.2613  1.8263
 2522TIP3    H2 7573   2.391   4.293   4.119  0.4030 -0.5926 -0.7476
 2523TIP3   OH2 7574   2.106   1.228   4.952  0.3437 -0.7660 -0.2097
 2523TIP3    H1 7575   2.069   1.243   5.039 -2.0589 -1.5302 -1.0352
 2523TIP3    H2 7576   2.113   1.315   4.914  1.4925 -0.4134  0.7269
 2524TIP3   OH2 7577   1.757   4.970   0.940  0.1587  0.1380 -0.1738
 2524TIP3    H1 7578   1.844   4.946   0.909 -0.0278  0.2958 -0.8311
 2524TIP3    H2 7579   1.762   4.962   1.035  0.8260 -0.0648 -0.2253
 2525TIP3   OH2 7580   0.272   4.227   0.981  0.6838 -0.1549  0.0036
 2525TIP3    H1 7581   0.276   4.135   0.957  0.5025 -0.3482  0.6794
 2525TIP3    H2 7582   0.264   4.226   1.077  1.8212  0.5799  0.1249
 2526TIP3   OH2 7583   3.865   0.671   0.207  0.3862 -0.3179 -0.2975
 2526TIP3    H1 7584   3.812   0.593   0.191  1.1842 -1.2375  1.3287
 2526TIP3    H2 7585   3.951   0.649   0.170 -0.0110  0.7918 -2.0487
 2527TIP3   OH2 7586   1.589   2.253   0.894  0.0496 -0.6576  0.3772
 2527TIP3    H1 7587   1.600   2.169   0.849 -0.0626  1.3656 -4.0050
 2527TIP3    H2 7588   1.646   2.313   0.845 -1.8451  2.3340  1.5933
 2528TIP3   OH2 7589   1.824   5.598   0.809 -0.6048 -0.3221 -0.1449
 2528TIP3    H1 7590   1.898   5.537   0.801 -0.9681 -0.5602 -2.0421
 2528TIP3    H2 7591   1.767   5.575   0.737 -1.6599  1.0855  0.2155
 2529TIP3   OH2 7592   1.897   0.503   4.453  0.2440 -0.6810  0.0492
 2529TIP3    H1 7593   1.809   0.540   4.461  0.5349 -0.0839  0.4826
 2529TIP3    H2 7594   1.885   0.425   4.398 -0.8715 -1.7022  1.6396
 2530TIP3   OH2 7595   2.218   3.743   2.212  0.2181  0.3543  0.4235
 2530TIP3    H1 7596   2.252   3.688   2.141  1.6101  1.4372  0.1961
 2530TIP3    H2 7597   2.254   3.830   2.193 -0.6584  0.9976  1.6134
 2531TIP3   OH2 7598   4.449   4.122   3.838  0.3153 -0.1283 -0.1340
 2531TIP3    H1 7599   4.405   4.117   3.753  0.7419 -1.6234 -0.2997
 2531TIP3    H2 7600   4.401   4.062   3.894 -0.5471  1.5551  0.9998
 2532TIP3   OH2 7601   1.267   5.890   0.106 -0.2892 -0.5588 -0.1640
 2532TIP3    H1 7602   1.243   5.976   0.140  0.9637  0.4251 -1.6709
 2532TIP3    H2 7603   1.329   5.855   0.171  0.1238  0.1912 -0.1499
 2533TIP3   OH2 7604   2.671   3.734   2.460 -0.3685 -0.0479 -0.2209
 2533TIP3    H1 7605   2.630   3.672   2.400  0.7243 -0.9382 -0.0551
 2533TIP3    H2 7606   2.714   3.798   2.403 -0.7529  0.0728 -0.3819
 2534TIP3   OH2 7607   1.316   2.843   2.997 -0.7452 -0.6414 -0.3741
 2534TIP3    H1 7608   1.355   2.810   2.916 -0.4595  1.1634 -1.0245
 2534TIP3    H2 7609   1.225   2.864   2.973 -2.1805 -4.4114  1.0154
 2535TIP3   OH2 7610   2.559   5.790   2.156 -0.0751  0.0370 -0.0225
 2535TIP3    H1 7611   2.464   5.798   2.142 -0.3549 -0.7893  1.2220
 2535TIP3    H2 7612   2.567   5.735   2.233  1.4761 -2.6484 -1.9373
 2536TIP3   OH2 7613   1.597   3.621   2.514  0.5312 -0.2840 -0.5415
 2536TIP3    H1 7614   1.675   3.671   2.537  0.2876 -0.9076  1.9890
 2536TIP3    H2 7615   1.603   3.542   2.569 -0.7999 -1.3751 -1.8939
 2537TIP3   OH2 7616   4.562   0.691   4.837  0.6635  0.1791  0.1252
 2537TIP3    H1 7617   4.487   0.647   4.877 -0.2530  3.0296  1.8294
 2537TIP3    H2 7618   4.564   0.658   4.748 -0.1922 -2.8629  1.0974
 2538TIP3   OH2 7619   0.676   4.159   1.607 -0.5269  0.4070 -0.0846
 2538TIP3    H1 7620   0.589   4.119   1.607 -0.2926 -0.1465  1.2157
 2538TIP3    H2 7621   0.734   4.092   1.644 -0.2273  2.1078  2.8267
 2539TIP3   OH2 7622   4.456   2.997   2.917  0.4184 -0.6517  0.6042
 2539TIP3    H1 7623   4.398   2.932   2.957 -0.4603 -1.5073 -1.8494
 2539TIP3    H2 7624   4.412   3.081   2.933 -1.7304 -1.2902 -1.2973
 2540TIP3   OH2 7625   3.154   4.150   1.602 -0.1191 -0.3328 -0.2158
 2540TIP3    H1 7626   3.165   4.245   1.593  0.3796 -0.4103 -0.4085
 2540TIP3    H2 7627   3.195   4.129   1.685 -3.2542  0.1277  1.6094
 2541TIP3   OH2 7628   3.162   0.655   2.043  0.0312  0.3133 -0.0909
 2541TIP3    H1 7629   3.211   0.643   2.125 -0.4875  1.5639  0.4231
 2541TIP3    H2 7630   3.184   0.744   2.015 -1.8232  0.8595  0.0793
 2542TIP3   OH2 7631   5.863   1.462   4.962 -0.3116 -0.0996 -0.0205
 2542TIP3    H1 7632   5.890   1.544   4.919  1.0657  0.1068  1.1864
 2542TIP3    H2 7633   5.767   1.465   4.959 -0.3229  1.8444  0.4678
 2543TIP3   OH2 7634   4.535   0.496   0.315  0.2856  0.5170 -0.0558
 2543TIP3    H1 7635   4.557   0.576   0.362  1.5643  0.3204 -0.2821
 2543TIP3    H2 7636   4.619   0.460   0.288 -0.0482 -2.0854  1.9756
 2544TIP3   OH2 7637   4.877   5.387   1.685  0.4659  0.8246 -0.3109
 2544TIP3    H1 7638   4.910   5.390   1.775  1.5437  0.7013 -0.6881
 2544TIP3    H2 7639   4.853   5.296   1.671 -0.9863  1.0929  0.2821
 2545TIP3   OH2 7640   4.227   0.468   2.391  0.6108 -0.1264  0.3011
 2545TIP3    H1 7641   4.277   0.471   2.472  1.2074 -1.5909  0.0207
 2545TIP3    H2 7642   4.272   0.528   2.332  0.2707  0.8156  0.9851
 2546TIP3   OH2 7643   3.708   5.077   4.416  0.2667 -0.4512  0.1230
 2546TIP3    H1 7644   3.751   5.020   4.352 -0.0199 -0.4631 -0.0630
 2546TIP3    H2 7645   3.640   5.022   4.454  0.4292 -0.4395  0.4330
 2547TIP3   OH2 7646   5.091   2.653   3.322  0.3691 -0.0531 -0.0946
 2547TIP3    H1 7647   5.008   2.620   3.286 -0.7788 -0.4612  2.7041
 2547TIP3    H2 7648   5.097   2.742   3.288 -1.7248  0.3129  0.3605
 2548TIP3   OH2 7649   5.156   0.032   0.734  0.0480  0.1656 -0.3078
 2548TIP3    H1 7650   5.107   0.086   0.673  0.6686  0.0249 -0.9435
 2548TIP3    H2 7651   5.105   0.035   0.815 -0.5628  0.6944 -0.7022
 2549TIP3   OH2 7652   0.925   5.590   1.925 -0.4511  0.0823  0.0792
 2549TIP3    H1 7653   0.867   5.524   1.887 -2.0284  2.2186 -1.5123
 2549TIP3    H2 7654   0.866   5.659   1.955  1.1999  1.8866 -0.6097
 2550TIP3   OH2 7655   1.212   4.588   2.649 -0.0908  0.4453 -0.4537
 2550TIP3    H1 7656   1.259   4.508   2.673 -1.0772 -0.2603 -0.7969
 2550TIP3    H2 7657   1.246   4.655   2.709  0.5687 -0.2839  0.0080
 2551TIP3   OH2 7658   6.289   0.097   1.438  0.2802 -0.1371 -0.1988
 2551TIP3    H1 7659   6.313   0.065   1.351  0.7957  0.4365 -0.2717
 2551TIP3    H2 7660   6.214   0.043   1.463  0.7282 -0.9650 -0.5868
 2552TIP3   OH2 7661   0.042   4.288   5.052  0.0094  0.8451  0.0095
 2552TIP3    H1 7662   0.069   4.367   5.005  1.1547  0.0528 -0.7145
 2552TIP3    H2 7663   0.107   4.222   5.027 -0.8633 -0.3004  0.6841
 2553TIP3   OH2 7664   2.738   2.041   2.310 -0.3152  0.4630 -0.5308
 2553TIP3    H1 7665   2.745   2.116   2.252  0.4025  1.9558  1.3790
 2553TIP3    H2 7666   2.644   2.025   2.319 -0.4992  1.4964 -0.5487
 2554TIP3   OH2 7667   2.169   0.495   1.264 -0.2367  0.3735  0.3386
 2554TIP3    H1 7668   2.138   0.451   1.343 -1.1026  0.8234  0.2580
 2554TIP3    H2 7669   2.127   0.581   1.266 -0.6291  0.2289 -0.8348
 2555TIP3   OH2 7670   0.542   3.660   4.497 -0.6996  0.1247 -0.5360
 2555TIP3    H1 7671   0.472   3.726   4.494 -3.2489 -2.2260  1.6015
 2555TIP3    H2 7672   0.521   3.601   4.425 -1.0175 -0.6237  0.1535
 2556TIP3   OH2 7673   4.600   1.800   0.027 -0.5380 -0.9978  0.2237
 2556TIP3    H1 7674   4.610   1.792  -0.068 -1.6351 -0.1405  0.0244
 2556TIP3    H2 7675   4.520   1.753   0.047 -0.0758 -1.5615  0.8073
 2557TIP3   OH2 7676   5.506   2.691   0.359  0.1173 -0.1200 -0.2742
 2557TIP3    H1 7677   5.438   2.758   0.365  1.0827  1.4293 -3.8388
 2557TIP3    H2 7678   5.458   2.608   0.363 -1.4121  0.7608  1.5157
 2558TIP3   OH2 7679   2.167   4.697   3.081 -0.0527 -0.1255  0.2140
 2558TIP3    H1 7680   2.168   4.734   2.992  2.4302 -0.4218  0.0605
 2558TIP3    H2 7681   2.176   4.603   3.067  1.2140 -0.1060  0.7554
 2559TIP3   OH2 7682   0.319   3.124   2.320  0.0184  0.1250 -0.0793
 2559TIP3    H1 7683   0.232   3.150   2.290 -0.9363 -1.5272  1.0699
 2559TIP3    H2 7684   0.327   3.166   2.406 -0.3764 -1.0212  0.5455
 2560TIP3   OH2 7685   1.069   2.342   4.608 -0.3727  0.2126 -0.3891
 2560TIP3    H1 7686   1.099   2.430   4.631 -1.0910  0.1302  0.9550
 2560TIP3    H2 7687   1.062   2.343   4.512 -1.7954  2.0806 -0.3149
 2561TIP3   OH2 7688   0.315   5.977   1.362 -0.2332 -0.6268 -0.2209
 2561TIP3    H1 7689   0.286   6.049   1.418  0.7663  0.1866 -0.7192
 2561TIP3    H2 7690   0.248   5.910   1.372 -2.3387  1.1862 -1.3856
 2562TIP3   OH2 7691   4.343   0.949   1.806 -0.4970 -0.0256  0.0060
 2562TIP3    H1 7692   4.322   0.862   1.839  0.0687  0.5013  1.8549
 2562TIP3    H2 7693   4.376   0.934   1.718  0.6615 -1.7982  0.6973
 2563TIP3   OH2 7694   2.357   1.663   4.840 -0.2436  0.3636 -0.2082
 2563TIP3    H1 7695   2.449   1.639   4.828 -0.4534 -0.2876 -0.5682
 2563TIP3    H2 7696   2.336   1.718   4.764 -0.4431 -0.3816 -0.7028
 2564TIP3   OH2 7697   5.729   1.817   2.687 -0.0777  0.1636  0.1261
 2564TIP3    H1 7698   5.755   1.730   2.654  2.3847  0.7571  0.2710
 2564TIP3    H2 7699   5.778   1.878   2.632 -2.2375  1.5330 -0.3699
 2565TIP3   OH2 7700   1.944   0.894   2.992 -0.2983 -0.6356 -0.5808
 2565TIP3    H1 7701   1.960   0.985   3.015 -0.2859 -0.7466 -0.1359
 2565TIP3    H2 7702   2.012   0.873   2.928 -0.5515 -0.2151 -0.9922
 2566TIP3   OH2 7703   3.494   0.254   3.679  0.6877 -0.0992  0.4398
 2566TIP3    H1 7704   3.448   0.232   3.598 -0.6493  0.0562  1.1342
 2566TIP3    H2 7705   3.569   0.306   3.650  0.2220 -0.0181 -0.6917
 2567TIP3   OH2 7706   0.317   5.516   0.071 -0.1806  0.0949 -0.1595
 2567TIP3    H1 7707   0.229   5.480   0.059 -0.1635  0.4763 -1.5324
 2567TIP3    H2 7708   0.361   5.499  -0.012  0.4963  1.4342 -0.0880
 2568TIP3   OH2 7709   3.273   5.007   1.632 -0.3105 -0.1299 -0.3328
 2568TIP3    H1 7710   3.278   5.091   1.585  0.2316 -0.5865 -1.1106
 2568TIP3    H2 7711   3.221   5.027   1.710  1.2939  1.3547  0.4360
 2569TIP3   OH2 7712   2.922   1.724   4.628  0.0904  0.0228 -0.4926
 2569TIP3    H1 7713   2.927   1.628   4.623 -1.2192 -0.1627  1.0404
 2569TIP3    H2 7714   2.833   1.745   4.601 -0.0169  0.7100  0.3755
 2570TIP3   OH2 7715   4.822   2.234   1.157  0.1342 -0.0119  0.5978
 2570TIP3    H1 7716   4.900   2.252   1.210  1.1820 -2.0689 -0.1550
 2570TIP3    H2 7717   4.749   2.243   1.218  0.8964  2.0399  1.3095
 2571TIP3   OH2 7718   4.525   1.901   0.909 -0.1099  0.2391  0.2566
 2571TIP3    H1 7719   4.505   1.958   0.835 -1.0681  1.4027  1.3550
 2571TIP3    H2 7720   4.551   1.961   0.979 -2.7277 -0.4482  1.9595
 2572TIP3   OH2 7721   6.187   0.425   3.116  0.3628  0.0926  0.5496
 2572TIP3    H1 7722   6.096   0.413   3.088  0.2471  0.5509  0.7190
 2572TIP3    H2 7723   6.239   0.411   3.037  0.2340 -1.2937  0.6809
 2573TIP3   OH2 7724   3.063   2.288   2.231  0.0244 -0.4858  0.3538
 2573TIP3    H1 7725   3.153   2.316   2.248  0.1541 -0.3786 -0.4862
 2573TIP3    H2 7726   3.070   2.197   2.204  0.0275 -0.0858 -1.0501
 2574TIP3   OH2 7727   4.456   2.154   3.394 -0.2831 -0.6427 -0.5060
 2574TIP3    H1 7728   4.413   2.239   3.405  1.5436  0.2356  0.3722
 2574TIP3    H2 7729   4.507   2.164   3.313  1.6894 -0.0415  0.7480
 2575TIP3   OH2 7730   5.969   0.739   0.735 -0.5264  0.0468  0.0149
 2575TIP3    H1 7731   5.944   0.809   0.795 -2.2519  1.7813 -2.4975
 2575TIP3    H2 7732   6.037   0.777   0.680 -1.5804 -0.1075 -1.4732
 2576TIP3   OH2 7733   4.170   5.904   3.142 -0.3827 -0.2710  0.3508
 2576TIP3    H1 7734   4.219   5.957   3.206 -1.0833  0.2759  0.4504
 2576TIP3    H2 7735   4.207   5.929   3.058 -1.3756  1.1759  0.2978
 2577TIP3   OH2 7736   1.649   1.415   4.319 -0.2983 -0.4913 -0.2121
 2577TIP3    H1 7737   1.673   1.491   4.373 -2.1565 -0.4297  0.5873
 2577TIP3    H2 7738   1.731   1.366   4.311  1.0400  1.6701 -0.9689
 2578TIP3   OH2 7739   5.299   0.868   0.618  0.2892 -0.5358 -0.2469
 2578TIP3    H1 7740   5.240   0.921   0.672  0.0375 -1.7389  0.6802
 2578TIP3    H2 7741   5.260   0.872   0.531 -0.4685 -0.2938  0.0927
 2579TIP3   OH2 7742   4.302   3.720   2.823  0.1428  0.5951  0.3168
 2579TIP3    H1 7743   4.345   3.800   2.794 -1.0199  1.5393  1.1240
 2579TIP3    H2 7744   4.374   3.657   2.834  1.0834  1.5435 -0.1948
 2580TIP3   OH2 7745   2.264   2.404   3.460  0.0215  0.2470 -0.0528
 2580TIP3    H1 7746   2.316   2.429   3.536 -0.8440 -0.3698  0.7716
 2580TIP3    H2 7747   2.220   2.484   3.434 -0.2484  0.3109  0.5731
 2581TIP3   OH2 7748   0.044   2.292   2.247 -0.6614 -0.0191  0.3321
 2581TIP3    H1 7749   0.003   2.207   2.266  1.0075 -0.4976  2.1538
 2581TIP3    H2 7750  -0.018   2.356   2.281 -1.7046 -0.5036 -0.5881
 2582TIP3   OH2 7751   2.775   5.020   2.975 -0.1001 -0.2357  0.2908
 2582TIP3    H1 7752   2.847   5.050   2.919 -0.4247  0.5764  0.2896
 2582TIP3    H2 7753   2.705   4.997   2.914 -0.4025  0.5102  0.3499
 2583TIP3   OH2 7754   5.592   3.122   0.809 -0.3160  0.1896 -0.1069
 2583TIP3    H1 7755   5.616   3.041   0.855 -1.2153 -0.7476 -1.2312
 2583TIP3    H2 7756   5.552   3.092   0.727  1.1631  1.7899 -1.5082
 2584TIP3   OH2 7757   3.989   2.484   1.631 -0.0997 -0.0507 -0.1862
 2584TIP3    H1 7758   4.076   2.471   1.669 -0.5929 -1.1635  0.6185
 2584TIP3    H2 7759   3.970   2.402   1.586 -0.5106  0.3919 -0.8276
 2585TIP3   OH2 7760   3.347   1.789   0.307  0.3171 -0.0147  0.4643
 2585TIP3    H1 7761   3.358   1.792   0.402  1.7175 -2.0874  0.4394
 2585TIP3    H2 7762   3.256   1.764   0.294  1.0688 -3.9774  1.4961
 2586TIP3   OH2 7763   2.301   3.262   1.997  0.2962  0.0012 -0.2976
 2586TIP3    H1 7764   2.266   3.191   2.051  1.1103 -0.7023 -0.6778
 2586TIP3    H2 7765   2.241   3.267   1.922 -1.4281  1.6436  1.0836
 2587TIP3   OH2 7766   6.083   0.073   1.704 -0.4209  0.3684  0.7385
 2587TIP3    H1 7767   6.040   0.145   1.657 -1.5184 -0.0948  0.9837
 2587TIP3    H2 7768   6.168   0.108   1.730 -0.3698  1.1146 -0.3385
 2588TIP3   OH2 7769   6.116   5.592   1.950  0.3060 -0.6375 -0.1476
 2588TIP3    H1 7770   6.102   5.687   1.959 -0.2534 -0.6391 -0.9122
 2588TIP3    H2 7771   6.087   5.556   2.034  1.9500 -0.0021  0.7390
 2589TIP3   OH2 7772   1.123   0.159   4.086  0.5555  0.8698 -0.4961
 2589TIP3    H1 7773   1.203   0.158   4.138  0.2982  0.3461 -0.0982
 2589TIP3    H2 7774   1.129   0.083   4.029  0.0118  0.3912  0.0645
 2590TIP3   OH2 7775   0.650   4.698   2.701 -0.4823  0.5199 -0.4178
 2590TIP3    H1 7776   0.570   4.738   2.665 -0.7456  1.1832  0.8516
 2590TIP3    H2 7777   0.672   4.629   2.638 -1.2599  1.2334 -1.5245
 2591TIP3   OH2 7778   0.326   0.550   2.420 -0.2460  0.0485  0.0079
 2591TIP3    H1 7779   0.322   0.461   2.456  0.2556 -0.6021 -1.4380
 2591TIP3    H2 7780   0.305   0.538   2.327  2.5310  1.0095 -0.8323
 2592TIP3   OH2 7781   4.089   1.959   0.546 -0.4142 -0.0767 -0.5454
 2592TIP3    H1 7782   4.152   1.981   0.477  0.0963 -1.1142 -0.4229
 2592TIP3    H2 7783   4.035   1.890   0.508  0.5352 -1.3920  0.4341
 2593TIP3   OH2 7784   5.842   2.316   4.821  0.5381  0.3718  0.0355
 2593TIP3    H1 7785   5.802   2.255   4.758 -0.9018  1.3148 -0.0258
 2593TIP3    H2 7786   5.788   2.308   4.900 -0.8932  2.8246 -0.5725
 2594TIP3   OH2 7787   0.170   0.913   3.813  0.6987  0.3625  0.2561
 2594TIP3    H1 7788   0.190   0.915   3.720 -1.4910 -0.8686 -0.3099
 2594TIP3    H2 7789   0.099   0.977   3.824 -0.4475 -0.9362  0.6639
 2595TIP3   OH2 7790  -0.009   2.815   3.782 -0.1270 -0.0131 -0.1960
 2595TIP3    H1 7791   0.083   2.802   3.806  0.0385  2.3709  0.6953
 2595TIP3    H2 7792  -0.058   2.790   3.860 -0.0141  1.4132  0.3600
 2596TIP3   OH2 7793   1.606   4.835   1.675 -0.0769 -0.0961 -0.2495
 2596TIP3    H1 7794   1.552   4.765   1.712 -0.1607 -0.3144 -0.7787
 2596TIP3    H2 7795   1.624   4.893   1.749 -0.3318 -0.4700  0.1103
 2597TIP3   OH2 7796   2.181   3.502   1.742 -0.0799 -0.7907  0.0720
 2597TIP3    H1 7797   2.168   3.590   1.705 -1.1828 -0.8843  0.1812
 2597TIP3    H2 7798   2.158   3.512   1.835  0.3327 -1.0727  0.2037
 2598TIP3   OH2 7799   4.685   1.384   3.042 -0.3283  0.2177  0.5921
 2598TIP3    H1 7800   4.603   1.341   3.066 -1.0498  0.1436 -1.6882
 2598TIP3    H2 7801   4.685   1.382   2.946  1.8361  1.1986  0.5139
 2599TIP3   OH2 7802   2.897   3.516   1.093 -0.2918  0.4818 -0.2406
 2599TIP3    H1 7803   2.950   3.441   1.121  1.4698  2.4684  2.2366
 2599TIP3    H2 7804   2.813   3.503   1.139 -0.8435 -0.9959 -1.5625
 2600TIP3   OH2 7805   6.259   0.024   0.757 -0.0794  0.1465 -0.2917
 2600TIP3    H1 7806   6.229   0.110   0.729  0.0325  0.1368 -0.4385
 2600TIP3    H2 7807   6.256   0.028   0.853 -0.3325  0.2209 -0.3024
 2601TIP3   OH2 7808   1.747   5.346   2.031 -0.7481 -0.6904  0.2609
 2601TIP3    H1 7809   1.827   5.296   2.014  1.7669  2.6032  1.3992
 2601TIP3    H2 7810   1.749   5.364   2.125 -0.7747  2.5329 -0.2530
 2602TIP3   OH2 7811   0.444   4.628   3.936  0.1630  0.3871  0.1136
 2602TIP3    H1 7812   0.374   4.564   3.947  0.1246  0.6140  1.2661
 2602TIP3    H2 7813   0.465   4.656   4.025  1.2762  0.7965 -0.2661
 2603TIP3   OH2 7814   3.086   0.481   1.606  0.4585 -0.0387 -0.0141
 2603TIP3    H1 7815   3.012   0.443   1.558  1.3445 -3.6027  1.1508
 2603TIP3    H2 7816   3.047   0.511   1.688  0.1544 -1.2028  0.2829
 2604TIP3   OH2 7817   5.775   0.856   4.866  0.1786  0.1981  0.7413
 2604TIP3    H1 7818   5.742   0.906   4.792  0.1592 -2.0684 -0.9135
 2604TIP3    H2 7819   5.871   0.859   4.856  0.2407  1.1386  1.5367
 2605TIP3   OH2 7820   3.996   1.149   3.570 -0.5333  0.0441 -0.5229
 2605TIP3    H1 7821   3.906   1.162   3.599 -0.9962  0.4692 -2.0157
 2605TIP3    H2 7822   4.036   1.235   3.578 -0.8189  0.2909 -1.5657
 2606TIP3   OH2 7823   5.527   3.606   0.711 -0.1800 -0.0072  0.1237
 2606TIP3    H1 7824   5.581   3.674   0.752 -2.1021 -0.0600  3.0050
 2606TIP3    H2 7825   5.442   3.647   0.699 -0.4317 -0.8992 -1.3228
 2607TIP3   OH2 7826   4.410   0.320   4.325  0.2935  0.2524 -0.1176
 2607TIP3    H1 7827   4.390   0.325   4.418 -2.2920  0.3871 -0.6019
 2607TIP3    H2 7828   4.444   0.407   4.303 -1.0418  0.9149  0.3333
 2608TIP3   OH2 7829   2.762   2.623   2.500 -0.2455  0.6130  0.2669
 2608TIP3    H1 7830   2.830   2.598   2.563 -1.9460 -0.3844  1.7814
 2608TIP3    H2 7831   2.762   2.719   2.502  2.4768  0.7468 -1.3405
 2609TIP3   OH2 7832   6.038   4.861   4.910 -0.0716 -0.1913  0.4130
 2609TIP3    H1 7833   6.049   4.932   4.974  0.4982 -0.3165  0.4555
 2609TIP3    H2 7834   5.953   4.878   4.870  0.7938  1.5827 -0.8530
 2610TIP3   OH2 7835   5.730   0.321   1.921 -0.0361  0.2106  0.1084
 2610TIP3    H1 7836   5.755   0.395   1.866  1.6977  0.8443  1.6186
 2610TIP3    H2 7837   5.813   0.291   1.959 -0.5979 -2.8580 -0.8099
 2611TIP3   OH2 7838   1.485   0.634   2.979  0.6641  0.0919  0.4422
 2611TIP3    H1 7839   1.553   0.695   3.007  0.3874 -0.4022  2.3454
 2611TIP3    H2 7840   1.456   0.592   3.060 -1.0600 -0.5929 -0.4761
 2612TIP3   OH2 7841   0.910   1.905   0.251  0.1322  0.3380  0.1766
 2612TIP3    H1 7842   0.957   1.909   0.335  1.4384  1.8379 -0.5825
 2612TIP3    H2 7843   0.974   1.871   0.189 -0.4417  0.4208 -0.4716
 2613TIP3   OH2 7844   1.835   5.741   1.032 -0.2707 -0.0812 -0.2168
 2613TIP3    H1 7845   1.742   5.747   1.055 -0.0737  1.7762  0.2203
 2613TIP3    H2 7846   1.835   5.688   0.952 -1.8616  0.8758 -0.9324
 2614TIP3   OH2 7847   2.355   2.536   4.401 -0.5138  0.7391 -0.1245
 2614TIP3    H1 7848   2.294   2.607   4.382 -2.4257 -0.0291  2.5292
 2614TIP3    H2 7849   2.301   2.457   4.397  1.0677 -0.3500 -0.8084
 2615TIP3   OH2 7850   0.400   5.132   4.878  0.0490 -0.4884 -0.4684
 2615TIP3    H1 7851   0.366   5.183   4.804 -0.5589 -0.9484 -0.5194
 2615TIP3    H2 7852   0.479   5.178   4.905 -0.9748  1.0228  0.0902
 2616TIP3   OH2 7853   4.873   4.792   2.783  0.2668  0.2358 -0.1295
 2616TIP3    H1 7854   4.829   4.751   2.857 -0.5146  1.6898  0.2649
 2616TIP3    H2 7855   4.958   4.748   2.777 -0.1010 -0.6630  0.9173
 2617TIP3   OH2 7856   3.622   2.170   0.883  0.1937 -0.1401 -0.2451
 2617TIP3    H1 7857   3.697   2.209   0.928  1.4264  0.3300 -2.5593
 2617TIP3    H2 7858   3.588   2.104   0.945  2.2407 -0.0834  1.0246
 2618TIP3   OH2 7859   2.642   5.092   2.306 -0.6910 -0.0697  0.0067
 2618TIP3    H1 7860   2.709   5.143   2.352  0.6384 -2.7579  1.2542
 2618TIP3    H2 7861   2.565   5.098   2.361 -0.3183 -0.0581  0.5328
 2619TIP3   OH2 7862   1.726   2.832   0.535  0.2919 -0.4393 -0.6115
 2619TIP3    H1 7863   1.750   2.921   0.512 -1.2607  0.0379 -0.5525
 2619TIP3    H2 7864   1.662   2.807   0.468  2.3612 -2.3988 -2.0077
 2620TIP3   OH2 7865   5.265   5.072   2.710 -0.5086  0.2946  0.2344
 2620TIP3    H1 7866   5.233   5.051   2.798  1.0212 -0.8097  0.5764
 2620TIP3    H2 7867   5.356   5.099   2.723  0.2153 -1.3060 -1.1015
 2621TIP3   OH2 7868   3.688   3.000   4.953 -0.7306  0.4756  0.3030
 2621TIP3    H1 7869   3.760   2.943   4.927 -0.3932  1.5361 -1.1500
 2621TIP3    H2 7870   3.610   2.945   4.943 -0.4150  0.2458 -1.0811
 2622TIP3   OH2 7871   1.587   3.115   1.721  0.4559 -0.1764 -0.1698
 2622TIP3    H1 7872   1.624   3.072   1.645  2.8112  0.4758  0.5314
 2622TIP3    H2 7873   1.626   3.203   1.721 -0.3664  0.2281  1.1658
 2623TIP3   OH2 7874   5.493   2.535   2.082  0.2971 -0.2268 -0.3095
 2623TIP3    H1 7875   5.456   2.528   2.170 -0.7719 -0.6792 -0.7804
 2623TIP3    H2 7876   5.531   2.622   2.079 -0.4006  0.1115  0.3310
 2624TIP3   OH2 7877   3.010   3.796   3.674 -0.1031  0.0503 -0.0459
 2624TIP3    H1 7878   2.986   3.773   3.764 -0.7767 -0.3544 -0.3240
 2624TIP3    H2 7879   3.061   3.721   3.643  0.7428  0.5014  0.2307
 2625TIP3   OH2 7880   6.006   3.015   3.983 -0.2188  0.4854 -0.3460
 2625TIP3    H1 7881   5.986   2.928   3.951  0.5072  0.0795  0.2502
 2625TIP3    H2 7882   6.102   3.016   3.990 -0.2698  1.0592  0.3802
 2626TIP3   OH2 7883   2.780   3.252   0.981 -0.4193 -0.6845 -0.3750
 2626TIP3    H1 7884   2.849   3.187   0.968 -0.0550 -0.2312 -0.7220
 2626TIP3    H2 7885   2.729   3.218   1.055  0.0104 -1.1540 -0.2866
 2627TIP3   OH2 7886   1.277   2.178   0.337  0.2614 -0.3960 -0.3260
 2627TIP3    H1 7887   1.270   2.187   0.241 -0.4168 -2.5307 -0.5158
 2627TIP3    H2 7888   1.366   2.209   0.357  0.6971 -0.6280 -1.7542
 2628TIP3   OH2 7889   3.382   0.533   2.944  0.1790 -0.2187  0.4462
 2628TIP3    H1 7890   3.432   0.588   2.884  1.3767 -1.1772  0.5399
 2628TIP3    H2 7891   3.375   0.586   3.024  1.5271 -0.2506  0.6185
 2629TIP3   OH2 7892   1.267   3.663   1.635  0.7470 -0.1742  0.1175
 2629TIP3    H1 7893   1.288   3.621   1.551  0.1974 -2.1844  0.9217
 2629TIP3    H2 7894   1.307   3.606   1.701  1.2355  1.4072  1.2517
 2630TIP3   OH2 7895   4.263   2.591   5.108 -0.5101  0.2398  0.2919
 2630TIP3    H1 7896   4.273   2.560   5.018 -0.8604  2.9125 -0.7672
 2630TIP3    H2 7897   4.190   2.540   5.143 -1.6676  0.4733 -1.6285
 2631TIP3   OH2 7898   3.019   4.495   1.552 -0.7201 -0.3884  0.2735
 2631TIP3    H1 7899   3.040   4.457   1.637 -1.2867 -0.0183  0.5796
 2631TIP3    H2 7900   2.935   4.538   1.564 -0.7836 -0.2881 -0.4622
 2632TIP3   OH2 7901   3.520   1.256   3.679 -0.0726  0.0960  0.4056
 2632TIP3    H1 7902   3.496   1.175   3.725 -0.9558  0.1901  0.1150
 2632TIP3    H2 7903   3.466   1.323   3.720 -1.4051  0.0713 -1.2222
 2633TIP3   OH2 7904   2.595   3.912   4.615 -0.0655  0.3632 -0.0418
 2633TIP3    H1 7905   2.623   4.002   4.598  0.4685  0.1033 -0.6036
 2633TIP3    H2 7906   2.642   3.861   4.549 -0.7926 -0.2582 -0.0871
 2634TIP3   OH2 7907   4.599   2.580   0.703 -0.1293  0.0793  0.5626
 2634TIP3    H1 7908   4.653   2.624   0.637 -0.5760 -0.1919  0.0022
 2634TIP3    H2 7909   4.514   2.569   0.661  0.0350 -1.5206  0.5877
 2635TIP3   OH2 7910   3.567   1.464   2.450 -0.3037  0.2778  0.2593
 2635TIP3    H1 7911   3.639   1.509   2.405 -0.5257  0.8974  0.5111
 2635TIP3    H2 7912   3.488   1.508   2.418 -0.8528 -2.1936 -2.2018
 2636TIP3   OH2 7913   4.936   4.337   2.119  0.3231 -0.2313  0.4609
 2636TIP3    H1 7914   4.937   4.431   2.135  1.0138 -0.3314  1.0635
 2636TIP3    H2 7915   4.845   4.316   2.101  0.1359  0.5201  0.5315
 2637TIP3   OH2 7916   1.766   5.411   1.741 -0.3097  0.2096 -0.0551
 2637TIP3    H1 7917   1.799   5.389   1.828 -0.4991 -0.4246 -0.1318
 2637TIP3    H2 7918   1.703   5.482   1.756  1.2423  1.6069  0.0587
 2638TIP3   OH2 7919   1.087   3.933   3.790 -0.1077  0.1689  0.0348
 2638TIP3    H1 7920   1.168   3.895   3.754 -0.4154 -0.3652 -0.0910
 2638TIP3    H2 7921   1.106   4.027   3.795  0.6393  0.0115  0.3074
 2639TIP3   OH2 7922   5.058   5.090   1.430  0.1834 -0.0221 -0.5850
 2639TIP3    H1 7923   5.132   5.101   1.370  1.1895  0.1415  0.6509
 2639TIP3    H2 7924   5.040   4.996   1.428 -1.7354  0.2593 -3.3195
 2640TIP3   OH2 7925   5.316   4.091   2.264 -0.3304 -0.1501  0.3168
 2640TIP3    H1 7926   5.349   4.180   2.273  0.8649 -0.2784 -2.0476
 2640TIP3    H2 7927   5.222   4.102   2.245 -0.5395  0.4962  1.6404
 2641TIP3   OH2 7928   1.239   5.780   2.694  0.0250  0.0300 -0.3007
 2641TIP3    H1 7929   1.247   5.855   2.635 -2.1260 -0.1136 -0.8574
 2641TIP3    H2 7930   1.228   5.705   2.636 -2.1868 -0.1089  0.1967
 2642TIP3   OH2 7931   4.982   5.797   3.808  0.1140  0.1690  0.1579
 2642TIP3    H1 7932   5.044   5.734   3.770  0.1986 -0.1856  0.8576
 2642TIP3    H2 7933   4.962   5.857   3.737 -1.0859 -1.4945 -0.9791
 2643TIP3   OH2 7934   4.677   3.383   2.643  0.2276  0.2628  0.1930
 2643TIP3    H1 7935   4.611   3.314   2.633 -2.1120  2.4017  0.0439
 2643TIP3    H2 7936   4.752   3.351   2.593 -0.7401 -2.1659  0.1482
 2644TIP3   OH2 7937   5.170   0.063   2.050 -0.0346 -0.6726 -0.5123
 2644TIP3    H1 7938   5.170   0.154   2.022 -2.0991  0.9626  3.9222
 2644TIP3    H2 7939   5.080   0.034   2.034 -0.0014 -1.1699  0.1904
 2645TIP3   OH2 7940   5.903   5.691   4.293 -0.4207  0.6705  0.0724
 2645TIP3    H1 7941   5.935   5.636   4.365 -0.2945 -0.5373 -0.8627
 2645TIP3    H2 7942   5.819   5.724   4.324  0.4509  1.6775  1.4910
 2646TIP3   OH2 7943   1.850   5.397   2.291  0.0255  0.1553 -0.2223
 2646TIP3    H1 7944   1.930   5.363   2.331  2.0573  2.1418 -2.2530
 2646TIP3    H2 7945   1.805   5.442   2.362  0.9743 -0.5906  0.8801
 2647TIP3   OH2 7946   5.433   1.422   1.958  0.1693  0.3393  0.3286
 2647TIP3    H1 7947   5.478   1.355   2.010  0.1937 -0.3505 -0.5619
 2647TIP3    H2 7948   5.344   1.389   1.949 -0.9330  2.2053  3.0016
 2648TIP3   OH2 7949   1.607   4.019   4.356 -0.2497  0.8589  0.1233
 2648TIP3    H1 7950   1.695   4.002   4.322 -0.2646 -1.2255  0.9416
 2648TIP3    H2 7951   1.616   4.006   4.450 -1.8187 -1.7440  0.0249
 2649TIP3   OH2 7952   5.286   2.544   0.283 -0.4264  0.0889  0.1380
 2649TIP3    H1 7953   5.199   2.578   0.262 -1.2472 -2.2579 -0.6333
 2649TIP3    H2 7954   5.269   2.459   0.324  1.4769  0.6167  2.1845
 2650TIP3   OH2 7955   4.884   3.548   1.264  0.2592 -0.1582  0.0628
 2650TIP3    H1 7956   4.862   3.593   1.346  0.0984  0.9894 -0.5835
 2650TIP3    H2 7957   4.972   3.577   1.244  1.4626 -2.6829  1.2664
 2651TIP3   OH2 7958   3.385   0.601   3.403  0.0217  0.3149  0.0246
 2651TIP3    H1 7959   3.300   0.620   3.364  1.2745  5.7280 -0.7783
 2651TIP3    H2 7960   3.428   0.542   3.341 -1.5867  0.9270 -1.7365
 2652TIP3   OH2 7961   2.900   5.808   2.397 -0.1137  0.1499 -0.3628
 2652TIP3    H1 7962   2.971   5.819   2.335 -1.0504  0.4734 -1.3989
 2652TIP3    H2 7963   2.847   5.887   2.389 -1.3807 -0.6972 -0.6545
 2653TIP3   OH2 7964   3.768   3.640   0.808  0.5287 -0.2418 -0.2467
 2653TIP3    H1 7965   3.764   3.684   0.893 -1.0706 -2.3889  0.8725
 2653TIP3    H2 7966   3.683   3.659   0.767  0.8193 -0.2351 -0.8724
 2654TIP3   OH2 7967   3.795   0.559   4.572  0.0452  0.0579  0.1264
 2654TIP3    H1 7968   3.729   0.562   4.641  0.7104  0.7944  0.7617
 2654TIP3    H2 7969   3.793   0.469   4.540 -1.2141  0.0542  0.1682
 2655TIP3   OH2 7970   4.003   0.592   1.687 -0.1059  0.2065  0.3157
 2655TIP3    H1 7971   4.080   0.535   1.694  1.1511  1.6560 -0.8105
 2655TIP3    H2 7972   4.032   0.663   1.630 -2.6021  0.3249 -0.9342
 2656TIP3   OH2 7973   0.083   2.195   4.069  0.4167 -0.0326 -0.7899
 2656TIP3    H1 7974   0.169   2.172   4.033  0.4198 -1.1805 -0.0981
 2656TIP3    H2 7975   0.103   2.253   4.143  0.5246  0.6257 -1.3293
 2657TIP3   OH2 7976   1.593   0.231   1.598  0.1218  0.2684  0.3044
 2657TIP3    H1 7977   1.653   0.254   1.669 -1.6025 -0.4019  2.0715
 2657TIP3    H2 7978   1.650   0.219   1.522  1.9271  2.2467  1.2201
 2658TIP3   OH2 7979   2.000   0.372   2.817  0.4828 -0.1516 -0.0387
 2658TIP3    H1 7980   1.980   0.448   2.762 -2.5114  0.4987  1.6811
 2658TIP3    H2 7981   2.054   0.406   2.888 -0.2255  0.2510  0.3189
 2659TIP3   OH2 7982   0.708   3.377   4.698  0.0877 -0.1184 -0.2687
 2659TIP3    H1 7983   0.719   3.363   4.604  0.2991 -1.4447 -0.0674
 2659TIP3    H2 7984   0.741   3.297   4.738 -0.6220  0.1546  0.9085
 2660TIP3   OH2 7985   4.090   3.320   2.420  0.4177 -0.3079 -0.7400
 2660TIP3    H1 7986   4.034   3.310   2.497 -0.1688 -0.9643 -1.2464
 2660TIP3    H2 7987   4.107   3.230   2.391  0.7795 -0.0703 -1.2737
 2661TIP3   OH2 7988   3.835   4.728   2.603  0.4580  0.0541 -0.4294
 2661TIP3    H1 7989   3.912   4.680   2.572  0.5298 -0.9410  1.1786
 2661TIP3    H2 7990   3.768   4.660   2.615  0.2424  0.4806  0.9048
 2662TIP3   OH2 7991   3.680   0.117   3.431 -0.2354  0.3178 -0.2764
 2662TIP3    H1 7992   3.623   0.189   3.404 -1.6677 -1.3475 -1.9779
 2662TIP3    H2 7993   3.621   0.042   3.443  1.2467 -0.7166  0.9698
 2663TIP3   OH2 7994   3.681   5.468   1.350 -0.5486 -0.3158  0.2995
 2663TIP3    H1 7995   3.705   5.400   1.413  1.4752 -1.2743 -1.3784
 2663TIP3    H2 7996   3.606   5.432   1.304 -1.9877  0.3541  2.0096
 2664TIP3   OH2 7997   3.485   2.166   4.151  0.2896 -0.1437 -0.0071
 2664TIP3    H1 7998   3.506   2.168   4.244 -0.1172 -0.1767  0.0884
 2664TIP3    H2 7999   3.540   2.097   4.115  1.0122  0.3768  0.0640
 2665TIP3   OH2 8000   5.443   1.748   5.000  0.3415 -0.0381 -0.2999
 2665TIP3    H1 8001   5.493   1.696   5.063 -0.6418  0.6473  1.1061
 2665TIP3    H2 8002   5.505   1.767   4.930  1.9944  0.5918  1.2588
 2666TIP3   OH2 8003   3.119   1.203   4.836 -0.0276 -0.6896 -0.0658
 2666TIP3    H1 8004   3.109   1.287   4.791  0.3728  0.3970  1.7864
 2666TIP3    H2 8005   3.188   1.158   4.788 -1.4694 -0.7939 -2.2044
 2667TIP3   OH2 8006   1.806   1.016   1.364  0.1073  0.5569 -0.3888
 2667TIP3    H1 8007   1.791   1.071   1.440 -1.4272  2.1601 -1.7689
 2667TIP3    H2 8008   1.763   0.933   1.385 -2.3219  1.7372 -0.3267
 2668TIP3   OH2 8009   2.915   3.108   3.504  0.2365  0.1049 -0.0336
 2668TIP3    H1 8010   2.949   3.045   3.568 -2.3351 -1.7225 -0.3263
 2668TIP3    H2 8011   2.898   3.187   3.555  0.7878 -0.3894  0.9591
 2669TIP3   OH2 8012   1.485   4.562   3.731  0.0492 -0.5048  0.8048
 2669TIP3    H1 8013   1.579   4.546   3.739 -0.2554 -2.8079  0.4584
 2669TIP3    H2 8014   1.445   4.475   3.735 -1.9232  0.2085 -1.0507
 2670TIP3   OH2 8015   0.095   4.235   0.593  0.2775  0.3088  0.5276
 2670TIP3    H1 8016   0.171   4.227   0.652  0.4914  0.6188  0.3012
 2670TIP3    H2 8017   0.086   4.330   0.580  0.1149  0.2489  0.2148
 2671TIP3   OH2 8018   4.740   2.825   3.108  0.3191 -0.0847 -0.0616
 2671TIP3    H1 8019   4.663   2.865   3.149  0.1212 -1.3416  0.8589
 2671TIP3    H2 8020   4.721   2.827   3.014 -0.5239  0.2574  0.1069
 2672TIP3   OH2 8021   6.140   0.696   3.183  0.5880  0.1706  0.5581
 2672TIP3    H1 8022   6.060   0.736   3.147 -0.0632  0.8505  2.6180
 2672TIP3    H2 8023   6.145   0.610   3.141 -1.0932  0.2061  0.2109
 2673TIP3   OH2 8024   0.899   1.474   2.748  0.6733  0.5220  0.5762
 2673TIP3    H1 8025   0.950   1.393   2.746  1.1373  0.8294 -0.6754
 2673TIP3    H2 8026   0.827   1.455   2.808 -0.1755 -1.3880 -0.9599
 2674TIP3   OH2 8027   3.694   4.730   0.085 -0.1317  0.7363  0.0615
 2674TIP3    H1 8028   3.651   4.717   0.000  1.6048 -0.6108 -0.6754
 2674TIP3    H2 8029   3.737   4.815   0.078 -0.3349  0.8138 -0.2587
 2675TIP3   OH2 8030   5.345   1.320   2.376 -0.1928 -0.2397 -0.2264
 2675TIP3    H1 8031   5.360   1.407   2.338 -2.1646  0.1676 -0.1977
 2675TIP3    H2 8032   5.282   1.335   2.446  1.2489 -1.3888  1.3964
 2676TIP3   OH2 8033   4.398   3.227   0.192 -0.4336  0.5588  0.1759
 2676TIP3    H1 8034   4.305   3.244   0.178 -0.0761  1.9362 -0.7214
 2676TIP3    H2 8035   4.436   3.224   0.104  0.4644  0.5724  0.5482
 2677TIP3   OH2 8036   1.380   4.817   1.368  0.1006 -0.3341  0.3601
 2677TIP3    H1 8037   1.437   4.878   1.415  1.1014 -2.5097  2.1432
 2677TIP3    H2 8038   1.393   4.733   1.412 -0.8577 -1.9766 -2.2603
 2678TIP3   OH2 8039   4.621   0.927   0.625 -0.6152 -0.4490  0.6449
 2678TIP3    H1 8040   4.646   0.956   0.537  1.7724 -1.1217  1.0166
 2678TIP3    H2 8041   4.547   0.983   0.649 -0.3742  0.7494 -1.2053
 2679TIP3   OH2 8042   4.806   4.844   2.338 -0.3184 -0.0013  0.2323
 2679TIP3    H1 8043   4.749   4.773   2.306 -0.0756 -0.3723  0.6213
 2679TIP3    H2 8044   4.848   4.878   2.259 -1.3144  0.4950 -0.1112
 2680TIP3   OH2 8045   4.599   3.021   0.899 -0.3452  0.1826 -0.2338
 2680TIP3    H1 8046   4.571   2.981   0.816  0.8707 -0.3629 -0.3977
 2680TIP3    H2 8047   4.520   3.022   0.953 -0.6570 -1.4719 -0.6106
 2681TIP3   OH2 8048   5.543   1.265   3.112  0.4912 -0.2914 -0.5805
 2681TIP3    H1 8049   5.586   1.331   3.058 -0.3015  0.0437 -0.8219
 2681TIP3    H2 8050   5.518   1.196   3.051  0.6491 -0.4685 -0.4474
 2682TIP3   OH2 8051   2.370   5.158   0.955 -0.1991 -0.2509  0.2728
 2682TIP3    H1 8052   2.394   5.203   0.874  0.0432 -0.8307  0.0131
 2682TIP3    H2 8053   2.451   5.155   1.005 -0.4467  0.4794  0.7213
 2683TIP3   OH2 8054   5.165   3.680   2.196 -0.0047  0.0274 -0.1281
 2683TIP3    H1 8055   5.091   3.671   2.137 -0.1068 -0.7038  0.0948
 2683TIP3    H2 8056   5.135   3.737   2.266 -0.9402 -1.5830  0.8439
 2684TIP3   OH2 8057   1.886   3.982   2.949  0.4282 -0.2912  0.3887
 2684TIP3    H1 8058   1.905   3.955   3.039  0.5234 -0.8847  0.1954
 2684TIP3    H2 8059   1.970   3.979   2.905  0.0599 -2.2407 -0.2922
 2685TIP3   OH2 8060   0.054   0.339   1.355 -0.2180  0.3711  0.0025
 2685TIP3    H1 8061   0.008   0.333   1.272 -0.5788 -0.0768  0.2307
 2685TIP3    H2 8062   0.013   0.272   1.410  0.6392  0.0400  0.2425
 2686TIP3   OH2 8063   3.419   3.284   2.723  0.0520  0.3038  0.5139
 2686TIP3    H1 8064   3.432   3.379   2.722 -0.3328  0.3611  0.6873
 2686TIP3    H2 8065   3.451   3.254   2.638 -1.4458  0.8123 -0.2581
 2687TIP3   OH2 8066   1.344   2.110   0.679 -0.2189  0.4456  0.1449
 2687TIP3    H1 8067   1.338   2.070   0.592  0.4695 -0.4230  0.4904
 2687TIP3    H2 8068   1.430   2.154   0.679 -0.1873  0.3851  0.4131
 2688TIP3   OH2 8069   4.255   3.576   4.540  0.0785 -0.0173  1.1370
 2688TIP3    H1 8070   4.186   3.602   4.600 -1.1335  2.4595 -1.1326
 2688TIP3    H2 8071   4.315   3.650   4.537  1.1958 -0.8966  0.7421
 2689TIP3   OH2 8072   3.545   3.245   1.312  0.4173 -0.3673 -0.0398
 2689TIP3    H1 8073   3.468   3.214   1.266 -1.9890  2.0145  2.0489
 2689TIP3    H2 8074   3.580   3.315   1.256 -0.1433 -0.1175 -0.0852
 2690TIP3   OH2 8075   2.961   4.540   0.439 -0.4586  0.5904 -0.1521
 2690TIP3    H1 8076   3.055   4.528   0.455 -0.4550 -1.9089 -1.5546
 2690TIP3    H2 8077   2.920   4.510   0.521 -0.0731  2.0694  0.6182
 2691TIP3   OH2 8078   2.682   4.734   3.265 -0.7472  0.0914  0.0362
 2691TIP3    H1 8079   2.765   4.747   3.218 -0.4603  2.1435  1.0067
 2691TIP3    H2 8080   2.629   4.810   3.239 -0.7966  0.9670  2.4901
 2692TIP3   OH2 8081   0.508   3.865   2.790  0.2754  0.4271 -0.6532
 2692TIP3    H1 8082   0.413   3.862   2.795  0.2024 -4.3033 -0.2473
 2692TIP3    H2 8083   0.531   3.953   2.820 -3.8506  0.9272  1.8363
 2693TIP3   OH2 8084   1.034   4.720   4.687  0.0687 -0.5212  0.0030
 2693TIP3    H1 8085   1.057   4.705   4.779  0.3464  0.2106  0.0611
 2693TIP3    H2 8086   1.093   4.790   4.659 -1.7037  1.0168 -0.0180
 2694TIP3   OH2 8087   0.333   0.465   3.355  0.1188  0.0782  0.0338
 2694TIP3    H1 8088   0.402   0.424   3.304 -0.1221  0.5565 -0.7013
 2694TIP3    H2 8089   0.256   0.409   3.341 -0.2516  0.8199 -1.0974
 2695TIP3   OH2 8090   5.213   3.534   4.770 -0.2041  0.3312 -0.4649
 2695TIP3    H1 8091   5.139   3.482   4.740  0.1541  0.2148 -1.1615
 2695TIP3    H2 8092   5.188   3.625   4.751 -0.7283  0.4092  0.5346
 2696TIP3   OH2 8093   6.046   3.812   3.042 -0.3043 -0.1953  0.1418
 2696TIP3    H1 8094   6.130   3.832   3.000 -0.7654  0.5770 -0.4567
 2696TIP3    H2 8095   6.030   3.720   3.021  1.2742 -0.9316  1.8709
 2697TIP3   OH2 8096   3.499   4.838   4.982  0.0324 -0.2600 -0.1987
 2697TIP3    H1 8097   3.434   4.787   4.934 -0.3412  0.9432 -1.0209
 2697TIP3    H2 8098   3.476   4.826   5.074 -0.9748 -0.3562 -0.4518
 2698TIP3   OH2 8099   3.882   3.651   3.880  0.3004 -0.8420  0.4612
 2698TIP3    H1 8100   3.921   3.642   3.967 -0.3089 -0.2167  0.8148
 2698TIP3    H2 8101   3.807   3.709   3.894 -0.0939 -1.1292 -0.3962
 2699TIP3   OH2 8102   2.608   2.699   0.532  0.4639 -0.5805  0.2764
 2699TIP3    H1 8103   2.584   2.790   0.552  1.2614 -0.1975 -0.4297
 2699TIP3    H2 8104   2.524   2.653   0.524 -0.0294  0.4884 -1.1224
 2700TIP3   OH2 8105   3.472   5.135   2.118  0.0669 -0.1277 -0.1694
 2700TIP3    H1 8106   3.552   5.115   2.070  0.3415 -2.1258  1.0146
 2700TIP3    H2 8107   3.402   5.124   2.053  0.5317 -1.3626 -0.4784
 2701TIP3   OH2 8108   4.685   1.363   0.925 -0.2454  0.2712 -0.2702
 2701TIP3    H1 8109   4.595   1.362   0.893 -0.5745  0.5971  0.6122
 2701TIP3    H2 8110   4.712   1.455   0.919 -0.7499  0.5850  1.4917
 2702TIP3   OH2 8111   4.431   2.639   4.325  0.6142  0.1476  0.0053
 2702TIP3    H1 8112   4.472   2.654   4.410  2.6707 -1.6888 -0.5863
 2702TIP3    H2 8113   4.458   2.551   4.300 -1.8035 -0.2296 -1.5617
 2703TIP3   OH2 8114   3.085   4.312   1.860  0.2451  0.4721  0.5523
 2703TIP3    H1 8115   3.135   4.389   1.890  1.7331  0.7754 -2.2886
 2703TIP3    H2 8116   3.053   4.271   1.940  2.4823  2.0368  2.3828
 2704TIP3   OH2 8117   5.013   2.324   1.607  0.3678  0.0464  0.5823
 2704TIP3    H1 8118   4.926   2.287   1.596 -0.1386  0.5089  2.6200
 2704TIP3    H2 8119   5.073   2.251   1.591 -0.3510 -0.2870 -0.7627
 2705TIP3   OH2 8120   2.964   0.315   3.101  0.1021  0.0950 -0.5581
 2705TIP3    H1 8121   2.960   0.390   3.041  0.2787  0.4689 -0.1057
 2705TIP3    H2 8122   3.018   0.250   3.056 -2.9567 -1.2529 -2.6044
 2706TIP3   OH2 8123   3.310   0.711   3.688 -0.2721 -0.4817  0.2322
 2706TIP3    H1 8124   3.368   0.653   3.639  0.1431  1.9495 -2.4426
 2706TIP3    H2 8125   3.228   0.709   3.639 -0.6334  0.2187  0.7953
 2707TIP3   OH2 8126   3.471   4.275   2.918 -0.1830  0.3233  0.3659
 2707TIP3    H1 8127   3.467   4.277   3.014 -1.4619  0.5347  0.3193
 2707TIP3    H2 8128   3.414   4.347   2.890  0.3703  0.4194 -0.5570
 2708TIP3   OH2 8129   5.798   0.954  -0.018 -0.0144  0.2923  0.0188
 2708TIP3    H1 8130   5.860   0.957   0.055  2.7025 -0.6332 -2.1203
 2708TIP3    H2 8131   5.772   0.862  -0.024  1.9840 -0.2168 -1.8249
 2709TIP3   OH2 8132   4.707   1.267   4.019 -0.3508  0.7131  0.8404
 2709TIP3    H1 8133   4.637   1.210   3.986 -0.9636  1.5124  0.7198
 2709TIP3    H2 8134   4.785   1.213   4.017 -1.0204 -0.2924  1.2553
 2710TIP3   OH2 8135   0.956   5.339   4.373  0.3825  0.2637  0.2115
 2710TIP3    H1 8136   1.023   5.375   4.314  0.1847  1.2967  0.5955
 2710TIP3    H2 8137   0.887   5.405   4.375  0.8191  0.7513  2.3598
 2711TIP3   OH2 8138   4.872   0.275   2.933  1.0663 -0.0478 -0.7556
 2711TIP3    H1 8139   4.918   0.357   2.915  1.7000 -0.0334  0.7323
 2711TIP3    H2 8140   4.902   0.250   3.021 -0.3854 -1.0109 -0.5013
 2712TIP3   OH2 8141   0.357   1.804   0.140 -0.2493  0.9239  0.3561
 2712TIP3    H1 8142   0.436   1.824   0.192  0.6563  1.8193 -1.2742
 2712TIP3    H2 8143   0.391   1.772   0.057 -1.6726 -0.6380  0.3382
 2713TIP3   OH2 8144   5.350   2.233   3.546 -0.5249  0.5653  0.3736
 2713TIP3    H1 8145   5.399   2.306   3.585 -1.3397  0.1590  2.2771
 2713TIP3    H2 8146   5.263   2.269   3.529 -1.2037 -0.1366  2.1333
 2714TIP3   OH2 8147   4.469   2.581   0.465 -0.1769 -0.2056  1.0061
 2714TIP3    H1 8148   4.433   2.650   0.409 -1.8279 -0.6600  1.4566
 2714TIP3    H2 8149   4.481   2.506   0.407  0.9442  0.1982  0.6717
 2715TIP3   OH2 8150   3.167   4.831   1.935 -0.4342 -0.3569  0.4012
 2715TIP3    H1 8151   3.187   4.757   1.878  0.2049 -0.0736  0.2459
 2715TIP3    H2 8152   3.235   4.827   2.003 -0.5067 -0.0225  0.4923
 2716TIP3   OH2 8153   5.874   1.181   3.158  0.1706 -0.3774  0.2169
 2716TIP3    H1 8154   5.797   1.178   3.102  1.3139 -0.0774 -1.4671
 2716TIP3    H2 8155   5.882   1.273   3.183  1.7386  0.2991 -2.3448
 2717TIP3   OH2 8156   2.154   0.226   4.227  0.5738  0.2894 -0.2302
 2717TIP3    H1 8157   2.091   0.255   4.293 -0.5693 -2.3208 -0.0399
 2717TIP3    H2 8158   2.237   0.265   4.254  0.1027 -0.4808  2.6514
 2718TIP3   OH2 8159   2.124   1.801   1.403  0.9256  0.0503  0.2610
 2718TIP3    H1 8160   2.123   1.707   1.417 -0.9077 -0.1030 -0.6844
 2718TIP3    H2 8161   2.216   1.826   1.417  1.6214 -1.9906 -0.3344
 2719TIP3   OH2 8162   2.520   2.453   4.134  0.3588 -0.5600 -0.1324
 2719TIP3    H1 8163   2.453   2.474   4.199  0.6451  0.8314 -0.2482
 2719TIP3    H2 8164   2.493   2.369   4.098 -0.3208 -0.8970  1.1122
 2720TIP3   OH2 8165   0.709   3.893   2.110  0.1042  0.5313  0.1321
 2720TIP3    H1 8166   0.801   3.913   2.098 -0.0307  0.7438 -0.5757
 2720TIP3    H2 8167   0.690   3.826   2.044 -0.6696  1.7649 -0.9173
 2721TIP3   OH2 8168   3.038   0.902   4.885  0.6389 -0.9854 -0.2572
 2721TIP3    H1 8169   3.111   0.914   4.824  1.3802 -2.8497  0.1863
 2721TIP3    H2 8170   3.005   0.814   4.866 -0.8810 -0.5581  0.2200
 2722TIP3   OH2 8171   0.408   5.283   2.838 -0.1239 -0.4624  0.4262
 2722TIP3    H1 8172   0.483   5.257   2.891  1.0581  0.4611 -0.7370
 2722TIP3    H2 8173   0.446   5.324   2.760 -1.8349  0.0943 -0.1666
 2723TIP3   OH2 8174   0.123   5.183   2.867  0.0300 -0.3304 -0.3009
 2723TIP3    H1 8175   0.219   5.188   2.866  0.0121  0.1077 -0.0574
 2723TIP3    H2 8176   0.097   5.203   2.777  0.1885 -0.9918 -0.4985
 2724TIP3   OH2 8177   3.647   4.837   1.254 -0.1682 -0.0226 -0.3868
 2724TIP3    H1 8178   3.554   4.851   1.233  0.0185  0.7293 -0.7671
 2724TIP3    H2 8179   3.668   4.751   1.218 -0.2768  0.5473 -1.8879
 2725TIP3   OH2 8180   6.244   2.754   4.470  0.7000  0.4999 -0.1753
 2725TIP3    H1 8181   6.237   2.738   4.376 -0.2322  2.6447 -0.5336
 2725TIP3    H2 8182   6.324   2.805   4.480  0.6215  0.5609  0.1509
 2726TIP3   OH2 8183   1.255   0.769   4.330 -0.1280  0.1873  0.9970
 2726TIP3    H1 8184   1.302   0.757   4.247 -0.8645  0.9259  0.4560
 2726TIP3    H2 8185   1.321   0.806   4.389  0.0541  1.0020  0.3115
 2727TIP3   OH2 8186   3.607   1.895   3.519 -0.4063  0.4667  0.1687
 2727TIP3    H1 8187   3.648   1.873   3.435 -0.9904  1.5016 -0.4012
 2727TIP3    H2 8188   3.514   1.878   3.505 -0.5754  1.1744  0.4335
 2728TIP3   OH2 8189   1.646   2.970   4.860  0.0156  0.5066  0.1493
 2728TIP3    H1 8190   1.563   3.015   4.876  0.7111  2.8186 -1.9858
 2728TIP3    H2 8191   1.702   2.996   4.933  0.3243  3.1277 -0.9163
 2729TIP3   OH2 8192   1.148   1.284   1.645  0.3963  0.1563  0.1390
 2729TIP3    H1 8193   1.161   1.288   1.740  0.5241 -1.3815  0.2022
 2729TIP3    H2 8194   1.150   1.191   1.624 -1.9051  0.3172 -1.0814
 2730TIP3   OH2 8195   1.490   4.884   4.425 -0.1538 -0.1587 -0.3044
 2730TIP3    H1 8196   1.580   4.903   4.452 -0.1819  0.3374 -0.5573
 2730TIP3    H2 8197   1.489   4.790   4.409 -0.0231 -0.4057  1.0144
 2731TIP3   OH2 8198   3.095   0.460   0.203 -0.3125 -0.0982 -0.2821
 2731TIP3    H1 8199   3.041   0.416   0.268  1.7372  0.0658  1.6782
 2731TIP3    H2 8200   3.150   0.390   0.167  0.7774  0.3015  0.5540
 2732TIP3   OH2 8201   6.081   3.142   3.085  0.5887 -0.1165 -0.1322
 2732TIP3    H1 8202   6.118   3.228   3.105  0.8750 -0.5620  1.4138
 2732TIP3    H2 8203   5.988   3.159   3.067  0.8029  0.5888 -0.5887
 2733TIP3   OH2 8204   5.021   3.000   0.958 -0.8525  0.4386  0.2710
 2733TIP3    H1 8205   4.946   2.953   0.996 -2.4608 -0.1961 -3.3227
 2733TIP3    H2 8206   5.084   2.931   0.937 -0.5920  0.6180  0.4647
 2734TIP3   OH2 8207   1.659   1.015   4.458 -0.0165  0.9420 -1.1538
 2734TIP3    H1 8208   1.656   1.072   4.534  0.5282 -0.5304  0.0163
 2734TIP3    H2 8209   1.752   0.998   4.443 -0.1728  0.2725 -1.4114
 2735TIP3   OH2 8210   2.556   3.244   0.651  0.3839 -0.1611  0.5280
 2735TIP3    H1 8211   2.602   3.326   0.669  0.3160  0.0899 -0.4183
 2735TIP3    H2 8212   2.619   3.176   0.677  0.9957  0.1844 -0.0256
 2736TIP3   OH2 8213   4.783   5.144   1.947  0.6708  0.1012 -1.0047
 2736TIP3    H1 8214   4.784   5.223   2.001  2.5264 -0.0046 -0.7951
 2736TIP3    H2 8215   4.704   5.152   1.893 -0.8441  0.5643  1.1579
 2737TIP3   OH2 8216   0.121   1.554   2.205 -0.5571 -0.1451 -0.1222
 2737TIP3    H1 8217   0.073   1.498   2.265  0.7747 -0.4311  0.7366
 2737TIP3    H2 8218   0.093   1.643   2.227 -0.1804 -0.2573  0.8502
 2738TIP3   OH2 8219   5.441   3.158   3.349  0.3695 -0.8138 -0.1816
 2738TIP3    H1 8220   5.366   3.213   3.371  0.1470 -0.4947 -1.6276
 2738TIP3    H2 8221   5.404   3.071   3.332  0.7286 -1.4833  2.1730
 2739TIP3   OH2 8222   6.192   5.188   2.703 -0.1353 -0.4556 -0.1526
 2739TIP3    H1 8223   6.276   5.225   2.676 -0.2632 -0.8222 -1.0864
 2739TIP3    H2 8224   6.176   5.117   2.641 -2.2609  1.0804 -1.5335
 2740TIP3   OH2 8225   3.443   1.673   1.433  0.5086 -0.5884  0.1891
 2740TIP3    H1 8226   3.384   1.741   1.401  0.0265 -1.3324 -0.5423
 2740TIP3    H2 8227   3.520   1.721   1.465 -0.3210  0.3619  0.7903
 2741TIP3   OH2 8228   1.491   5.065   1.404 -0.8864  0.0658 -0.1185
 2741TIP3    H1 8229   1.470   5.108   1.321 -0.6930  0.2636 -0.0670
 2741TIP3    H2 8230   1.577   5.100   1.427 -0.2028 -1.1913 -0.6464
 2742TIP3   OH2 8231   2.148   0.655   2.466 -0.2717 -1.0469  0.0324
 2742TIP3    H1 8232   2.171   0.748   2.471 -1.9594 -0.5110 -1.2629
 2742TIP3    H2 8233   2.220   0.615   2.418 -0.1284 -0.1594 -0.5057
 2743TIP3   OH2 8234   2.377   4.628   0.444  0.0269  0.0587  0.2950
 2743TIP3    H1 8235   2.413   4.697   0.499 -1.0353  1.7003 -0.9605
 2743TIP3    H2 8236   2.282   4.637   0.454 -0.1364 -1.2354  0.0983
 2744TIP3   OH2 8237   5.555   2.553   4.665  0.6833 -0.0301  0.1462
 2744TIP3    H1 8238   5.643   2.526   4.636  0.6717 -0.7575  0.7670
 2744TIP3    H2 8239   5.496   2.509   4.604  0.7316  0.1681 -0.0470
 2745TIP3   OH2 8240   3.259   1.980   4.325 -0.9695 -0.0112 -0.4853
 2745TIP3    H1 8241   3.301   1.947   4.246  0.9718  1.9158 -0.3417
 2745TIP3    H2 8242   3.165   1.967   4.310 -0.7425  1.1238 -3.5216
 2746TIP3   OH2 8243   1.499   5.740   3.880  0.1478  0.3048  0.6668
 2746TIP3    H1 8244   1.427   5.684   3.852 -1.3562  0.7137  3.3969
 2746TIP3    H2 8245   1.508   5.805   3.809  0.8845 -2.2918 -1.8070
 2747TIP3   OH2 8246   6.120   4.331   1.921  0.2157  0.1172  0.5412
 2747TIP3    H1 8247   6.026   4.335   1.906  0.4919  1.2259 -1.1434
 2747TIP3    H2 8248   6.155   4.290   1.842  1.1833  0.1257  0.9516
 2748TIP3   OH2 8249   0.073   2.665   4.052  0.0518 -0.6410  1.0210
 2748TIP3    H1 8250   0.063   2.617   3.970  0.3017 -1.7497  1.6211
 2748TIP3    H2 8251   0.154   2.715   4.040  0.0296 -0.7113  0.5519
 2749TIP3   OH2 8252   6.033   0.947   1.388 -0.1905  0.2833 -0.8372
 2749TIP3    H1 8253   5.996   0.988   1.310 -0.3098  0.0267 -0.9159
 2749TIP3    H2 8254   6.029   0.853   1.370  0.7350  0.2613 -0.9554
 2750TIP3   OH2 8255   3.195   3.742   1.464 -0.4219 -0.5584 -0.1836
 2750TIP3    H1 8256   3.164   3.659   1.428 -2.6381 -0.0940  0.5127
 2750TIP3    H2 8257   3.145   3.754   1.545  0.1054  1.2667 -0.0758
 2751TIP3   OH2 8258   1.750   0.876   0.807 -0.3341  0.3373 -0.7004
 2751TIP3    H1 8259   1.735   0.964   0.774  1.2010  0.4694 -1.1294
 2751TIP3    H2 8260   1.752   0.821   0.728 -0.4669  0.0419 -0.5007
 2752TIP3   OH2 8261   1.095   1.819   2.502  0.0203  0.5015  0.2705
 2752TIP3    H1 8262   1.157   1.831   2.431  0.4335 -0.0329  0.5419
 2752TIP3    H2 8263   1.046   1.902   2.504 -1.0709 -0.0273 -1.6483
 2753TIP3   OH2 8264   1.793   2.793   4.389  0.1807  0.4121 -0.0307
 2753TIP3    H1 8265   1.807   2.856   4.459 -2.0645  1.7903 -0.7077
 2753TIP3    H2 8266   1.860   2.727   4.402  1.6324  2.1122  1.6744
 2754TIP3   OH2 8267   3.793   2.958   1.662 -0.3120  0.2933  0.0908
 2754TIP3    H1 8268   3.858   2.888   1.656  0.5079  0.8763  1.6022
 2754TIP3    H2 8269   3.793   2.998   1.575 -1.9067 -2.4793 -1.3037
 2755TIP3   OH2 8270   2.796   1.569   3.445  0.0469  0.0732  0.5149
 2755TIP3    H1 8271   2.719   1.603   3.399  0.7346  0.3146 -0.4598
 2755TIP3    H2 8272   2.786   1.602   3.535 -0.2787  1.2467  0.0615
 2756TIP3   OH2 8273   4.007   4.320   1.490 -0.2251  0.1540 -0.2553
 2756TIP3    H1 8274   3.937   4.255   1.489  0.3811 -0.5074 -0.8004
 2756TIP3    H2 8275   3.985   4.378   1.563 -0.3319 -1.1535  0.7867
 2757TIP3   OH2 8276   0.541   1.767   3.810 -0.1232  0.3545  0.4360
 2757TIP3    H1 8277   0.454   1.768   3.769 -0.3197  0.3744  0.8473
 2757TIP3    H2 8278   0.550   1.678   3.845 -0.1841  0.4965  0.8208
 2758TIP3   OH2 8279   5.201   0.647   3.153 -1.1022  0.3743  0.2265
 2758TIP3    H1 8280   5.283   0.679   3.191 -1.0031  1.0053 -0.4854
 2758TIP3    H2 8281   5.166   0.723   3.106 -1.2494 -0.3689 -0.8773
 2759TIP3   OH2 8282   3.185   1.417   4.058 -0.8178 -0.4002  0.4775
 2759TIP3    H1 8283   3.251   1.377   4.001 -0.5908  0.4411  0.1364
 2759TIP3    H2 8284   3.110   1.359   4.052 -1.8347  0.9782 -2.8451
 2760TIP3   OH2 8285   3.928   1.637   1.304 -0.6469 -0.1370 -0.2712
 2760TIP3    H1 8286   3.879   1.557   1.324 -1.6414  0.5827  0.2559
 2760TIP3    H2 8287   3.875   1.707   1.342 -1.2879  1.0733 -3.1776
 2761TIP3   OH2 8288   6.219   4.754   2.973 -0.5407 -0.5487  0.2463
 2761TIP3    H1 8289   6.244   4.822   3.036 -1.0172 -0.6989  0.6011
 2761TIP3    H2 8290   6.207   4.675   3.026 -1.9194 -0.4496  0.1250
 2762TIP3   OH2 8291   4.106   4.096   5.068 -0.6526 -0.2456 -0.4546
 2762TIP3    H1 8292   4.010   4.093   5.072 -0.6189 -0.4038  1.0783
 2762TIP3    H2 8293   4.134   4.036   5.137  0.5728 -0.7036 -1.3246
 2763TIP3   OH2 8294   0.096   5.643   2.672  0.2121 -0.2284  0.3246
 2763TIP3    H1 8295   0.048   5.598   2.603  0.1698 -1.9561  1.4144
 2763TIP3    H2 8296   0.157   5.701   2.625 -1.7550  0.8151 -1.0856
 2764TIP3   OH2 8297   2.210   4.001   2.657 -0.0324 -0.0085 -0.6780
 2764TIP3    H1 8298   2.140   3.943   2.627  0.1688 -0.0033 -1.1711
 2764TIP3    H2 8299   2.230   4.056   2.581  0.2113  0.2784 -0.4071
 2765TIP3   OH2 8300   1.111   1.313   2.378  0.0246 -0.3495 -0.1546
 2765TIP3    H1 8301   1.067   1.229   2.389  1.4370 -1.2782 -1.1609
 2765TIP3    H2 8302   1.171   1.319   2.452  1.5774 -1.3611 -1.2760
 2766TIP3   OH2 8303   6.226   5.624   3.782 -0.2488  0.1925 -0.2929
 2766TIP3    H1 8304   6.189   5.688   3.843 -1.7125 -0.6466 -0.2491
 2766TIP3    H2 8305   6.310   5.600   3.820 -1.2074 -0.4498  1.5290
 2767TIP3   OH2 8306   4.429   1.184   3.494 -0.4804 -0.4312 -0.5190
 2767TIP3    H1 8307   4.449   1.105   3.444 -1.6429  0.5927 -2.7532
 2767TIP3    H2 8308   4.380   1.240   3.433 -1.0531  1.3808  1.4518
 2768TIP3   OH2 8309   3.207   5.969   3.070  0.5881  0.7413  0.2803
 2768TIP3    H1 8310   3.178   5.879   3.058 -1.4936  1.5933 -1.9719
 2768TIP3    H2 8311   3.294   5.961   3.109 -0.0690 -2.1677  1.4371
 2769TIP3   OH2 8312   1.877   4.596   4.703  0.0365  1.2770  0.0245
 2769TIP3    H1 8313   1.850   4.573   4.614  0.6599  1.6465 -0.2725
 2769TIP3    H2 8314   1.911   4.514   4.740 -0.1962  1.1292 -0.0901
 2770TIP3   OH2 8315   5.749   0.091   3.573 -0.2841 -0.4108 -0.2530
 2770TIP3    H1 8316   5.712   0.061   3.656 -0.2087 -0.7321 -0.3349
 2770TIP3    H2 8317   5.673   0.122   3.523 -0.2155  0.7320  0.3210
 2771TIP3   OH2 8318   1.334   0.842   1.508 -0.2102  0.3210 -0.0737
 2771TIP3    H1 8319   1.353   0.881   1.593  2.1518  1.0738 -0.8618
 2771TIP3    H2 8320   1.384   0.895   1.446  1.1402 -2.3925 -1.5062
 2772TIP3   OH2 8321   3.242   4.922   2.389  0.6729 -0.1512  0.8691
 2772TIP3    H1 8322   3.258   4.996   2.448 -2.8382 -0.2028  2.1203
 2772TIP3    H2 8323   3.229   4.847   2.448 -0.5477 -0.7076 -0.0729
 2773TIP3   OH2 8324   6.026   4.618   2.125  0.6293 -0.1962  0.7317
 2773TIP3    H1 8325   5.970   4.676   2.073  1.5769  0.6250  0.5993
 2773TIP3    H2 8326   6.106   4.608   2.073  0.4106 -1.8247  0.6457
 2774TIP3   OH2 8327   3.988   2.907   2.495  0.2248  0.5176 -0.7437
 2774TIP3    H1 8328   4.056   2.844   2.470 -1.5868 -1.9948  0.2673
 2774TIP3    H2 8329   3.909   2.877   2.450 -0.7259  2.1316 -0.2519
 2775TIP3   OH2 8330   6.164   2.206   2.594  0.6286  0.6241 -0.5668
 2775TIP3    H1 8331   6.130   2.290   2.625 -0.0733  0.1192  0.0478
 2775TIP3    H2 8332   6.169   2.216   2.499 -1.0468  0.7914 -0.6621
 2776TIP3   OH2 8333   2.620   3.731   3.668 -0.1439 -0.5959 -0.3639
 2776TIP3    H1 8334   2.631   3.643   3.632  1.3026 -0.4724 -0.2725
 2776TIP3    H2 8335   2.672   3.787   3.611  0.2332 -0.0437  0.4992
 2777TIP3   OH2 8336   1.084   5.481   2.938  0.1893 -0.4746  0.5796
 2777TIP3    H1 8337   1.038   5.415   2.989  0.2988  0.5824  2.1244
 2777TIP3    H2 8338   1.133   5.532   3.004  3.8983 -1.7268 -0.9262
 2778TIP3   OH2 8339   0.408   3.116   2.034 -0.0804 -0.6452 -0.0562
 2778TIP3    H1 8340   0.351   3.119   2.110 -1.3877  0.0126 -1.0280
 2778TIP3    H2 8341   0.404   3.204   1.997  1.3474 -0.6627 -0.3231
 2779TIP3   OH2 8342   3.137   0.910   2.992  0.0101 -0.2760  0.4909
 2779TIP3    H1 8343   3.104   0.995   2.962  1.8441  0.0983 -0.5727
 2779TIP3    H2 8344   3.086   0.891   3.071 -0.2108  1.9649  0.9362
 2780TIP3   OH2 8345   3.892   5.346   3.804  0.4413  0.0166 -0.3756
 2780TIP3    H1 8346   3.929   5.400   3.734  2.7177  1.1190  1.5285
 2780TIP3    H2 8347   3.934   5.261   3.795 -0.0898 -0.1958 -0.9479
 2781TIP3   OH2 8348   1.101   3.572   3.834 -0.7049  0.0252 -0.1428
 2781TIP3    H1 8349   1.013   3.580   3.799  0.2152 -0.3181 -2.7921
 2781TIP3    H2 8350   1.158   3.583   3.758  1.5030 -1.1643  1.2269
 2782TIP3   OH2 8351   2.934   0.456   2.144  0.0477 -0.2131 -0.3429
 2782TIP3    H1 8352   2.996   0.529   2.135  1.4422 -1.3495 -0.3930
 2782TIP3    H2 8353   2.851   0.498   2.164  0.6869  1.4206 -0.8820
 2783TIP3   OH2 8354   1.604   2.784   5.182  0.4154  0.0517  0.1812
 2783TIP3    H1 8355   1.681   2.831   5.149  0.8939 -0.6997  0.1863
 2783TIP3    H2 8356   1.530   2.827   5.140  0.9022  0.2297 -0.5278
 2784TIP3   OH2 8357   5.917   3.238   1.411  0.1450 -0.7764  0.2995
 2784TIP3    H1 8358   5.844   3.223   1.471  0.0303 -2.2568 -0.1622
 2784TIP3    H2 8359   5.938   3.151   1.377 -0.3734  0.0926 -2.4946
 2785TIP3   OH2 8360   4.171   5.244   3.358 -0.1373  0.6211  0.3160
 2785TIP3    H1 8361   4.255   5.272   3.322 -0.1640  0.4404  0.1149
 2785TIP3    H2 8362   4.175   5.149   3.360 -1.0566  0.5070 -1.4721
 2786TIP3   OH2 8363   0.560   0.699   1.413 -0.2394  0.1574  0.4807
 2786TIP3    H1 8364   0.496   0.705   1.342  0.6031 -0.4221 -0.3505
 2786TIP3    H2 8365   0.508   0.709   1.493 -1.7214 -2.2597 -0.0516
 2787TIP3   OH2 8366   3.022   2.611   2.625 -0.1613 -0.2668  1.0993
 2787TIP3    H1 8367   3.079   2.680   2.658 -0.4555  0.3078  0.4325
 2787TIP3    H2 8368   3.008   2.553   2.700  0.1385  0.3599  1.6469
 2788TIP3   OH2 8369   4.189   1.105   3.042 -0.1569  0.4378 -0.1390
 2788TIP3    H1 8370   4.111   1.145   3.080  0.3248  0.8093  0.4824
 2788TIP3    H2 8371   4.186   1.014   3.072 -1.0119  0.1055 -1.1750
 2789TIP3   OH2 8372   4.039   4.197   2.193  0.4143  0.2048 -0.0378
 2789TIP3    H1 8373   4.024   4.115   2.239  0.8937  1.0436  1.6668
 2789TIP3    H2 8374   4.129   4.221   2.215  0.5072  0.8634 -1.0575
 2790TIP3   OH2 8375   0.126   1.002   1.241  0.0677 -0.5544 -0.4905
 2790TIP3    H1 8376   0.098   1.041   1.323 -1.3271 -2.9444  0.2648
 2790TIP3    H2 8377   0.048   0.957   1.208  0.9459 -0.7171 -2.4779
 2791TIP3   OH2 8378   0.554   2.574   2.134  0.3207  0.0089 -0.3328
 2791TIP3    H1 8379   0.505   2.554   2.214  0.5893 -0.1584 -0.2116
 2791TIP3    H2 8380   0.508   2.649   2.097 -0.4038 -0.5305 -0.5464
 2792TIP3   OH2 8381   2.604   4.802   0.011  0.3849  0.2104  0.2269
 2792TIP3    H1 8382   2.543   4.753   0.066  2.1566 -2.1172  0.2417
 2792TIP3    H2 8383   2.548   4.841  -0.057 -1.3127 -0.3480  1.2376
 2793TIP3   OH2 8384   2.114   3.778   3.923 -0.6530 -0.4107 -0.2440
 2793TIP3    H1 8385   2.150   3.867   3.912 -1.7764  0.0617 -0.2478
 2793TIP3    H2 8386   2.094   3.772   4.016 -1.9567 -0.0960 -0.4882
 2794TIP3   OH2 8387   4.253   2.187   4.936 -0.1685  0.6148 -0.0044
 2794TIP3    H1 8388   4.229   2.276   4.960  0.3602  0.1949  2.4112
 2794TIP3    H2 8389   4.348   2.191   4.921 -0.0655  0.4084  0.5482
 2795TIP3   OH2 8390   0.106   4.306   3.093  0.0634  0.2371 -0.2323
 2795TIP3    H1 8391   0.102   4.265   3.179 -0.3100  2.0793  0.6749
 2795TIP3    H2 8392   0.145   4.392   3.109 -0.0641  0.6489 -1.9064
 2796TIP3   OH2 8393   0.731   3.048   4.561  0.0277 -0.1051  0.2071
 2796TIP3    H1 8394   0.751   2.971   4.507 -0.7876  0.9650 -1.7430
 2796TIP3    H2 8395   0.708   3.012   4.646  1.3458 -1.9015 -0.1094
 2797TIP3   OH2 8396   2.620   0.178   4.778  0.8658  0.5866  0.1208
 2797TIP3    H1 8397   2.667   0.199   4.859  1.0061 -1.1028  0.5343
 2797TIP3    H2 8398   2.531   0.159   4.807  0.5316  1.4500 -0.3333
 2798TIP3   OH2 8399   2.544   0.989   2.461 -0.2989 -0.2725  0.0725
 2798TIP3    H1 8400   2.638   0.995   2.474 -0.3146 -0.6328  0.3521
 2798TIP3    H2 8401   2.509   1.067   2.504 -0.2157 -0.6611  0.8632
 2799TIP3   OH2 8402   3.306   3.728   3.815  0.2822  0.1205 -0.5921
 2799TIP3    H1 8403   3.327   3.803   3.760 -1.9287  0.9726 -0.3750
 2799TIP3    H2 8404   3.301   3.654   3.754  0.7948  0.4601 -1.0598
 2800TIP3   OH2 8405   0.271   0.837   1.497  0.0130  0.0766 -0.8495
 2800TIP3    H1 8406   0.199   0.899   1.486 -0.7569 -0.4964  0.6163
 2800TIP3    H2 8407   0.282   0.796   1.412  0.0218  1.6434 -1.6411
 2801TIP3   OH2 8408   3.538   3.521   4.425  0.5848 -0.0034  0.5561
 2801TIP3    H1 8409   3.570   3.483   4.343  0.5303 -0.5960  0.8056
 2801TIP3    H2 8410   3.443   3.510   4.420  0.4049  1.5823 -0.1008
 2802TIP3   OH2 8411   5.601   0.109   2.151 -0.0619 -0.2520 -0.1773
 2802TIP3    H1 8412   5.525   0.112   2.093 -0.6880  2.0935  0.6545
 2802TIP3    H2 8413   5.675   0.096   2.092 -0.7878  0.9395 -1.4265
 2803TIP3   OH2 8414   4.668   5.047   0.581 -0.4140  0.1466  0.0464
 2803TIP3    H1 8415   4.667   5.120   0.642  2.1144 -0.0197  0.4122
 2803TIP3    H2 8416   4.724   4.981   0.623  0.6305 -0.3462 -1.9871
 2804TIP3   OH2 8417   2.105   4.563   0.082  0.0224 -0.1104  0.2142
 2804TIP3    H1 8418   2.044   4.542   0.012  0.1130 -0.4663  0.2411
 2804TIP3    H2 8419   2.126   4.479   0.123 -0.7253  0.1810  1.2474
 2805TIP3   OH2 8420   1.507   5.703   2.461  0.2176  0.6638  0.5062
 2805TIP3    H1 8421   1.572   5.635   2.480 -1.2517 -0.4024  1.9435
 2805TIP3    H2 8422   1.513   5.763   2.535 -2.0929 -0.8074  1.9903
 2806TIP3   OH2 8423   0.932   1.189   0.893  0.0378 -0.7429 -0.7259
 2806TIP3    H1 8424   0.957   1.105   0.932  0.3290 -1.1067 -1.6583
 2806TIP3    H2 8425   1.010   1.219   0.847 -0.0379  0.0903 -0.3228
 2807TIP3   OH2 8426   0.221   1.511   4.584 -0.6869 -0.6414  0.2866
 2807TIP3    H1 8427   0.212   1.442   4.650 -0.6403 -0.2784  0.6864
 2807TIP3    H2 8428   0.309   1.545   4.599 -1.0827  0.2001  0.8048
 2808TIP3   OH2 8429   1.436   3.203   0.353  0.4750  0.2281 -0.1696
 2808TIP3    H1 8430   1.499   3.211   0.425  0.5827  1.4946 -0.3890
 2808TIP3    H2 8431   1.489   3.198   0.274  0.3321  1.1838 -0.3461
 2809TIP3   OH2 8432   4.608   2.579   3.365 -0.2781 -0.0082  0.2210
 2809TIP3    H1 8433   4.527   2.591   3.414 -0.2871 -2.5060  0.9402
 2809TIP3    H2 8434   4.676   2.612   3.424 -0.6484  1.4261 -0.0982
 2810TIP3   OH2 8435   5.402   2.831   4.704  0.1576 -0.1880  0.1131
 2810TIP3    H1 8436   5.395   2.815   4.610 -0.6557 -1.8454  0.4186
 2810TIP3    H2 8437   5.488   2.796   4.728 -0.0350 -0.6556  0.1347
 2811TIP3   OH2 8438   3.267   2.263   4.260  0.6209  0.4494 -0.3553
 2811TIP3    H1 8439   3.246   2.175   4.288  0.1015  0.8727  0.6149
 2811TIP3    H2 8440   3.348   2.253   4.209  0.2181 -0.6541 -0.7976
 2812TIP3   OH2 8441   2.462   4.661   1.604  0.2128 -0.3069  0.2417
 2812TIP3    H1 8442   2.393   4.596   1.590 -0.1239  0.1937 -0.4926
 2812TIP3    H2 8443   2.429   4.740   1.561  1.0573  0.0629  0.2629
 2813TIP3   OH2 8444   4.561   4.133   1.556  0.1100 -0.6260  0.4925
 2813TIP3    H1 8445   4.630   4.069   1.538 -0.4441 -0.9040 -0.7407
 2813TIP3    H2 8446   4.605   4.218   1.548  0.5045 -0.8158  0.6013
 2814TIP3   OH2 8447   4.479   4.672   2.751 -0.3642 -0.7468  0.0555
 2814TIP3    H1 8448   4.535   4.708   2.682 -0.6471 -0.8639 -0.2375
 2814TIP3    H2 8449   4.401   4.643   2.705  0.2289 -2.5811  0.1349
 2815TIP3   OH2 8450   0.610   4.323   2.911  0.1903 -0.0378  0.1121
 2815TIP3    H1 8451   0.652   4.246   2.873  1.7685  0.6721  0.3239
 2815TIP3    H2 8452   0.683   4.378   2.939 -0.9134  0.9949  1.0572
 2816TIP3   OH2 8453   3.677   4.965   0.408  0.5584 -0.1565  0.1709
 2816TIP3    H1 8454   3.679   5.060   0.417  0.7736 -0.3341  2.4663
 2816TIP3    H2 8455   3.761   4.936   0.444 -0.3913 -1.3411  1.5214
 2817TIP3   OH2 8456   6.141   2.291   4.515  1.0701 -0.3265  0.1157
 2817TIP3    H1 8457   6.141   2.380   4.550 -0.7003 -0.7577  1.3169
 2817TIP3    H2 8458   6.230   2.279   4.482  2.0312  1.1136  1.9683
 2818TIP3   OH2 8459   1.761   0.873   5.105 -0.0255  0.8470  0.0296
 2818TIP3    H1 8460   1.784   0.950   5.158  0.1338  0.1817  0.9539
 2818TIP3    H2 8461   1.783   0.898   5.015  0.8806  1.5581  0.4302
 2819TIP3   OH2 8462   0.931   1.178   2.761 -0.1283  0.1100 -0.2124
 2819TIP3    H1 8463   1.011   1.130   2.782 -0.1316 -0.5973 -1.6570
 2819TIP3    H2 8464   0.862   1.132   2.810 -0.0196 -0.9346 -1.0122
 2820TIP3   OH2 8465   0.142   4.951   4.875  0.1215 -0.5064 -0.8389
 2820TIP3    H1 8466   0.111   4.892   4.944  0.5047  1.0056  0.7123
 2820TIP3    H2 8467   0.070   5.013   4.862  0.3308 -0.3531 -1.2727
 2821TIP3   OH2 8468   5.686   0.681   0.638  0.1706  0.4203  0.1723
 2821TIP3    H1 8469   5.775   0.712   0.653 -0.0643  0.8305  0.7084
 2821TIP3    H2 8470   5.666   0.707   0.548  0.3787  0.8367  0.2487
 2822TIP3   OH2 8471   2.343   1.392   1.691 -0.2328 -0.2450  0.0753
 2822TIP3    H1 8472   2.403   1.432   1.755  0.8094  1.5955 -1.9332
 2822TIP3    H2 8473   2.387   1.312   1.664 -1.5055 -2.0368  2.8248
 2823TIP3   OH2 8474   3.951   5.021   0.439 -0.1726  0.1389 -0.1531
 2823TIP3    H1 8475   3.966   5.100   0.387  0.1606 -0.0826 -0.4040
 2823TIP3    H2 8476   4.024   4.963   0.416 -0.2729 -0.1431  0.2185
 2824TIP3   OH2 8477   1.245   1.748   0.644 -0.3772 -0.1407  0.5052
 2824TIP3    H1 8478   1.274   1.804   0.572 -0.1798 -1.9591 -0.9134
 2824TIP3    H2 8479   1.153   1.731   0.625  0.1306 -2.1125 -0.4055
 2825TIP3   OH2 8480   4.265   0.224   2.496 -0.4150  0.5548 -0.4970
 2825TIP3    H1 8481   4.181   0.190   2.528  0.0055  1.3467  1.6006
 2825TIP3    H2 8482   4.241   0.275   2.419 -1.8973  0.9019  0.1492
 2826TIP3   OH2 8483   5.813   2.232   2.943  0.4708  0.8385  0.0532
 2826TIP3    H1 8484   5.750   2.218   2.872 -0.2058  1.7198  0.4582
 2826TIP3    H2 8485   5.871   2.155   2.940  0.6810  1.0300 -1.6673
 2827TIP3   OH2 8486   2.998   1.581   0.072 -0.0629 -0.7962 -0.3071
 2827TIP3    H1 8487   2.992   1.590  -0.023  1.6721 -2.3510 -0.6448
 2827TIP3    H2 8488   3.020   1.668   0.104 -0.6343 -0.2646 -1.3193
 2828TIP3   OH2 8489   4.855   5.717   4.061 -0.4569 -0.0514 -0.1571
 2828TIP3    H1 8490   4.784   5.659   4.033 -0.4423  0.4128 -1.1864
 2828TIP3    H2 8491   4.898   5.744   3.980 -0.8934  1.9387  0.2232
 2829TIP3   OH2 8492   1.681   5.323   1.098  0.1618  0.2533  0.2789
 2829TIP3    H1 8493   1.743   5.379   1.145 -0.1858  0.4406  0.5147
 2829TIP3    H2 8494   1.736   5.258   1.054  0.4601 -0.3648  1.5221
 2830TIP3   OH2 8495   2.118   1.581   2.400 -0.1833 -0.4528  0.3094
 2830TIP3    H1 8496   2.035   1.536   2.410 -1.5411  1.3576 -1.7620
 2830TIP3    H2 8497   2.096   1.665   2.359  2.5732  0.4991  0.4990
 2831TIP3   OH2 8498   1.626   5.995   2.569  0.6552  0.6234 -0.3005
 2831TIP3    H1 8499   1.700   5.982   2.510 -1.0933 -0.1652 -2.4574
 2831TIP3    H2 8500   1.624   5.917   2.623  1.3336  0.5955 -0.3112
 2832TIP3   OH2 8501   0.184   3.977   4.675  0.2742  0.2689 -0.2230
 2832TIP3    H1 8502   0.128   3.901   4.688  0.1712  0.5658  1.2371
 2832TIP3    H2 8503   0.122   4.051   4.669  0.4731  0.6716  1.9626
 2833TIP3   OH2 8504   5.756   5.136   3.993 -0.0090 -0.3913  0.4513
 2833TIP3    H1 8505   5.773   5.230   3.993  0.7135 -0.5193  0.3166
 2833TIP3    H2 8506   5.703   5.121   4.072 -1.1057  0.2912 -0.1323
 2834TIP3   OH2 8507   5.457   4.639   0.664  0.0376  0.0155 -0.2282
 2834TIP3    H1 8508   5.468   4.548   0.637 -0.4079 -0.3400  0.7133
 2834TIP3    H2 8509   5.415   4.633   0.750 -2.5304  1.1625 -1.3147
 2835TIP3   OH2 8510   5.108   2.095   2.973 -0.2443 -0.0240  0.0887
 2835TIP3    H1 8511   5.047   2.124   2.905  0.2938 -0.4736 -0.5919
 2835TIP3    H2 8512   5.114   2.001   2.962  0.0366 -0.0718  0.6168
 2836TIP3   OH2 8513   3.493   5.737   1.745  0.1003  0.4345  0.2620
 2836TIP3    H1 8514   3.504   5.674   1.816 -0.7647  0.2904  0.2776
 2836TIP3    H2 8515   3.468   5.684   1.670  0.2445  0.6706  0.0456
 2837TIP3   OH2 8516   1.339   0.711   2.561  0.3905  0.3386 -0.4903
 2837TIP3    H1 8517   1.356   0.635   2.617  1.8598 -0.7241 -2.2352
 2837TIP3    H2 8518   1.387   0.782   2.602 -2.0242  0.7540  1.8701
 2838TIP3   OH2 8519   0.050   1.648   2.761  0.2899 -0.4569 -1.1284
 2838TIP3    H1 8520   0.025   1.556   2.750  1.5156 -1.0820  0.8165
 2838TIP3    H2 8521   0.079   1.675   2.674 -0.6585 -1.7126 -1.8803
 2839TIP3   OH2 8522   0.660   3.420   2.332  0.1133 -0.2148  0.4116
 2839TIP3    H1 8523   0.677   3.365   2.408 -1.3313 -0.4336  0.5918
 2839TIP3    H2 8524   0.569   3.402   2.308  0.6874 -0.6149 -1.7391
 2840TIP3   OH2 8525   4.525   1.930   2.633  0.5948  0.1605  0.1087
 2840TIP3    H1 8526   4.596   1.907   2.574 -0.0405 -1.3000 -0.1383
 2840TIP3    H2 8527   4.564   1.990   2.696  2.1325 -0.8260  0.1584
 2841TIP3   OH2 8528   4.694   3.365   0.027  0.0345 -0.0456  0.0802
 2841TIP3    H1 8529   4.637   3.404   0.093 -1.2480 -0.8562 -0.4934
 2841TIP3    H2 8530   4.635   3.348  -0.047  0.5746 -2.7263  0.1890
 2842TIP3   OH2 8531   3.877   2.439   4.874  0.1837 -0.1359  0.2371
 2842TIP3    H1 8532   3.928   2.507   4.830  1.6667 -1.4759 -0.2092
 2842TIP3    H2 8533   3.797   2.432   4.823  0.8336  0.0021 -0.8229
 2843TIP3   OH2 8534   1.036   5.297   2.629  0.3347 -0.9223  0.1701
 2843TIP3    H1 8535   1.130   5.302   2.613  0.2302  0.2029 -0.1565
 2843TIP3    H2 8536   1.028   5.259   2.716  1.0216 -3.3081 -0.7114
 2844TIP3   OH2 8537   3.870   0.032   1.300 -0.1549 -0.1105 -0.1212
 2844TIP3    H1 8538   3.938   0.095   1.276 -0.0654 -0.1879 -0.0680
 2844TIP3    H2 8539   3.843  -0.006   1.216 -0.4430  0.2398 -0.1895
 2845TIP3   OH2 8540   6.081   0.375   1.378 -0.4954  0.3947  0.5207
 2845TIP3    H1 8541   6.032   0.331   1.448 -0.3363  0.2307  0.5305
 2845TIP3    H2 8542   6.091   0.308   1.310 -2.9034  1.2671 -0.8122
 2846TIP3   OH2 8543   1.597   5.580   5.118 -0.2432 -0.5949  0.4244
 2846TIP3    H1 8544   1.659   5.618   5.056 -0.0696 -2.6749 -0.8093
 2846TIP3    H2 8545   1.519   5.634   5.110  0.3134  0.1237 -0.4480
 2847TIP3   OH2 8546   3.106   5.801   2.187  0.3792  0.2424  0.1189
 2847TIP3    H1 8547   3.201   5.799   2.187  0.3917  0.6262 -0.0864
 2847TIP3    H2 8548   3.084   5.875   2.131 -0.0856 -1.1250 -1.5837
 2848TIP3   OH2 8549   2.954   0.005   3.096  0.0660 -0.5440 -0.5350
 2848TIP3    H1 8550   2.871   0.052   3.092 -0.5206 -1.2629  1.7171
 2848TIP3    H2 8551   2.998   0.027   3.014 -1.4625  1.4646 -0.8941
 2849TIP3   OH2 8552   1.819   2.150   1.053 -0.2247 -0.3378 -0.0751
 2849TIP3    H1 8553   1.821   2.185   1.142 -0.1740 -2.3939  0.7987
 2849TIP3    H2 8554   1.728   2.122   1.041 -0.1801 -0.2728 -0.5755
 2850TIP3   OH2 8555   2.382   4.743   0.180  0.2774  0.1975 -0.4669
 2850TIP3    H1 8556   2.312   4.802   0.151  0.9559  1.0851 -0.3664
 2850TIP3    H2 8557   2.347   4.699   0.256 -1.3818 -1.8220 -2.2669
 2851TIP3   OH2 8558   5.802   2.972   2.921 -0.1502 -0.5661  0.2621
 2851TIP3    H1 8559   5.707   2.982   2.924 -0.1799 -0.9458  0.5043
 2851TIP3    H2 8560   5.833   3.016   3.000  0.0918  2.0086 -1.1409
 2852TIP3   OH2 8561   0.872   3.426   1.916  0.5492 -0.2553  0.8579
 2852TIP3    H1 8562   0.938   3.491   1.890 -0.5963  1.0185  1.0532
 2852TIP3    H2 8563   0.875   3.360   1.846  1.7143 -0.0010  0.6403
 2853TIP3   OH2 8564   4.098   5.819   0.193 -0.5936 -1.0450 -0.0683
 2853TIP3    H1 8565   4.181   5.863   0.210 -1.4705  0.5981  0.1600
 2853TIP3    H2 8566   4.034   5.890   0.183 -1.5441 -2.1382 -2.7573
 2854TIP3   OH2 8567   0.755   1.441   1.651 -0.3359  0.1331  0.3271
 2854TIP3    H1 8568   0.707   1.497   1.589 -0.7412 -0.1769  0.3546
 2854TIP3    H2 8569   0.766   1.358   1.605  4.1024  1.4494 -1.4828
 2855TIP3   OH2 8570   5.340   3.888   0.666 -0.2925 -0.2626  0.0513
 2855TIP3    H1 8571   5.278   3.960   0.654  0.4909  0.4683  0.2505
 2855TIP3    H2 8572   5.314   3.822   0.602 -0.7472  0.3998 -0.4590
 2856TIP3   OH2 8573   3.389   0.133   3.401 -0.1424 -0.0125  0.3261
 2856TIP3    H1 8574   3.395   0.227   3.383 -0.6271 -0.3142 -1.7419
 2856TIP3    H2 8575   3.296   0.113   3.391  0.3127 -1.1891 -2.4415
 2857TIP3   OH2 8576   0.657   5.039   4.015  0.1137  0.2334  0.4453
 2857TIP3    H1 8577   0.686   4.966   3.960 -0.4812  0.9201 -0.8169
 2857TIP3    H2 8578   0.592   5.000   4.073  1.3529 -0.6837  1.2708
 2858TIP3   OH2 8579   5.106   2.028   3.252 -0.2638 -0.3029 -0.3284
 2858TIP3    H1 8580   5.166   1.958   3.226 -2.2242 -1.5348 -1.7928
 2858TIP3    H2 8581   5.094   2.081   3.173  0.3401  1.0782  0.4714
 2859TIP3   OH2 8582   5.531   5.729   3.295  0.7035  0.3254  0.3513
 2859TIP3    H1 8583   5.461   5.722   3.360  2.7017  1.6948  2.8401
 2859TIP3    H2 8584   5.526   5.820   3.265  0.6418  0.0737 -0.4145
 2860TIP3   OH2 8585   5.037   1.116   2.530  0.2824  0.2894  0.4158
 2860TIP3    H1 8586   5.037   1.115   2.434  2.0283  2.4526  0.3097
 2860TIP3    H2 8587   5.081   1.035   2.554  0.2791 -0.0465 -0.6361
 2861TIP3   OH2 8588   1.009   5.120   0.164 -0.9579  0.3794  0.3081
 2861TIP3    H1 8589   1.047   5.108   0.077  0.3626 -2.1676  1.1099
 2861TIP3    H2 8590   1.019   5.213   0.182 -0.7121  0.8603 -2.0004
 2862TIP3   OH2 8591   5.110   5.925   3.454  0.5875  0.0649 -0.4429
 2862TIP3    H1 8592   5.125   5.999   3.514  1.6734 -0.8552  0.4656
 2862TIP3    H2 8593   5.015   5.913   3.455  0.3683  1.5506 -0.7548
 2863TIP3   OH2 8594   5.439   0.057   4.615 -0.1289  0.2259 -0.5377
 2863TIP3    H1 8595   5.508   0.106   4.570 -1.6064  1.2546 -1.8247
 2863TIP3    H2 8596   5.416   0.112   4.690  0.2471  0.0189 -0.2680
 2864TIP3   OH2 8597   5.066   1.943   0.441  0.1249  0.2671 -0.2376
 2864TIP3    H1 8598   5.010   2.018   0.426  2.3970  2.1768  0.2893
 2864TIP3    H2 8599   5.100   1.920   0.355 -0.0961  0.2373 -0.3165
 2865TIP3   OH2 8600   0.683   4.471   1.246  0.5054  0.6358  0.1996
 2865TIP3    H1 8601   0.761   4.472   1.302  1.2974  1.3418 -0.8596
 2865TIP3    H2 8602   0.647   4.384   1.257  1.4615  0.2875  0.7257
 2866TIP3   OH2 8603   4.158   1.536   1.161  0.4629  0.5979  0.1463
 2866TIP3    H1 8604   4.167   1.623   1.121 -0.1477  1.1187  1.0928
 2866TIP3    H2 8605   4.075   1.540   1.208  0.7877 -0.2499  0.8215
 2867TIP3   OH2 8606   3.641   4.885   4.088 -0.1842 -0.0161 -0.2401
 2867TIP3    H1 8607   3.703   4.838   4.144 -0.5745  0.4396  0.5917
 2867TIP3    H2 8608   3.694   4.914   4.014  0.1265 -1.4981 -0.6401
 2868TIP3   OH2 8609   5.839   0.491   3.395 -0.3451  0.1827  0.3035
 2868TIP3    H1 8610   5.902   0.561   3.410  0.9483 -1.2907  2.1383
 2868TIP3    H2 8611   5.795   0.479   3.479 -1.7303 -0.1554 -0.4200
 2869TIP3   OH2 8612   2.623   1.650   0.619  0.2826  0.1819  0.3880
 2869TIP3    H1 8613   2.619   1.741   0.592 -0.7645 -0.5997 -2.3794
 2869TIP3    H2 8614   2.533   1.618   0.612  1.0744 -1.8310 -1.8760
 2870TIP3   OH2 8615   0.137   2.794   0.813  0.4348 -0.4018 -0.0296
 2870TIP3    H1 8616   0.056   2.793   0.761 -0.0875 -0.5259  0.7568
 2870TIP3    H2 8617   0.192   2.727   0.773 -0.1380 -0.8097 -0.1468
 2871TIP3   OH2 8618   0.203   2.088   1.761 -0.2229 -0.1282  0.1871
 2871TIP3    H1 8619   0.241   2.175   1.750 -0.1818  0.0185  1.3842
 2871TIP3    H2 8620   0.269   2.028   1.726  0.6552  0.1981  1.2353
 2872TIP3   OH2 8621   5.873   1.756   3.224 -0.5497  0.1264  0.6256
 2872TIP3    H1 8622   5.815   1.753   3.148 -0.3712 -0.5811  0.5087
 2872TIP3    H2 8623   5.961   1.747   3.187 -0.5540 -2.1200  1.0220
 2873TIP3   OH2 8624   3.598   1.150   0.502  0.0660 -0.2142 -0.2576
 2873TIP3    H1 8625   3.645   1.108   0.430  0.9693 -0.4975  0.4829
 2873TIP3    H2 8626   3.508   1.118   0.494  0.5705 -1.7378 -0.1347
 2874TIP3   OH2 8627   3.046   2.831   0.982  0.1074  0.0575  0.4244
 2874TIP3    H1 8628   3.063   2.738   0.966 -0.1007  0.0229  0.3958
 2874TIP3    H2 8629   2.967   2.831   1.037  0.3043  0.2046  0.7075
 2875TIP3   OH2 8630   2.496   2.335   3.188  0.2169 -0.2296 -0.0304
 2875TIP3    H1 8631   2.573   2.328   3.133  0.4901 -0.4981  0.3806
 2875TIP3    H2 8632   2.525   2.304   3.274  0.0159  0.9582  0.4779
 2876TIP3   OH2 8633   0.597   5.643   2.734  0.3807  0.6304  0.0156
 2876TIP3    H1 8634   0.595   5.547   2.733 -1.3928  0.5872  1.9107
 2876TIP3    H2 8635   0.678   5.664   2.781  0.2318  0.0365  0.5470
 2877TIP3   OH2 8636   4.262   0.313   2.144  0.4799  0.4033  0.0639
 2877TIP3    H1 8637   4.336   0.326   2.203  0.5843  1.7020 -0.3108
 2877TIP3    H2 8638   4.211   0.394   2.152  0.5837  0.6777 -1.7192
 2878TIP3   OH2 8639   2.988   2.683   4.833  0.1477  0.2752  0.1993
 2878TIP3    H1 8640   3.027   2.745   4.894  0.1575 -0.4055  0.9097
 2878TIP3    H2 8641   2.956   2.736   4.761  0.9217  1.0049  0.3902
 2879TIP3   OH2 8642   1.808   2.826   2.517  0.4183 -0.2088 -0.0673
 2879TIP3    H1 8643   1.858   2.907   2.523 -0.5525  0.3961  0.0730
 2879TIP3    H2 8644   1.774   2.825   2.428  0.5714 -0.5520 -0.1236
 2880TIP3   OH2 8645   2.473   2.671   2.540 -0.2466 -0.5098  0.3486
 2880TIP3    H1 8646   2.555   2.702   2.578  0.1645 -0.9105 -0.2018
 2880TIP3    H2 8647   2.430   2.624   2.612  0.8903 -1.9465  0.1447
 2881TIP3   OH2 8648   2.114   5.666   1.521 -0.3767  0.2057 -0.0117
 2881TIP3    H1 8649   2.039   5.653   1.580  1.0603 -2.5018  1.4407
 2881TIP3    H2 8650   2.077   5.709   1.444 -2.8628  1.5020  1.7419
 2882TIP3   OH2 8651   1.714   5.501   3.878  0.1620 -0.1017 -0.0757
 2882TIP3    H1 8652   1.745   5.544   3.798  0.2088 -1.8940 -1.0686
 2882TIP3    H2 8653   1.646   5.559   3.912  1.8665  1.9615  0.0096
 2883TIP3   OH2 8654   4.755   5.515   3.791  0.1040 -0.0085 -0.0135
 2883TIP3    H1 8655   4.846   5.524   3.817  0.4113  0.1289 -1.0870
 2883TIP3    H2 8656   4.705   5.547   3.867  0.9687  1.0955  0.1203
 2884TIP3   OH2 8657   2.264   5.725   3.199 -0.7491  0.1328 -0.0454
 2884TIP3    H1 8658   2.204   5.731   3.273 -1.4626 -0.5643 -0.5544
 2884TIP3    H2 8659   2.211   5.689   3.128  0.4722 -1.3797 -0.2478
 2885TIP3   OH2 8660   4.545   5.975   1.740 -0.0328  0.1945 -0.6452
 2885TIP3    H1 8661   4.554   5.887   1.702 -1.7278 -0.3882  0.1735
 2885TIP3    H2 8662   4.587   5.968   1.825  0.8097  0.5241 -1.0224
 2886TIP3   OH2 8663   3.753   1.804   1.043 -0.1834 -0.3935  0.1778
 2886TIP3    H1 8664   3.694   1.876   1.067  1.2712  0.1888  2.3124
 2886TIP3    H2 8665   3.757   1.808   0.947 -2.1501  0.6991  0.0845
 2887TIP3   OH2 8666   2.409   5.199   1.663  0.1564 -0.5921  0.1087
 2887TIP3    H1 8667   2.384   5.151   1.743 -2.4197 -0.1043 -0.3014
 2887TIP3    H2 8668   2.342   5.175   1.599 -1.2357  3.3451 -0.1811
 2888TIP3   OH2 8669   5.746   3.841   1.951 -0.2927 -0.1981  0.6277
 2888TIP3    H1 8670   5.807   3.777   1.914 -0.7109  0.2137 -0.8711
 2888TIP3    H2 8671   5.663   3.794   1.957 -0.7039  0.2689 -0.8694
 2889TIP3   OH2 8672   0.442   3.446   4.796 -0.2274  0.1697 -0.2572
 2889TIP3    H1 8673   0.520   3.397   4.773  0.5814  0.7924  1.0184
 2889TIP3    H2 8674   0.470   3.538   4.797 -1.3869  0.5649 -1.3601
 2890TIP3   OH2 8675   2.090   5.158   1.022 -0.0265  0.1637 -0.2278
 2890TIP3    H1 8676   2.058   5.133   0.935  1.5514 -2.3576 -0.1947
 2890TIP3    H2 8677   2.184   5.173   1.009 -0.4341  4.3922  0.2404
 2891TIP3   OH2 8678   4.274   5.197   2.703  0.0597 -0.2567  0.1561
 2891TIP3    H1 8679   4.294   5.180   2.795  0.2243 -1.0342 -0.0177
 2891TIP3    H2 8680   4.295   5.290   2.691  1.2576 -0.4547  0.5944
 2892TIP3   OH2 8681   1.732   2.469   5.118 -0.3685 -0.1414 -0.2021
 2892TIP3    H1 8682   1.816   2.479   5.074  0.6946 -1.8502  1.2562
 2892TIP3    H2 8683   1.700   2.558   5.131  0.6665  0.4983 -1.7712
 2893TIP3   OH2 8684   0.805   4.900   5.133 -0.3848  0.2567 -0.3884
 2893TIP3    H1 8685   0.748   4.824   5.122 -0.5761  0.2866  0.3344
 2893TIP3    H2 8686   0.857   4.904   5.053 -0.8495 -0.2366 -0.7143
 2894TIP3   OH2 8687   4.218   4.951   0.319  0.1043 -0.0088 -0.2310
 2894TIP3    H1 8688   4.258   4.994   0.394  0.9854  0.6527 -1.0699
 2894TIP3    H2 8689   4.231   5.011   0.246  0.6462 -1.3136 -1.2535
 2895TIP3   OH2 8690   2.643   1.530   1.548  0.1036  0.1212 -0.3718
 2895TIP3    H1 8691   2.729   1.573   1.545  0.0766  0.1805 -0.2930
 2895TIP3    H2 8692   2.587   1.586   1.493  0.3027 -0.3362 -1.0489
 2896TIP3   OH2 8693   2.221   1.207   3.596  0.4317  0.3011 -0.0677
 2896TIP3    H1 8694   2.202   1.290   3.551 -0.2928 -0.0451 -0.4107
 2896TIP3    H2 8695   2.258   1.151   3.527 -0.2919 -0.0896 -0.1511
 2897TIP3   OH2 8696   5.120   0.341   4.418 -0.1602  0.5618  0.3002
 2897TIP3    H1 8697   5.089   0.429   4.396  1.1663  1.0888  0.4195
 2897TIP3    H2 8698   5.206   0.355   4.457  0.1235 -0.8055  0.2206
 2898TIP3   OH2 8699   0.732   0.816   3.629 -0.4684 -0.3319 -0.7860
 2898TIP3    H1 8700   0.656   0.759   3.619 -2.0171  1.5951 -0.5900
 2898TIP3    H2 8701   0.779   0.781   3.705 -3.1590  0.4727  1.4168
 2899TIP3   OH2 8702   2.564   1.119   2.815  0.1802 -0.7310  0.5642
 2899TIP3    H1 8703   2.581   1.065   2.892  0.1125  1.4859  2.2404
 2899TIP3    H2 8704   2.651   1.139   2.780  0.3207 -0.3037  1.1440
 2900TIP3   OH2 8705   1.771   0.947   4.831 -0.2844 -0.1867 -0.1237
 2900TIP3    H1 8706   1.760   0.856   4.806  1.6990 -0.5675  0.2577
 2900TIP3    H2 8707   1.834   0.982   4.768 -0.0907  0.5880  0.4866
 2901TIP3   OH2 8708   4.841   5.955   3.644 -0.1704 -0.3115  0.3816
 2901TIP3    H1 8709   4.788   5.900   3.703 -1.0160  1.6119  1.4971
 2901TIP3    H2 8710   4.781   6.022   3.612  1.4515  1.7826  1.4637
 2902TIP3   OH2 8711   2.272  -0.003   0.544  0.1583 -0.0403  0.1235
 2902TIP3    H1 8712   2.264   0.091   0.559 -0.1384  0.2252 -1.5070
 2902TIP3    H2 8713   2.335  -0.032   0.611  1.8087  1.6685 -0.5796
 2903TIP3   OH2 8714   2.266   5.823   3.582 -0.5062 -0.6984 -0.3131
 2903TIP3    H1 8715   2.231   5.908   3.610 -0.0454 -1.0059  1.2856
 2903TIP3    H2 8716   2.229   5.809   3.494 -1.4297  0.6617 -0.1594
 2904TIP3   OH2 8717   3.099   3.321   4.789  0.5801 -0.2235 -0.4878
 2904TIP3    H1 8718   3.148   3.310   4.708  1.5513  0.5984 -0.0331
 2904TIP3    H2 8719   3.165   3.312   4.858 -0.3404 -1.6200  0.2675
 2905TIP3   OH2 8720   6.185   4.200   1.679  0.5281  0.3723  0.4562
 2905TIP3    H1 8721   6.276   4.202   1.648  1.2878 -1.6168  2.2943
 2905TIP3    H2 8722   6.140   4.266   1.626  2.7371  0.4993 -1.4126
 2906TIP3   OH2 8723   3.357   3.288   1.068 -0.3519  0.0465  0.0525
 2906TIP3    H1 8724   3.334   3.213   1.013  0.7117 -0.4595  0.2656
 2906TIP3    H2 8725   3.449   3.306   1.047 -1.0539  2.4245 -1.2776
 2907TIP3   OH2 8726   6.105   0.400   3.596 -0.3936  0.2610  0.3694
 2907TIP3    H1 8727   6.071   0.311   3.588 -0.4279  0.1201  1.8901
 2907TIP3    H2 8728   6.159   0.412   3.517  1.2171 -1.8201  1.0598
 2908TIP3   OH2 8729   5.187   3.108   2.046 -0.0373  0.3354 -0.2632
 2908TIP3    H1 8730   5.242   3.035   2.074  1.4663  1.2500 -0.6863
 2908TIP3    H2 8731   5.100   3.087   2.080  0.7067 -0.8487  1.0404
 2909TIP3   OH2 8732   3.298   0.232   0.028 -0.2500 -0.5444 -0.0165
 2909TIP3    H1 8733   3.239   0.193   0.093 -1.1402  0.3204 -0.2935
 2909TIP3    H2 8734   3.259   0.209  -0.056  0.3287 -0.7637 -0.2297
 2910TIP3   OH2 8735   5.388   3.606   2.354  0.3272  0.1675 -0.3161
 2910TIP3    H1 8736   5.344   3.637   2.275  1.2151  1.2774 -0.4135
 2910TIP3    H2 8737   5.426   3.685   2.392  0.6810 -0.4884  0.7341
 2911TIP3   OH2 8738   5.280   1.185   4.436 -0.1814  0.6549 -0.6214
 2911TIP3    H1 8739   5.224   1.125   4.484  0.7924  1.3563  1.5135
 2911TIP3    H2 8740   5.222   1.229   4.373 -1.2513 -1.1533 -0.9426
 2912TIP3   OH2 8741   2.635   2.399   0.311  0.1947 -0.0671  0.4321
 2912TIP3    H1 8742   2.645   2.322   0.366  2.2464  0.8510  1.4597
 2912TIP3    H2 8743   2.716   2.449   0.324  0.2196  0.8355 -2.4514
 2913TIP3   OH2 8744   1.378   0.147   4.213 -0.5855 -0.7658  0.3183
 2913TIP3    H1 8745   1.380   0.078   4.147 -0.0880 -1.3269  0.8980
 2913TIP3    H2 8746   1.387   0.101   4.296  1.7361  0.0949  0.6294
 2914TIP3   OH2 8747   0.842   5.587   1.146 -0.0348  0.8143  0.1499
 2914TIP3    H1 8748   0.913   5.540   1.190 -0.2327 -0.3147 -0.6609
 2914TIP3    H2 8749   0.834   5.670   1.193  0.5576  0.1668  1.4384
 2915TIP3   OH2 8750   2.840   3.238   2.680 -0.0011 -0.2537 -0.0642
 2915TIP3    H1 8751   2.896   3.308   2.714 -0.1359  0.5931 -1.5012
 2915TIP3    H2 8752   2.759   3.282   2.656 -0.1528 -0.9251 -0.8167
 2916TIP3   OH2 8753   0.356   0.658   4.436 -0.2602 -0.1599  0.3123
 2916TIP3    H1 8754   0.342   0.564   4.444 -1.6106  0.1047  1.5984
 2916TIP3    H2 8755   0.309   0.683   4.357 -0.1910 -0.5282  0.1558
 2917TIP3   OH2 8756   1.151   1.899   3.152 -0.4186 -0.8328 -0.7815
 2917TIP3    H1 8757   1.238   1.859   3.153  0.0968  0.1598 -2.4502
 2917TIP3    H2 8758   1.154   1.966   3.220 -0.1673 -1.3673 -0.2652
 2918TIP3   OH2 8759   0.653   2.022   1.974  0.2492 -0.0945 -0.2830
 2918TIP3    H1 8760   0.735   2.011   2.023  0.8196 -2.4646 -1.6004
 2918TIP3    H2 8761   0.585   1.999   2.037  0.6132  1.2679  0.6413
 2919TIP3   OH2 8762   0.970   4.254   0.034  0.4026  0.0318  0.2467
 2919TIP3    H1 8763   0.978   4.264   0.128  0.1403  0.5439  0.2174
 2919TIP3    H2 8764   1.036   4.189   0.011  0.8186  0.2858  0.7132
 2920TIP3   OH2 8765   4.694   1.928   1.736  0.2910  1.2944  0.2466
 2920TIP3    H1 8766   4.643   1.993   1.688 -0.2603  0.0679 -0.8997
 2920TIP3    H2 8767   4.704   1.855   1.674  0.9302  0.3086  1.4651
 2921TIP3   OH2 8768   4.622   5.805   2.322 -0.5162  0.1507 -0.2029
 2921TIP3    H1 8769   4.691   5.768   2.377  0.0291  0.6210 -0.5590
 2921TIP3    H2 8770   4.595   5.732   2.265 -0.7475 -0.2011  0.3450
 2922TIP3   OH2 8771   4.740   2.289   5.035 -0.5159  0.0022  0.3831
 2922TIP3    H1 8772   4.829   2.279   5.003  0.5266  0.1709  2.9560
 2922TIP3    H2 8773   4.720   2.382   5.023 -0.0090  0.1333  0.5395
 2923TIP3   OH2 8774   2.187   0.550   5.152 -0.1931 -0.1367  0.2373
 2923TIP3    H1 8775   2.219   0.639   5.137 -1.8573  0.3281 -0.8340
 2923TIP3    H2 8776   2.257   0.493   5.121 -0.4357  0.8300 -2.2851
 2924TIP3   OH2 8777   1.392   1.718   0.918  0.0755  0.1574 -0.6386
 2924TIP3    H1 8778   1.318   1.725   0.858 -1.2178  3.2687  1.1295
 2924TIP3    H2 8779   1.354   1.685   0.999  0.4321  2.2548  0.4438
 2925TIP3   OH2 8780   0.773   4.645   4.572  0.4476  0.2726  0.9030
 2925TIP3    H1 8781   0.848   4.646   4.631  0.1991  0.8567  1.2213
 2925TIP3    H2 8782   0.704   4.691   4.620 -0.1234 -0.2805  0.6249
 2926TIP3   OH2 8783   5.324   5.221   4.098 -0.9619 -0.6830 -0.0141
 2926TIP3    H1 8784   5.258   5.201   4.163 -0.0632 -1.4675  0.6775
 2926TIP3    H2 8785   5.348   5.137   4.060  1.0064 -0.6905  1.1093
 2927TIP3   OH2 8786   0.669   0.807   0.973 -0.2159 -0.4116 -0.2085
 2927TIP3    H1 8787   0.759   0.787   0.946 -0.3641 -0.8381 -0.3914
 2927TIP3    H2 8788   0.679   0.855   1.056  0.2383  0.8997 -0.9931
 2928TIP3   OH2 8789   2.809   1.157   0.714 -0.0213  0.3200 -0.0978
 2928TIP3    H1 8790   2.846   1.242   0.688 -2.3484  1.1503 -0.9475
 2928TIP3    H2 8791   2.716   1.164   0.693 -0.0091 -3.1687 -1.9940
 2929TIP3   OH2 8792   6.300   0.750   1.889 -0.4238 -0.9537 -0.3257
 2929TIP3    H1 8793   6.208   0.729   1.872 -0.6803 -0.5176  0.4650
 2929TIP3    H2 8794   6.319   0.708   1.973  0.3205 -1.6613 -0.8295
 2930TIP3   OH2 8795   4.799   0.874   0.831  0.8399 -0.4063 -0.1640
 2930TIP3    H1 8796   4.769   0.831   0.911  1.2581  0.5575  0.5312
 2930TIP3    H2 8797   4.719   0.895   0.783  0.6004 -1.2897 -0.1707
 2931TIP3   OH2 8798   0.034   1.239   2.216  0.0762  0.4859  0.2245
 2931TIP3    H1 8799   0.026   1.216   2.308  1.4756 -0.2294  0.1962
 2931TIP3    H2 8800   0.122   1.212   2.192  0.3254  2.1597 -0.9166
 2932TIP3   OH2 8801   1.954   4.551   5.157  0.0397 -0.1501  0.1982
 2932TIP3    H1 8802   2.020   4.498   5.114 -1.1640 -0.6741 -1.0865
 2932TIP3    H2 8803   1.918   4.606   5.087 -1.2206 -0.2400  0.7512
 2933TIP3   OH2 8804   2.004   1.933   4.717 -0.5627 -0.7061 -0.6353
 2933TIP3    H1 8805   2.034   1.856   4.667  0.5972 -0.7928  0.1480
 2933TIP3    H2 8806   1.926   1.903   4.762 -0.8989 -1.0087 -1.3942
 2934TIP3   OH2 8807   0.215   3.546   3.481  0.2598  0.3251 -0.4151
 2934TIP3    H1 8808   0.167   3.561   3.400  0.2601  0.4272 -0.3958
 2934TIP3    H2 8809   0.267   3.467   3.463  0.2880  0.3682 -0.5276
 2935TIP3   OH2 8810   6.236   3.177   1.930 -0.1693 -0.0220  0.6278
 2935TIP3    H1 8811   6.258   3.101   1.876 -1.3881 -1.3135  1.8261
 2935TIP3    H2 8812   6.172   3.226   1.878  1.2009  0.6512 -0.4809
 2936TIP3   OH2 8813   0.110   5.917   1.551 -0.2102 -0.0584  0.6151
 2936TIP3    H1 8814   0.075   6.002   1.526 -0.0292 -0.2966 -0.5352
 2936TIP3    H2 8815   0.032   5.865   1.573 -0.8727 -1.0057 -3.2326
 2937TIP3   OH2 8816   6.312   2.563   2.978  0.2366 -0.6818 -0.3006
 2937TIP3    H1 8817   6.329   2.645   2.931  1.2782 -0.7937 -0.1596
 2937TIP3    H2 8818   6.223   2.538   2.954  0.8529 -0.9338 -2.5194
 2938TIP3   OH2 8819   5.961   5.077   1.402  0.2395  0.4731  0.0746
 2938TIP3    H1 8820   5.885   5.120   1.443 -0.2345  0.5047 -0.8147
 2938TIP3    H2 8821   5.986   5.135   1.330 -1.1421 -1.2370 -1.8977
 2939TIP3   OH2 8822   4.852   5.713   0.679  0.3643 -0.0886  0.5862
 2939TIP3    H1 8823   4.869   5.771   0.753  0.9131  0.1185  0.3020
 2939TIP3    H2 8824   4.909   5.745   0.609  0.7248 -1.0099  0.4434
 2940TIP3   OH2 8825   3.622   5.611   0.906  0.0012  0.2037 -0.2217
 2940TIP3    H1 8826   3.665   5.528   0.927 -1.7535 -0.1993  2.1089
 2940TIP3    H2 8827   3.678   5.678   0.945  1.1337  0.1323 -1.6376
 2941TIP3   OH2 8828   0.324   3.512   2.495  0.1239 -0.4206 -0.7788
 2941TIP3    H1 8829   0.230   3.518   2.512  0.0767 -0.8170 -0.8873
 2941TIP3    H2 8830   0.365   3.565   2.563 -0.0194 -2.3385  0.8999
 2942TIP3   OH2 8831   5.850   5.661   2.919 -0.0587 -0.6578 -0.0531
 2942TIP3    H1 8832   5.904   5.593   2.959  0.9067 -0.7747 -1.4839
 2942TIP3    H2 8833   5.764   5.651   2.960  0.2391 -2.3153  0.2331
 2943TIP3   OH2 8834   2.232   0.840   4.418 -0.1986 -0.5116  0.5680
 2943TIP3    H1 8835   2.233   0.745   4.429 -0.6873 -0.5271  0.5121
 2943TIP3    H2 8836   2.210   0.853   4.325  1.6671 -0.3591  0.1017
 2944TIP3   OH2 8837   5.005   3.345   4.741 -0.0990  0.3006  0.1533
 2944TIP3    H1 8838   4.987   3.265   4.692 -3.0455  0.3470  0.9366
 2944TIP3    H2 8839   4.945   3.341   4.816  0.5092  2.6678  0.8555
 2945TIP3   OH2 8840   5.352   0.484   0.385 -0.2420 -0.3926 -0.0388
 2945TIP3    H1 8841   5.265   0.486   0.424 -0.2959 -0.2454 -0.1641
 2945TIP3    H2 8842   5.337   0.492   0.291 -0.0870 -0.2107 -0.0498
 2946TIP3   OH2 8843   5.415   3.494   2.617 -0.4521 -0.6578 -0.1004
 2946TIP3    H1 8844   5.338   3.474   2.670 -0.6643  2.2545  0.8933
 2946TIP3    H2 8845   5.382   3.551   2.548  0.7554  0.5904  0.3010
 2947TIP3   OH2 8846   2.943   2.537   2.131 -0.1477  0.0639  0.6216
 2947TIP3    H1 8847   2.894   2.517   2.211  0.3413  0.0205  0.9146
 2947TIP3    H2 8848   3.010   2.469   2.126 -0.6807 -0.4243 -0.2743
 2948TIP3   OH2 8849   0.172   1.207   2.762 -0.6185 -0.2796 -0.3265
 2948TIP3    H1 8850   0.107   1.137   2.772 -1.3592  0.5586  0.9410
 2948TIP3    H2 8851   0.210   1.217   2.849  1.0527 -0.5613 -0.9847
 2949TIP3   OH2 8852   4.789   0.359   0.278  0.0284  0.3863 -0.0790
 2949TIP3    H1 8853   4.776   0.371   0.372 -1.0701 -0.0545 -0.1571
 2949TIP3    H2 8854   4.818   0.445   0.247 -0.1032  0.6773  0.5825
 2950TIP3   OH2 8855   4.024   4.368   0.383 -0.4101 -0.0012  0.3172
 2950TIP3    H1 8856   3.996   4.459   0.371 -0.2139 -0.0609 -0.6214
 2950TIP3    H2 8857   4.118   4.375   0.403  0.0506 -0.0753 -1.6126
 2951TIP3   OH2 8858   2.534   0.711   3.962  0.0379  0.3623  0.3131
 2951TIP3    H1 8859   2.608   0.746   3.913  0.5454 -0.0386  0.7693
 2951TIP3    H2 8860   2.475   0.785   3.973 -0.7822  0.1511 -2.0991
 2952TIP3   OH2 8861   0.660   1.897   3.615 -1.0774 -0.1804  0.2543
 2952TIP3    H1 8862   0.662   1.844   3.695 -0.6027 -1.8640 -0.8274
 2952TIP3    H2 8863   0.568   1.896   3.589 -0.8983 -1.6630 -0.4665
 2953TIP3   OH2 8864   2.430   0.867   3.643 -0.4689  0.2845 -0.3582
 2953TIP3    H1 8865   2.380   0.809   3.702 -0.6320 -1.1612 -1.8306
 2953TIP3    H2 8866   2.496   0.908   3.699 -1.9812  0.6598  1.2418
 2954TIP3   OH2 8867   3.235   0.211   1.244  0.3664  0.9583 -0.6641
 2954TIP3    H1 8868   3.303   0.169   1.191 -0.1361 -2.4361  1.1121
 2954TIP3    H2 8869   3.281   0.277   1.295  1.6188  1.2012 -2.0434
 2955TIP3   OH2 8870   1.127   3.399   5.008 -0.4308  0.0230  0.9608
 2955TIP3    H1 8871   1.142   3.321   4.955  0.5166 -0.2647  1.6301
 2955TIP3    H2 8872   1.059   3.447   4.961  0.0995 -0.4229 -0.2997
 2956TIP3   OH2 8873   1.397   4.251   2.555 -0.1953 -0.0648  0.0840
 2956TIP3    H1 8874   1.357   4.299   2.483  1.3808  1.0480 -0.0965
 2956TIP3    H2 8875   1.442   4.178   2.513  1.4944  1.1001 -0.2091
 2957TIP3   OH2 8876   3.724   3.174   1.886  0.3028 -0.1434  0.5431
 2957TIP3    H1 8877   3.685   3.176   1.799 -1.8165 -1.1303  1.4110
 2957TIP3    H2 8878   3.772   3.257   1.893 -2.4547  1.6286 -0.2787
 2958TIP3   OH2 8879   6.107   0.965   2.063 -0.8125  0.8402  0.5288
 2958TIP3    H1 8880   6.127   1.058   2.050 -1.9334  0.9886 -0.2335
 2958TIP3    H2 8881   6.189   0.928   2.097 -0.4937  2.1927  1.3304
 2959TIP3   OH2 8882   0.981   1.059   2.405  0.6050  0.3645 -0.4010
 2959TIP3    H1 8883   1.051   0.994   2.409 -0.6038 -1.0048 -0.7332
 2959TIP3    H2 8884   0.906   1.016   2.446 -0.3936  1.3418 -1.1499
 2960TIP3   OH2 8885   2.242   2.595   1.434 -0.0073 -0.1099 -0.1535
 2960TIP3    H1 8886   2.205   2.656   1.498  1.0591  0.1201  0.2637
 2960TIP3    H2 8887   2.230   2.638   1.350  0.1041  0.3693  0.0701
 2961TIP3   OH2 8888   3.119   4.242   2.788 -0.4432 -0.5892  0.2217
 2961TIP3    H1 8889   3.101   4.246   2.882 -0.6447  0.9680  0.1442
 2961TIP3    H2 8890   3.058   4.177   2.754  0.3014 -1.8877  1.3000
 2962TIP3   OH2 8891   4.893   1.583   4.368  0.6725 -0.2336 -0.3857
 2962TIP3    H1 8892   4.882   1.509   4.308 -0.0127  0.0951 -0.6804
 2962TIP3    H2 8893   4.821   1.574   4.431  0.5373  0.2230 -0.4708
 2963TIP3   OH2 8894   1.626   2.480   4.055  0.4644  0.5607  0.4690
 2963TIP3    H1 8895   1.531   2.474   4.055  0.4149  1.2566 -0.3184
 2963TIP3    H2 8896   1.655   2.389   4.044 -0.1086  0.4061  0.1876
 2964TIP3   OH2 8897   4.995   4.144   2.313 -0.0422  0.1741  0.3849
 2964TIP3    H1 8898   4.901   4.161   2.307 -0.3189 -1.4929 -0.5388
 2964TIP3    H2 8899   5.033   4.229   2.336 -1.6458  1.1704 -0.4220
 2965TIP3   OH2 8900   3.008   5.543   1.483  0.3574  0.4629  0.5524
 2965TIP3    H1 8901   2.935   5.486   1.510  0.7557 -0.0132  0.6468
 2965TIP3    H2 8902   3.083   5.512   1.535  0.7568  0.5888  0.0578
 2966TIP3   OH2 8903   0.410   0.367   5.008  0.2597 -0.3273 -0.2655
 2966TIP3    H1 8904   0.453   0.443   5.046  1.2746 -0.2292 -1.5420
 2966TIP3    H2 8905   0.352   0.335   5.077  1.9753 -0.1484  1.3260
 2967TIP3   OH2 8906   4.414   5.677   1.845 -0.5353  0.6990 -0.6470
 2967TIP3    H1 8907   4.443   5.676   1.754 -0.1927 -0.7148 -0.5514
 2967TIP3    H2 8908   4.331   5.630   1.844 -0.7199  1.0076 -0.2781
 2968TIP3   OH2 8909   4.304   2.800   1.916 -0.3597 -0.2816 -0.3380
 2968TIP3    H1 8910   4.306   2.799   1.821  1.0177 -0.4173 -0.3223
 2968TIP3    H2 8911   4.310   2.893   1.939  1.8745 -0.3714 -0.3818
 2969TIP3   OH2 8912   5.052   2.248   3.459 -0.2152  0.0263 -0.2886
 2969TIP3    H1 8913   4.968   2.258   3.415  0.4290 -0.0477 -1.5631
 2969TIP3    H2 8914   5.096   2.178   3.411  0.8085  0.4536  0.0141
 2970TIP3   OH2 8915   2.648   2.845   3.204  0.1107  0.5138  0.2364
 2970TIP3    H1 8916   2.733   2.819   3.170 -0.2815  0.4700 -0.7470
 2970TIP3    H2 8917   2.667   2.888   3.287  1.2812  2.2531 -0.8547
 2971TIP3   OH2 8918   2.387   1.008   3.415  0.5853 -0.4880 -0.6253
 2971TIP3    H1 8919   2.379   0.967   3.501 -0.5711 -0.1453 -0.5559
 2971TIP3    H2 8920   2.385   0.935   3.353 -0.1244 -0.6380 -0.4344
 2972TIP3   OH2 8921   0.493   2.748   4.707  0.5893 -0.1416 -0.3655
 2972TIP3    H1 8922   0.402   2.739   4.738  0.4105 -0.2306 -0.9103
 2972TIP3    H2 8923   0.485   2.790   4.622  1.1506  1.0164  0.1359
 2973TIP3   OH2 8924   6.299   1.099   4.963 -0.1442  0.4893  0.3294
 2973TIP3    H1 8925   6.316   1.040   4.890  2.0691  2.2330 -0.6782
 2973TIP3    H2 8926   6.258   1.043   5.030 -0.7424 -1.5017 -1.5862
 2974TIP3   OH2 8927   5.806   4.696   1.457 -0.1377  0.3959  0.2424
 2974TIP3    H1 8928   5.739   4.727   1.396  0.5190  2.0075  0.2912
 2974TIP3    H2 8929   5.783   4.605   1.473  0.3327 -0.4960 -3.3449
 2975TIP3   OH2 8930   3.578   3.906   0.344  0.4440  0.3233 -0.3680
 2975TIP3    H1 8931   3.536   3.913   0.430  0.0389 -0.3031 -0.5161
 2975TIP3    H2 8932   3.560   3.990   0.302 -2.9650 -0.8324 -1.4741
 2976TIP3   OH2 8933   1.115   4.211   3.835  0.1073 -0.1728  0.2196
 2976TIP3    H1 8934   1.131   4.227   3.928  0.5131  1.2565 -0.0763
 2976TIP3    H2 8935   1.044   4.270   3.812 -0.5747 -1.1326 -0.1960
 2977TIP3   OH2 8936   1.248   3.880   1.197 -0.4889  0.0175 -0.0895
 2977TIP3    H1 8937   1.198   3.961   1.188 -1.1903 -0.4320 -0.3380
 2977TIP3    H2 8938   1.226   3.848   1.285 -0.3401  0.0156 -0.0533
 2978TIP3   OH2 8939   2.920   5.275   4.893  0.3027 -0.3866 -0.4158
 2978TIP3    H1 8940   2.932   5.363   4.928 -1.0843  0.7607 -2.6492
 2978TIP3    H2 8941   3.005   5.252   4.856  0.9382 -0.4087  1.0097
 2979TIP3   OH2 8942   2.600   2.454   4.880  0.1813  0.4461 -0.1182
 2979TIP3    H1 8943   2.681   2.502   4.863  0.4344  0.1855  0.3209
 2979TIP3    H2 8944   2.628   2.365   4.898 -0.2050  0.3483  0.0112
 2980TIP3   OH2 8945   4.851   4.117   1.643 -0.0516  0.6731  0.6151
 2980TIP3    H1 8946   4.869   4.136   1.551 -1.8329  0.9269  0.2844
 2980TIP3    H2 8947   4.938   4.112   1.684  0.7901  0.1155 -1.1487
 2981TIP3   OH2 8948   2.263   0.544   3.708  0.2095 -0.5981  0.6519
 2981TIP3    H1 8949   2.258   0.580   3.796 -2.3073 -0.5082  0.5361
 2981TIP3    H2 8950   2.200   0.595   3.657  0.4700 -1.6770 -0.8220
 2982TIP3   OH2 8951   0.080   1.695   0.189  0.4683  0.4577  0.7859
 2982TIP3    H1 8952   0.160   1.724   0.145 -0.6192  0.3668 -1.4072
 2982TIP3    H2 8953   0.063   1.608   0.152 -1.7669  1.3512 -0.4696
 2983TIP3   OH2 8954   2.824   0.656   1.008  0.5643  0.1013  0.2698
 2983TIP3    H1 8955   2.791   0.738   1.045 -0.2610 -0.6110  1.1500
 2983TIP3    H2 8956   2.858   0.680   0.922 -3.2389  0.7147 -1.2229
 2984TIP3   OH2 8957   4.756   4.911   0.354 -0.2448 -0.5713  0.0917
 2984TIP3    H1 8958   4.697   4.912   0.278 -1.1534 -0.6473  0.7840
 2984TIP3    H2 8959   4.702   4.939   0.427  0.6556 -0.3893  0.7044
 2985TIP3   OH2 8960   1.412   2.502   2.818  0.5703 -0.1008  0.5294
 2985TIP3    H1 8961   1.461   2.458   2.748 -2.2468 -0.0811 -1.6149
 2985TIP3    H2 8962   1.421   2.595   2.799 -1.2133 -0.1308 -0.6239
 2986TIP3   OH2 8963   0.020   0.908   4.751  0.0304 -0.2035  0.4589
 2986TIP3    H1 8964   0.098   0.861   4.724 -0.5291 -0.4741 -0.7888
 2986TIP3    H2 8965  -0.043   0.840   4.775 -0.2001 -0.0435  0.3215
 2987TIP3   OH2 8966   3.643   5.697   4.088 -0.3381 -0.2696 -0.1536
 2987TIP3    H1 8967   3.724   5.692   4.139 -1.3716  0.0938  1.6398
 2987TIP3    H2 8968   3.621   5.791   4.088 -2.1954 -0.6103  1.9273
 2988TIP3   OH2 8969   4.114   3.108   2.098  0.0828 -0.2364 -0.0304
 2988TIP3    H1 8970   4.053   3.036   2.112  0.8524 -1.0171 -0.5897
 2988TIP3    H2 8971   4.161   3.116   2.181  0.1498 -0.5227 -0.0409
 2989TIP3   OH2 8972   2.035   3.428   3.524  0.1126 -0.5634 -0.1116
 2989TIP3    H1 8973   2.039   3.482   3.604  1.0198 -0.8040  0.0199
 2989TIP3    H2 8974   2.063   3.341   3.553 -1.0396 -1.0411 -0.3884
 2990TIP3   OH2 8975   0.822   5.753   2.860  0.3015 -0.0161  0.0582
 2990TIP3    H1 8976   0.906   5.730   2.898 -0.0148 -2.6779 -0.6522
 2990TIP3    H2 8977   0.761   5.755   2.934  0.6149 -0.0559  0.3163
 2991TIP3   OH2 8978   5.465   0.699   4.195  0.4451  0.1871  0.1281
 2991TIP3    H1 8979   5.535   0.755   4.229  0.2007  0.0779  0.8376
 2991TIP3    H2 8980   5.385   0.735   4.234  0.0140  0.7360 -1.2173
 2992TIP3   OH2 8981   3.019   0.510   0.827 -0.6134  0.2639 -0.4197
 2992TIP3    H1 8982   2.992   0.490   0.917 -2.6232  3.2350 -0.2291
 2992TIP3    H2 8983   3.014   0.426   0.781 -2.0581 -0.8567  1.6615
 2993TIP3   OH2 8984   1.731   3.946   4.921 -0.2946 -0.5288 -0.2423
 2993TIP3    H1 8985   1.802   3.959   4.985  1.2210  1.0203 -2.1445
 2993TIP3    H2 8986   1.672   3.885   4.965  1.0000 -0.0640  2.3748
 2994TIP3   OH2 8987   3.952   5.125   1.454 -0.3385 -0.2656 -0.2320
 2994TIP3    H1 8988   3.986   5.215   1.448  0.3739 -0.4305  1.0577
 2994TIP3    H2 8989   4.018   5.072   1.409  1.4005 -0.6191  2.4839
 2995TIP3   OH2 8990   5.606   1.546   4.094  0.1147 -0.0428 -0.2616
 2995TIP3    H1 8991   5.568   1.515   4.011 -0.1141 -0.4299 -0.0164
 2995TIP3    H2 8992   5.530   1.572   4.146  0.1900 -0.6947  0.1838
 2996TIP3   OH2 8993   2.945   1.412   0.908 -0.3199 -0.0995  0.2873
 2996TIP3    H1 8994   2.906   1.419   0.820 -0.2843 -1.1376  0.1758
 2996TIP3    H2 8995   2.915   1.327   0.940 -0.2798  0.2492  1.2617
 2997TIP3   OH2 8996   5.236   2.912   0.075  0.0863 -0.5434  0.3555
 2997TIP3    H1 8997   5.244   2.912  -0.020  0.7394  2.1347  0.3511
 2997TIP3    H2 8998   5.145   2.887   0.092 -0.3872  0.1538 -1.0359
 2998TIP3   OH2 8999   4.029   4.704   3.955 -0.0920  0.2450  0.3894
 2998TIP3    H1 9000   4.087   4.670   3.887 -0.8557 -1.2516  0.4498
 2998TIP3    H2 9001   3.961   4.750   3.907  0.0135  0.2121  0.2050
 2999TIP3   OH2 9002   0.545  -0.004   2.837  0.4771  0.2706 -0.0020
 2999TIP3    H1 9003   0.461   0.040   2.824  0.0171 -0.4156  0.5202
 2999TIP3    H2 9004   0.577   0.031   2.920  1.4384  1.6285 -0.9103
 3000TIP3   OH2 9005   2.063   4.280   1.978  0.5556 -0.3294  0.2595
 3000TIP3    H1 9006   2.099   4.335   1.909 -1.1232 -1.6836 -1.7981
 3000TIP3    H2 9007   2.042   4.341   2.049  0.4525  1.4050 -1.1926
 3001TIP3   OH2 9008   1.671   5.139   2.453 -0.2807  0.6141  0.4200
 3001TIP3    H1 9009   1.645   5.070   2.514 -0.9677 -0.0642 -0.6079
 3001TIP3    H2 9010   1.763   5.156   2.473 -0.3533  0.0598  1.2902
 3002TIP3   OH2 9011   0.151   2.267   0.779 -0.0893 -0.3084  0.1201
 3002TIP3    H1 9012   0.149   2.222   0.864 -1.7430 -0.1700  0.1747
 3002TIP3    H2 9013   0.204   2.210   0.723  1.8668  0.0815  1.4835
 3003TIP3   OH2 9014   4.358   3.761   1.896  0.2604 -0.3275  0.2215
 3003TIP3    H1 9015   4.316   3.820   1.958  3.1562  0.3012  1.7393
 3003TIP3    H2 9016   4.359   3.810   1.814  0.0512  0.5452  0.7263
 3004TIP3   OH2 9017   3.436   5.269   3.923 -0.3123  0.2485  0.1802
 3004TIP3    H1 9018   3.371   5.241   3.859 -1.4775  0.9223  1.0194
 3004TIP3    H2 9019   3.434   5.202   3.991 -0.4704  0.4915  0.4217
 3005TIP3   OH2 9020   3.680   0.276   2.533 -0.6630  0.2083  0.4907
 3005TIP3    H1 9021   3.695   0.322   2.615 -0.1556  0.4098  0.2895
 3005TIP3    H2 9022   3.711   0.187   2.549  3.2282  1.1840 -0.6440
 3006TIP3   OH2 9023   5.934   1.464   0.467 -0.3080 -0.2161  0.1087
 3006TIP3    H1 9024   5.919   1.553   0.499 -1.3339 -0.7572  1.2355
 3006TIP3    H2 9025   5.917   1.469   0.372 -0.6403  0.7272  0.2103
 3007TIP3   OH2 9026   3.710   2.374   1.304 -0.3614  0.3594 -0.5073
 3007TIP3    H1 9027   3.615   2.377   1.317 -0.3539  0.4815 -0.4760
 3007TIP3    H2 9028   3.731   2.460   1.268 -0.3516  0.1071 -1.1220
 3008TIP3   OH2 9029   4.360   2.070   0.656  0.1559  0.0867  0.1189
 3008TIP3    H1 9030   4.283   2.017   0.677 -2.1695  2.6085 -1.4211
 3008TIP3    H2 9031   4.399   2.027   0.580 -0.8203 -0.2219 -0.2206
 3009TIP3   OH2 9032   6.118   4.463   2.354  0.6638 -0.5062  0.6304
 3009TIP3    H1 9033   6.105   4.501   2.441 -1.4159 -1.3965  0.7632
 3009TIP3    H2 9034   6.080   4.527   2.294  0.8374 -0.5344  0.4902
 3010TIP3   OH2 9035   2.052   4.344   0.866  0.2938  0.4814 -0.1286
 3010TIP3    H1 9036   2.054   4.336   0.962 -3.3495  1.2900  0.1613
 3010TIP3    H2 9037   2.010   4.428   0.850  0.0837 -0.0061 -2.4398
 3011TIP3   OH2 9038   6.083   2.114   4.714 -0.5015 -0.3564  0.3157
 3011TIP3    H1 9039   6.161   2.145   4.759  0.9796 -2.7648 -0.4224
 3011TIP3    H2 9040   6.086   2.158   4.628  0.9389 -1.5580 -0.2939
 3012TIP3   OH2 9041   3.950   5.520   2.104 -0.2180  0.0012  0.4513
 3012TIP3    H1 9042   3.885   5.577   2.144 -0.9476 -0.4903 -0.0187
 3012TIP3    H2 9043   3.921   5.511   2.013 -0.1782 -1.2127  0.5475
 3013TIP3   OH2 9044   2.545   0.355   1.557  0.2074  0.4358  0.4937
 3013TIP3    H1 9045   2.511   0.386   1.473  2.3555 -0.3005 -0.7313
 3013TIP3    H2 9046   2.610   0.421   1.583 -0.1286  0.4376  1.3644
 3014TIP3   OH2 9047   4.045   2.290   1.395 -0.0290 -0.2761  0.6732
 3014TIP3    H1 9048   4.119   2.351   1.400  0.1912 -0.5221  0.4449
 3014TIP3    H2 9049   3.997   2.318   1.317 -0.1079 -0.1894  0.7542
 3015TIP3   OH2 9050   4.547   0.105   2.694  0.2312 -0.4711  0.2539
 3015TIP3    H1 9051   4.511   0.193   2.682  0.7017 -0.3223 -0.0626
 3015TIP3    H2 9052   4.640   0.114   2.676  0.1163 -1.2453 -0.8135
 3016TIP3   OH2 9053   0.172   3.813   3.636  0.1609  0.0978 -0.2860
 3016TIP3    H1 9054   0.191   3.760   3.559 -0.5930 -0.6482  0.0254
 3016TIP3    H2 9055   0.251   3.807   3.690 -0.4375 -1.9345  0.4276
 3017TIP3   OH2 9056   0.516   1.704   4.501  0.1936 -0.0826  0.5325
 3017TIP3    H1 9057   0.600   1.744   4.479 -1.1615  1.6477 -2.0828
 3017TIP3    H2 9058   0.494   1.740   4.587  1.4351  0.6157  0.5859
 3018TIP3   OH2 9059   4.086   4.825   2.011  0.4706 -0.0737 -0.2460
 3018TIP3    H1 9060   4.084   4.737   1.972  0.7985  0.2073 -0.9297
 3018TIP3    H2 9061   4.104   4.883   1.937 -0.7087  0.6805  0.0173
 3019TIP3   OH2 9062   0.786   5.523   0.861 -0.3430 -0.1633 -0.0656
 3019TIP3    H1 9063   0.691   5.514   0.863 -0.3096 -0.5760  1.5551
 3019TIP3    H2 9064   0.809   5.550   0.950  0.8989  1.9046 -0.9455
 3020TIP3   OH2 9065   3.164   3.618   2.857  0.9048  0.3058  0.3593
 3020TIP3    H1 9066   3.131   3.701   2.823  2.1533 -0.1366 -2.0842
 3020TIP3    H2 9067   3.193   3.639   2.946  2.9117  2.9858 -0.7894
 3021TIP3   OH2 9068   2.577   1.699   4.125 -0.0887 -0.0376 -0.4988
 3021TIP3    H1 9069   2.497   1.681   4.075 -0.2400 -0.6745 -0.0443
 3021TIP3    H2 9070   2.572   1.639   4.200  0.1103  0.9378  0.3073
 3022TIP3   OH2 9071   4.043   1.923   1.898 -0.4542 -0.3908 -1.2533
 3022TIP3    H1 9072   4.087   1.971   1.968  0.1057 -1.2348 -1.0139
 3022TIP3    H2 9073   4.112   1.869   1.859 -1.1249 -1.1927 -1.3422
 3023TIP3   OH2 9074   5.849   4.114   2.258  0.7678  0.3754  0.1850
 3023TIP3    H1 9075   5.831   4.183   2.322  0.1563  2.4985 -2.1237
 3023TIP3    H2 9076   5.765   4.068   2.250 -0.1993  2.2282 -1.3695
 3024TIP3   OH2 9077   4.493   4.952   4.448  0.1190 -0.1574 -0.0270
 3024TIP3    H1 9078   4.415   4.999   4.477  2.5185  2.1612  3.3865
 3024TIP3    H2 9079   4.518   4.993   4.365 -1.3040  0.1614 -0.3201
 3025TIP3   OH2 9080   1.979   3.420   2.531 -0.1380 -0.0944 -0.3032
 3025TIP3    H1 9081   1.920   3.496   2.538 -1.1835 -0.8863 -0.1838
 3025TIP3    H2 9082   2.027   3.435   2.450 -0.8834  0.3315 -0.6838
 3026TIP3   OH2 9083   1.779   4.255   4.959 -0.1392  0.9171 -0.0631
 3026TIP3    H1 9084   1.764   4.342   4.994  1.3687  0.7585  1.0662
 3026TIP3    H2 9085   1.707   4.202   4.993 -0.4633  1.4777  0.1226
 3027TIP3   OH2 9086   5.032   1.858   1.134  0.7598  0.3021  0.6078
 3027TIP3    H1 9087   5.044   1.763   1.135  0.0263  0.1678 -0.8483
 3027TIP3    H2 9088   4.938   1.871   1.124  0.7440  1.2140  1.6806
 3028TIP3   OH2 9089   2.944   0.213   0.713  0.0043  0.2897  0.1631
 3028TIP3    H1 9090   2.883   0.288   0.718 -0.8564 -0.4496  1.3283
 3028TIP3    H2 9091   2.892   0.143   0.674 -0.1214 -0.5374  1.7501
 3029TIP3   OH2 9092   3.058   0.691   3.537  0.1248 -0.0867  0.2462
 3029TIP3    H1 9093   3.060   0.768   3.481  1.2917 -0.6363 -0.5164
 3029TIP3    H2 9094   2.980   0.643   3.508 -0.0692  0.3317  0.0655
 3030TIP3   OH2 9095   2.286   5.341   3.897 -0.1837  0.0986 -0.0610
 3030TIP3    H1 9096   2.233   5.417   3.873  2.1267  1.4437 -1.2546
 3030TIP3    H2 9097   2.266   5.275   3.830 -0.2067  0.6674 -0.6238
 3031TIP3   OH2 9098   0.933   0.419   4.960  0.3588  0.1195 -0.0163
 3031TIP3    H1 9099   0.856   0.470   4.936 -0.5872 -1.4266 -0.4239
 3031TIP3    H2 9100   0.898   0.338   4.996  1.7895 -0.8104 -0.6072
 3032TIP3   OH2 9101   0.482   4.600   1.369  0.5001  0.3487  0.0679
 3032TIP3    H1 9102   0.453   4.520   1.412 -0.7777  0.6002 -0.2681
 3032TIP3    H2 9103   0.552   4.572   1.310 -0.0808 -0.5750 -0.2035
 3033TIP3   OH2 9104   0.994   3.630   3.316 -0.2555  0.0816 -0.5228
 3033TIP3    H1 9105   1.087   3.641   3.295  0.1373 -3.7217 -1.4199
 3033TIP3    H2 9106   0.949   3.636   3.231 -0.7167  0.6386 -0.2519
 3034TIP3   OH2 9107   1.735   4.216   2.986 -0.2237  0.1586  0.0607
 3034TIP3    H1 9108   1.641   4.196   2.983 -0.2166  0.1621 -0.1541
 3034TIP3    H2 9109   1.777   4.139   2.949 -0.0260 -0.6691  1.8804
 3035TIP3   OH2 9110   5.234   0.714   2.342  0.1707  0.0905 -0.0562
 3035TIP3    H1 9111   5.281   0.781   2.291 -2.0090  1.7996  0.0244
 3035TIP3    H2 9112   5.251   0.632   2.296  3.3360  0.5148  0.0933
 3036TIP3   OH2 9113   2.436   3.803   0.541 -0.5221  0.1412  0.0566
 3036TIP3    H1 9114   2.385   3.776   0.617 -0.7764 -1.4611 -0.6523
 3036TIP3    H2 9115   2.500   3.866   0.576 -1.3060  0.2216  1.3963
 3037TIP3   OH2 9116   2.813   0.230   1.954  0.2252 -0.7320  0.0207
 3037TIP3    H1 9117   2.863   0.307   1.980 -0.4808  0.2189 -1.3473
 3037TIP3    H2 9118   2.861   0.194   1.880 -0.3224 -0.6472 -0.3815
 3038TIP3   OH2 9119   4.517   2.939   3.201 -0.1936  0.3381 -0.7182
 3038TIP3    H1 9120   4.465   2.960   3.279  1.3214 -2.2543  1.1486
 3038TIP3    H2 9121   4.453   2.904   3.139 -1.0597 -0.5059  0.5939
 3039TIP3   OH2 9122   0.610   5.703   4.520 -0.7148  0.1186  0.7415
 3039TIP3    H1 9123   0.532   5.759   4.525  0.2643  1.6226 -0.1808
 3039TIP3    H2 9124   0.662   5.726   4.597  0.3466  1.5567 -0.3584
 3040TIP3   OH2 9125   0.725   5.643   0.600  0.2097 -0.1320  0.6113
 3040TIP3    H1 9126   0.709   5.702   0.527  0.2613 -1.0847 -0.1828
 3040TIP3    H2 9127   0.732   5.701   0.676 -0.9197  0.7873  0.0481
 3041TIP3   OH2 9128   0.035   0.680   2.786 -0.1472 -0.4294  0.1587
 3041TIP3    H1 9129  -0.060   0.694   2.792 -0.1561  0.3807 -1.3215
 3041TIP3    H2 9130   0.044   0.585   2.773 -0.6324 -0.7337  1.8167
 3042TIP3   OH2 9131   4.938   5.707   4.348  0.5186 -0.4015  0.1551
 3042TIP3    H1 9132   4.903   5.625   4.381  0.6826 -0.3252  0.5309
 3042TIP3    H2 9133   4.937   5.698   4.253 -3.0052  0.5945 -0.0375
 3043TIP3   OH2 9134   2.006   3.198   1.221 -0.3592  0.5841 -0.4967
 3043TIP3    H1 9135   2.076   3.159   1.272  0.8810  3.2307 -0.0170
 3043TIP3    H2 9136   2.039   3.197   1.131  0.0365  1.2582 -0.3629
 3044TIP3   OH2 9137   4.273   2.596   2.883  0.2056  0.5084 -0.3112
 3044TIP3    H1 9138   4.286   2.520   2.939 -2.3360  1.8321  2.3111
 3044TIP3    H2 9139   4.179   2.598   2.866  0.4400  2.1515 -1.7070
 3045TIP3   OH2 9140   2.806   3.475   4.131  0.0401 -0.1860 -0.3239
 3045TIP3    H1 9141   2.868   3.410   4.165  0.2947  0.3901  0.3455
 3045TIP3    H2 9142   2.861   3.548   4.102 -0.3158  0.3282  0.2691
 3046TIP3   OH2 9143   6.253   1.511   4.991 -0.7144  0.2321  0.3732
 3046TIP3    H1 9144   6.312   1.463   4.934 -0.1151  1.1322  0.2114
 3046TIP3    H2 9145   6.198   1.562   4.932 -0.3308  0.8952  0.5796
 3047TIP3   OH2 9146   1.869   1.443   2.358  0.3281  0.1497  0.2192
 3047TIP3    H1 9147   1.890   1.380   2.289  1.6917  0.2882  0.4825
 3047TIP3    H2 9148   1.838   1.389   2.431  0.9717 -0.1855  0.2538
 3048TIP3   OH2 9149   5.121   4.667   1.865 -0.0030 -0.1919 -0.1040
 3048TIP3    H1 9150   5.174   4.687   1.942  1.9871 -0.6803 -1.2749
 3048TIP3    H2 9151   5.080   4.750   1.842 -0.3392  0.0442  1.2335
 3049TIP3   OH2 9152   1.661   1.919   4.513  0.4360  0.1078  0.3022
 3049TIP3    H1 9153   1.590   1.919   4.449  1.6799  2.6039 -1.2696
 3049TIP3    H2 9154   1.641   1.991   4.572  0.7523 -0.3566  0.9896
 3050TIP3   OH2 9155   5.696   5.307   0.721 -0.2729  0.1682  0.1412
 3050TIP3    H1 9156   5.655   5.231   0.763 -1.0456  0.7807  0.5089
 3050TIP3    H2 9157   5.756   5.341   0.788  1.1284 -0.9169 -0.5067
 3051TIP3   OH2 9158   0.817   3.619   3.518  0.0048  0.1629  0.3607
 3051TIP3    H1 9159   0.766   3.539   3.505 -0.0895  0.3974 -0.9089
 3051TIP3    H2 9160   0.866   3.629   3.436  0.4976  1.0575  0.7553
 3052TIP3   OH2 9161   1.459   2.204   1.561  0.0805  0.1743 -0.3317
 3052TIP3    H1 9162   1.421   2.282   1.522  0.2997  0.3987 -0.0962
 3052TIP3    H2 9163   1.455   2.219   1.656  1.2282  0.4288 -0.3136
 3053TIP3   OH2 9164   5.651   2.134   4.962  0.5811 -0.0642 -0.4875
 3053TIP3    H1 9165   5.696   2.072   4.904  0.0823 -0.6063 -0.3094
 3053TIP3    H2 9166   5.699   2.127   5.045  0.4022 -0.3731 -0.4062
 3054TIP3   OH2 9167   1.009   4.275   2.129 -0.2374  0.3309  0.1352
 3054TIP3    H1 9168   1.085   4.235   2.089  0.7490  1.2724  0.9912
 3054TIP3    H2 9169   0.962   4.316   2.057 -1.2776 -2.2390 -0.7681
 3055TIP3   OH2 9170   6.267   4.168   0.840  0.1547 -0.4894 -1.0521
 3055TIP3    H1 9171   6.345   4.150   0.893  0.7636  0.5316 -1.5530
 3055TIP3    H2 9172   6.299   4.166   0.750 -0.7967 -1.8701 -1.3796
 3056TIP3   OH2 9173   1.060   1.621   2.177 -0.2724 -0.3727 -0.3982
 3056TIP3    H1 9174   1.064   1.598   2.085 -0.7707  1.6696 -0.9867
 3056TIP3    H2 9175   0.981   1.579   2.210 -0.7950 -0.0548 -1.2361
 3057TIP3   OH2 9176   0.349   5.715   0.990  0.0808  0.2843  0.9560
 3057TIP3    H1 9177   0.324   5.807   0.992  1.7199  0.7734  2.6681
 3057TIP3    H2 9178   0.445   5.717   0.984  0.4394 -1.1501  4.0523
 3058TIP3   OH2 9179   2.867   3.065   1.784 -0.5216 -0.5168 -0.0291
 3058TIP3    H1 9180   2.848   3.059   1.877  0.0688 -0.2933  0.1127
 3058TIP3    H2 9181   2.793   3.114   1.747 -0.5648 -0.2606  0.3889
 3059TIP3   OH2 9182   5.944   3.296   0.104 -0.3161 -0.0280 -0.0583
 3059TIP3    H1 9183   5.860   3.271   0.143 -0.7725 -0.1251 -1.0509
 3059TIP3    H2 9184   6.003   3.223   0.123  0.0614  0.7892  2.1245
 3060TIP3   OH2 9185   0.580   1.559   5.004 -0.8008 -0.6600 -0.0010
 3060TIP3    H1 9186   0.578   1.635   5.062 -1.9892 -0.2465 -0.5432
 3060TIP3    H2 9187   0.494   1.518   5.015 -0.4422 -1.5184 -0.2619
 3061TIP3   OH2 9188   1.809   3.747   4.378  0.2662 -0.4955  0.4090
 3061TIP3    H1 9189   1.848   3.734   4.464 -0.4446 -1.4330  0.6029
 3061TIP3    H2 9190   1.836   3.836   4.352  0.3300 -0.1372  1.6643
 3062TIP3   OH2 9191   3.478   2.915   3.295  0.1289  0.5646  0.0412
 3062TIP3    H1 9192   3.487   2.873   3.209 -0.1710  0.5277  0.0261
 3062TIP3    H2 9193   3.403   2.871   3.335  0.7579  0.0159  0.6525
 3063TIP3   OH2 9194   1.321   0.983   2.030 -0.0813 -0.0662 -0.2999
 3063TIP3    H1 9195   1.266   0.925   2.083 -1.1938  2.6535  1.8161
 3063TIP3    H2 9196   1.406   0.981   2.073 -0.6250  1.1496  0.9142
 3064TIP3   OH2 9197   0.298   2.607   1.472  0.3252  0.3599  0.0592
 3064TIP3    H1 9198   0.279   2.699   1.457 -2.1355 -0.2735 -1.2717
 3064TIP3    H2 9199   0.213   2.563   1.465  1.5721 -2.1593 -0.6374
 3065TIP3   OH2 9200   0.704   1.774   1.140 -0.2153 -0.2124 -0.3820
 3065TIP3    H1 9201   0.797   1.788   1.123 -0.4267  0.4491 -1.0504
 3065TIP3    H2 9202   0.680   1.697   1.089  0.2089 -1.0888  0.6942
 3066TIP3   OH2 9203   4.028   0.015   4.390 -0.1504 -0.0147  0.6623
 3066TIP3    H1 9204   4.099  -0.043   4.364 -0.9108 -0.3486 -0.7675
 3066TIP3    H2 9205   4.072   0.095   4.419  0.8233  0.4506 -1.8252
 3067TIP3   OH2 9206   2.786   1.254   2.246  0.5663 -0.1675 -0.2947
 3067TIP3    H1 9207   2.764   1.311   2.319  1.6119  0.5459 -0.5286
 3067TIP3    H2 9208   2.749   1.298   2.169  4.1609  1.9955 -0.9642
 3068TIP3   OH2 9209   4.829   0.405   4.882  0.6385 -0.2117 -0.4203
 3068TIP3    H1 9210   4.826   0.500   4.885  0.7401 -0.2364  1.3714
 3068TIP3    H2 9211   4.897   0.380   4.944  0.3083 -1.4757 -0.5219
 3069TIP3   OH2 9212   5.988   2.511   4.102 -0.9619  0.3686 -0.1557
 3069TIP3    H1 9213   6.024   2.466   4.026 -1.6213 -0.9047  0.2582
 3069TIP3    H2 9214   6.002   2.451   4.175 -0.5331  1.4777  0.6986
 3070TIP3   OH2 9215   1.055   3.327   3.312  0.2539 -0.5191 -0.1254
 3070TIP3    H1 9216   1.027   3.382   3.239 -1.6056  0.1060  0.9831
 3070TIP3    H2 9217   1.148   3.312   3.297  0.1024  0.2868 -2.1535
 3071TIP3   OH2 9218   3.408   4.790   0.668 -0.2921  0.3629  0.2492
 3071TIP3    H1 9219   3.331   4.793   0.725  0.7129  1.2643  1.6492
 3071TIP3    H2 9220   3.403   4.871   0.616  0.2667  1.0262  1.1803
 3072TIP3   OH2 9221   2.993   1.191   4.012  0.2872  0.7901  0.0240
 3072TIP3    H1 9222   3.049   1.137   4.069  0.7460  2.6208  1.3856
 3072TIP3    H2 9223   2.971   1.133   3.939  0.6975 -1.2614  1.4363
 3073TIP3   OH2 9224   4.485   2.974   3.859  0.2767  0.1943 -0.0006
 3073TIP3    H1 9225   4.485   2.878   3.863  1.6710  0.2069  1.7472
 3073TIP3    H2 9226   4.472   3.001   3.950 -0.7558  1.6965 -0.5517
 3074TIP3   OH2 9227   4.945   2.347   3.717 -0.2904 -0.1608  0.2756
 3074TIP3    H1 9228   4.978   2.308   3.636 -0.4731  1.2049 -0.4841
 3074TIP3    H2 9229   5.003   2.421   3.735 -2.2803  1.7247 -0.5908
 3075TIP3   OH2 9230   5.968   3.969   2.487  0.3275  0.1826 -0.3800
 3075TIP3    H1 9231   5.901   3.982   2.420  0.5485  0.1370 -0.6154
 3075TIP3    H2 9232   5.921   3.938   2.564 -0.1010  1.4963 -0.0974
 3076TIP3   OH2 9233   1.884   5.620   3.673  0.3233 -0.1047  0.1021
 3076TIP3    H1 9234   1.906   5.712   3.688  0.9538 -0.2511  0.1002
 3076TIP3    H2 9235   1.960   5.571   3.705  1.4830 -0.4700 -2.9156
 3077TIP3   OH2 9236   5.982   5.012   0.356  0.1887 -0.4193  0.1296
 3077TIP3    H1 9237   5.918   4.958   0.404  0.6903 -1.0315  0.1307
 3077TIP3    H2 9238   5.978   5.097   0.399 -1.0242 -0.2716 -0.2229
 3078TIP3   OH2 9239   1.906   3.328   4.620 -0.2512  0.2396 -0.8754
 3078TIP3    H1 9240   1.937   3.263   4.683 -1.2057 -0.0712 -0.7086
 3078TIP3    H2 9241   1.975   3.333   4.554  0.3439 -0.1022 -0.2927
 3079TIP3   OH2 9242   3.310   5.028   2.633 -0.0442 -0.2334  0.1582
 3079TIP3    H1 9243   3.401   5.001   2.645 -0.7181 -2.4248  0.8764
 3079TIP3    H2 9244   3.275   5.035   2.722 -0.1763  2.3953 -0.0121
 3080TIP3   OH2 9245   1.204   4.894   4.509  0.4037  0.2497  0.2017
 3080TIP3    H1 9246   1.292   4.877   4.475  0.9818 -0.0150  1.7722
 3080TIP3    H2 9247   1.216   4.964   4.573 -0.3400 -0.6196  1.3164
 3081TIP3   OH2 9248   3.504   4.869   1.929 -0.2261  0.0753 -0.0306
 3081TIP3    H1 9249   3.444   4.860   2.004 -0.8100  2.2826 -0.1735
 3081TIP3    H2 9250   3.585   4.903   1.967  0.0636 -0.3968 -0.2071
 3082TIP3   OH2 9251   0.875   2.988   1.470 -0.2808 -0.3742  0.0740
 3082TIP3    H1 9252   0.890   3.082   1.463 -0.7372 -0.0811  2.3517
 3082TIP3    H2 9253   0.789   2.980   1.511  0.6554 -1.7025  1.9427
 3083TIP3   OH2 9254   2.083   1.674   0.953  0.0565 -0.1004  0.0906
 3083TIP3    H1 9255   2.130   1.736   1.009  1.7299  0.3585 -1.7240
 3083TIP3    H2 9256   2.009   1.725   0.918  0.2094  0.2305  0.2401
 3084TIP3   OH2 9257   3.197   5.043   0.740  0.0806 -0.0972  0.8104
 3084TIP3    H1 9258   3.247   5.089   0.673 -0.1318 -0.5310  0.3418
 3084TIP3    H2 9259   3.109   5.082   0.736 -0.6585 -1.7501 -0.8961
 3085TIP3   OH2 9260   1.478   2.183   1.223 -0.1542 -0.4182 -0.1848
 3085TIP3    H1 9261   1.440   2.240   1.156 -0.7016 -1.1460 -0.4950
 3085TIP3    H2 9262   1.558   2.229   1.250 -2.1199  2.1880  1.8831
 3086TIP3   OH2 9263   5.728   0.607   2.357  0.2351 -0.0063  0.5672
 3086TIP3    H1 9264   5.729   0.655   2.275 -2.0543 -2.4225 -1.0540
 3086TIP3    H2 9265   5.640   0.623   2.393  0.4221 -0.7370  1.3908
 3087TIP3   OH2 9266   0.464   4.171   3.119  0.0814 -0.6315 -0.0780
 3087TIP3    H1 9267   0.536   4.112   3.140  0.6516  0.1607  0.2364
 3087TIP3    H2 9268   0.493   4.216   3.039 -0.5599 -1.1081 -0.5934
 3088TIP3   OH2 9269   3.089   5.855   0.249  0.2902 -0.7934  0.2766
 3088TIP3    H1 9270   3.101   5.919   0.179  0.8515  0.1714  1.2349
 3088TIP3    H2 9271   3.153   5.786   0.228  0.2186 -0.6821 -0.3383
 3089TIP3   OH2 9272   3.122   1.536   2.791  0.3907  1.2381  0.2368
 3089TIP3    H1 9273   3.032   1.513   2.769  0.8183  0.1046 -0.4039
 3089TIP3    H2 9274   3.133   1.504   2.881  0.3534  0.8034  0.0867
 3090TIP3   OH2 9275   1.266   1.922   4.929  0.2756 -0.1435 -1.0576
 3090TIP3    H1 9276   1.283   2.014   4.950 -1.3707  0.1901 -1.0571
 3090TIP3    H2 9277   1.345   1.876   4.957  1.4488  1.3639 -1.7783
 3091TIP3   OH2 9278   6.097   3.753   0.859  0.6014  0.7971 -0.4273
 3091TIP3    H1 9279   6.091   3.665   0.897  3.2940  0.5981 -0.2217
 3091TIP3    H2 9280   6.030   3.755   0.791  1.1038 -1.8095 -1.1230
 3092TIP3   OH2 9281   2.946   2.514   2.910 -0.2852  0.2702 -0.4765
 3092TIP3    H1 9282   2.979   2.426   2.923 -1.8979 -0.1925  0.7952
 3092TIP3    H2 9283   2.969   2.561   2.990 -1.1323  0.4437 -0.3311
 3093TIP3   OH2 9284   4.962   2.654   0.922 -0.1255  0.0828  0.1810
 3093TIP3    H1 9285   4.938   2.684   0.834 -0.3862  1.3798  0.6693
 3093TIP3    H2 9286   4.925   2.720   0.981 -2.1403 -2.0378  1.4643
 3094TIP3   OH2 9287   3.159   1.263   5.111  0.1955  0.2755 -0.2782
 3094TIP3    H1 9288   3.141   1.188   5.055 -0.4750  1.0656 -1.1514
 3094TIP3    H2 9289   3.181   1.333   5.050 -0.1579  1.0483  0.4675
 3095TIP3   OH2 9290   2.683   4.021   3.795 -0.2947  0.6354  0.8602
 3095TIP3    H1 9291   2.653   3.949   3.850 -0.3102 -0.9096 -1.0490
 3095TIP3    H2 9292   2.779   4.016   3.800 -0.2913  0.3189  0.5755
 3096TIP3   OH2 9293   3.673   4.653   1.555  0.8556  0.3373  0.7435
 3096TIP3    H1 9294   3.680   4.748   1.546 -0.3851  0.3864  0.0228
 3096TIP3    H2 9295   3.642   4.640   1.645  0.6661  0.6398  0.7251
 3097TIP3   OH2 9296   3.649   1.993   2.593 -0.3034  0.4527  0.2798
 3097TIP3    H1 9297   3.595   2.070   2.608 -2.0764 -0.7160  0.2717
 3097TIP3    H2 9298   3.691   2.009   2.509  0.6853  2.0933  1.0392
 3098TIP3   OH2 9299   4.349   2.074   1.135  0.0568  0.0021  0.1629
 3098TIP3    H1 9300   4.292   2.147   1.112  0.0343 -0.4372 -1.2885
 3098TIP3    H2 9301   4.368   2.031   1.051  0.2836 -1.4961  0.9487
 3099TIP3   OH2 9302   0.451   5.521   1.806 -0.5948  0.4954 -0.4399
 3099TIP3    H1 9303   0.391   5.498   1.735  0.2465 -0.9262 -0.7278
 3099TIP3    H2 9304   0.403   5.585   1.858 -1.6419  0.7629 -1.6901
 3100TIP3   OH2 9305   0.943   1.727   2.862 -0.4305 -0.1285  0.1065
 3100TIP3    H1 9306   0.897   1.664   2.805 -0.2629  0.8161 -1.1215
 3100TIP3    H2 9307   0.950   1.806   2.809  1.1045  0.3104  0.9070
 3101TIP3   OH2 9308   4.034   1.678   4.873  0.4017  0.2627 -0.1898
 3101TIP3    H1 9309   4.062   1.656   4.783 -0.0540 -1.1481 -0.0106
 3101TIP3    H2 9310   3.951   1.723   4.862 -0.4305 -1.2780 -0.4320
 3102TIP3   OH2 9311   2.482   0.491   1.031 -0.0270  0.0732 -0.1026
 3102TIP3    H1 9312   2.486   0.586   1.040 -2.7969  0.1933  0.6888
 3102TIP3    H2 9313   2.415   0.476   0.964  0.0173 -1.3189  0.1286
 3103TIP3   OH2 9314   4.564   5.108   5.168  0.2275  0.0527 -0.1220
 3103TIP3    H1 9315   4.652   5.146   5.174  0.0963  0.3111  0.1850
 3103TIP3    H2 9316   4.518   5.163   5.105  0.0571  0.3720  0.2758
 3104TIP3   OH2 9317   5.127   4.223   1.320  0.4894  0.0734  0.1057
 3104TIP3    H1 9318   5.209   4.272   1.310 -0.1145  1.7963  2.6092
 3104TIP3    H2 9319   5.153   4.142   1.364  0.9446  0.2862  0.2344
 3105TIP3   OH2 9320   2.563   1.650   0.321 -0.0880 -0.2341  0.0827
 3105TIP3    H1 9321   2.518   1.579   0.274  1.6190 -0.2755 -1.6297
 3105TIP3    H2 9322   2.503   1.673   0.392 -1.3288 -2.4322 -0.1410
 3106TIP3   OH2 9323   5.493   5.020   0.412 -0.2325 -0.6824  0.2627
 3106TIP3    H1 9324   5.474   5.033   0.319 -1.6483  0.2745  0.6621
 3106TIP3    H2 9325   5.435   4.948   0.438 -0.3572 -0.4790  0.5571
 3107TIP3   OH2 9326   5.183   3.219   0.817 -0.7022 -0.0935  0.0279
 3107TIP3    H1 9327   5.168   3.131   0.782  3.0897 -1.3565  1.0604
 3107TIP3    H2 9328   5.188   3.206   0.912  1.0926  0.9561  0.1226
 3108TIP3   OH2 9329   1.945   3.684   1.552 -0.5456  0.3732  0.0566
 3108TIP3    H1 9330   1.982   3.609   1.506 -0.2170  1.5801 -1.7366
 3108TIP3    H2 9331   2.016   3.716   1.608  0.1683  0.8244 -1.0652
 3109TIP3   OH2 9332   3.525   0.658   2.730  0.2189  0.4482  0.0966
 3109TIP3    H1 9333   3.615   0.628   2.729 -0.2874 -1.1637 -0.2996
 3109TIP3    H2 9334   3.530   0.750   2.754  1.8283 -0.0500  1.8620
 3110TIP3   OH2 9335   2.638   0.270   3.737 -0.2368  0.0756 -0.2588
 3110TIP3    H1 9336   2.544   0.288   3.739 -0.2019  0.2752 -0.3977
 3110TIP3    H2 9337   2.678   0.342   3.784 -0.2232 -0.5019  0.6355
 3111TIP3   OH2 9338   0.060   1.185   4.191 -0.5420 -0.3391 -0.5871
 3111TIP3    H1 9339   0.022   1.106   4.153  0.6574 -2.5033  2.3260
 3111TIP3    H2 9340   0.147   1.191   4.152 -0.7151 -0.2919 -0.9744
 3112TIP3   OH2 9341   1.859   4.616   2.738  0.0200 -0.5060  0.2988
 3112TIP3    H1 9342   1.923   4.592   2.804  0.1388  0.0247  0.3845
 3112TIP3    H2 9343   1.815   4.534   2.715  2.6301 -1.4644 -1.8168
 3113TIP3   OH2 9344   4.795   4.861   1.211 -0.4779  0.1649 -0.3537
 3113TIP3    H1 9345   4.801   4.790   1.275  3.0114  0.6105 -0.0093
 3113TIP3    H2 9346   4.813   4.819   1.127  0.2397  0.4027 -0.3235
 3114TIP3   OH2 9347   3.502   2.382   3.031 -0.0823  0.2322 -0.3429
 3114TIP3    H1 9348   3.520   2.439   2.956  0.1961  0.2679 -0.2520
 3114TIP3    H2 9349   3.460   2.440   3.095 -1.1299  0.0036 -0.8025
 3115TIP3   OH2 9350   6.001   0.442   5.127  0.0411 -0.0721 -0.4229
 3115TIP3    H1 9351   6.009   0.496   5.205 -0.1278  0.2496 -0.6293
 3115TIP3    H2 9352   6.025   0.354   5.157 -1.2829 -0.2183  0.2978
 3116TIP3   OH2 9353   4.513   4.718   0.287 -0.7990 -0.5860  0.0667
 3116TIP3    H1 9354   4.452   4.691   0.219 -1.5625 -3.6752  1.7680
 3116TIP3    H2 9355   4.467   4.699   0.369  1.3829 -0.4043  1.4102
 3117TIP3   OH2 9356   2.904   2.821   4.571 -0.0235  0.7213  0.3484
 3117TIP3    H1 9357   2.990   2.794   4.541  0.1745 -1.2056  2.3306
 3117TIP3    H2 9358   2.885   2.902   4.525  2.2995  0.5224 -1.0534
 3118TIP3   OH2 9359   0.378   5.637   4.018 -0.2831 -0.2427 -0.5916
 3118TIP3    H1 9360   0.391   5.729   4.041  1.2930 -0.1452 -1.7875
 3118TIP3    H2 9361   0.339   5.599   4.097  3.4747  0.4045  1.8305
 3119TIP3   OH2 9362   1.982   1.692   3.494 -0.5340  0.6297  0.1658
 3119TIP3    H1 9363   1.949   1.776   3.527  0.4627  0.4282  1.7813
 3119TIP3    H2 9364   1.969   1.697   3.399 -2.3157  1.7856  0.4317
 3120TIP3   OH2 9365   0.257   3.509   0.333 -0.3381 -0.1871 -0.4079
 3120TIP3    H1 9366   0.252   3.457   0.253  0.2085  0.8808 -1.1577
 3120TIP3    H2 9367   0.264   3.600   0.303  0.7377  0.1782  0.8274
 3121TIP3   OH2 9368   4.346   4.089   3.515 -0.0263 -0.4080  0.1095
 3121TIP3    H1 9369   4.398   4.025   3.564 -1.1088 -1.0749  0.4211
 3121TIP3    H2 9370   4.342   4.055   3.426  1.3807  0.4661 -0.3294
 3122TIP3   OH2 9371   0.440   2.217   0.329 -0.0128 -0.0922  0.0632
 3122TIP3    H1 9372   0.375   2.182   0.269 -1.0202  1.1257  0.3842
 3122TIP3    H2 9373   0.521   2.219   0.279 -1.0574  2.0247 -1.7482
 3123TIP3   OH2 9374   4.519   3.948   2.926 -0.2862 -0.7594 -0.4068
 3123TIP3    H1 9375   4.560   3.940   3.012 -0.0476  0.5984 -0.3699
 3123TIP3    H2 9376   4.593   3.943   2.865 -0.3352 -0.7342 -0.4680
 3124TIP3   OH2 9377   1.778   4.390   1.087 -0.0526 -0.0171 -0.0865
 3124TIP3    H1 9378   1.768   4.430   1.000  0.2686 -2.3667 -1.3088
 3124TIP3    H2 9379   1.758   4.297   1.072 -1.0715 -0.3127  2.6132
 3125TIP3   OH2 9380   1.988   4.256   4.541 -0.2840 -0.2285  0.2579
 3125TIP3    H1 9381   1.913   4.315   4.532 -0.8495 -0.5635  2.3323
 3125TIP3    H2 9382   2.014   4.263   4.633  2.0934 -0.3280 -0.3359
 3126TIP3   OH2 9383   4.515   1.697   2.951 -0.1367 -0.1738 -0.0315
 3126TIP3    H1 9384   4.454   1.626   2.969 -0.8542  0.1036 -1.2842
 3126TIP3    H2 9385   4.561   1.670   2.872  0.8316 -0.0244  0.4663
 3127TIP3   OH2 9386   3.766   0.675   3.993 -0.0467 -0.1715  0.0687
 3127TIP3    H1 9387   3.779   0.749   4.052 -1.5051  0.8040 -0.7465
 3127TIP3    H2 9388   3.687   0.698   3.944  0.3800 -1.5405 -1.3412
 3128TIP3   OH2 9389   2.774   4.642   1.631  0.3350  0.0820  0.1690
 3128TIP3    H1 9390   2.768   4.720   1.686  1.4965 -0.5497  1.2273
 3128TIP3    H2 9391   2.683   4.618   1.615 -0.0337  0.7688  1.1141
 3129TIP3   OH2 9392   1.538   1.356   3.614  0.2455 -0.3102  0.4053
 3129TIP3    H1 9393   1.620   1.320   3.581  0.1990 -1.2755  1.3002
 3129TIP3    H2 9394   1.536   1.446   3.581  1.5791 -0.3327  0.2390
 3130TIP3   OH2 9395   1.525   3.564   3.510  0.0511 -0.1068 -0.2454
 3130TIP3    H1 9396   1.471   3.519   3.445  0.9981 -1.8050  0.0863
 3130TIP3    H2 9397   1.468   3.572   3.586 -0.9678  1.6229 -1.1307
 3131TIP3   OH2 9398   0.489   2.069   2.661  0.2420 -0.2364 -0.1584
 3131TIP3    H1 9399   0.400   2.068   2.627  0.8928  1.0247 -2.0868
 3131TIP3    H2 9400   0.523   2.155   2.636  2.0842 -0.7985  0.2515
 3132TIP3   OH2 9401   5.272   2.015   1.099  0.6524 -0.3254  0.4615
 3132TIP3    H1 9402   5.186   1.976   1.079  0.0526 -0.0070  2.2485
 3132TIP3    H2 9403   5.271   2.099   1.054  1.1707 -1.4262 -1.7952
 3133TIP3   OH2 9404   6.279   3.006   1.015 -0.1834  0.2745  0.4039
 3133TIP3    H1 9405   6.185   3.020   1.005 -0.4494 -0.2484  1.9427
 3133TIP3    H2 9406   6.313   3.002   0.925 -1.5591  0.8767 -0.1566
 3134TIP3   OH2 9407   5.003   2.801   4.223  0.4938 -0.0420 -0.3277
 3134TIP3    H1 9408   4.909   2.819   4.212  0.4225  0.6834  1.2033
 3134TIP3    H2 9409   5.008   2.749   4.303  1.5046  1.1904  0.4518
 3135TIP3   OH2 9410   4.802   3.320   1.988 -0.8561  0.0149  0.0894
 3135TIP3    H1 9411   4.717   3.348   2.023 -1.1465 -0.5567 -0.1430
 3135TIP3    H2 9412   4.866   3.361   2.045 -1.3108 -0.9095  1.3057
 3136TIP3   OH2 9413   5.400   5.654   3.925  0.1657 -0.6762 -0.0491
 3136TIP3    H1 9414   5.459   5.584   3.953  0.5100 -0.4384 -0.1720
 3136TIP3    H2 9415   5.344   5.613   3.859  2.0853 -0.2123 -2.0979
 3137TIP3   OH2 9416   4.528   1.592   3.440 -0.0739 -0.2067 -0.4860
 3137TIP3    H1 9417   4.483   1.588   3.524  0.3293  1.6906 -0.1211
 3137TIP3    H2 9418   4.509   1.681   3.408  1.1595 -0.3203 -1.6039
 3138TIP3   OH2 9419   5.845   1.506   1.640 -0.5525 -0.4222 -0.3461
 3138TIP3    H1 9420   5.806   1.581   1.685 -0.1660  0.4672 -1.4602
 3138TIP3    H2 9421   5.938   1.527   1.635 -0.6744 -0.1557 -2.1539
 3139TIP3   OH2 9422   2.304   5.901   0.426 -0.1909  0.0628  0.0666
 3139TIP3    H1 9423   2.279   5.939   0.510 -0.1483  1.1988 -0.4076
 3139TIP3    H2 9424   2.223   5.899   0.375  0.2911  2.3100 -0.9293
 3140TIP3   OH2 9425   2.597   1.904   4.923  0.3213 -0.5847  0.0406
 3140TIP3    H1 9426   2.615   1.864   5.008  2.3950 -0.5953 -0.3451
 3140TIP3    H2 9427   2.607   1.833   4.859  1.1589 -0.0954 -0.3965
 3141TIP3   OH2 9428   5.095   0.525   3.436 -0.1448 -0.0938  0.1353
 3141TIP3    H1 9429   5.101   0.430   3.448 -2.1651 -0.4157 -1.0178
 3141TIP3    H2 9430   5.049   0.556   3.513  0.1786 -0.0916  0.3302
 3142TIP3   OH2 9431   1.598   3.837   1.108 -0.4921  0.2977  0.1857
 3142TIP3    H1 9432   1.675   3.860   1.057 -0.8313 -1.0543 -0.9986
 3142TIP3    H2 9433   1.562   3.921   1.137 -0.5724  1.1663 -2.2424
 3143TIP3   OH2 9434   5.632   4.165   3.083 -0.4897 -0.5366  0.0269
 3143TIP3    H1 9435   5.672   4.079   3.071 -0.0586 -0.2119 -0.9935
 3143TIP3    H2 9436   5.658   4.214   3.006 -0.3771  0.6565  0.8078
 3144TIP3   OH2 9437   5.752   3.964   0.067 -0.0398  0.0312 -0.2200
 3144TIP3    H1 9438   5.808   3.934   0.139  0.6610  2.2105  0.2135
 3144TIP3    H2 9439   5.682   3.899   0.063  0.0734 -0.3502  2.2075
 3145TIP3   OH2 9440   0.112   2.835   3.250  0.0246  0.2391 -0.2787
 3145TIP3    H1 9441   0.020   2.858   3.235 -0.4704 -1.2047  0.3146
 3145TIP3    H2 9442   0.111   2.786   3.332  1.0779 -1.1361 -1.0326
 3146TIP3   OH2 9443   0.152   5.633   3.872  0.1839 -0.1592 -0.3456
 3146TIP3    H1 9444   0.143   5.706   3.812  0.5578  0.9266  0.8724
 3146TIP3    H2 9445   0.236   5.648   3.916 -0.3407 -0.5993  0.8520
 3147TIP3   OH2 9446   3.994   1.086   1.065 -0.1839 -0.1468 -0.1316
 3147TIP3    H1 9447   3.952   1.031   1.131 -1.0429 -0.5470 -1.0005
 3147TIP3    H2 9448   4.056   1.139   1.115  1.7100 -2.8292  0.5889
 3148TIP3   OH2 9449   2.158   5.608   4.965  0.7188  0.6558 -0.6011
 3148TIP3    H1 9450   2.199   5.690   4.936 -2.1029  2.1683 -0.6040
 3148TIP3    H2 9451   2.174   5.606   5.059  0.8261  1.1853 -0.6027
 3149TIP3   OH2 9452   5.166   5.103   3.316 -0.1308  0.1389 -0.0715
 3149TIP3    H1 9453   5.198   5.013   3.323 -0.2220  0.1010 -0.1395
 3149TIP3    H2 9454   5.196   5.145   3.396 -0.1028  0.0431 -0.0311
 3150TIP3   OH2 9455   5.430   4.083   1.632 -0.4880 -0.0026  0.3152
 3150TIP3    H1 9456   5.459   4.049   1.717 -4.4606 -4.5248  0.2925
 3150TIP3    H2 9457   5.511   4.092   1.581  1.7460 -0.6928  3.4359
 3151TIP3   OH2 9458   5.402   1.571   0.567  0.2375  0.3361  0.1979
 3151TIP3    H1 9459   5.482   1.624   0.571  2.3755 -2.6151  0.2544
 3151TIP3    H2 9460   5.390   1.539   0.657 -1.7487  1.6335  0.4467
 3152TIP3   OH2 9461   1.032   1.660   3.113 -0.2143 -0.6548 -0.0677
 3152TIP3    H1 9462   1.096   1.731   3.107  0.4017 -1.2819 -0.9902
 3152TIP3    H2 9463   0.990   1.659   3.027 -0.5754 -1.0874  0.1114
 3153TIP3   OH2 9464   5.722   2.335   3.535 -0.0274  0.0530 -0.1306
 3153TIP3    H1 9465   5.691   2.414   3.490  0.2217  0.4027  0.2981
 3153TIP3    H2 9466   5.646   2.304   3.584  0.1489  0.6177  0.5147
 3154TIP3   OH2 9467   1.733   4.182   2.363 -0.0883  0.4493  0.0058
 3154TIP3    H1 9468   1.822   4.150   2.374 -0.0129  0.9012  0.8089
 3154TIP3    H2 9469   1.744   4.274   2.337 -0.3050  0.9034  1.4202
 3155TIP3   OH2 9470   5.150   3.759   2.770  0.1717 -0.5352  0.2063
 3155TIP3    H1 9471   5.162   3.680   2.717 -1.0297 -0.1863 -0.6333
 3155TIP3    H2 9472   5.109   3.729   2.851  1.6812 -1.0294  0.8083
 3156TIP3   OH2 9473   0.486   0.725   2.605  0.4198 -0.5347  0.1669
 3156TIP3    H1 9474   0.429   0.693   2.675  0.9272  1.6126  1.6436
 3156TIP3    H2 9475   0.449   0.687   2.525 -1.8811 -0.8080  1.2810
 3157TIP3   OH2 9476   1.958   1.914   1.228  0.2548 -0.5367 -0.3893
 3157TIP3    H1 9477   1.953   2.007   1.250 -0.0739 -0.3691 -1.1278
 3157TIP3    H2 9478   2.031   1.881   1.280  2.0848  0.7003 -2.0091
 3158TIP3   OH2 9479   5.342   4.759   0.448  0.1353 -0.4664 -0.6503
 3158TIP3    H1 9480   5.252   4.758   0.483  0.0042 -1.2761 -0.9882
 3158TIP3    H2 9481   5.395   4.721   0.518  0.3381  0.6304 -0.1775
 3159TIP3   OH2 9482   2.828   1.412   4.901 -0.3231 -0.1286 -0.3323
 3159TIP3    H1 9483   2.877   1.453   4.830 -0.5812  0.8973  0.0683
 3159TIP3    H2 9484   2.829   1.319   4.880 -0.7144  0.1936 -1.8685
 3160TIP3   OH2 9485   2.956   0.830   1.643 -0.3514 -0.2158  0.4143
 3160TIP3    H1 9486   3.007   0.794   1.570  1.1385  0.9340  0.8472
 3160TIP3    H2 9487   2.927   0.753   1.692  0.9216 -0.9230  0.1045
 3161TIP3   OH2 9488   3.920   5.434   1.834 -0.1052  0.0744 -0.4771
 3161TIP3    H1 9489   3.838   5.448   1.787 -1.4501  1.1133  1.9633
 3161TIP3    H2 9490   3.952   5.350   1.804 -3.2038 -1.4004 -0.0091
 3162TIP3   OH2 9491   0.629   4.700   3.324 -0.1071  0.1733  0.3418
 3162TIP3    H1 9492   0.536   4.687   3.344 -0.1074  0.1338  0.3156
 3162TIP3    H2 9493   0.648   4.789   3.354  0.3848 -0.5634  2.4487
 3163TIP3   OH2 9494   1.311   3.276   5.182 -0.1697 -0.2175 -1.1494
 3163TIP3    H1 9495   1.384   3.333   5.205 -1.0432  1.1045 -1.5443
 3163TIP3    H2 9496   1.249   3.333   5.136 -0.0484 -1.9748 -3.6621
 3164TIP3   OH2 9497   6.268   2.480   3.592  0.3692  0.0913  0.2816
 3164TIP3    H1 9498   6.175   2.468   3.614  0.3452 -1.7487 -0.6125
 3164TIP3    H2 9499   6.279   2.434   3.509  2.1900 -0.1939  0.6382
 3165TIP3   OH2 9500   0.246   2.356   4.273  0.0235  0.6288 -0.1330
 3165TIP3    H1 9501   0.312   2.382   4.209 -0.7576  0.0611 -1.2091
 3165TIP3    H2 9502   0.296   2.316   4.345  0.8960  0.9244 -0.5644
 3166TIP3   OH2 9503   4.408   2.351   3.801  0.2276  0.4895 -0.2395
 3166TIP3    H1 9504   4.478   2.364   3.866  0.7101  1.4049 -0.9163
 3166TIP3    H2 9505   4.450   2.370   3.717 -0.7303  0.6335 -0.6973
 3167TIP3   OH2 9506   0.714   2.538   0.909 -0.6203 -1.1662  0.1925
 3167TIP3    H1 9507   0.717   2.515   0.816  2.0481  0.5766 -0.2571
 3167TIP3    H2 9508   0.664   2.620   0.912 -1.4290 -1.6641  0.4177
 3168TIP3   OH2 9509   2.548   2.512   0.065 -0.0390  0.2721  0.2094
 3168TIP3    H1 9510   2.560   2.478   0.154  3.1602  3.2584  1.1290
 3168TIP3    H2 9511   2.481   2.580   0.074 -0.6516 -0.2962  0.0250
 3169TIP3   OH2 9512   1.848   3.352   0.880 -0.2334 -0.5099 -0.2368
 3169TIP3    H1 9513   1.815   3.419   0.940  1.8596 -0.7135  1.2878
 3169TIP3    H2 9514   1.904   3.401   0.819 -0.1295 -0.6516 -0.2543
 3170TIP3   OH2 9515   0.140   4.688   2.446 -0.2895  0.1296 -0.2360
 3170TIP3    H1 9516   0.098   4.663   2.363 -1.0616  0.3289  0.0891
 3170TIP3    H2 9517   0.096   4.769   2.471  1.3078  1.1518 -0.6201
 3171TIP3   OH2 9518   5.731   0.655   3.166  0.7534 -0.4823  0.2402
 3171TIP3    H1 9519   5.645   0.689   3.191  0.8006 -0.6324  0.6290
 3171TIP3    H2 9520   5.750   0.589   3.234  1.2146 -0.3808  0.2091
 3172TIP3   OH2 9521   1.553   1.465   1.445 -0.1941  0.2456 -0.4337
 3172TIP3    H1 9522   1.612   1.421   1.384  0.3659 -1.8406  1.5118
 3172TIP3    H2 9523   1.471   1.417   1.437  0.6560 -1.9110  2.2943
 3173TIP3   OH2 9524   1.570   1.295   0.018 -0.2912  0.3423 -0.5279
 3173TIP3    H1 9525   1.549   1.262   0.105 -2.9545 -0.6343 -1.4543
 3173TIP3    H2 9526   1.619   1.223  -0.023  0.6523  0.6626  0.0058
 3174TIP3   OH2 9527   0.406   4.889   1.961  0.0910  0.5168  0.0598
 3174TIP3    H1 9528   0.338   4.954   1.980 -0.4690  0.0458 -0.3039
 3174TIP3    H2 9529   0.376   4.810   2.007 -0.2248 -0.0347 -1.0653
 3175TIP3   OH2 9530   6.033   4.735   3.836  0.1316  0.4315 -0.4248
 3175TIP3    H1 9531   5.955   4.789   3.827 -0.7308 -0.5932  0.7153
 3175TIP3    H2 9532   6.046   4.727   3.930 -0.1011 -1.8085 -0.5454
 3176TIP3   OH2 9533   5.486   5.017   4.683 -0.0791 -0.6398 -0.0195
 3176TIP3    H1 9534   5.393   4.996   4.675 -0.0112 -1.1455  0.4215
 3176TIP3    H2 9535   5.525   4.983   4.602 -0.3142 -0.1940 -0.3219
 3177TIP3   OH2 9536   5.913   4.790   0.039 -0.3347  0.1049  0.4549
 3177TIP3    H1 9537   5.920   4.795  -0.056 -0.0544  0.2847  0.4862
 3177TIP3    H2 9538   5.984   4.730   0.065 -1.0854 -0.8098  0.4541
 3178TIP3   OH2 9539   2.555   4.986   2.817 -0.1431 -0.4752  0.2676
 3178TIP3    H1 9540   2.512   5.069   2.795 -1.3744 -0.8404  1.2116
 3178TIP3    H2 9541   2.531   4.927   2.745 -0.0941 -0.3049  0.1088
 3179TIP3   OH2 9542   3.560   3.797   2.143  0.2385  0.0989  0.0870
 3179TIP3    H1 9543   3.560   3.707   2.110 -0.4890  0.3117 -0.5160
 3179TIP3    H2 9544   3.648   3.829   2.125  0.6893 -0.6817  0.8473
 3180TIP3   OH2 9545   2.946   2.794   3.697 -0.4515 -0.3088 -0.4089
 3180TIP3    H1 9546   2.873   2.813   3.639 -1.4459  1.5095  1.3331
 3180TIP3    H2 9547   3.016   2.853   3.668  0.2793 -1.7426 -1.7907
 3181TIP3   OH2 9548   5.405   4.578   5.127  0.8082 -0.2378  0.1144
 3181TIP3    H1 9549   5.359   4.537   5.054  1.8706 -0.6904 -0.3227
 3181TIP3    H2 9550   5.347   4.649   5.155  0.3724 -0.0649 -1.1596
 3182TIP3   OH2 9551   1.736   0.364   1.802 -0.6247 -0.0259 -0.1881
 3182TIP3    H1 9552   1.677   0.364   1.877  0.2140 -2.0050  0.5318
 3182TIP3    H2 9553   1.737   0.455   1.772 -1.3545  0.7128  1.8797
 3183TIP3   OH2 9554   0.972   3.877   2.616  0.4249 -0.1039  0.4469
 3183TIP3    H1 9555   0.982   3.800   2.561  2.1224 -0.2411  0.8861
 3183TIP3    H2 9556   0.886   3.912   2.593 -0.2501 -1.9328  0.0157
 3184TIP3   OH2 9557   3.513   3.009   4.374  0.4008  0.2912 -0.1903
 3184TIP3    H1 9558   3.496   2.915   4.373 -2.0910  0.6705 -1.1840
 3184TIP3    H2 9559   3.539   3.028   4.464  3.6412 -1.6541 -0.5345
 3185TIP3   OH2 9560   2.160   0.085   3.025  0.2786  0.0740  0.0321
 3185TIP3    H1 9561   2.065   0.082   3.015  0.2575  1.4992 -0.5235
 3185TIP3    H2 9562   2.195   0.056   2.941  0.3788 -1.4976  0.5875
 3186TIP3   OH2 9563   5.529   5.419   4.004 -0.4086  0.2215  0.6071
 3186TIP3    H1 9564   5.617   5.411   3.966  0.2755  1.3036  1.8804
 3186TIP3    H2 9565   5.497   5.329   4.009  0.4872 -0.1566 -0.2024
 3187TIP3   OH2 9566   3.704   4.124   2.303  0.3066 -0.0149  0.5300
 3187TIP3    H1 9567   3.751   4.077   2.235 -0.5835 -2.9458  1.7724
 3187TIP3    H2 9568   3.768   4.136   2.373  0.3270 -0.1049  0.5268
 3188TIP3   OH2 9569   2.566   1.496   1.804 -0.0472 -0.1263 -0.3909
 3188TIP3    H1 9570   2.600   1.577   1.841  0.1942 -0.3667 -0.0802
 3188TIP3    H2 9571   2.591   1.499   1.712 -0.3662  0.3239 -0.4695
 3189TIP3   OH2 9572   6.272   4.136   0.374  0.2220  0.3668 -0.1064
 3189TIP3    H1 9573   6.338   4.176   0.317 -0.6061  0.4344 -1.0535
 3189TIP3    H2 9574   6.312   4.136   0.461  1.8320 -0.4376 -0.8126
 3190TIP3   OH2 9575   4.548   5.120   2.842 -0.4379  0.2219  0.2026
 3190TIP3    H1 9576   4.491   5.166   2.904 -0.2588  1.0288 -0.2122
 3190TIP3    H2 9577   4.509   5.033   2.833 -0.1695 -0.0862  1.8273
 3191TIP3   OH2 9578   6.034   5.179   4.561 -0.6404  0.3444  0.1368
 3191TIP3    H1 9579   6.080   5.097   4.576  0.9003  1.2683  0.7253
 3191TIP3    H2 9580   5.951   5.154   4.522  0.2356 -1.4227 -0.6851
 3192TIP3   OH2 9581   3.719   4.174   4.654 -0.4652 -0.3490  0.2990
 3192TIP3    H1 9582   3.742   4.256   4.611  1.2294  0.1582  1.9951
 3192TIP3    H2 9583   3.660   4.199   4.725  0.3875 -0.5023  1.0847
 3193TIP3   OH2 9584   0.598   3.321   1.356 -0.2741 -0.3512 -0.1020
 3193TIP3    H1 9585   0.530   3.314   1.422  0.9374  0.7340  1.3293
 3193TIP3    H2 9586   0.592   3.411   1.324  0.4104 -0.2758 -0.0353
 3194TIP3   OH2 9587   4.019   5.775   1.792 -0.7662  0.0589  0.0036
 3194TIP3    H1 9588   4.006   5.713   1.719  0.2001  0.8462 -0.8597
 3194TIP3    H2 9589   3.965   5.850   1.769 -0.2002  0.4470 -0.0854
 3195TIP3   OH2 9590   1.639   3.312   0.503  0.0611 -0.0505  0.5250
 3195TIP3    H1 9591   1.656   3.404   0.483  0.2900 -0.2200 -0.0942
 3195TIP3    H2 9592   1.624   3.310   0.597 -2.1311  0.9701  0.2718
 3196TIP3   OH2 9593   2.060   4.803   4.718  0.2306  0.0640  0.6978
 3196TIP3    H1 9594   2.008   4.725   4.701 -0.6827  0.8395 -0.1720
 3196TIP3    H2 9595   2.086   4.834   4.631  2.0659 -0.2274  1.0958
 3197TIP3   OH2 9596   3.659   3.540   0.143 -0.6506  0.1540  0.0340
 3197TIP3    H1 9597   3.664   3.604   0.073 -0.2583  0.7478  0.5940
 3197TIP3    H2 9598   3.577   3.560   0.188  0.4349  1.6353  1.4768
 3198TIP3   OH2 9599   1.224   2.320   2.139  0.0088 -0.3979  1.0429
 3198TIP3    H1 9600   1.263   2.331   2.052 -0.7933 -0.9603  0.5999
 3198TIP3    H2 9601   1.195   2.408   2.164 -0.4374 -0.3573  0.4043
 3199TIP3   OH2 9602   3.167   1.018   0.153 -0.3801 -0.2720  0.1688
 3199TIP3    H1 9603   3.201   0.931   0.171 -1.0814 -0.5514  0.1686
 3199TIP3    H2 9604   3.114   1.008   0.073 -0.0900  0.2456 -0.0957
 3200TIP3   OH2 9605   2.504   4.010   2.822  0.4598 -0.0529  0.7957
 3200TIP3    H1 9606   2.482   3.991   2.731  2.5542 -0.2040  0.2622
 3200TIP3    H2 9607   2.459   4.092   2.842  1.4153  0.9736 -1.0219
 3201TIP3   OH2 9608   4.584   1.236   4.505 -0.5406 -0.6492 -0.4614
 3201TIP3    H1 9609   4.563   1.148   4.535 -1.7130  0.3878  1.9977
 3201TIP3    H2 9610   4.516   1.292   4.542  0.2896  1.3494 -1.7578
 3202TIP3   OH2 9611   1.077   4.209   5.143  0.6514  0.1279 -0.2169
 3202TIP3    H1 9612   1.002   4.150   5.144  1.3037 -0.7132 -0.0991
 3202TIP3    H2 9613   1.042   4.293   5.174 -0.1755 -0.3210  0.0867
 3203TIP3   OH2 9614   5.109   5.083   3.892  0.2594  0.1119 -0.2361
 3203TIP3    H1 9615   5.093   4.992   3.869  1.4104  0.2821 -1.8747
 3203TIP3    H2 9616   5.156   5.079   3.975  0.4429 -0.7901 -0.3736
 3204TIP3   OH2 9617   0.348   5.875   0.711  0.2276 -0.2635  0.8028
 3204TIP3    H1 9618   0.417   5.940   0.726  1.5267 -1.3376 -0.1857
 3204TIP3    H2 9619   0.363   5.808   0.777  0.6592 -0.8862  0.0922
 3205TIP3   OH2 9620   5.379   4.382   2.824 -0.2941  0.3520  0.5723
 3205TIP3    H1 9621   5.388   4.457   2.884  1.6659  0.0688  0.6980
 3205TIP3    H2 9622   5.458   4.384   2.771 -1.0399 -0.6309 -0.6385
 3206TIP3   OH2 9623   3.131   1.297   2.215 -0.2159  0.3528  0.6740
 3206TIP3    H1 9624   3.149   1.274   2.124  0.5299  0.7525  0.7167
 3206TIP3    H2 9625   3.036   1.290   2.223 -0.4748  2.0021 -0.6022
 3207TIP3   OH2 9626   0.078   1.422   2.621  0.6163  0.0501 -0.0875
 3207TIP3    H1 9627   0.124   1.350   2.665 -1.5603 -0.2087  1.9825
 3207TIP3    H2 9628   0.015   1.378   2.564 -0.8217  0.2355  1.2925
 3208TIP3   OH2 9629   3.190   2.059   0.669  0.2392  0.0628  0.0148
 3208TIP3    H1 9630   3.229   2.145   0.652 -0.9224  1.0946  2.1662
 3208TIP3    H2 9631   3.164   2.062   0.761  1.9361 -3.3517  0.7535
 3209TIP3   OH2 9632   0.346   0.565   0.067 -0.4341 -0.5432  0.1132
 3209TIP3    H1 9633   0.424   0.615   0.090 -0.4586  0.7012 -2.1359
 3209TIP3    H2 9634   0.362   0.477   0.099  1.4566 -0.0664  0.5776
 3210TIP3   OH2 9635   3.431   1.096   3.870  0.2770  0.1745 -0.2941
 3210TIP3    H1 9636   3.401   1.155   3.940 -3.6367 -1.9809  0.1861
 3210TIP3    H2 9637   3.487   1.033   3.915 -0.2550  0.2156  0.4590
 3211TIP3   OH2 9638   4.918   3.897   3.613 -0.1528 -0.3953 -0.4940
 3211TIP3    H1 9639   4.903   3.811   3.653  1.0030  0.2225  1.3674
 3211TIP3    H2 9640   4.832   3.941   3.618 -0.2401 -0.6574  0.5407
 3212TIP3   OH2 9641   5.432   2.134   3.321 -0.0686 -0.1094  0.0269
 3212TIP3    H1 9642   5.437   2.039   3.314  0.4484  0.0163 -2.1271
 3212TIP3    H2 9643   5.428   2.152   3.415  1.6971 -2.1551  0.5474
 3213TIP3   OH2 9644   4.309   1.953   3.885 -0.2617 -0.6188 -0.2237
 3213TIP3    H1 9645   4.300   1.959   3.790  0.7943 -0.3049 -0.3142
 3213TIP3    H2 9646   4.399   1.979   3.902 -1.1667  1.9310  1.1084
 3214TIP3   OH2 9647   4.727   3.094   0.426 -0.4093  0.7020 -0.0101
 3214TIP3    H1 9648   4.636   3.089   0.395 -1.6062  0.2126  3.2285
 3214TIP3    H2 9649   4.725   3.162   0.494  1.1820 -0.7094  1.5261
 3215TIP3   OH2 9650   5.575   1.690   1.472  0.3538  0.7431  0.7271
 3215TIP3    H1 9651   5.591   1.595   1.476  0.4998  0.7508  0.3750
 3215TIP3    H2 9652   5.653   1.725   1.428  0.6347  1.1160  1.5090
 3216TIP3   OH2 9653   3.774   1.346   3.640 -0.0649 -0.1161 -0.2247
 3216TIP3    H1 9654   3.786   1.349   3.546  1.0933  3.0308 -0.0984
 3216TIP3    H2 9655   3.681   1.327   3.652 -0.3989  0.2271 -2.0227
 3217TIP3   OH2 9656   4.910   1.765   3.842 -0.0154  0.1340 -0.8326
 3217TIP3    H1 9657   4.926   1.856   3.818 -1.2911  0.2941 -1.1583
 3217TIP3    H2 9658   4.863   1.728   3.767 -1.3010 -0.2173  0.0933
 3218TIP3   OH2 9659   5.044   1.244   1.060  0.4809 -0.4335 -0.4689
 3218TIP3    H1 9660   5.113   1.263   0.997 -0.0380  2.6555 -0.2367
 3218TIP3    H2 9661   4.968   1.222   1.006  0.8446 -0.9005 -0.7999
 3219TIP3   OH2 9662   0.842   2.230   3.722 -0.4350 -0.2901 -0.3455
 3219TIP3    H1 9663   0.884   2.215   3.637 -0.1056  0.9538 -0.4202
 3219TIP3    H2 9664   0.766   2.286   3.701 -0.5214 -0.2246  0.1370
 3220TIP3   OH2 9665   4.408   2.726   0.216 -0.2787 -1.2998 -0.4040
 3220TIP3    H1 9666   4.347   2.673   0.164 -1.1618 -0.0448 -0.6970
 3220TIP3    H2 9667   4.352   2.775   0.276  0.3768  0.1260 -0.9014
 3221TIP3   OH2 9668   0.445   3.104   4.958  0.0082  0.2528 -0.2523
 3221TIP3    H1 9669   0.497   3.118   5.037  1.2691 -0.4074 -0.9237
 3221TIP3    H2 9670   0.505   3.060   4.898 -0.0192  3.1312 -2.6141
 3222TIP3   OH2 9671   6.172   5.044   2.925  0.2621  0.3207  0.4306
 3222TIP3    H1 9672   6.234   5.096   2.977 -1.0847  1.4722  0.9707
 3222TIP3    H2 9673   6.165   5.091   2.842  1.8198 -1.0928 -0.5662
 3223TIP3   OH2 9674   3.625   3.482   1.769  0.4468  0.1448 -0.0995
 3223TIP3    H1 9675   3.602   3.507   1.859  2.2508  0.4704  0.3124
 3223TIP3    H2 9676   3.699   3.423   1.779 -0.0239 -0.6996 -1.3569
 3224TIP3   OH2 9677   1.193   5.125   5.043 -0.2579  0.1343  0.0167
 3224TIP3    H1 9678   1.224   5.213   5.064 -1.5234  0.1428  2.1518
 3224TIP3    H2 9679   1.163   5.090   5.127 -0.0953 -2.2146 -0.8509
 3225TIP3   OH2 9680   3.560   3.639   1.278 -0.0710 -0.3252 -0.5787
 3225TIP3    H1 9681   3.470   3.653   1.249  0.1865 -1.0118 -1.7677
 3225TIP3    H2 9682   3.554   3.634   1.374 -0.9983  1.6260 -0.4921
 3226TIP3   OH2 9683   5.825   5.004   2.721  0.1561  0.3475 -0.1723
 3226TIP3    H1 9684   5.773   5.041   2.793  0.3656  0.5860 -0.1455
 3226TIP3    H2 9685   5.770   5.015   2.643  0.9590  2.3900 -0.4977
 3227TIP3   OH2 9686   3.157   1.473   3.048 -0.2600  0.5749  0.5142
 3227TIP3    H1 9687   3.085   1.495   3.108 -0.7355 -0.6631  0.4238
 3227TIP3    H2 9688   3.182   1.384   3.072 -1.2510 -0.4286 -1.8804
 3228TIP3   OH2 9689   3.486   0.159   1.106  0.4302  0.0792  0.4282
 3228TIP3    H1 9690   3.511   0.237   1.057 -0.3944  0.5890  0.8024
 3228TIP3    H2 9691   3.565   0.133   1.153  0.8578  0.3628 -0.1285
 3229TIP3   OH2 9692   1.448   0.756   0.283  0.2982 -0.0116  0.5570
 3229TIP3    H1 9693   1.455   0.718   0.370 -1.0510  0.0850  0.7170
 3229TIP3    H2 9694   1.459   0.681   0.224  1.1309 -0.0897  0.7946
 3230TIP3   OH2 9695   4.091   5.774   2.824  0.5215 -0.3896 -0.0384
 3230TIP3    H1 9696   4.103   5.684   2.855  1.4647 -0.1294  0.3919
 3230TIP3    H2 9697   4.168   5.821   2.856 -0.4914  0.8336  0.7024
 3231TIP3   OH2 9698   3.462   2.306   4.990 -0.3946 -0.2366 -0.0551
 3231TIP3    H1 9699   3.385   2.361   4.976  0.4408  0.3631 -2.9954
 3231TIP3    H2 9700   3.426   2.218   5.001 -1.5396  0.0328 -1.3685
 3232TIP3   OH2 9701   5.548   3.778   1.673 -0.2437  0.2785  0.6884
 3232TIP3    H1 9702   5.618   3.840   1.692  1.0378 -0.7818 -0.3132
 3232TIP3    H2 9703   5.524   3.740   1.757  0.0614  0.9920  1.0973
 3233TIP3   OH2 9704   0.612   4.866   4.674  0.7546  0.4573  0.7753
 3233TIP3    H1 9705   0.669   4.943   4.681 -0.1050  0.9986  2.2391
 3233TIP3    H2 9706   0.545   4.891   4.610 -0.0392  1.3039  1.9019
 3234TIP3   OH2 9707   4.661   0.070   4.953 -0.4360 -0.6069  0.4399
 3234TIP3    H1 9708   4.737   0.013   4.966  0.3508  0.3525  0.1965
 3234TIP3    H2 9709   4.652   0.076   4.858 -0.1165  0.1719  0.4548
 3235TIP3   OH2 9710   1.691   0.373   2.255 -0.0264  0.0926 -0.3939
 3235TIP3    H1 9711   1.755   0.437   2.283  2.3184 -1.7204 -1.2914
 3235TIP3    H2 9712   1.677   0.318   2.332 -1.2144  0.9743  0.0519
 3236TIP3   OH2 9713   6.214   2.067   1.957 -0.1727 -0.2365  0.1197
 3236TIP3    H1 9714   6.121   2.083   1.973  0.1235 -0.1773  2.0539
 3236TIP3    H2 9715   6.218   2.031   1.869 -2.2124 -1.7397  0.5715
 3237TIP3   OH2 9716   3.151   2.478   3.326  0.7077 -0.4632  0.1193
 3237TIP3    H1 9717   3.102   2.456   3.405 -0.5288 -1.2607 -0.8243
 3237TIP3    H2 9718   3.092   2.536   3.277  2.1550  1.4663  0.5436
 3238TIP3   OH2 9719   1.882   1.757   0.571 -0.2712  0.1832  0.3773
 3238TIP3    H1 9720   1.857   1.687   0.631  0.8210  0.1276  0.7974
 3238TIP3    H2 9721   1.805   1.771   0.516 -0.9778 -0.3910  1.1993
 3239TIP3   OH2 9722   3.674   1.718   3.295  0.2094 -0.0621 -0.6014
 3239TIP3    H1 9723   3.749   1.771   3.322 -1.5328  2.8183 -0.9326
 3239TIP3    H2 9724   3.674   1.722   3.200 -1.5737  2.0937 -0.6210
 3240TIP3   OH2 9725   4.765   0.949   2.957 -0.2469  0.1928 -0.1886
 3240TIP3    H1 9726   4.788   0.858   2.938 -1.7646 -0.3694  0.5260
 3240TIP3    H2 9727   4.742   0.987   2.872  0.0111 -0.1862 -0.4298
 3241TIP3   OH2 9728   3.463   1.180   1.509 -0.6653  1.0820 -0.2741
 3241TIP3    H1 9729   3.432   1.263   1.544  1.3662  2.2074 -0.9757
 3241TIP3    H2 9730   3.455   1.189   1.414 -2.2937 -0.3446 -0.3161
 3242TIP3   OH2 9731   5.415   1.136   2.639  0.2509 -0.3076  0.1314
 3242TIP3    H1 9732   5.503   1.124   2.676 -0.1765 -2.0200  0.6638
 3242TIP3    H2 9733   5.421   1.101   2.550  0.1335 -0.3557  0.1422
 3243TIP3   OH2 9734   3.533   4.401   0.828  0.1612  0.3474  0.1807
 3243TIP3    H1 9735   3.489   4.456   0.892 -0.1388  0.4966 -0.1470
 3243TIP3    H2 9736   3.535   4.454   0.748 -0.5235 -0.2629 -0.2593
 3244TIP3   OH2 9737   3.019   1.862   1.577  0.0320 -0.0922 -0.2712
 3244TIP3    H1 9738   3.044   1.891   1.490  0.8316  2.8496  0.8177
 3244TIP3    H2 9739   3.101   1.856   1.626 -0.5837  0.8747  0.9486
 3245TIP3   OH2 9740   3.997   3.373   3.267 -0.3834  0.4003 -0.1886
 3245TIP3    H1 9741   4.046   3.450   3.294  0.3760 -0.6573  1.5679
 3245TIP3    H2 9742   3.920   3.371   3.324 -1.1462  0.5857 -1.1595
 3246TIP3   OH2 9743   0.822   1.449   5.099 -0.1795 -0.0373 -0.1643
 3246TIP3    H1 9744   0.846   1.358   5.083  0.3907  0.0426  0.2349
 3246TIP3    H2 9745   0.787   1.450   5.188 -0.6668  0.0430 -0.3535
 3247TIP3   OH2 9746   2.737   3.646   4.690  0.3889  0.2946 -0.8904
 3247TIP3    H1 9747   2.713   3.554   4.694 -0.3409  0.4652 -1.0974
 3247TIP3    H2 9748   2.742   3.666   4.596 -1.3392  0.9024 -0.9103
 3248TIP3   OH2 9749   0.482   4.878   4.939 -0.4749 -0.4790  1.0575
 3248TIP3    H1 9750   0.444   4.966   4.939 -0.2198 -0.3631  0.5156
 3248TIP3    H2 9751   0.519   4.868   4.851 -0.6655 -1.1988  1.0532
 3249TIP3   OH2 9752   3.913   5.625   3.907  0.2588 -0.5043  0.4086
 3249TIP3    H1 9753   3.916   5.551   3.968 -0.5097 -0.9946 -0.1334
 3249TIP3    H2 9754   3.988   5.680   3.932  1.7443 -2.1990 -0.0941
 3250TIP3   OH2 9755   2.498   0.692   2.986 -0.1173  0.1015 -0.3743
 3250TIP3    H1 9756   2.527   0.602   3.001  0.6402  0.3914 -0.0738
 3250TIP3    H2 9757   2.560   0.728   2.923 -1.4176 -0.1026 -1.8027
 3251TIP3   OH2 9758   4.907   3.268   0.223 -0.0116 -0.6447 -0.0534
 3251TIP3    H1 9759   4.841   3.281   0.155  0.6636 -0.9111 -0.7793
 3251TIP3    H2 9760   4.971   3.338   0.207 -0.6387  0.2963  1.3213
 3252TIP3   OH2 9761   6.247   0.648   0.955  0.3602 -0.1885 -0.1432
 3252TIP3    H1 9762   6.240   0.616   1.045 -0.9723 -0.0015 -0.1562
 3252TIP3    H2 9763   6.172   0.608   0.910 -0.4725  1.7180 -0.5381
 3253TIP3   OH2 9764   2.381   1.894   1.420  0.0029 -0.1526  0.3756
 3253TIP3    H1 9765   2.461   1.846   1.439  0.0982  0.6553  2.2011
 3253TIP3    H2 9766   2.403   1.950   1.346  1.1646  0.1564  0.9463
 3254TIP3   OH2 9767   2.585   3.253   2.141  0.2748  0.4172  0.1210
 3254TIP3    H1 9768   2.579   3.349   2.136  1.1120  0.4207 -1.8203
 3254TIP3    H2 9769   2.511   3.222   2.088  1.5105  0.0769 -1.4859
 3255TIP3   OH2 9770   1.070   2.299   2.689 -1.2026 -0.0946 -0.2488
 3255TIP3    H1 9771   1.123   2.280   2.766  0.4219  2.0127 -0.7281
 3255TIP3    H2 9772   1.043   2.390   2.701 -0.9192  0.2821 -2.1186
 3256TIP3   OH2 9773   6.075   0.313   2.471  0.3603 -0.0733 -0.0872
 3256TIP3    H1 9774   6.034   0.279   2.390  0.6848  1.9396 -1.1510
 3256TIP3    H2 9775   6.159   0.268   2.475  0.9336  0.7804 -1.6525
 3257TIP3   OH2 9776   1.706   1.153   4.046  0.0096  0.3033 -0.1466
 3257TIP3    H1 9777   1.716   1.130   3.954 -0.6468 -0.2672 -0.0807
 3257TIP3    H2 9778   1.796   1.155   4.080  0.1555 -1.3661 -0.3603
 3258TIP3   OH2 9779   0.248   3.739   1.235  0.3547  0.2476 -0.2132
 3258TIP3    H1 9780   0.203   3.823   1.243  0.2842  0.2832 -0.9446
 3258TIP3    H2 9781   0.330   3.759   1.190  0.3390 -0.0733 -0.3935
 3259TIP3   OH2 9782   2.952   5.637   4.262  0.3665 -0.3118  0.4961
 3259TIP3    H1 9783   2.938   5.542   4.261  0.7907 -0.3794 -0.6134
 3259TIP3    H2 9784   2.998   5.656   4.180 -2.2099  1.2120 -0.7329
 3260TIP3   OH2 9785   4.998   3.453   3.186 -0.1631  0.3118 -0.0209
 3260TIP3    H1 9786   4.978   3.361   3.205  1.8885 -0.2518 -0.3376
 3260TIP3    H2 9787   4.992   3.497   3.271  0.2625 -0.4285  0.4024
 3261TIP3   OH2 9788   4.526   2.205   4.886 -0.5842  0.5610 -0.2137
 3261TIP3    H1 9789   4.600   2.229   4.942 -0.6751 -0.0887  0.1951
 3261TIP3    H2 9790   4.528   2.110   4.884 -0.1320  0.5773 -1.9318
 3262TIP3   OH2 9791   1.596   0.250   2.840  0.3521  0.9812 -0.0095
 3262TIP3    H1 9792   1.640   0.285   2.764  0.3620  1.7441  0.3398
 3262TIP3    H2 9793   1.502   0.263   2.822  0.3368  0.8212 -0.0506
 3263TIP3   OH2 9794   5.827   1.088   1.878  0.6733 -0.3255 -0.3397
 3263TIP3    H1 9795   5.891   1.050   1.818 -0.3315 -1.4207 -0.7692
 3263TIP3    H2 9796   5.751   1.106   1.823  1.0805  2.3142 -0.1263
 3264TIP3   OH2 9797   5.215   4.445   2.584  0.1970  0.2184 -0.2269
 3264TIP3    H1 9798   5.299   4.490   2.587 -0.3836  1.3140  0.0250
 3264TIP3    H2 9799   5.222   4.378   2.652  0.6681  0.6688  0.1802
 3265TIP3   OH2 9800   3.488   2.994   4.646  0.3060 -0.3099  0.6804
 3265TIP3    H1 9801   3.548   2.931   4.687  0.0082  0.0841  1.7824
 3265TIP3    H2 9802   3.405   2.947   4.637  0.1165 -0.1265  1.3939
 3266TIP3   OH2 9803   5.036   5.567   1.053  0.4036  0.7306 -0.1890
 3266TIP3    H1 9804   5.130   5.553   1.040  0.4899  0.4545  0.6349
 3266TIP3    H2 9805   5.031   5.635   1.120  0.0088  1.2658 -0.7553
 3267TIP3   OH2 9806   1.920   4.021   0.666  0.0319  0.5299 -0.1076
 3267TIP3    H1 9807   1.988   4.087   0.653  0.2930 -0.0166 -1.9317
 3267TIP3    H2 9808   1.881   4.010   0.579 -0.0992 -1.5789  0.1627
 3268TIP3   OH2 9809   5.584   1.413   1.514 -0.2970 -0.0650 -0.1039
 3268TIP3    H1 9810   5.507   1.361   1.535  0.3929 -2.5242 -2.9681
 3268TIP3    H2 9811   5.657   1.351   1.517  1.6550  2.0967  2.1514
 3269TIP3   OH2 9812   2.865   1.787   2.808 -0.2943  0.0925  0.1659
 3269TIP3    H1 9813   2.835   1.862   2.756  0.7578  0.8713  0.6572
 3269TIP3    H2 9814   2.815   1.794   2.890 -1.8605 -1.0647 -0.6337
 3270TIP3   OH2 9815   2.613   0.769   1.701  0.0840 -0.0402  0.6763
 3270TIP3    H1 9816   2.605   0.807   1.613 -0.3900 -1.5145  0.0414
 3270TIP3    H2 9817   2.606   0.844   1.760  1.0939  1.0729 -0.5500
 3271TIP3   OH2 9818   4.924   2.821   3.651 -0.1301 -0.0506 -0.1688
 3271TIP3    H1 9819   4.895   2.794   3.564 -0.6434  0.9357 -0.3222
 3271TIP3    H2 9820   5.017   2.839   3.640 -0.4716  1.4707 -0.9051
 3272TIP3   OH2 9821   4.979   1.011   4.467  0.2515 -0.2826 -0.8215
 3272TIP3    H1 9822   4.894   1.000   4.424 -0.0038 -0.7373 -0.2120
 3272TIP3    H2 9823   4.959   1.010   4.561  0.9761 -0.8351 -0.6655
 3273TIP3   OH2 9824   2.673   1.039   3.128 -0.7359  0.3624 -0.1756
 3273TIP3    H1 9825   2.652   1.128   3.158 -0.5831  0.6435 -0.8670
 3273TIP3    H2 9826   2.613   0.983   3.176 -0.5732  0.8033  0.5576
 3274TIP3   OH2 9827   0.427   2.466   0.436 -0.1554 -0.1974  0.0458
 3274TIP3    H1 9828   0.357   2.494   0.378 -0.1663  0.6000  0.4151
 3274TIP3    H2 9829   0.444   2.375   0.414 -1.6857 -0.5681  0.3211
 3275TIP3   OH2 9830   4.627   3.252   4.209 -0.1437 -0.3337 -0.7570
 3275TIP3    H1 9831   4.567   3.252   4.283 -0.4301 -1.2263 -0.9803
 3275TIP3    H2 9832   4.709   3.216   4.244 -0.0850 -0.1719 -0.7264
 3276TIP3   OH2 9833   4.834   4.373   1.796 -0.0448 -0.2927 -0.1459
 3276TIP3    H1 9834   4.775   4.376   1.722  0.9291 -1.9206 -1.0428
 3276TIP3    H2 9835   4.914   4.415   1.765 -0.2342  0.6674  0.6090
 3277TIP3   OH2 9836   1.771   4.926   1.471 -0.1703  0.6714 -0.5637
 3277TIP3    H1 9837   1.693   4.883   1.508 -0.1903  0.0425 -1.3089
 3277TIP3    H2 9838   1.844   4.884   1.516 -0.2481  1.3690  0.2484
 3278TIP3   OH2 9839   6.063   2.333   0.489 -0.0924 -0.1082  0.4063
 3278TIP3    H1 9840   6.022   2.260   0.535  1.1445 -0.7773  0.4975
 3278TIP3    H2 9841   6.123   2.292   0.427  2.0550  0.7631  1.7520
 3279TIP3   OH2 9842   4.122   0.085   2.209 -0.2674 -0.3518  0.0096
 3279TIP3    H1 9843   4.071   0.141   2.269  1.3724  0.8605  0.3263
 3279TIP3    H2 9844   4.175   0.146   2.159  1.0546 -1.5899 -0.1476
 3280TIP3   OH2 9845   2.226   4.366   3.426  0.3549  0.5037  0.1409
 3280TIP3    H1 9846   2.272   4.420   3.489 -1.0234 -0.8306  2.4536
 3280TIP3    H2 9847   2.281   4.288   3.417  0.0138  0.1924  0.6442
 3281TIP3   OH2 9848   5.155   5.650   3.651 -0.0241 -0.1281  0.5283
 3281TIP3    H1 9849   5.224   5.685   3.594 -1.3323  1.4204 -0.1717
 3281TIP3    H2 9850   5.197   5.576   3.696  1.8652  0.3062 -0.4020
 3282TIP3   OH2 9851   3.097   3.313   2.202 -0.4565 -0.2119  0.0929
 3282TIP3    H1 9852   3.105   3.298   2.296  0.3713  0.6421  0.1755
 3282TIP3    H2 9853   3.055   3.398   2.195  0.6602  0.3221 -0.2862
 3283TIP3   OH2 9854   5.467   1.622   3.035  0.1594 -0.3414 -0.5159
 3283TIP3    H1 9855   5.462   1.710   2.996  0.7077 -0.6463 -1.3124
 3283TIP3    H2 9856   5.378   1.587   3.024 -0.1854  0.2690  0.2163
 3284TIP3   OH2 9857   2.697   0.351   3.228  0.2391  0.0617 -0.1019
 3284TIP3    H1 9858   2.702   0.369   3.322  0.9131  1.3530 -0.3736
 3284TIP3    H2 9859   2.786   0.327   3.203  0.1997  0.3528 -0.5380
 3285TIP3   OH2 9860   4.283   1.249   1.965  0.4067 -0.3872 -0.4304
 3285TIP3    H1 9861   4.309   1.219   1.878  1.3187  1.4052 -0.8319
 3285TIP3    H2 9862   4.201   1.203   1.983  0.1508 -0.7347 -2.2786
 3286TIP3   OH2 9863   3.529   4.540   0.595  0.0355  0.0190  0.4652
 3286TIP3    H1 9864   3.622   4.544   0.617  0.2690  2.9307 -0.6037
 3286TIP3    H2 9865   3.496   4.628   0.613 -2.4476 -0.8041  0.3777
 3287TIP3   OH2 9866   2.333   2.071   2.799 -0.6881 -0.7852  0.1684
 3287TIP3    H1 9867   2.329   2.164   2.821 -1.3430 -0.9561  0.8128
 3287TIP3    H2 9868   2.271   2.062   2.726  0.7302 -0.4072 -1.1634
 3288TIP3   OH2 9869   5.059   4.607   4.337  0.2266 -0.5495  0.0168
 3288TIP3    H1 9870   4.976   4.608   4.384  0.4383 -0.3008  0.3954
 3288TIP3    H2 9871   5.119   4.559   4.395  0.2829 -0.9401 -0.3646
 3289TIP3   OH2 9872   1.615   0.275   4.634  0.0417  0.2771  0.0527
 3289TIP3    H1 9873   1.622   0.182   4.613  0.6657  0.9232 -3.0951
 3289TIP3    H2 9874   1.572   0.277   4.720  1.0379 -2.9002  0.7763
 3290TIP3   OH2 9875   1.535   0.396   1.028  0.0096 -0.3182  0.4687
 3290TIP3    H1 9876   1.576   0.438   0.953  0.8905 -2.3842 -0.2836
 3290TIP3    H2 9877   1.456   0.447   1.045  0.3339  0.7989 -1.1909
 3291TIP3   OH2 9878   4.308   4.318   0.444 -0.1218  0.2311 -0.0221
 3291TIP3    H1 9879   4.343   4.361   0.522 -0.8485 -0.0689  0.4820
 3291TIP3    H2 9880   4.385   4.288   0.397  0.3305  0.3037  0.6543
 3292TIP3   OH2 9881   6.172   1.494   1.297 -0.1723 -0.0662  0.3853
 3292TIP3    H1 9882   6.230   1.504   1.373 -0.4845 -0.8835  0.7419
 3292TIP3    H2 9883   6.189   1.572   1.244  0.0115  0.5548  1.3178
 3293TIP3   OH2 9884   0.679   1.955  -0.021 -0.0931  0.6640 -0.1388
 3293TIP3    H1 9885   0.748   1.890  -0.007  0.7495  1.7146  0.8436
 3293TIP3    H2 9886   0.617   1.939   0.050 -0.4811  0.1960 -0.5817
 3294TIP3   OH2 9887   4.722   3.848   4.704  0.3329 -0.0549  0.1954
 3294TIP3    H1 9888   4.766   3.786   4.645  1.0473 -1.0574  1.7188
 3294TIP3    H2 9889   4.642   3.803   4.730 -1.0035  1.2105 -1.5074
 3295TIP3   OH2 9890   5.157   3.061   4.140 -0.1866 -0.1067  0.1330
 3295TIP3    H1 9891   5.131   2.979   4.183 -0.5108 -0.4530 -0.7024
 3295TIP3    H2 9892   5.123   3.053   4.051  0.9446  0.3642 -0.3555
 3296TIP3   OH2 9893   0.313   3.117   3.597 -0.5110  0.0391  0.5958
 3296TIP3    H1 9894   0.223   3.117   3.565  0.2769 -0.7802 -1.8875
 3296TIP3    H2 9895   0.348   3.032   3.571  1.1795  0.6015  0.8729
 3297TIP3   OH2 9896   2.965   3.517   4.437 -0.1981 -0.2946 -0.4905
 3297TIP3    H1 9897   2.960   3.443   4.376 -0.0452 -0.6917 -0.0209
 3297TIP3    H2 9898   3.013   3.584   4.388 -1.0859 -0.1871 -1.2309
 3298TIP3   OH2 9899   0.481   2.903   3.807  0.4870  0.0579  0.3945
 3298TIP3    H1 9900   0.576   2.904   3.821  0.8478 -1.3263 -1.4938
 3298TIP3    H2 9901   0.470   2.938   3.719 -0.8182  0.6869  0.7886
 3299TIP3   OH2 9902   3.869   3.555   0.372  0.2050  0.0404  0.5034
 3299TIP3    H1 9903   3.896   3.647   0.378 -6.4249  2.4783  0.9454
 3299TIP3    H2 9904   3.828   3.548   0.286 -0.2582 -2.2930  0.8607
 3300TIP3   OH2 9905   5.902   4.331   3.527  0.0101  0.5920 -0.8109
 3300TIP3    H1 9906   5.947   4.411   3.554 -2.7499  2.2296 -0.6096
 3300TIP3    H2 9907   5.898   4.337   3.432  0.6158  0.2168 -0.8590
 3301TIP3   OH2 9908   2.128   3.223   1.785 -0.2438 -0.0692 -0.2651
 3301TIP3    H1 9909   2.149   3.313   1.760  0.8673  0.0617  0.9927
 3301TIP3    H2 9910   2.045   3.230   1.831 -0.0880  0.3473 -0.0428
 3302TIP3   OH2 9911   4.348   3.905   4.122  0.5966 -0.3855  0.8697
 3302TIP3    H1 9912   4.271   3.855   4.096  0.0276  0.7670  0.2676
 3302TIP3    H2 9913   4.318   3.958   4.196  0.7420  0.2130  0.5075
 3303TIP3   OH2 9914   0.793   4.405   1.561  0.5248 -0.0178  0.3989
 3303TIP3    H1 9915   0.786   4.466   1.635 -0.1016 -0.7115  0.9256
 3303TIP3    H2 9916   0.723   4.341   1.576 -0.7681  0.8048 -1.7408
 3304TIP3   OH2 9917   2.750   1.255   3.796  0.6720  0.2319  0.5685
 3304TIP3    H1 9918   2.669   1.281   3.753  0.4927  0.8170  1.2374
 3304TIP3    H2 9919   2.721   1.207   3.874  0.9710  0.2379  0.6831
 3305TIP3   OH2 9920   5.517   5.656   2.250 -0.0012  0.1707 -0.6380
 3305TIP3    H1 9921   5.478   5.742   2.232 -2.5806 -0.5132  1.0653
 3305TIP3    H2 9922   5.565   5.668   2.332 -0.4673  0.0026 -0.3322
 3306TIP3   OH2 9923   4.212   5.341   0.456  0.5053 -0.7545  0.3968
 3306TIP3    H1 9924   4.212   5.433   0.482  0.8019 -0.4815 -0.5403
 3306TIP3    H2 9925   4.234   5.294   0.536  1.1039  0.0426  0.7180
 3307TIP3   OH2 9926   5.787   4.112   0.645 -0.0105 -0.4970  0.3133
 3307TIP3    H1 9927   5.821   4.086   0.559 -0.5613 -2.5486  0.6614
 3307TIP3    H2 9928   5.854   4.171   0.680  1.3664 -1.4596 -0.5672
 3308TIP3   OH2 9929   1.042   5.889   2.408  0.0229 -0.2354  0.4168
 3308TIP3    H1 9930   1.016   5.952   2.475  0.8797  0.1246  0.4275
 3308TIP3    H2 9931   1.056   5.943   2.330 -0.4449 -0.5832  0.0867
 3309TIP3   OH2 9932   2.078   2.861   1.076 -0.5725  0.1922  0.4272
 3309TIP3    H1 9933   2.049   2.824   1.159 -2.5394  2.5705  0.9326
 3309TIP3    H2 9934   2.019   2.823   1.011  0.9612 -1.6622  0.0521
 3310TIP3   OH2 9935   3.498   3.053   0.817  0.0588  0.0845  0.4762
 3310TIP3    H1 9936   3.437   3.096   0.757  2.3296  1.4947 -0.9833
 3310TIP3    H2 9937   3.444   2.991   0.865 -2.0725 -0.5698 -2.4579
 3311TIP3   OH2 9938   0.544   0.979   3.830 -0.1371 -0.1893 -0.0596
 3311TIP3    H1 9939   0.594   0.908   3.790  0.2146  0.0432 -0.0342
 3311TIP3    H2 9940   0.505   0.939   3.909  0.3199 -0.2674  0.1282
 3312TIP3   OH2 9941   2.946   3.537   2.251  0.0514 -0.2972 -0.2180
 3312TIP3    H1 9942   2.973   3.596   2.321 -0.4320 -0.4293  0.0887
 3312TIP3    H2 9943   2.851   3.551   2.244 -0.0982 -1.1762 -0.0092
 3313TIP3   OH2 9944   0.640   1.744   2.181  0.1106  0.5322  0.4041
 3313TIP3    H1 9945   0.688   1.771   2.259  0.8694 -0.0798  0.1528
 3313TIP3    H2 9946   0.707   1.720   2.118 -0.5158 -1.4645  0.4383
 3314TIP3   OH2 9947   2.466   3.185   5.066  0.5512 -0.8113 -0.2694
 3314TIP3    H1 9948   2.439   3.219   5.151  1.8933 -1.1748  0.3315
 3314TIP3    H2 9949   2.395   3.126   5.040 -1.0324  1.1483 -0.5848
 3315TIP3   OH2 9950   4.185   3.202   4.278 -0.5539  0.5788  0.0873
 3315TIP3    H1 9951   4.261   3.245   4.318  0.0744 -0.7263  0.3379
 3315TIP3    H2 9952   4.198   3.213   4.184  0.7079 -0.8448  0.0645
 3316TIP3   OH2 9953   0.813   2.093   0.807  0.0170 -0.8087 -1.1632
 3316TIP3    H1 9954   0.839   2.130   0.722  1.0039 -3.6251 -2.1842
 3316TIP3    H2 9955   0.739   2.036   0.787 -0.6616 -0.4104  0.1372
 3317TIP3   OH2 9956   5.723   5.694   3.966  0.3978 -0.1248  0.1989
 3317TIP3    H1 9957   5.812   5.709   3.999  1.6467  0.4453 -3.0714
 3317TIP3    H2 9958   5.721   5.600   3.946 -0.0049 -0.2665  0.8590
 3318TIP3   OH2 9959   6.134   0.930   2.736 -0.1349  0.3485  0.9506
 3318TIP3    H1 9960   6.129   0.988   2.812 -0.1395 -0.0461  1.2541
 3318TIP3    H2 9961   6.147   0.843   2.773 -0.1616  0.1493  0.4985
 3319TIP3   OH2 9962   2.076   3.493   1.415  0.2380  0.3086  0.2773
 3319TIP3    H1 9963   2.120   3.568   1.373 -0.0059  0.6296  0.5882
 3319TIP3    H2 9964   2.143   3.425   1.419  0.5351  0.5950  0.2188
 3320TIP3   OH2 9965   3.922   0.814   3.160 -0.0928  0.2555  0.1560
 3320TIP3    H1 9966   3.908   0.853   3.247  1.6762  1.5577 -0.0824
 3320TIP3    H2 9967   3.835   0.810   3.121 -0.8957 -0.1279  1.8770
 3321TIP3   OH2 9968   3.760   4.658   4.960  0.1981 -0.2117 -0.3910
 3321TIP3    H1 9969   3.758   4.730   5.023 -0.2840 -1.7014  1.3832
 3321TIP3    H2 9970   3.781   4.700   4.876  1.3791  1.7844  0.8226
 3322TIP3   OH2 9971   3.684   3.353   3.824 -0.2047  0.4032 -0.1463
 3322TIP3    H1 9972   3.669   3.408   3.901 -1.1557  0.1206 -0.1168
 3322TIP3    H2 9973   3.772   3.320   3.836 -0.0079  1.0768  0.3738
 3323TIP3   OH2 9974   4.315   0.936   0.360  0.7698  0.2109  0.2578
 3323TIP3    H1 9975   4.275   1.016   0.324  1.1427 -0.0277 -0.7367
 3323TIP3    H2 9976   4.296   0.939   0.453 -0.3375  0.8100  0.0261
 3324TIP3   OH2 9977   4.332   1.308   1.146  0.1160 -0.0781  0.1321
 3324TIP3    H1 9978   4.366   1.315   1.057 -1.4240  0.0219 -0.4836
 3324TIP3    H2 9979   4.278   1.387   1.157 -0.5803 -0.6211  0.7458
 3325TIP3   OH2 9980   6.117   2.578   0.172  0.2789 -0.2477 -0.6621
 3325TIP3    H1 9981   6.179   2.516   0.210 -1.0107 -0.3707  1.3767
 3325TIP3    H2 9982   6.032   2.534   0.178 -0.5181  1.2783 -0.1092
 3326TIP3   OH2 9983   2.887   2.883   3.091  0.1218  0.1872  0.0245
 3326TIP3    H1 9984   2.872   2.952   3.026  0.5932 -0.1826 -0.4835
 3326TIP3    H2 9985   2.885   2.802   3.041  1.2961 -0.0478  0.3386
 3327TIP3   OH2 9986   0.893   5.648   2.371 -0.0435 -0.1292 -0.6918
 3327TIP3    H1 9987   0.819   5.687   2.417 -0.7426 -0.4079 -1.5255
 3327TIP3    H2 9988   0.964   5.711   2.380 -0.9251  1.0168 -1.3932
 3328TIP3   OH2 9989   5.514   3.167   0.386  0.8762  0.1992  0.2832
 3328TIP3    H1 9990   5.509   3.081   0.429 -0.7421  0.3256  0.4334
 3328TIP3    H2 9991   5.501   3.230   0.456  0.5302  0.4922 -0.0344
 3329TIP3   OH2 9992   3.652   3.997   4.467 -0.3703  0.1934  0.6881
 3329TIP3    H1 9993   3.587   3.937   4.503 -0.4494  0.4759  1.0270
 3329TIP3    H2 9994   3.672   4.057   4.540  1.5072 -0.8956  1.1405
 3330TIP3   OH2 9995   3.038   3.176   5.019  0.4610  0.2535  0.0290
 3330TIP3    H1 9996   2.953   3.214   5.041  1.0691  1.0165  1.1581
 3330TIP3    H2 9997   3.051   3.200   4.927 -1.1814 -1.1762 -0.6557
 3331TIP3   OH2 9998   1.191   2.538   4.898  0.1640 -0.0657  0.1906
 3331TIP3    H1 9999   1.149   2.618   4.929  0.8533  0.5346 -0.3974
 3331TIP3    H210000   1.275   2.567   4.862  0.7407 -1.1409  0.6190
 3332TIP3   OH210001   3.299   3.428   5.045  0.1914  0.4035 -0.2163
 3332TIP3    H110002   3.354   3.358   5.080 -0.7689  0.1673  0.8781
 3332TIP3    H210003   3.256   3.465   5.122 -1.3913  0.4051 -1.0585
 3333TIP3   OH210004   0.157   3.159   2.803  0.6151 -0.5797  0.4969
 3333TIP3    H110005   0.203   3.091   2.853  0.7553 -0.3930  0.6200
 3333TIP3    H210006   0.066   3.152   2.831  0.4151 -1.4861 -0.3303
 3334TIP3   OH210007   0.208   4.864   3.007 -0.0316 -0.3276 -0.2767
 3334TIP3    H110008   0.292   4.883   2.965 -0.5479  0.5593 -0.9541
 3334TIP3    H210009   0.143   4.872   2.937 -1.0559  2.3514  0.8433
 3335TIP3   OH210010   3.703   5.734   2.740  0.4547  0.0632  0.6216
 3335TIP3    H110011   3.744   5.732   2.827 -1.1560 -0.2467  1.4044
 3335TIP3    H210012   3.619   5.690   2.752  0.4119 -0.4580 -1.2258
 3336TIP3   OH210013   0.949   3.836   1.141  0.7490 -0.0993  0.4277
 3336TIP3    H110014   0.973   3.928   1.149 -0.0143  0.1355  0.1249
 3336TIP3    H210015   0.909   3.814   1.225  0.4278  0.0022  0.3022
 3337TIP3   OH210016   1.191   4.601   1.991  0.3673  0.1095 -0.0289
 3337TIP3    H110017   1.204   4.531   1.927  0.5029 -1.3139  1.4834
 3337TIP3    H210018   1.272   4.603   2.042 -0.5866 -0.4249  1.5960
 3338TIP3   OH210019   3.127   2.577   1.892  0.3703  0.9360 -0.6442
 3338TIP3    H110020   3.179   2.648   1.855 -1.7534  2.9054 -0.0708
 3338TIP3    H210021   3.040   2.588   1.854 -0.3515 -0.5910  0.4506
 3339TIP3   OH210022   4.346   2.620   3.467  0.0517 -0.2078  0.8197
 3339TIP3    H110023   4.315   2.530   3.479  2.1400 -1.4504 -2.1092
 3339TIP3    H210024   4.266   2.673   3.467 -1.4382 -2.3293  0.4942
 3340TIP3   OH210025   0.275   4.447   0.047  0.2130 -0.3516  0.1038
 3340TIP3    H110026   0.225   4.522   0.078  1.6758 -0.2539  2.4784
 3340TIP3    H210027   0.354   4.485   0.008  1.0651 -0.5862  1.5148
 3341TIP3   OH210028   5.182   2.703   0.525 -0.3667 -0.5319 -0.7169
 3341TIP3    H110029   5.190   2.645   0.448  0.5484  0.3667 -1.3228
 3341TIP3    H210030   5.185   2.791   0.489  0.8732 -0.0833  0.4143
 3342TIP3   OH210031   5.291   5.495   2.180 -0.0626  0.4365 -0.3378
 3342TIP3    H110032   5.246   5.571   2.217 -1.4431 -1.8580  3.0771
 3342TIP3    H210033   5.376   5.494   2.224  0.0945  0.1474 -0.6414
 3343TIP3   OH210034   1.192   4.902   0.119 -0.5704  0.0953 -0.5367
 3343TIP3    H110035   1.222   4.950   0.197  1.4848 -1.3145 -0.3729
 3343TIP3    H210036   1.184   4.969   0.051  0.4757  0.9387  0.1406
 3344TIP3   OH210037   6.325   1.784   2.157  0.5710 -0.6673 -0.0428
 3344TIP3    H110038   6.305   1.795   2.064  1.5452 -1.1279 -0.3177
 3344TIP3    H210039   6.255   1.831   2.202  1.2217  1.3834 -1.0443
 3345TIP3   OH210040   4.214   3.774   3.501 -0.1850 -0.4842 -0.3044
 3345TIP3    H110041   4.133   3.797   3.546  0.3058  0.5501  0.0611
 3345TIP3    H210042   4.247   3.698   3.549 -1.4822 -1.6284 -1.1315
 3346TIP3   OH210043   1.954   1.002   3.663  0.1371  0.0610  0.0893
 3346TIP3    H110044   1.967   1.086   3.706  0.0911  0.1702 -0.1115
 3346TIP3    H210045   1.899   0.952   3.724  1.1451 -0.2593  0.7600
 3347TIP3   OH210046   2.055   5.634   4.093  0.7399 -0.2962  0.1386
 3347TIP3    H110047   2.046   5.542   4.071 -1.1851 -0.1658  0.2562
 3347TIP3    H210048   2.106   5.671   4.021  2.1710 -1.5530  0.4452
 3348TIP3   OH210049   5.914   2.369   3.191 -0.3329 -0.0247  0.0556
 3348TIP3    H110050   5.883   2.328   3.109 -1.1462 -1.9905  1.2573
 3348TIP3    H210051   5.894   2.304   3.258  0.1730  1.6063  1.8596
 3349TIP3   OH210052   3.798   2.269   1.869 -0.1319  0.2527 -0.0856
 3349TIP3    H110053   3.785   2.358   1.836 -1.8346  0.0367 -0.0911
 3349TIP3    H210054   3.729   2.217   1.826  0.2041 -0.8673  0.6697
 3350TIP3   OH210055   3.153   4.623   4.650 -0.1454  0.3039 -0.3617
 3350TIP3    H110056   3.109   4.587   4.726 -0.9746  0.8674 -0.5484
 3350TIP3    H210057   3.195   4.703   4.682  0.1139  0.1584 -0.3405
 3351TIP3   OH210058   2.909   4.794   4.410 -0.5738  0.1271 -0.5839
 3351TIP3    H110059   2.880   4.880   4.439 -1.1398 -0.8027  1.8563
 3351TIP3    H210060   2.829   4.744   4.395 -0.2555  0.0042 -2.0101
 3352TIP3   OH210061   4.479   5.707   4.997  0.2347 -0.3627 -0.5329
 3352TIP3    H110062   4.573   5.710   4.981  0.5965  1.1182  1.5572
 3352TIP3    H210063   4.451   5.799   4.996 -1.1361 -0.7534 -0.7132
 3353TIP3   OH210064   3.330   0.917   2.207 -0.0100  0.3064 -0.2800
 3353TIP3    H110065   3.376   0.858   2.266  0.6719  0.6853 -0.4260
 3353TIP3    H210066   3.391   0.990   2.193  0.4588 -0.4272 -2.5886
 3354TIP3   OH210067   6.173   2.710   4.187 -0.5446  0.1610 -0.4734
 3354TIP3    H110068   6.122   2.639   4.146  2.3415 -2.3962 -0.0079
 3354TIP3    H210069   6.256   2.710   4.139  0.3745  1.7326  1.0189
 3355TIP3   OH210070   3.696   0.314   1.777 -0.0082  0.1166 -0.1218
 3355TIP3    H110071   3.617   0.263   1.758 -0.2067  0.7642 -1.1123
 3355TIP3    H210072   3.721   0.351   1.692  2.8909 -2.1859 -0.4115
 3356TIP3   OH210073   6.117   0.856   4.983  0.1964 -0.4207  0.1995
 3356TIP3    H110074   6.091   0.862   4.891  2.3977  0.3621 -0.4242
 3356TIP3    H210075   6.063   0.921   5.027  0.0613  0.1502 -0.7741
 3357TIP3   OH210076   5.457   2.783   3.432  0.3960  0.0790 -0.4710
 3357TIP3    H110077   5.517   2.838   3.483 -2.6394  2.0753  1.2300
 3357TIP3    H210078   5.431   2.838   3.358  0.0209 -0.4528 -0.7419
 3358TIP3   OH210079   3.399   0.491   5.010  0.6642 -0.2280 -0.4508
 3358TIP3    H110080   3.360   0.404   5.015  0.6375 -0.2064 -0.2595
 3358TIP3    H210081   3.333   0.545   4.967 -0.4080  0.2945  1.7226
 3359TIP3   OH210082   3.713   2.508   2.134  0.1408 -0.0164 -0.6973
 3359TIP3    H110083   3.695   2.444   2.203  1.1016  0.4827  0.0345
 3359TIP3    H210084   3.626   2.537   2.106 -0.3114 -1.3990 -0.8389
 3360TIP3   OH210085   5.033   1.014   1.859 -0.0549 -0.7249  0.3366
 3360TIP3    H110086   5.008   1.045   1.772  0.8693 -0.6657  0.0824
 3360TIP3    H210087   4.965   1.048   1.917  0.0936  0.4501 -0.1550
 3361TIP3   OH210088   5.090   1.255   3.859  0.0138  0.1848 -0.3833
 3361TIP3    H110089   5.096   1.217   3.772 -0.6234 -1.5884  0.3006
 3361TIP3    H210090   5.181   1.254   3.891  0.1818  0.4164 -0.8482
 3362TIP3   OH210091   3.075   4.827   1.375 -0.4821  0.4447 -0.1868
 3362TIP3    H110092   3.150   4.790   1.422 -0.0929 -1.1673 -1.9396
 3362TIP3    H210093   3.106   4.836   1.284 -2.8402 -1.9121 -1.3563
 3363TIP3   OH210094   1.630   2.745   4.706 -0.1674  0.6212  0.1562
 3363TIP3    H110095   1.642   2.800   4.629  0.3458  0.3410  0.0366
 3363TIP3    H210096   1.663   2.798   4.778  1.7009 -0.0714 -0.1453
 3364TIP3   OH210097   1.736   1.539   4.692 -0.4960 -0.0401  0.1711
 3364TIP3    H110098   1.827   1.564   4.676  0.1157 -1.8931  0.4911
 3364TIP3    H210099   1.732   1.522   4.786 -0.9898 -0.6293  0.0493
 3365TIP3   OH210100   4.925   4.890   0.934 -0.3223 -0.1179  0.8249
 3365TIP3    H110101   4.931   4.965   0.993  1.9989 -1.8942  3.0976
 3365TIP3    H210102   4.991   4.907   0.867 -0.4580  0.2932  0.7934
 3366TIP3   OH210103   1.400   2.739   1.904 -0.2562  0.5080  0.2027
 3366TIP3    H110104   1.478   2.789   1.926 -1.5753  2.0616  1.6582
 3366TIP3    H210105   1.347   2.741   1.983 -2.1998  0.3864 -1.0232
 3367TIP3   OH210106   0.042   0.425   2.624  0.3373 -0.1410 -0.1002
 3367TIP3    H110107   0.123   0.396   2.582  0.7130  1.1116 -0.2888
 3367TIP3    H210108   0.001   0.482   2.559 -1.3213 -1.6737 -0.4828
 3368TIP3   OH210109   1.995   0.452   3.372 -0.0811  0.5467 -0.5650
 3368TIP3    H110110   2.061   0.416   3.313  0.1058  0.0955 -0.0880
 3368TIP3    H210111   1.985   0.386   3.441 -1.7533  0.1279 -1.1528
 3369TIP3   OH210112   5.968   5.392   4.949 -0.6052 -0.1165  0.2688
 3369TIP3    H110113   5.881   5.384   4.987 -0.5133 -2.2453  0.1761
 3369TIP3    H210114   6.027   5.357   5.017  0.1017  0.5176  0.0056
 3370TIP3   OH210115   3.631   5.331   4.661  0.2757  0.1498 -0.0854
 3370TIP3    H110116   3.543   5.297   4.643 -0.5985  1.9481  0.5641
 3370TIP3    H210117   3.653   5.383   4.584  0.6314 -0.0397 -0.1121
 3371TIP3   OH210118   5.576   2.627   2.793 -0.0379 -0.2489  0.0937
 3371TIP3    H110119   5.485   2.657   2.792 -0.3700 -1.2499  0.0823
 3371TIP3    H210120   5.597   2.616   2.885  0.5389  1.3176  0.1872
 3372TIP3   OH210121   3.022   5.612   2.792 -0.3834 -0.2342 -0.7614
 3372TIP3    H110122   2.932   5.616   2.826 -0.7828  1.0415 -1.8582
 3372TIP3    H210123   3.032   5.695   2.744  1.6853  0.0429  0.0807
 3373TIP3   OH210124   5.846   5.291   2.272 -0.3109  0.6476 -0.2820
 3373TIP3    H110125   5.783   5.338   2.217  0.1390  1.3655 -0.1968
 3373TIP3    H210126   5.916   5.264   2.212 -0.2221  0.7085 -0.2073
 3374TIP3   OH210127   4.755   4.815   0.712  0.0289 -0.6329 -0.5848
 3374TIP3    H110128   4.667   4.813   0.750  0.1717 -0.9972 -0.2590
 3374TIP3    H210129   4.811   4.844   0.784 -0.0987  1.9096 -1.3942
 3375TIP3   OH210130   0.650   4.146   1.036 -0.0859  0.1208 -0.3047
 3375TIP3    H110131   0.618   4.218   0.982 -1.6195 -0.2218  0.1148
 3375TIP3    H210132   0.659   4.184   1.124 -0.9571 -0.1904 -0.0692
 3376TIP3   OH210133   1.061   2.772   2.024  0.2623  0.3367 -0.5839
 3376TIP3    H110134   1.087   2.853   2.069 -0.1187 -0.3210  0.8945
 3376TIP3    H210135   0.972   2.790   1.993 -0.2942  0.1332  0.7835
 3377TIP3   OH210136   5.837   0.551   4.905  0.2915  0.1574  0.3744
 3377TIP3    H110137   5.871   0.495   4.975  0.5457  0.6849  0.6821
 3377TIP3    H210138   5.859   0.640   4.933 -0.3853  0.4331  0.0440
 3378TIP3   OH210139  -0.014   1.960   2.788 -0.1291  0.4387  0.3456
 3378TIP3    H110140  -0.043   1.995   2.704 -1.3171  0.9847  0.9553
 3378TIP3    H210141   0.080   1.949   2.778  0.0123  2.0839 -0.4979
 3379TIP3   OH210142   0.212   3.054   3.153 -0.1895  0.1580  0.7301
 3379TIP3    H110143   0.258   3.009   3.082 -1.5535 -0.1262 -0.0169
 3379TIP3    H210144   0.164   2.985   3.198  0.1923  0.4273  1.5657
 3380TIP3   OH210145   2.963   3.400   3.612 -0.0285 -0.3037 -0.1499
 3380TIP3    H110146   2.891   3.441   3.564  0.2885 -0.0023 -0.3688
 3380TIP3    H210147   3.027   3.470   3.624  0.4804 -0.7084 -0.4444
 3381TIP3   OH210148   5.358   4.515   1.972  0.6457 -0.4618 -0.2594
 3381TIP3    H110149   5.426   4.457   2.007 -0.5997 -0.1431  3.0049
 3381TIP3    H210150   5.278   4.462   1.973  0.4884 -0.3517 -2.5933
 3382TIP3   OH210151   2.052   5.462   0.796  0.4834  0.0360 -0.0318
 3382TIP3    H110152   2.137   5.474   0.839  1.2756  0.0713 -1.5500
 3382TIP3    H210153   2.063   5.383   0.744 -1.1398 -1.1876  1.4049
 3383TIP3   OH210154   0.584   5.023   2.171  0.1512 -0.1447  0.2465
 3383TIP3    H110155   0.595   5.057   2.082 -0.5306  1.0073  0.5822
 3383TIP3    H210156   0.606   4.930   2.164  2.1190  0.3383 -0.6970
 3384TIP3   OH210157   2.377   2.261   4.975  0.1876 -0.3575 -0.7331
 3384TIP3    H110158   2.361   2.301   4.890 -0.7455 -0.5169 -0.6417
 3384TIP3    H210159   2.462   2.218   4.966 -0.3080 -1.1266 -1.8765
 3385TIP3   OH210160   0.399   5.578   0.676 -0.0988  0.2281 -0.1880
 3385TIP3    H110161   0.457   5.539   0.610  0.9736  1.8975 -0.2982
 3385TIP3    H210162   0.451   5.576   0.757  0.7997  3.0943 -0.5961
 3386TIP3   OH210163   4.096   0.614   3.100  0.5816  0.4645 -0.1223
 3386TIP3    H110164   4.103   0.585   3.192 -0.0140 -0.7360 -0.4386
 3386TIP3    H210165   4.049   0.697   3.105  0.1742  0.2050  0.6343
 3387TIP3   OH210166   4.937   0.767   3.861  0.0351  0.0355  0.1776
 3387TIP3    H110167   4.923   0.841   3.802 -0.7989  0.1017  0.4418
 3387TIP3    H210168   5.032   0.755   3.863  0.1891  1.1461  0.1837
 3388TIP3   OH210169   5.874   0.920   2.263 -0.1969  0.2530  0.1557
 3388TIP3    H110170   5.945   0.936   2.200  0.1184 -0.4936  0.3048
 3388TIP3    H210171   5.796   0.910   2.209 -0.2191  1.2164 -0.0033
 3389TIP3   OH210172   3.869   1.927   3.359 -0.1482  0.2787 -0.2690
 3389TIP3    H110173   3.841   2.017   3.340  0.4985  0.2382 -1.5227
 3389TIP3    H210174   3.934   1.908   3.292 -0.3749 -1.1834 -0.0972
 3390TIP3   OH210175   4.488   3.328   3.476 -0.1940 -0.0670  0.0716
 3390TIP3    H110176   4.488   3.320   3.571  1.3230 -0.9285  0.0277
 3390TIP3    H210177   4.395   3.320   3.451 -0.4322 -1.6946  1.3359
 3391TIP3   OH210178   3.345   3.587   0.643 -0.1376  0.2294 -0.3084
 3391TIP3    H110179   3.272   3.649   0.637 -0.6665 -0.2866  0.6419
 3391TIP3    H210180   3.370   3.589   0.735  0.7026 -0.0065 -0.5240
 3392TIP3   OH210181   3.286   4.762   2.843 -0.0117 -0.2062  0.0893
 3392TIP3    H110182   3.197   4.752   2.876  0.8670 -3.8667  1.8477
 3392TIP3    H210183   3.335   4.798   2.917  0.4795 -0.8082  0.0626
 3393TIP3   OH210184   1.164   2.645   1.427 -0.1245  0.0189 -0.4603
 3393TIP3    H110185   1.071   2.626   1.414 -0.1911  0.1554 -0.1917
 3393TIP3    H210186   1.195   2.671   1.340 -0.4197  0.3222 -0.4786
 3394TIP3   OH210187   0.956   4.784   2.641  0.3878  0.0470 -0.0112
 3394TIP3    H110188   1.005   4.715   2.597  1.1789  0.4749  0.1695
 3394TIP3    H210189   0.874   4.790   2.592 -1.2401 -3.3047  2.0175
 3395TIP3   OH210190   3.949   3.608   4.155 -0.0884 -0.3293 -0.1412
 3395TIP3    H110191   3.942   3.565   4.240 -0.1565  0.8766  0.4808
 3395TIP3    H210192   4.040   3.592   4.128  0.1811 -0.0124  0.5549
 3396TIP3   OH210193   0.333   5.084   3.767 -0.7562 -0.5178 -0.4035
 3396TIP3    H110194   0.292   5.006   3.803 -0.2764 -0.4076  0.4019
 3396TIP3    H210195   0.426   5.063   3.765 -0.6390 -0.0119 -0.2990
 3397TIP3   OH210196   0.479   4.653   3.065 -0.0667  0.4027  0.5894
 3397TIP3    H110197   0.423   4.652   3.143 -0.4593  0.8508  0.3198
 3397TIP3    H210198   0.440   4.588   3.006  0.3634 -0.1012  0.8520
 3398TIP3   OH210199   1.316   1.321   2.582  0.2443 -0.0568  0.0317
 3398TIP3    H110200   1.286   1.284   2.665 -0.3013 -1.5071 -0.7747
 3398TIP3    H210201   1.289   1.413   2.586 -0.5124 -0.2982  1.1052
 3399TIP3   OH210202   1.700   0.984   2.865  0.0824  0.3445  0.2009
 3399TIP3    H110203   1.780   0.933   2.879  0.6627  1.5391  1.4903
 3399TIP3    H210204   1.703   1.053   2.931 -1.7795  0.7314 -0.0420
 3400TIP3   OH210205   4.463   2.577   1.816  0.1148  0.2110  0.0492
 3400TIP3    H110206   4.424   2.645   1.872  0.9354 -0.0254  0.9430
 3400TIP3    H210207   4.539   2.546   1.866 -0.3559 -1.5050 -0.2414
 3401TIP3   OH210208   5.361   4.373   2.274 -0.1694  0.2241 -0.4650
 3401TIP3    H110209   5.451   4.386   2.243  0.6795  0.2724  1.8671
 3401TIP3    H210210   5.344   4.448   2.331 -0.8056 -1.0219  1.0312
 3402TIP3   OH210211   3.176   5.348   2.088 -0.0353  0.1302  0.2014
 3402TIP3    H110212   3.190   5.440   2.065 -1.7123  0.6009  0.9031
 3402TIP3    H210213   3.195   5.344   2.181 -0.1523 -0.1924  0.2102
 3403TIP3   OH210214   2.390   3.697   4.315  0.5301  0.3292  0.1244
 3403TIP3    H110215   2.390   3.668   4.406 -2.4473 -0.3935 -0.0140
 3403TIP3    H210216   2.405   3.791   4.320 -0.5714  0.4649  1.4760
 3404TIP3   OH210217   1.263   3.676   3.214  0.2056 -0.3182 -0.2725
 3404TIP3    H110218   1.299   3.595   3.250  1.1632  0.0539 -0.3732
 3404TIP3    H210219   1.252   3.658   3.120  1.3427 -0.0123 -0.4702
 3405TIP3   OH210220   1.267   3.478   1.120 -0.0398 -0.6649  0.2359
 3405TIP3    H110221   1.299   3.552   1.067  2.5673 -2.1225 -0.4036
 3405TIP3    H210222   1.172   3.491   1.124  0.0349  1.3579 -1.9649
 3406TIP3   OH210223   3.626   2.386   2.587  0.2581 -0.6849 -0.1128
 3406TIP3    H110224   3.630   2.476   2.618  0.6462  0.1510 -2.4181
 3406TIP3    H210225   3.600   2.335   2.664  1.2996  1.1940  1.5583
 3407TIP3   OH210226   2.939   5.609   4.568  0.4443  0.1414  0.0102
 3407TIP3    H110227   3.022   5.563   4.575 -0.5198 -1.5647  0.7084
 3407TIP3    H210228   2.930   5.629   4.475  2.3970  1.8957  0.1279
 3408TIP3   OH210229   2.927   4.830   0.410 -0.1486 -0.0232  0.8994
 3408TIP3    H110230   3.008   4.849   0.362 -0.7522  0.6161  0.0821
 3408TIP3    H210231   2.920   4.735   0.410 -0.0707 -0.0439 -0.2214
 3409TIP3   OH210232   1.122   0.479   1.460 -0.0601 -0.0165 -0.0568
 3409TIP3    H110233   1.189   0.500   1.525  1.3380  0.1673 -1.5118
 3409TIP3    H210234   1.170   0.447   1.384 -1.6703 -0.5977 -0.8916
 3410TIP3   OH210235   0.818   0.650   1.328 -0.1762  0.0801  0.0497
 3410TIP3    H110236   0.738   0.662   1.380 -1.1628 -0.4990 -1.2935
 3410TIP3    H210237   0.877   0.719   1.360 -2.2490  2.4837 -0.9260
 3411TIP3   OH210238   4.282   4.663   1.160 -0.2748  0.2635  0.3519
 3411TIP3    H110239   4.299   4.727   1.092  1.8886  1.1808  1.6521
 3411TIP3    H210240   4.188   4.645   1.154 -0.6633  2.4531 -0.9780
 3412TIP3   OH210241   1.788   5.061   0.492 -0.0933  0.4041 -0.1535
 3412TIP3    H110242   1.779   5.089   0.583  1.8341  1.2488 -0.1751
 3412TIP3    H210243   1.717   5.106   0.446  0.5629  2.1952  0.4942
 3413TIP3   OH210244   1.599   1.724   3.998 -0.3280  0.4941 -0.4322
 3413TIP3    H110245   1.687   1.709   4.033 -0.4863  0.6115  0.0212
 3413TIP3    H210246   1.551   1.643   4.019 -0.3797  0.5057 -0.5080
 3414TIP3   OH210247   3.834   1.538   1.572 -0.1829 -0.1506 -0.2398
 3414TIP3    H110248   3.813   1.448   1.548 -3.0962  1.0145 -2.6505
 3414TIP3    H210249   3.772   1.560   1.642 -1.1568  0.6723 -1.3336
 3415TIP3   OH210250   0.865   0.126   1.756  0.1891  0.1540 -0.1653
 3415TIP3    H110251   0.907   0.205   1.720  1.3849 -0.6890 -0.6729
 3415TIP3    H210252   0.923   0.054   1.731 -0.6171 -0.8413  0.7317
 3416TIP3   OH210253   3.132   3.020   2.094  0.4497  0.1551 -0.2670
 3416TIP3    H110254   3.214   3.014   2.143  0.3700  0.1031 -0.1395
 3416TIP3    H210255   3.102   3.110   2.107  0.3253  0.0833 -0.0541
 3417TIP3   OH210256   2.335   5.303   2.179  0.1280 -0.1630  0.0117
 3417TIP3    H110257   2.358   5.297   2.272  0.2873 -0.4490 -0.0420
 3417TIP3    H210258   2.306   5.393   2.166  1.1095  0.1868  0.1133
 3418TIP3   OH210259   1.251   5.384   4.351 -0.0532 -0.0201  0.2968
 3418TIP3    H110260   1.259   5.478   4.338 -0.6332  0.0349  0.3084
 3418TIP3    H210261   1.256   5.372   4.446 -1.7070  0.1872  0.4366
 3419TIP3   OH210262   6.020   3.301   1.772 -0.2973  0.3816 -0.0421
 3419TIP3    H110263   6.107   3.336   1.752 -0.3615  0.5987  0.0547
 3419TIP3    H210264   5.960   3.373   1.754 -0.2994  0.8539  1.6268
 3420TIP3   OH210265   0.681   4.221   4.307 -0.5099 -0.0175 -0.0850
 3420TIP3    H110266   0.671   4.134   4.346  0.3854  0.0922  0.4046
 3420TIP3    H210267   0.671   4.282   4.380 -0.3240  0.2572 -0.2866
 3421TIP3   OH210268   3.515   0.823   4.949  0.7497 -0.4370  0.2205
 3421TIP3    H110269   3.578   0.884   4.988 -0.3499  0.1938  1.1021
 3421TIP3    H210270   3.470   0.784   5.024 -0.7821  0.1041 -0.3775
 3422TIP3   OH210271   3.317   4.474   4.248 -0.2882 -0.5157  0.2501
 3422TIP3    H110272   3.378   4.450   4.318 -0.7095  1.5732  1.4303
 3422TIP3    H210273   3.293   4.564   4.268 -0.5537  0.1174 -2.5383
 3423TIP3   OH210274   0.622   0.609   0.453 -0.1746  0.4393  0.0053
 3423TIP3    H110275   0.689   0.543   0.471  1.2241  1.0723 -2.3692
 3423TIP3    H210276   0.651   0.687   0.501  0.6335  0.5968 -0.7074
 3424TIP3   OH210277   3.177   3.175   0.679  0.2205  0.0759 -0.2196
 3424TIP3    H110278   3.199   3.093   0.636 -1.0365 -0.1488 -0.4646
 3424TIP3    H210279   3.197   3.242   0.613 -0.3607 -0.1626 -0.6417
 3425TIP3   OH210280   0.923   1.254   4.023  0.6348 -0.6973  0.0786
 3425TIP3    H110281   0.857   1.211   3.969  0.4704 -1.0565  0.5573
 3425TIP3    H210282   0.874   1.319   4.074  0.5784 -1.2286  0.7176
 3426TIP3   OH210283   0.404   5.532   4.276  0.1418 -0.0749  0.8880
 3426TIP3    H110284   0.457   5.454   4.294  1.6612  0.8558  0.6356
 3426TIP3    H210285   0.319   5.498   4.249  0.6823 -1.6312  1.0655
 3427TIP3   OH210286   3.279   2.751   1.766 -0.5179 -0.3482 -0.5498
 3427TIP3    H110287   3.309   2.834   1.729  2.5040  0.5454  3.2823
 3427TIP3    H210288   3.329   2.685   1.719  0.3764  0.3824 -0.6567
 3428TIP3   OH210289   3.638   3.588   4.070 -0.0107  0.1869  0.4465
 3428TIP3    H110290   3.710   3.642   4.102 -0.1530  1.0459 -0.6172
 3428TIP3    H210291   3.602   3.637   3.996 -0.8359 -0.8641  0.1194
 3429TIP3   OH210292   0.141   3.156   3.899 -0.0280  0.1227 -0.1345
 3429TIP3    H110293   0.215   3.138   3.841 -1.2547  0.4007 -1.8395
 3429TIP3    H210294   0.165   3.238   3.943  0.2334  0.7715 -1.4461
 3430TIP3   OH210295   5.595   1.467   4.935  0.1654  0.2325  0.3737
 3430TIP3    H110296   5.571   1.428   5.020  0.6652  0.0111  0.4162
 3430TIP3    H210297   5.512   1.471   4.887 -0.0512 -0.0310  0.7158
 3431TIP3   OH210298  -0.026   0.548   0.632 -0.0495 -0.9455 -0.6047
 3431TIP3    H110299   0.031   0.611   0.677  1.3018 -0.1599 -3.1815
 3431TIP3    H210300   0.001   0.463   0.668 -0.5010 -0.2758  1.4854
 3432TIP3   OH210301   3.757   4.917   5.052 -0.1093 -0.1511  0.1776
 3432TIP3    H110302   3.669   4.909   5.015  0.3672 -0.5173 -0.9196
 3432TIP3    H210303   3.778   5.010   5.046 -0.9598  0.1627  1.7524
 3433TIP3   OH210304   4.536   3.104   1.261  0.1050 -0.4197 -0.5293
 3433TIP3    H110305   4.495   3.075   1.180 -0.9446 -0.0916 -0.1269
 3433TIP3    H210306   4.621   3.138   1.234 -0.2296 -0.3213 -1.4838
 3434TIP3   OH210307   6.021   0.469   0.248  0.3768  0.8533 -0.3146
 3434TIP3    H110308   6.101   0.422   0.269 -0.2718 -0.1532 -0.0550
 3434TIP3    H210309   6.002   0.521   0.326 -0.1638 -0.2579  0.3178
 3435TIP3   OH210310   1.338   1.129   0.195  0.0620 -0.3251  0.2783
 3435TIP3    H110311   1.397   1.058   0.171  0.2181 -0.0864 -0.0446
 3435TIP3    H210312   1.365   1.154   0.283  0.8126  0.1629 -0.0815
 3436TIP3   OH210313   1.118   0.550   0.117 -0.0629 -0.6982 -0.2622
 3436TIP3    H110314   1.154   0.616   0.178 -0.2691  0.1334 -1.0201
 3436TIP3    H210315   1.027   0.540   0.145 -0.1836 -0.2480 -0.4871
 3437TIP3   OH210316   4.637   4.333   4.151 -0.3258 -0.6477  0.3704
 3437TIP3    H110317   4.658   4.366   4.238 -0.3531  0.9636 -0.1908
 3437TIP3    H210318   4.542   4.316   4.154  0.0316 -2.7728  1.2912
 3438TIP3   OH210319   1.495   3.186   0.090  0.1287 -0.5882  0.3267
 3438TIP3    H110320   1.443   3.262   0.063 -0.0876 -0.9286 -0.2218
 3438TIP3    H210321   1.549   3.165   0.014  0.5490 -0.6797  0.6476
 3439TIP3   OH210322   0.190   0.845   3.521  0.5116  0.3946 -0.5376
 3439TIP3    H110323   0.109   0.815   3.479  0.6116 -0.6125 -0.0143
 3439TIP3    H210324   0.238   0.765   3.541  0.9785  0.9203  0.4784
 3440TIP3   OH210325   2.144   3.420   3.067 -0.4268  0.2686  0.0318
 3440TIP3    H110326   2.186   3.452   3.147  0.7838  1.3092 -0.9938
 3440TIP3    H210327   2.163   3.326   3.066  0.2424  0.3908  0.5447
 3441TIP3   OH210328   4.717   3.027   4.007 -0.3847 -0.6333 -0.1168
 3441TIP3    H110329   4.669   3.101   4.045  0.0562 -0.0587 -0.6524
 3441TIP3    H210330   4.784   3.068   3.953 -0.3391 -1.4322 -0.6797
 3442TIP3   OH210331   0.893   2.846   0.790 -0.0570 -0.2089  0.2614
 3442TIP3    H110332   0.946   2.806   0.858  1.1436  1.2266  0.2181
 3442TIP3    H210333   0.911   2.795   0.711 -0.5601 -1.1571  0.7447
 3443TIP3   OH210334   5.551   5.772   0.286  0.0459  0.4486  0.0459
 3443TIP3    H110335   5.603   5.694   0.270  0.1724  0.3953  0.6887
 3443TIP3    H210336   5.465   5.738   0.311 -0.0621  0.5253 -0.2161
 3444TIP3   OH210337   3.517   2.757   1.450  0.3447  0.5309  0.8587
 3444TIP3    H110338   3.549   2.821   1.514 -0.4200 -0.1730  1.9966
 3444TIP3    H210339   3.509   2.675   1.500 -1.3223  0.2182  0.1547
 3445TIP3   OH210340   4.742   0.636   4.419  0.5519 -0.5188  0.0047
 3445TIP3    H110341   4.813   0.688   4.456  1.3238 -2.2627  1.1317
 3445TIP3    H210342   4.765   0.545   4.440 -0.8200 -1.3293 -1.6889
 3446TIP3   OH210343   5.215   4.018   1.468 -0.4133  0.0230 -0.1635
 3446TIP3    H110344   5.284   4.026   1.534 -1.2929  0.7087  0.7088
 3446TIP3    H210345   5.194   3.925   1.466 -1.3009  0.1422  1.5497
 3447TIP3   OH210346   2.305   4.084   4.708 -0.1852 -0.7255 -0.0958
 3447TIP3    H110347   2.327   4.008   4.654  0.4642 -0.1434 -0.6695
 3447TIP3    H210348   2.338   4.159   4.658 -0.2475 -0.1179  0.7636
 3448TIP3   OH210349   5.260   1.565   4.843 -0.7471  0.4584 -0.0895
 3448TIP3    H110350   5.272   1.609   4.759 -1.6798  0.2764 -0.3323
 3448TIP3    H210351   5.318   1.612   4.903  0.0173  0.5178 -0.8534
 3449TIP3   OH210352   5.812   1.212   2.114  0.3703  0.0724  0.1993
 3449TIP3    H110353   5.840   1.158   2.039 -0.2469  1.1437 -0.8381
 3449TIP3    H210354   5.883   1.276   2.124 -0.6081  1.3981 -1.0066
 3450TIP3   OH210355   5.484   0.726   3.296 -0.0207 -0.4213  0.7780
 3450TIP3    H110356   5.484   0.635   3.325 -1.6189 -0.2367  1.4607
 3450TIP3    H210357   5.483   0.777   3.377 -1.2132  0.1522  0.4264
 3451TIP3   OH210358   1.629   0.541   0.814  0.2935 -0.4207  0.6079
 3451TIP3    H110359   1.665   0.514   0.729 -1.8724  0.6365 -0.7353
 3451TIP3    H210360   1.706   0.565   0.866  1.6778 -0.7370 -1.1882
 3452TIP3   OH210361   5.912   2.214   1.775 -0.4956 -0.3805  0.3161
 3452TIP3    H110362   5.885   2.159   1.702 -0.9026  2.6035 -1.9519
 3452TIP3    H210363   5.986   2.265   1.742 -1.5338  2.0406  1.4351
 3453TIP3   OH210364   0.693   3.507  -0.007  0.2619  0.7995 -0.2096
 3453TIP3    H110365   0.713   3.586  -0.058  0.6951  0.3600 -0.7282
 3453TIP3    H210366   0.640   3.539   0.066 -2.8925  1.1303 -2.4056
 3454TIP3   OH210367   3.929   0.735   1.037  0.5141 -0.1198  0.1287
 3454TIP3    H110368   3.996   0.679   1.076  1.4107  0.9030  0.1115
 3454TIP3    H210369   3.852   0.679   1.030  1.8974 -1.9183 -1.6486
 3455TIP3   OH210370   4.485   4.515   2.970 -0.2383  0.2268  0.0437
 3455TIP3    H110371   4.496   4.592   2.914 -0.9591  0.0961 -0.2927
 3455TIP3    H210372   4.539   4.447   2.929 -0.6895  0.1597 -0.4439
 3456TIP3   OH210373  -0.011   2.601   1.313 -0.1491 -0.0181 -0.5120
 3456TIP3    H110374   0.067   2.631   1.267 -1.2447 -0.0863 -2.5280
 3456TIP3    H210375   0.013   2.515   1.348  1.2196  0.7267  0.4688
 3457TIP3   OH210376   1.708   0.626   3.719 -0.1364 -0.2769  1.0990
 3457TIP3    H110377   1.651   0.564   3.764 -0.9037 -0.9023 -0.6432
 3457TIP3    H210378   1.783   0.574   3.691 -1.3118 -0.7714 -1.3713
 3458TIP3   OH210379   3.568   0.601   3.773 -0.0309  0.4819 -0.1390
 3458TIP3    H110380   3.483   0.568   3.804 -1.0241  0.0125 -3.0086
 3458TIP3    H210381   3.554   0.694   3.760  0.2777  0.6193  0.5010
 3459TIP3   OH210382   4.519   5.057   4.187  0.7880  0.2970 -0.7635
 3459TIP3    H110383   4.597   5.110   4.198  0.7654  0.2666 -0.4248
 3459TIP3    H210384   4.536   5.003   4.110  1.9373 -1.1444  0.4253
 3460TIP3   OH210385   5.008   2.963   0.330 -0.2751  0.4057  0.6730
 3460TIP3    H110386   4.970   3.051   0.323  0.7918  0.8153 -0.2402
 3460TIP3    H210387   5.032   2.955   0.422 -2.9517 -0.0619  1.4082
 3461TIP3   OH210388   2.852   3.721   2.007 -0.1364  0.0466  0.1412
 3461TIP3    H110389   2.797   3.751   1.936  0.4395  0.0063 -0.3279
 3461TIP3    H210390   2.793   3.670   2.063 -0.6886  0.4591 -0.0564
 3462TIP3   OH210391   1.539   5.183   5.102 -0.0493  0.1362 -1.1556
 3462TIP3    H110392   1.620   5.206   5.146  0.0916  1.2371 -1.9253
 3462TIP3    H210393   1.551   5.215   5.012 -1.8082  1.4991 -0.9632
 3463TIP3   OH210394   3.089   5.151   2.318  0.1891  0.3046  0.2304
 3463TIP3    H110395   3.173   5.174   2.358  0.6420  0.2277 -0.6494
 3463TIP3    H210396   3.103   5.064   2.280  0.4770  1.2381 -1.9711
 3464TIP3   OH210397   4.355   3.890   4.496  0.2170 -0.2419  0.5712
 3464TIP3    H110398   4.323   3.967   4.449  0.3734 -0.5733 -0.0886
 3464TIP3    H210399   4.372   3.922   4.585  2.3855  1.0542 -0.2059
 3465TIP3   OH210400   1.255   2.947   1.279  0.0717  0.2264  0.0141
 3465TIP3    H110401   1.160   2.953   1.279  0.0606  0.0649 -0.3122
 3465TIP3    H210402   1.285   3.034   1.306 -0.1669  0.2606  0.1703
 3466TIP3   OH210403   1.504   4.268   2.045 -0.5709  0.1056 -0.6633
 3466TIP3    H110404   1.535   4.187   2.086 -1.2069  0.0869 -0.1959
 3466TIP3    H210405   1.410   4.256   2.036 -1.1438  1.8089  1.9120
 3467TIP3   OH210406   2.008   0.397   2.165 -0.2763  0.3173  0.2688
 3467TIP3    H110407   2.037   0.478   2.122 -0.0866 -0.3008 -0.7900
 3467TIP3    H210408   1.974   0.426   2.250  0.0213  1.4799  0.0050
 3468TIP3   OH210409   1.463   5.649   1.638 -0.5378 -0.1721  0.5968
 3468TIP3    H110410   1.376   5.608   1.635 -1.6384  1.9703  1.4328
 3468TIP3    H210411   1.482   5.659   1.731  0.4782 -0.3157  0.4135
 3469TIP3   OH210412   2.742   0.536   1.600  0.6403  0.3650  0.4487
 3469TIP3    H110413   2.830   0.561   1.628  0.1186  0.5980  1.9874
 3469TIP3    H210414   2.689   0.615   1.612  0.2027  0.2084 -0.3931
 3470TIP3   OH210415   2.275   5.871   2.128 -0.0344 -0.3166 -0.3111
 3470TIP3    H110416   2.241   5.921   2.055  0.2431  0.9993  0.4310
 3470TIP3    H210417   2.197   5.832   2.169 -0.2691 -0.3888 -0.8249
 3471TIP3   OH210418   6.200   1.308   2.979 -0.4107 -0.8463  0.2450
 3471TIP3    H110419   6.267   1.374   2.965 -0.4035 -1.0218 -0.6007
 3471TIP3    H210420   6.237   1.249   3.045 -0.3271 -0.1467  0.8373
 3472TIP3   OH210421   4.868   4.656   3.299  0.2177 -0.0308  0.1382
 3472TIP3    H110422   4.806   4.689   3.234  0.9595  0.6656 -0.2423
 3472TIP3    H210423   4.867   4.721   3.369  0.2502 -0.1954  0.2904
 3473TIP3   OH210424   4.170   0.624   1.104 -0.0316  0.2619  0.3020
 3473TIP3    H110425   4.178   0.583   1.191  2.1028  0.8065  0.4088
 3473TIP3    H210426   4.193   0.554   1.043 -0.9805  0.0368  0.1890
 3474TIP3   OH210427   4.579   2.594   1.462 -0.2741  0.4373  0.0987
 3474TIP3    H110428   4.614   2.568   1.547  1.8439 -0.8333 -1.0891
 3474TIP3    H210429   4.612   2.683   1.449 -2.6274  1.6421  1.5695
 3475TIP3   OH210430   3.542   5.700   3.819 -0.4083  0.1343  0.5320
 3475TIP3    H110431   3.579   5.705   3.908  0.5997  1.1794  0.0914
 3475TIP3    H210432   3.616   5.671   3.765 -0.0153  2.6451 -0.4386
 3476TIP3   OH210433   1.294   2.144   3.896  0.0380  0.2376  0.1034
 3476TIP3    H110434   1.356   2.149   3.823 -1.0791  1.1869 -0.8196
 3476TIP3    H210435   1.324   2.069   3.948 -0.1501 -1.6494 -2.3173
 3477TIP3   OH210436   4.062   0.351   5.145 -0.6212  0.3144 -0.3574
 3477TIP3    H110437   3.972   0.364   5.176 -0.6438  0.3824 -0.4498
 3477TIP3    H210438   4.081   0.259   5.163 -0.9673  0.1085 -0.9938
 3478TIP3   OH210439   2.201   4.329   4.402  0.1605 -0.2373  0.5875
 3478TIP3    H110440   2.127   4.327   4.462  0.2109 -3.8329  0.7456
 3478TIP3    H210441   2.162   4.345   4.316 -0.9983 -2.5216  0.6051
 3479TIP3   OH210442   3.554   0.376   3.269 -0.2390 -0.2158 -0.3227
 3479TIP3    H110443   3.632   0.414   3.229  0.3287 -1.8457 -0.8323
 3479TIP3    H210444   3.515   0.322   3.200 -2.4731  1.4071 -0.4492
 3480TIP3   OH210445   2.904   2.925   4.977  0.1355 -0.5031 -0.4018
 3480TIP3    H110446   2.949   3.010   4.970 -0.4025 -0.2583 -0.9732
 3480TIP3    H210447   2.934   2.889   5.061  0.1001  0.4117  0.0173
 3481TIP3   OH210448   5.986   1.930   0.168 -0.3738  0.4095  0.2800
 3481TIP3    H110449   5.916   1.916   0.105  0.5251 -3.3020 -0.1656
 3481TIP3    H210450   6.064   1.893   0.126  0.6713 -0.4676  2.7603
 3482TIP3   OH210451   5.929   4.606   2.937  0.5092 -0.1983  0.2360
 3482TIP3    H110452   5.952   4.670   2.870 -1.4095  0.2611 -0.0481
 3482TIP3    H210453   5.985   4.628   3.012  1.3517  0.4706 -0.5746
 3483TIP3   OH210454   5.458   4.676   0.935 -0.3463 -0.4466  0.2797
 3483TIP3    H110455   5.400   4.610   0.973 -0.5350 -0.0890  0.6251
 3483TIP3    H210456   5.536   4.674   0.990 -1.0883  0.8975  1.4677
 3484TIP3   OH210457   3.687   5.538   4.827  0.1831  0.4120  0.2873
 3484TIP3    H110458   3.775   5.563   4.854 -0.3183  1.5970  0.9228
 3484TIP3    H210459   3.697   5.452   4.787  1.4545  0.0146  1.3849
 3485TIP3   OH210460   4.976   1.085   4.969  0.3655  0.1264 -0.6379
 3485TIP3    H110461   5.005   1.013   5.025 -0.7591 -1.1184 -1.6114
 3485TIP3    H210462   4.957   1.156   5.031  3.3342  0.3371  0.2090
 3486TIP3   OH210463   4.553   2.506   1.144  0.1078  0.5358  0.5344
 3486TIP3    H110464   4.640   2.525   1.177  0.2810  0.4719  0.1192
 3486TIP3    H210465   4.537   2.415   1.170 -0.0471  0.7158  1.0664
 3487TIP3   OH210466   5.567   5.039   4.223 -0.1009 -0.1041 -0.3981
 3487TIP3    H110467   5.519   5.009   4.146 -0.7527 -1.1467  0.3961
 3487TIP3    H210468   5.514   5.111   4.258 -0.9055 -0.9986  0.2556
 3488TIP3   OH210469   4.231   5.637   3.302  0.1690  0.1793  0.0117
 3488TIP3    H110470   4.290   5.668   3.233 -1.9217  1.6590 -1.2233
 3488TIP3    H210471   4.290   5.601   3.368  2.3608  0.0473 -1.8520
 3489TIP3   OH210472   2.449   4.199   5.104  0.1820 -0.0427 -0.1182
 3489TIP3    H110473   2.493   4.124   5.063  3.3653  1.6858 -0.1634
 3489TIP3    H210474   2.434   4.260   5.032 -0.2891  0.3128  0.2740
 3490TIP3   OH210475   3.006   1.729   3.370 -0.1411 -0.0960 -0.3649
 3490TIP3    H110476   2.990   1.738   3.276 -0.3818  1.5225 -0.1948
 3490TIP3    H210477   2.942   1.664   3.399  1.1550 -2.0478 -1.5937
 3491TIP3   OH210478   4.119   4.931   1.331 -0.0827 -0.2480  0.1682
 3491TIP3    H110479   4.121   4.873   1.255 -0.4260 -1.5721  1.1228
 3491TIP3    H210480   4.188   4.898   1.388 -0.9635 -0.3978  1.1904
 3492TIP3   OH210481   4.800   1.413   4.705 -0.1302 -0.1633 -0.2242
 3492TIP3    H110482   4.804   1.319   4.689  1.7894 -0.1858  0.1656
 3492TIP3    H210483   4.888   1.444   4.686 -0.0003  1.1392  2.1089
 3493TIP3   OH210484   5.987   1.006   0.192 -0.4337 -0.1820  0.6331
 3493TIP3    H110485   6.070   0.998   0.146 -0.9798  1.2329 -0.7077
 3493TIP3    H210486   5.987   1.096   0.226 -1.7782  0.1596 -0.1948
 3494TIP3   OH210487   6.146   3.443   1.263  0.5271  0.3294 -0.0068
 3494TIP3    H110488   6.214   3.416   1.324 -2.1835 -2.4821  2.1496
 3494TIP3    H210489   6.126   3.534   1.287  2.1930  0.5668  0.5716
 3495TIP3   OH210490   5.592   1.619   2.467  0.2488  0.1241 -0.3582
 3495TIP3    H110491   5.660   1.617   2.534 -0.5506  0.3892  0.4955
 3495TIP3    H210492   5.613   1.546   2.408  1.3818  0.3493 -0.2485
 3496TIP3   OH210493   1.133   4.362   3.373  0.2371 -0.1099  0.1558
 3496TIP3    H110494   1.223   4.362   3.408  2.0343 -0.4534 -3.9489
 3496TIP3    H210495   1.093   4.283   3.411  1.0073  0.8850  3.3216
 3497TIP3   OH210496   3.352   2.782   0.890 -0.5212  0.2702 -0.1519
 3497TIP3    H110497   3.279   2.721   0.878 -0.0425 -0.2195 -0.6040
 3497TIP3    H210498   3.402   2.746   0.963 -0.1294  0.0165 -0.5462
 3498TIP3   OH210499   2.089   1.685   2.686  0.4696 -0.3751  0.4534
 3498TIP3    H110500   1.993   1.683   2.682  0.5002  0.0114 -1.1829
 3498TIP3    H210501   2.116   1.597   2.661  0.5439 -0.7450  1.7832
 3499TIP3   OH210502   3.595   4.304   3.672 -0.1012  0.0254  0.3685
 3499TIP3    H110503   3.630   4.220   3.703 -1.5135 -0.4133  0.8699
 3499TIP3    H210504   3.592   4.358   3.751  1.7358  0.9280 -0.1293
 3500TIP3   OH210505   2.399   5.976   1.594  0.1640  0.1451  0.3523
 3500TIP3    H110506   2.483   5.966   1.640  0.8691  0.0163 -0.9055
 3500TIP3    H210507   2.345   5.905   1.628  0.5578  0.2381  1.1954
 3501TIP3   OH210508   4.270   3.072   0.510 -0.4660  0.2386  0.1255
 3501TIP3    H110509   4.185   3.049   0.548 -1.4258 -0.2173 -2.1730
 3501TIP3    H210510   4.251   3.143   0.450  0.8315  0.2934 -0.2357
 3502TIP3   OH210511   5.038   5.500   2.422  0.5222  0.2204 -0.4717
 3502TIP3    H110512   4.945   5.481   2.408  0.5579  0.2709 -0.7885
 3502TIP3    H210513   5.064   5.548   2.343  0.3995  1.7107  0.3585
 3503TIP3   OH210514   5.425   0.077   0.183 -0.5073  0.2325 -0.3272
 3503TIP3    H110515   5.492   0.015   0.210 -2.8553 -1.6681  1.6332
 3503TIP3    H210516   5.464   0.125   0.110  1.2041 -4.1688 -2.6626
 3504TIP3   OH210517   4.742   3.786   0.160 -0.0070  0.0211  0.0463
 3504TIP3    H110518   4.822   3.828   0.193 -0.3745  1.2007 -0.4988
 3504TIP3    H210519   4.769   3.698   0.135  1.4423  0.8147 -1.3536
 3505TIP3   OH210520   5.187   5.222   1.628 -0.0920  0.2811 -0.5398
 3505TIP3    H110521   5.162   5.154   1.564  0.0625  0.3518 -0.6753
 3505TIP3    H210522   5.137   5.200   1.706 -0.1188  0.0670 -0.6156
 3506TIP3   OH210523   5.166   4.129   0.176  0.3095 -0.0103 -0.4688
 3506TIP3    H110524   5.228   4.128   0.249  1.1587 -1.2036 -1.1592
 3506TIP3    H210525   5.220   4.148   0.099  0.0171 -1.8591 -1.1995
 3507TIP3   OH210526   3.953   2.458   2.336 -0.2231  0.1302 -0.3260
 3507TIP3    H110527   3.913   2.382   2.378  1.0928 -0.3139  0.1557
 3507TIP3    H210528   3.970   2.430   2.246  1.3142 -0.5530  0.1651
 3508TIP3   OH210529   2.481   2.316   4.612  0.0827  0.3246 -0.1213
 3508TIP3    H110530   2.398   2.347   4.649 -0.9326 -1.1241 -1.0621
 3508TIP3    H210531   2.473   2.332   4.518  0.2577 -1.0894 -0.4002
 3509TIP3   OH210532   6.293   4.831   2.009 -0.6336  0.0714  0.8844
 3509TIP3    H110533   6.223   4.847   1.946  0.4563  0.3108 -0.3045
 3509TIP3    H210534   6.288   4.737   2.027  0.5850 -0.5060 -1.5057
 3510TIP3   OH210535   0.600   4.205   3.765 -0.3626 -0.4325 -0.0816
 3510TIP3    H110536   0.656   4.192   3.689  1.1300  2.1932  0.4529
 3510TIP3    H210537   0.660   4.208   3.840 -1.4805 -0.1394  0.8411
 3511TIP3   OH210538   1.007   5.004   0.437  0.2134  0.3641  0.3836
 3511TIP3    H110539   0.920   5.028   0.470 -0.7491 -1.6065 -0.5532
 3511TIP3    H210540   1.003   5.018   0.343  0.2272 -1.5228  0.0636
 3512TIP3   OH210541   4.909   3.885   4.923 -0.2379 -0.1317  0.2020
 3512TIP3    H110542   4.852   3.914   4.994 -0.7005 -1.2891  0.3134
 3512TIP3    H210543   4.875   3.932   4.846  1.0678  2.1398  0.9072
 3513TIP3   OH210544   6.042   3.714   1.365 -0.0999  0.1034 -0.3632
 3513TIP3    H110545   6.125   3.744   1.329 -0.2549  1.3476  0.2464
 3513TIP3    H210546   5.980   3.718   1.292 -0.0370  1.0067 -0.3804
 3514TIP3   OH210547   0.467   4.604   0.592 -0.0688  0.1586  0.4555
 3514TIP3    H110548   0.482   4.510   0.584  1.5649  0.4549 -0.8108
 3514TIP3    H210549   0.443   4.618   0.683 -0.7891 -1.5237  0.5547
 3515TIP3   OH210550   2.628   5.410   2.610 -0.2200  0.5543 -0.4596
 3515TIP3    H110551   2.692   5.361   2.559 -0.4912 -0.9449  0.5933
 3515TIP3    H210552   2.680   5.465   2.668  0.0866  1.0578 -1.1945
 3516TIP3   OH210553   2.281   1.897   2.152 -0.4670  0.1517  0.2301
 3516TIP3    H110554   2.287   1.964   2.084  0.4584 -0.4312 -0.2743
 3516TIP3    H210555   2.330   1.932   2.226  0.4075 -0.1498 -0.1962
 3517TIP3   OH210556   6.139   2.292   4.169  0.0322 -0.5640 -0.4481
 3517TIP3    H110557   6.229   2.322   4.183  0.8923 -2.8317 -0.6385
 3517TIP3    H210558   6.138   2.260   4.079 -1.0471 -0.3094 -0.5358
 3518TIP3   OH210559   4.122   4.613   4.563  0.3524  0.2047 -0.0174
 3518TIP3    H110560   4.192   4.548   4.566 -0.7121 -1.0077 -0.6360
 3518TIP3    H210561   4.147   4.678   4.629  2.5793  0.3840 -0.9732
 3519TIP3   OH210562   3.720   2.573   1.125 -0.6496 -0.0642 -0.3072
 3519TIP3    H110563   3.701   2.575   1.032  0.0651 -0.6205 -0.4740
 3519TIP3    H210564   3.715   2.664   1.153 -0.4323  0.1594 -0.9825
 3520TIP3   OH210565   0.994   2.977   4.284  0.1735  0.0334 -0.1365
 3520TIP3    H110566   0.905   3.010   4.273  0.7079  1.3263 -0.6812
 3520TIP3    H210567   1.021   3.007   4.371 -0.4438 -1.6656  0.6868
 3521TIP3   OH210568   4.574   2.016   4.187 -0.0680  0.4062  0.0681
 3521TIP3    H110569   4.635   1.948   4.216 -0.3158 -1.0924 -2.5588
 3521TIP3    H210570   4.504   2.016   4.252  0.1168 -1.6672  0.3326
 3522TIP3   OH210571   3.914   0.066   3.556  0.0666 -0.5297  0.5471
 3522TIP3    H110572   3.970   0.143   3.544  0.7825 -1.0847  0.2826
 3522TIP3    H210573   3.834   0.088   3.508  1.0170 -0.7327 -1.2329
 3523TIP3   OH210574   5.709   2.838   2.682 -0.3154  0.0859  0.0684
 3523TIP3    H110575   5.747   2.867   2.764  1.9479  0.5266 -1.0551
 3523TIP3    H210576   5.663   2.758   2.704  1.0320 -0.3161  1.6177
 3524TIP3   OH210577   5.025   4.113   1.058 -0.0354  0.2243 -0.3307
 3524TIP3    H110578   5.019   4.053   1.132  0.9158  1.2330  0.6048
 3524TIP3    H210579   4.935   4.141   1.042 -0.5397 -1.5985 -0.9557
 3525TIP3   OH210580   5.119   1.579   2.173  0.2293 -0.3483 -0.3031
 3525TIP3    H110581   5.100   1.583   2.079 -3.7055 -2.1056  0.2110
 3525TIP3    H210582   5.211   1.554   2.178  0.8661  0.7647 -3.6156
 3526TIP3   OH210583   0.299   5.740   0.228 -0.5767  0.3466  0.5186
 3526TIP3    H110584   0.307   5.814   0.167  0.0185  0.2810  0.5059
 3526TIP3    H210585   0.310   5.662   0.173  0.0986  0.2905  0.7189
 3527TIP3   OH210586   2.469   1.495   4.310  0.1967 -0.0842 -0.2520
 3527TIP3    H110587   2.472   1.547   4.391 -1.9069  1.6802 -1.2010
 3527TIP3    H210588   2.424   1.415   4.334 -1.1266  0.7650  0.2175
 3528TIP3   OH210589   0.734   1.361   0.218  0.1110  0.0728  0.0678
 3528TIP3    H110590   0.641   1.347   0.236 -0.1027 -0.2506 -1.2283
 3528TIP3    H210591   0.747   1.328   0.129  1.0061  2.0902 -0.6049
 3529TIP3   OH210592   5.391   2.376   4.537 -0.6037 -0.7080 -0.0715
 3529TIP3    H110593   5.410   2.353   4.446 -2.1645 -0.6765 -0.4372
 3529TIP3    H210594   5.437   2.309   4.588  1.0188 -0.2070 -0.8244
 3530TIP3   OH210595   2.488   3.223   0.370 -0.4047 -0.1809  0.0027
 3530TIP3    H110596   2.464   3.131   0.357 -0.6224 -0.0200 -0.8151
 3530TIP3    H210597   2.504   3.230   0.464 -0.7583 -0.9668  0.1382
 3531TIP3   OH210598   2.906   4.022   4.208 -0.1100 -0.2502 -0.1739
 3531TIP3    H110599   3.000   4.034   4.192 -0.0096  0.4393  0.8333
 3531TIP3    H210600   2.901   3.996   4.300 -1.0007  1.1828  0.2141
 3532TIP3   OH210601   3.218   5.757   3.684 -0.3655  0.2292 -0.2451
 3532TIP3    H110602   3.281   5.690   3.659 -0.3450  0.1349  0.0536
 3532TIP3    H210603   3.208   5.812   3.606  0.4856  0.5597 -0.1346
 3533TIP3   OH210604   2.811   3.793   3.043 -0.5662 -0.4729 -0.3369
 3533TIP3    H110605   2.741   3.854   3.066  1.0339  1.7606 -1.0652
 3533TIP3    H210606   2.809   3.728   3.113 -2.4039  0.3451  0.4461
 3534TIP3   OH210607   5.201   3.586   4.245 -0.1197  0.1135 -0.2865
 3534TIP3    H110608   5.270   3.582   4.178  0.2165 -1.5540  0.1405
 3534TIP3    H210609   5.247   3.580   4.328 -0.5965  1.5855  0.1261
 3535TIP3   OH210610   0.335   4.495   2.891  0.2821  0.0667  0.0145
 3535TIP3    H110611   0.309   4.519   2.802  1.0998 -0.0279 -0.2548
 3535TIP3    H210612   0.406   4.431   2.880  1.2964  1.0230  0.7219
 3536TIP3   OH210613   1.777   1.209   1.599  0.1079  0.0761 -0.3630
 3536TIP3    H110614   1.750   1.299   1.615  0.0673 -0.0686  0.4254
 3536TIP3    H210615   1.703   1.156   1.627  0.5512 -0.2467  0.2215
 3537TIP3   OH210616   1.939   5.399   3.994 -0.6751 -0.0870 -0.5114
 3537TIP3    H110617   1.942   5.321   3.940 -2.7059 -0.3543 -0.2876
 3537TIP3    H210618   1.868   5.452   3.957 -0.2578  1.0184  0.1990
 3538TIP3   OH210619   2.913   2.268   2.455  0.7415  0.8536  0.6960
 3538TIP3    H110620   2.962   2.267   2.373 -2.2179  0.6208 -1.2319
 3538TIP3    H210621   2.831   2.312   2.434 -1.1721 -1.3495  2.8546
 3539TIP3   OH210622   3.275   1.919   4.828 -0.0006  0.7755  0.3593
 3539TIP3    H110623   3.303   2.004   4.793  1.1613  0.6769  0.9830
 3539TIP3    H210624   3.242   1.871   4.752  0.4533  1.3525 -0.2087
 3540TIP3   OH210625   2.174   3.654   0.466  0.3383 -0.0829 -0.2528
 3540TIP3    H110626   2.174   3.590   0.537  2.4060 -0.6642 -0.7172
 3540TIP3    H210627   2.266   3.676   0.454 -0.1482  1.4339 -1.4997
 3541TIP3   OH210628   6.094   2.503   1.207  0.0271  0.0693  0.5286
 3541TIP3    H110629   6.175   2.523   1.256  0.2024 -0.5406  0.4858
 3541TIP3    H210630   6.102   2.554   1.126  0.6307 -0.4249  0.2730
 3542TIP3   OH210631   6.348   1.036   1.485 -0.6368 -0.0514  0.0589
 3542TIP3    H110632   6.292   1.051   1.561 -1.5192 -0.4697 -0.4980
 3542TIP3    H210633   6.327   0.947   1.456  1.2359 -0.7349  0.5870
 3543TIP3   OH210634   3.191   1.261   1.946  0.2738  0.5369  0.0454
 3543TIP3    H110635   3.157   1.350   1.938  0.5984  0.5092 -2.2753
 3543TIP3    H210636   3.147   1.212   1.876  1.1991 -0.7650  0.3387
 3544TIP3   OH210637   3.431   2.998   4.060  0.5334 -0.7779 -0.3142
 3544TIP3    H110638   3.398   2.920   4.105  1.3790 -0.2881  1.2124
 3544TIP3    H210639   3.493   3.038   4.122 -1.4548  2.3065 -0.0931
 3545TIP3   OH210640   4.470   5.082   1.610 -0.2312 -0.4424 -0.2603
 3545TIP3    H110641   4.401   5.129   1.564  0.5420  1.3638  0.3297
 3545TIP3    H210642   4.542   5.078   1.548  0.1015  0.1926  0.0757
 3546TIP3   OH210643   1.514   4.369   1.255 -0.9398 -0.4889  0.6686
 3546TIP3    H110644   1.592   4.315   1.262  0.6487  1.5841  0.1756
 3546TIP3    H210645   1.531   4.424   1.178 -2.1722  1.0737  1.4568
 3547TIP3   OH210646   4.808   5.073   2.614 -0.1766  0.1429 -0.2454
 3547TIP3    H110647   4.863   4.995   2.609  1.2320  1.1303 -1.0969
 3547TIP3    H210648   4.738   5.058   2.551 -0.7742 -1.0412  0.6768
 3548TIP3   OH210649   5.630   4.181   4.234  0.3217  0.6523 -0.1239
 3548TIP3    H110650   5.688   4.132   4.176 -0.3113 -0.4441  0.1483
 3548TIP3    H210651   5.677   4.185   4.317  0.6109  1.0019 -0.2988
 3549TIP3   OH210652   1.397   0.104   4.475 -0.1835 -0.2876 -0.6232
 3549TIP3    H110653   1.329   0.122   4.540  0.3814 -0.4789  0.0252
 3549TIP3    H210654   1.470   0.069   4.525  0.3124 -0.3133 -1.3473
 3550TIP3   OH210655   4.239   5.059   4.547 -0.4308  0.2936  0.1764
 3550TIP3    H110656   4.217   5.075   4.455 -2.4053  0.5947  0.6689
 3550TIP3    H210657   4.255   5.146   4.583 -0.1857  0.2189  0.2503
 3551TIP3   OH210658   6.082   1.567   2.646  0.0406 -0.1724  0.0434
 3551TIP3    H110659   6.130   1.626   2.704  0.3651 -1.4930  1.1522
 3551TIP3    H210660   5.992   1.568   2.680  0.2447 -0.9943  0.6461
 3552TIP3   OH210661   5.336   1.050   1.516 -0.0664  0.0705 -0.2800
 3552TIP3    H110662   5.390   0.976   1.489  1.5505  1.3166 -0.6249
 3552TIP3    H210663   5.285   1.072   1.437  2.1394  1.5546 -1.3867
 3553TIP3   OH210664   6.320   4.019   3.685  0.0536  0.3316  0.4621
 3553TIP3    H110665   6.290   4.007   3.594 -0.7524 -0.4336  0.8111
 3553TIP3    H210666   6.371   3.941   3.703  1.4564  1.1634  0.2099
 3554TIP3   OH210667   1.740   5.888   0.527 -0.1690 -0.0035 -0.0625
 3554TIP3    H110668   1.707   5.798   0.524 -2.1116  0.2570  4.8175
 3554TIP3    H210669   1.679   5.934   0.584  2.5193  3.6317  0.2317
 3555TIP3   OH210670   4.922   4.299   0.171 -0.2227  0.2382 -0.0840
 3555TIP3    H110671   5.001   4.250   0.194 -0.7164 -1.4878 -1.7981
 3555TIP3    H210672   4.884   4.325   0.255  0.6971 -1.3300  0.8610
 3556TIP3   OH210673   0.373   4.097   3.519  0.1816  0.0300 -0.0856
 3556TIP3    H110674   0.367   4.102   3.614 -1.9264 -0.6146 -0.1464
 3556TIP3    H210675   0.434   4.026   3.502 -0.2667 -0.5762  0.7893
 3557TIP3   OH210676   4.814   0.701   2.854  0.5948 -0.3928 -0.2880
 3557TIP3    H110677   4.726   0.675   2.827  0.7353  0.8065 -2.0997
 3557TIP3    H210678   4.852   0.742   2.776  2.5812 -0.4043  0.5994
 3558TIP3   OH210679   3.156   1.511   4.998  0.0224 -0.0964 -0.3601
 3558TIP3    H110680   3.216   1.583   5.016  0.5272 -0.7463  0.6479
 3558TIP3    H210681   3.069   1.551   5.001  0.0623  0.0133  3.1674
 3559TIP3   OH210682   5.551   3.216   2.723  0.5078  0.2531 -0.3434
 3559TIP3    H110683   5.490   3.288   2.739 -1.0541 -1.1177  0.1868
 3559TIP3    H210684   5.532   3.188   2.633  0.9499  0.3569 -0.4711
 3560TIP3   OH210685   1.536   1.075   0.448  0.0780  0.8742 -0.4581
 3560TIP3    H110686   1.583   1.103   0.527 -1.2547  0.3915  0.5505
 3560TIP3    H210687   1.603   1.038   0.392  0.9714  0.5883  0.7513
 3561TIP3   OH210688   3.910   0.716   1.919 -0.3935 -0.3877  0.0429
 3561TIP3    H110689   3.948   0.801   1.936 -1.9343  0.3009  0.2548
 3561TIP3    H210690   3.904   0.711   1.823 -0.5740 -0.1133  0.0381
 3562TIP3   OH210691   2.134   1.129   3.225 -0.3015 -0.7379 -0.1268
 3562TIP3    H110692   2.210   1.186   3.215 -0.0226 -1.1147 -0.2072
 3562TIP3    H210693   2.098   1.121   3.136 -1.0614  0.2740  0.0733
 3563TIP3   OH210694   3.884   3.419   1.836 -0.2644  0.1136  0.6480
 3563TIP3    H110695   3.897   3.396   1.928  0.6618 -0.4381  0.3923
 3563TIP3    H210696   3.967   3.460   1.810 -0.4853  0.1744  0.0338
 3564TIP3   OH210697   4.148   0.768   1.548 -0.6423 -0.7267  0.2244
 3564TIP3    H110698   4.242   0.759   1.533 -0.8055 -3.2285  0.3308
 3564TIP3    H210699   4.139   0.855   1.586  1.6116 -0.4102  0.2131
 3565TIP3   OH210700   1.189   2.076   1.910 -0.1662 -0.2614 -0.6455
 3565TIP3    H110701   1.099   2.091   1.881 -0.3351 -0.7283 -0.3612
 3565TIP3    H210702   1.182   2.065   2.005  0.4415  1.7358 -0.3045
 3566TIP3   OH210703   2.211   3.351   4.754  0.4175  0.0994  0.7800
 3566TIP3    H110704   2.131   3.327   4.800 -0.4272 -1.3091 -1.3022
 3566TIP3    H210705   2.189   3.431   4.706  1.4586  1.8869  3.0550
 3567TIP3   OH210706   3.055   3.006   4.717 -0.1197 -0.0340  0.4883
 3567TIP3    H110707   2.965   2.973   4.714  0.1606 -1.2036  2.8004
 3567TIP3    H210708   3.049   3.096   4.684 -1.4260 -1.2538 -3.1215
 3568TIP3   OH210709   3.903   2.944   2.165  0.1793 -0.1548 -0.4111
 3568TIP3    H110710   3.894   2.874   2.230  0.0847 -0.2556 -0.5322
 3568TIP3    H210711   3.835   2.925   2.100 -1.6502  1.5201  0.8755
 3569TIP3   OH210712   1.344   2.415   2.535  0.4725 -0.1218  0.4017
 3569TIP3    H110713   1.249   2.416   2.541  0.4181 -0.9607 -0.2535
 3569TIP3    H210714   1.368   2.505   2.515 -0.1786  0.0861  0.5507
 3570TIP3   OH210715   4.264   4.009   1.230  0.3023  0.0323  0.4099
 3570TIP3    H110716   4.210   3.948   1.179  0.7972  1.2907 -1.6888
 3570TIP3    H210717   4.215   4.018   1.313 -1.3822 -0.8105 -0.4232
 3571TIP3   OH210718   5.314   5.267   3.085  0.1532 -0.1572 -0.1589
 3571TIP3    H110719   5.313   5.190   3.028 -1.9836 -0.1196 -0.2544
 3571TIP3    H210720   5.274   5.236   3.167  0.8911  0.4225  0.4288
 3572TIP3   OH210721   0.119   5.473   1.611  0.0456 -0.7368 -0.2054
 3572TIP3    H110722   0.045   5.491   1.668  0.9080  0.8058  0.4695
 3572TIP3    H210723   0.099   5.387   1.572 -2.6561  0.1509 -0.9875
 3573TIP3   OH210724   4.437   3.271   2.957  0.0727  0.5280  0.0168
 3573TIP3    H110725   4.497   3.327   2.908  0.2195  0.8249  0.5234
 3573TIP3    H210726   4.355   3.321   2.962 -0.3428 -0.0160 -0.9613
 3574TIP3   OH210727   5.525   0.390   2.228 -0.3595 -0.3236  0.3580
 3574TIP3    H110728   5.518   0.425   2.317  1.3638 -0.0108  0.4052
 3574TIP3    H210729   5.538   0.296   2.240 -1.0734 -0.4310  0.3747
 3575TIP3   OH210730   5.913   5.076   3.368  0.3912 -0.1706  0.3453
 3575TIP3    H110731   5.970   5.152   3.354 -0.3522  0.4461  0.6428
 3575TIP3    H210732   5.949   5.032   3.445  1.1381 -0.4275 -0.1371
 3576TIP3   OH210733   0.486   2.227   3.566 -0.7735  0.1881 -0.2290
 3576TIP3    H110734   0.479   2.134   3.586  0.0506 -0.2249 -1.6681
 3576TIP3    H210735   0.396   2.255   3.550 -0.9772 -0.4812 -0.2602
 3577TIP3   OH210736   6.114   2.073   0.366 -0.4099  0.0760  0.3871
 3577TIP3    H110737   6.165   2.011   0.417 -0.2788 -0.1406 -0.0047
 3577TIP3    H210738   6.070   2.020   0.299  2.2421  0.7057 -2.0720
 3578TIP3   OH210739   5.336   4.245   3.265  0.0113  0.6407 -0.4633
 3578TIP3    H110740   5.394   4.320   3.277  0.4429  0.8241 -3.1107
 3578TIP3    H210741   5.250   4.284   3.249 -0.0467  0.5317 -0.4166
 3579TIP3   OH210742   2.538   2.946   0.660  0.7785  0.2871 -0.2238
 3579TIP3    H110743   2.610   2.989   0.707  0.1947  2.3302 -1.0553
 3579TIP3    H210744   2.461   2.960   0.716  1.0430 -2.2664  0.8745
 3580TIP3   OH210745   4.404   3.054   1.895  0.5293  0.5590  0.1377
 3580TIP3    H110746   4.411   3.139   1.852 -0.9956  1.1982  1.0579
 3580TIP3    H210747   4.434   3.070   1.985  0.4135  0.0736  0.2665
 3581TIP3   OH210748   4.897   2.954   2.481 -0.3479 -0.0240  0.3351
 3581TIP3    H110749   4.877   3.029   2.538 -0.2851  1.1041 -1.0770
 3581TIP3    H210750   4.937   2.993   2.404 -1.5096 -1.3936 -1.0103
 3582TIP3   OH210751   4.447   0.583   3.485 -0.8355 -0.1581  0.2169
 3582TIP3    H110752   4.399   0.655   3.444  0.7504  3.2584  3.6678
 3582TIP3    H210753   4.539   0.606   3.470 -0.2860 -1.1209  1.9215
 3583TIP3   OH210754   2.952   4.053   3.842 -0.2588 -0.2578  0.6133
 3583TIP3    H110755   2.999   4.134   3.821 -1.5585  0.6914  1.1724
 3583TIP3    H210756   2.984   4.030   3.930 -0.3655  0.0329  0.7320
 3584TIP3   OH210757   3.676   0.207   1.315 -0.4210  0.4870 -0.1821
 3584TIP3    H110758   3.750   0.147   1.301 -0.0373  1.0963 -0.8576
 3584TIP3    H210759   3.637   0.178   1.397  2.0747  1.6882  1.5624
 3585TIP3   OH210760   2.183   5.966   4.629 -0.1705 -1.1727 -0.0559
 3585TIP3    H110761   2.206   5.895   4.569  0.5263 -1.6762  0.7801
 3585TIP3    H210762   2.161   6.040   4.572 -0.1847 -1.8354 -0.9281
 3586TIP3   OH210763   1.703   2.548   2.727  0.0501 -0.3760 -0.2055
 3586TIP3    H110764   1.730   2.635   2.758  1.4069 -1.2009  1.0474
 3586TIP3    H210765   1.722   2.490   2.800 -2.3506 -1.5260 -0.4192
 3587TIP3   OH210766   1.695   0.050   1.093 -0.1033 -0.0263  0.0787
 3587TIP3    H110767   1.657  -0.038   1.093 -1.3149  0.4285 -1.6421
 3587TIP3    H210768   1.784   0.038   1.061 -0.3384 -0.6176 -0.3747
 3588TIP3   OH210769   1.081   1.485   3.990 -0.0842 -0.4248  0.1043
 3588TIP3    H110770   1.058   1.392   4.001 -1.3208 -0.0650  0.6943
 3588TIP3    H210771   1.176   1.485   3.985 -0.0402 -1.6913  0.4657
 3589TIP3   OH210772   0.848   3.521   4.866  0.3356  0.5002 -0.4967
 3589TIP3    H110773   0.851   3.613   4.838 -1.8177  0.6873 -0.2738
 3589TIP3    H210774   0.791   3.478   4.802 -0.0609 -0.2966  0.3672
 3590TIP3   OH210775   4.884   0.434   0.949  0.5412 -0.7004  0.0991
 3590TIP3    H110776   4.889   0.408   1.041  1.0440 -1.7266 -0.2038
 3590TIP3    H210777   4.973   0.458   0.926  0.5131 -0.9120 -0.2430
 3591TIP3   OH210778   3.802   5.656   2.288  0.4763  0.4245  0.0879
 3591TIP3    H110779   3.772   5.744   2.310  0.2972  1.1848 -2.8062
 3591TIP3    H210780   3.808   5.610   2.373 -0.6740  2.7841  1.5345
 3592TIP3   OH210781   6.182   1.465   0.941  0.1242  0.3716 -0.0744
 3592TIP3    H110782   6.090   1.439   0.942  0.4478 -0.8314 -0.3017
 3592TIP3    H210783   6.194   1.516   1.022 -0.7013  0.4063  0.0258
 3593TIP3   OH210784   2.655   2.972   5.131 -0.1383  0.0612 -0.1242
 3593TIP3    H110785   2.586   3.038   5.140  0.5456  0.8781 -0.7546
 3593TIP3    H210786   2.695   2.990   5.046 -0.0219 -1.2580 -0.3754
 3594TIP3   OH210787   0.258   0.249   3.635 -0.1691  0.5423 -0.0609
 3594TIP3    H110788   0.173   0.207   3.651  0.8517 -0.7532  2.5540
 3594TIP3    H210789   0.273   0.303   3.712  1.2162  1.0735 -0.6677
 3595TIP3   OH210790   4.440   3.609   0.684 -0.2189 -0.3942 -0.4600
 3595TIP3    H110791   4.350   3.582   0.671 -0.6098  0.3618  0.5277
 3595TIP3    H210792   4.488   3.528   0.702 -1.4380 -0.4992  2.9364
 3596TIP3   OH210793   2.683   2.198   1.413 -0.1615  0.6314 -0.1392
 3596TIP3    H110794   2.599   2.244   1.420 -0.5221 -0.0049 -0.1815
 3596TIP3    H210795   2.727   2.215   1.496 -0.9026 -0.1168  0.4186
 3597TIP3   OH210796   1.610   2.906   1.946  0.1652  0.0626  0.1063
 3597TIP3    H110797   1.608   2.959   2.026  1.6754 -0.7773  0.7391
 3597TIP3    H210798   1.584   2.967   1.876 -1.1520  0.8142  1.2061
 3598TIP3   OH210799   2.450   5.811   3.797 -0.4201 -0.0106 -0.1100
 3598TIP3    H110800   2.417   5.747   3.860 -0.2456 -0.8257 -0.8244
 3598TIP3    H210801   2.382   5.817   3.730 -0.4739  0.6218 -0.0001
 3599TIP3   OH210802   3.330   1.079   4.233  0.3194  0.0868  0.2837
 3599TIP3    H110803   3.383   1.032   4.168 -0.6638 -0.8511  0.1311
 3599TIP3    H210804   3.357   1.170   4.224 -1.1806  0.3859 -2.9402
 3600TIP3   OH210805   0.204   1.488   0.913  0.0846  0.7072 -0.5032
 3600TIP3    H110806   0.110   1.496   0.894 -0.3774  0.1981  1.3323
 3600TIP3    H210807   0.215   1.397   0.940  1.2130  0.6420 -1.1224
 3601TIP3   OH210808   3.689   3.201   2.204 -0.2309  0.2984  0.1298
 3601TIP3    H110809   3.686   3.194   2.108 -0.4766 -0.8683  0.2056
 3601TIP3    H210810   3.637   3.279   2.224  3.2644  3.1539 -0.8901
 3602TIP3   OH210811   3.323   4.101   3.878  0.0097  0.0724  0.3969
 3602TIP3    H110812   3.374   4.056   3.811 -2.0984  0.0768 -1.3093
 3602TIP3    H210813   3.278   4.171   3.831 -1.7727 -0.1006  1.7340
 3603TIP3   OH210814   5.814   3.214   2.003  0.5499  0.2213  0.1544
 3603TIP3    H110815   5.862   3.229   1.922  0.8732  2.0071  0.6337
 3603TIP3    H210816   5.725   3.246   1.984  0.4136 -0.0941  0.2601
 3604TIP3   OH210817   4.518   2.793   1.149  0.0901 -0.3601  0.1528
 3604TIP3    H110818   4.507   2.702   1.122  0.1874 -1.7095  4.0692
 3604TIP3    H210819   4.447   2.840   1.104 -1.1736 -2.7255 -0.5000
 3605TIP3   OH210820   1.064   0.898   1.389  0.5693  0.2573  0.0420
 3605TIP3    H110821   1.062   0.993   1.375 -1.7005  0.6962  2.4269
 3605TIP3    H210822   1.143   0.883   1.442  0.2371  1.0440  0.7808
 3606TIP3   OH210823   4.228   1.967   0.875 -0.0214  0.8046  1.0514
 3606TIP3    H110824   4.164   2.033   0.849 -2.0444 -1.2899  0.2671
 3606TIP3    H210825   4.180   1.909   0.935  1.6983  0.1228  1.8317
 3607TIP3   OH210826   5.164   4.411   4.519 -0.2760  0.0229 -0.5702
 3607TIP3    H110827   5.100   4.422   4.590 -0.0735  2.6546 -0.7196
 3607TIP3    H210828   5.249   4.411   4.563 -0.1816  1.0060 -0.7435
 3608TIP3   OH210829   5.432   0.417   4.765  0.5985  0.6192 -0.1328
 3608TIP3    H110830   5.460   0.490   4.820  2.6721 -0.9759  1.0770
 3608TIP3    H210831   5.411   0.347   4.827 -1.1917  0.0976 -1.2573
 3609TIP3   OH210832   0.089   3.598   4.484 -0.0189  0.1814 -0.3431
 3609TIP3    H110833   0.088   3.505   4.509 -0.6944  0.7295  1.9291
 3609TIP3    H210834   0.016   3.607   4.423 -0.9349 -0.5117  0.6137
 3610TIP3   OH210835   1.836   4.162   1.860  0.0057 -0.0956  0.9239
 3610TIP3    H110836   1.896   4.217   1.911  2.9563 -2.0096 -0.1932
 3610TIP3    H210837   1.789   4.111   1.925  0.2575  0.8247  1.8470
 3611TIP3   OH210838   4.885   1.396   2.211 -0.2052 -0.2031  0.3590
 3611TIP3    H110839   4.840   1.479   2.229 -0.7651 -0.4414  0.0583
 3611TIP3    H210840   4.972   1.423   2.179  0.4822  0.2511  2.4043
 3612TIP3   OH210841   3.054   4.384   3.028  0.2358 -0.3166  0.2275
 3612TIP3    H110842   3.062   4.373   3.123  0.0772  1.5676  0.4991
 3612TIP3    H210843   3.142   4.413   3.000 -0.6958  3.3064  0.5286
 3613TIP3   OH210844   3.071   0.555   0.549  0.7247  0.3311  0.0979
 3613TIP3    H110845   3.159   0.587   0.571 -0.6050  3.3471  1.5996
 3613TIP3    H210846   3.018   0.575   0.626 -1.3756 -1.1905 -0.8522
 3614TIP3   OH210847   4.561   2.497   2.194 -0.2824  0.0497 -0.4117
 3614TIP3    H110848   4.619   2.443   2.248  0.2037 -0.5341 -1.4834
 3614TIP3    H210849   4.618   2.534   2.126 -0.9177  0.5541 -0.6821
 3615TIP3   OH210850   1.426   5.638   4.390  0.3266 -0.1248  0.4777
 3615TIP3    H110851   1.474   5.688   4.324  1.5621 -0.1248  1.3345
 3615TIP3    H210852   1.472   5.656   4.472 -0.5146 -0.9722  1.1653
 3616TIP3   OH210853   4.574   5.243   4.481 -0.1556 -0.2836  0.6594
 3616TIP3    H110854   4.635   5.251   4.554 -0.7707 -1.0333  1.2710
 3616TIP3    H210855   4.630   5.230   4.404  0.4673 -0.5247  1.1466
 3617TIP3   OH210856   6.073   3.726   5.064  0.0309  0.3551 -0.5042
 3617TIP3    H110857   6.095   3.816   5.089  0.9746  0.0205 -0.0950
 3617TIP3    H210858   6.098   3.673   5.139 -2.3208 -0.0726  0.0589
 3618TIP3   OH210859   6.276   0.536   5.020 -0.0802 -0.2136  0.6034
 3618TIP3    H110860   6.264   0.600   4.951 -2.0554 -0.7037  0.4352
 3618TIP3    H210861   6.201   0.477   5.012 -0.0029 -0.6909  2.7160
 3619TIP3   OH210862   0.150   1.307   1.401 -0.0214 -0.5302 -0.3203
 3619TIP3    H110863   0.084   1.357   1.450  0.3561 -0.1774 -0.1661
 3619TIP3    H210864   0.197   1.257   1.467 -0.1435 -0.7936 -0.4322
 3620TIP3   OH210865   6.142   4.183   2.481  0.5023  0.4388  0.0020
 3620TIP3    H110866   6.196   4.169   2.558 -1.2418  0.8182  1.3495
 3620TIP3    H210867   6.065   4.128   2.496  0.2787  0.2527 -1.6499
 3621TIP3   OH210868   0.607   2.242   2.235  0.2057 -0.2740  0.1521
 3621TIP3    H110869   0.512   2.255   2.232  0.1752 -0.5787 -0.2580
 3621TIP3    H210870   0.620   2.150   2.213  0.5235 -0.5565  1.4519
 3622TIP3   OH210871   6.183   5.776   4.263  0.1673  0.2051  0.3174
 3622TIP3    H110872   6.236   5.697   4.248  0.0305  0.1157  0.3009
 3622TIP3    H210873   6.093   5.743   4.273  0.0611  0.3893 -0.0083
 3623TIP3   OH210874   5.999   0.133   1.214 -0.1533 -0.2232 -0.2781
 3623TIP3    H110875   6.011   0.051   1.262 -0.7822  1.1766  2.5163
 3623TIP3    H210876   5.915   0.122   1.169 -0.8354 -0.7272  1.0456
 3624TIP3   OH210877   3.850   5.117   3.245 -0.3039  0.3420 -0.6749
 3624TIP3    H110878   3.835   5.210   3.267  1.4949  0.1315  1.9468
 3624TIP3    H210879   3.907   5.086   3.315  2.3919 -1.7915 -3.6042
 3625TIP3   OH210880   1.519   0.151   2.351 -0.0302  0.2634  0.1828
 3625TIP3    H110881   1.581   0.130   2.280  0.6175  2.8852 -0.1262
 3625TIP3    H210882   1.439   0.175   2.306 -0.5555 -0.8439  0.4967
 3626TIP3   OH210883   3.949   3.717   2.466  0.0400 -0.2571 -0.2628
 3626TIP3    H110884   3.908   3.678   2.389 -1.6402  0.5220  0.1964
 3626TIP3    H210885   3.911   3.668   2.540 -0.6708  0.9714  0.2125
 3627TIP3   OH210886   1.662   1.956   2.781  0.1275 -0.3840  0.4895
 3627TIP3    H110887   1.599   1.959   2.710  0.9904  0.4591 -0.2602
 3627TIP3    H210888   1.629   1.887   2.839 -0.9079 -0.6716 -0.4053
 3628TIP3   OH210889   5.837   1.714   2.923 -0.3051 -0.6588  0.2307
 3628TIP3    H110890   5.795   1.743   2.842  0.0738  0.7428  0.5032
 3628TIP3    H210891   5.930   1.730   2.908  0.1653 -3.3847 -0.2331
 3629TIP3   OH210892   4.060   1.918   4.413 -0.2139  0.0921 -0.0573
 3629TIP3    H110893   4.099   1.850   4.467 -0.2749  0.9597  1.1273
 3629TIP3    H210894   4.005   1.968   4.473 -0.4863  0.9399 -0.9768
 3630TIP3   OH210895   0.845   4.096   2.981 -0.1588 -0.1220  0.0225
 3630TIP3    H110896   0.789   4.066   3.053 -0.8292 -0.8638 -0.7791
 3630TIP3    H210897   0.801   4.065   2.902  1.1401 -0.3110 -0.6640
 3631TIP3   OH210898   4.457   5.264   4.960  0.2466  0.0726 -0.0730
 3631TIP3    H110899   4.531   5.325   4.950  0.2876  0.0610  0.1515
 3631TIP3    H210900   4.396   5.289   4.891  0.3774  0.2065 -0.1406
 3632TIP3   OH210901   4.229   3.302   3.695 -0.2838  0.0041 -0.2874
 3632TIP3    H110902   4.310   3.269   3.736 -0.6684 -0.0979  0.4166
 3632TIP3    H210903   4.216   3.246   3.619  2.3355  2.3347 -2.6974
 3633TIP3   OH210904   4.400   0.788   1.153  0.3168 -0.2045  0.0626
 3633TIP3    H110905   4.321   0.747   1.116  0.1867  0.4183 -0.3671
 3633TIP3    H210906   4.423   0.856   1.091  0.2461  0.7023  1.0067
 3634TIP3   OH210907   2.919   3.067   2.480  0.4925  0.2107 -0.9726
 3634TIP3    H110908   2.842   3.078   2.424 -1.1604 -0.7107  0.9952
 3634TIP3    H210909   2.904   3.126   2.554  0.3892 -1.7729  0.6702
 3635TIP3   OH210910   4.146   0.806   4.345 -0.3797 -0.0708 -0.3062
 3635TIP3    H110911   4.149   0.902   4.341  0.0758 -0.1059 -1.1759
 3635TIP3    H210912   4.231   0.779   4.309 -0.1932 -0.7890  0.6593
 3636TIP3   OH210913   3.877   3.624   1.618  0.7201 -1.2907 -0.1998
 3636TIP3    H110914   3.832   3.620   1.702 -0.3425  1.3024 -0.5628
 3636TIP3    H210915   3.851   3.543   1.573 -2.1840 -0.7318  0.3245
 3637TIP3   OH210916   3.893   0.407   0.282 -0.0142  0.6127 -0.5771
 3637TIP3    H110917   3.974   0.445   0.315  0.3368  1.8780 -2.7327
 3637TIP3    H210918   3.898   0.315   0.305  2.7412  0.3495 -1.8857
 3638TIP3   OH210919   2.826   2.793   0.395 -0.1757  0.0397  0.8532
 3638TIP3    H110920   2.780   2.857   0.340 -1.6056 -2.2511 -0.8003
 3638TIP3    H210921   2.759   2.758   0.453 -0.2220 -1.9692 -0.2800
 3639TIP3   OH210922   5.566   5.385   2.106 -0.5497  0.6741  0.3289
 3639TIP3    H110923   5.509   5.318   2.068 -1.3636 -0.1264  2.7291
 3639TIP3    H210924   5.530   5.468   2.076 -1.4118  0.0970 -0.2763
 3640TIP3   OH210925   0.303   2.925   0.211  0.8362  0.2852  0.2829
 3640TIP3    H110926   0.353   2.911   0.292  1.7649  1.7914 -0.0008
 3640TIP3    H210927   0.277   3.017   0.214  0.6730  0.2964 -1.0143
 3641TIP3   OH210928   6.333   4.614   4.466  0.1134  0.3800 -0.0685
 3641TIP3    H110929   6.372   4.627   4.552  1.2011 -1.1411 -0.2867
 3641TIP3    H210930   6.272   4.687   4.456  1.3836  1.6727  1.1595
 3642TIP3   OH210931   1.762   5.558   2.809  0.6615 -0.2827  0.3556
 3642TIP3    H110932   1.848   5.521   2.788  0.9393 -1.0484  2.5388
 3642TIP3    H210933   1.717   5.487   2.854 -0.3095  0.8063  1.1451
 3643TIP3   OH210934   1.204   4.972   3.807  0.5550  0.3607  0.3480
 3643TIP3    H110935   1.180   4.939   3.894  2.4097 -2.3406 -0.0244
 3643TIP3    H210936   1.252   5.053   3.824  0.3008  0.2344  1.7887
 3644TIP3   OH210937   0.959   0.324   1.057  0.7197 -0.1519  0.2131
 3644TIP3    H110938   0.922   0.413   1.055  0.0149 -0.4364 -0.8129
 3644TIP3    H210939   0.957   0.296   0.965  0.1728 -1.5309  0.6223
 3645TIP3   OH210940   3.100   0.147   2.896 -0.4920  0.5469  0.1140
 3645TIP3    H110941   3.188   0.186   2.903  0.7167 -1.9189 -0.2402
 3645TIP3    H210942   3.065   0.182   2.814  0.1260  1.5856  0.2726
 3646TIP3   OH210943   2.051   5.560   4.683  0.4746 -0.2950 -0.3056
 3646TIP3    H110944   1.990   5.628   4.654  1.6544  0.6946 -0.5674
 3646TIP3    H210945   2.085   5.591   4.767  1.4719 -0.2335 -0.7106
 3647TIP3   OH210946   0.217   4.358   0.351 -0.1837 -0.4403 -0.1275
 3647TIP3    H110947   0.304   4.363   0.313 -0.5408 -0.3139 -0.9488
 3647TIP3    H210948   0.223   4.287   0.415  0.4200 -0.6774 -0.4372
 3648TIP3   OH210949   1.716   0.747   3.095 -0.2212  0.2144  0.0559
 3648TIP3    H110950   1.757   0.686   3.156  1.0864  1.9558  1.0021
 3648TIP3    H210951   1.789   0.784   3.045 -0.7795  2.1199  0.5738
 3649TIP3   OH210952   6.164   5.529   3.235 -1.1466  0.3861 -0.4559
 3649TIP3    H110953   6.201   5.607   3.194 -2.0733  0.5771 -0.9535
 3649TIP3    H210954   6.117   5.484   3.165 -1.4985 -0.0629  0.0549
 3650TIP3   OH210955   5.839   3.150   4.309  0.1571  0.0658  0.2279
 3650TIP3    H110956   5.749   3.176   4.329  0.5908  0.6903  1.4470
 3650TIP3    H210957   5.887   3.166   4.389  1.4832  0.2839 -0.5814
 3651TIP3   OH210958   2.340   1.937   0.471  0.5118  0.8550  0.1047
 3651TIP3    H110959   2.324   1.936   0.377 -1.1793  1.5646  0.3315
 3651TIP3    H210960   2.260   1.976   0.508  0.0927 -1.5285  2.0073
 3652TIP3   OH210961   5.570   0.267   3.290 -0.1070 -0.4329  0.4021
 3652TIP3    H110962   5.549   0.232   3.377  0.7479 -0.3888  0.6390
 3652TIP3    H210963   5.493   0.318   3.266 -0.7026 -1.1348  0.7622
 3653TIP3   OH210964   0.359   0.759   1.221  0.7304 -0.0849  0.3373
 3653TIP3    H110965   0.321   0.824   1.162  1.1579  0.1649  0.3290
 3653TIP3    H210966   0.314   0.678   1.201  0.6190  0.0799 -0.0766
 3654TIP3   OH210967   1.618   3.991   0.267 -0.2319  0.1078 -0.2721
 3654TIP3    H110968   1.574   4.044   0.201 -0.0677  1.3183  0.5529
 3654TIP3    H210969   1.581   3.904   0.257  1.0417 -0.2142 -3.1195
 3655TIP3   OH210970   0.957   3.241   1.375 -0.0605 -0.4312 -0.0450
 3655TIP3    H110971   0.924   3.286   1.297  0.0282 -1.1433 -0.5011
 3655TIP3    H210972   1.049   3.266   1.380 -0.1531 -0.1060  0.0315
 3656TIP3   OH210973   6.190   4.839   1.484  0.2295  0.3452 -0.2866
 3656TIP3    H110974   6.182   4.895   1.407 -0.5371  2.6646  1.3505
 3656TIP3    H210975   6.268   4.872   1.530  0.3033 -0.5453  0.2581
 3657TIP3   OH210976   4.824   1.354   2.561 -0.2877 -0.8977 -0.0531
 3657TIP3    H110977   4.772   1.307   2.495  0.7919  1.8680 -3.1412
 3657TIP3    H210978   4.913   1.320   2.551 -0.2513 -0.9894  0.5402
 3658TIP3   OH210979   1.983   3.322   0.468 -0.0252 -0.3040 -0.9113
 3658TIP3    H110980   1.992   3.338   0.562  0.0090 -0.1042 -0.9477
 3658TIP3    H210981   2.065   3.352   0.431  0.4970 -1.6030 -0.8562
 3659TIP3   OH210982   0.797   2.182   3.163 -0.1397 -0.6501 -0.3903
 3659TIP3    H110983   0.851   2.236   3.105 -0.1587 -1.0330 -0.7752
 3659TIP3    H210984   0.709   2.186   3.123 -0.8195  1.3404  1.1531
 3660TIP3   OH210985   4.354   3.435   4.317  0.0395 -0.1830  0.6494
 3660TIP3    H110986   4.275   3.473   4.356  0.1824  0.1001  0.6652
 3660TIP3    H210987   4.422   3.501   4.330  0.1787 -0.2437  0.2579
 3661TIP3   OH210988   0.526   4.301   0.493  0.0442 -0.0583  0.7633
 3661TIP3    H110989   0.605   4.258   0.528  0.7478 -1.0853 -1.8463
 3661TIP3    H210990   0.493   4.240   0.427 -2.9477  0.3850  1.7035
 3662TIP3   OH210991   3.985   1.857   4.164 -0.0147  0.4248 -0.1971
 3662TIP3    H110992   4.031   1.903   4.093  0.1011  1.0351  0.2697
 3662TIP3    H210993   4.022   1.894   4.244 -0.3568 -0.0540  0.1859
 3663TIP3   OH210994   0.325   4.181   1.935 -0.3053 -0.5155  0.7873
 3663TIP3    H110995   0.262   4.126   1.981 -1.1537  0.5302  0.9090
 3663TIP3    H210996   0.392   4.120   1.905 -1.0065 -1.5564  1.2689
 3664TIP3   OH210997   5.804   0.521   1.730  0.2061 -0.0969 -0.5492
 3664TIP3    H110998   5.765   0.604   1.703  0.4276  0.1847 -0.0271
 3664TIP3    H210999   5.898   0.534   1.717  0.3894  0.2924  0.9490
 3665TIP3   OH211000   0.142   1.157   0.115  0.3277  0.4253  0.2135
 3665TIP3    H111001   0.134   1.075   0.163 -0.4754  0.7602  0.6927
 3665TIP3    H211002   0.224   1.150   0.066 -0.1506 -1.0124 -0.4373
 3666TIP3   OH211003   3.217   4.625   0.515 -0.7191 -0.2408 -0.0568
 3666TIP3    H111004   3.277   4.657   0.582 -1.2758  0.5052  0.0923
 3666TIP3    H211005   3.193   4.703   0.465 -1.3867 -0.5701 -0.2631
 3667TIP3   OH211006   1.292   0.997   3.348 -0.0062 -0.5583  0.3759
 3667TIP3    H111007   1.314   1.090   3.356 -0.7778 -0.2908 -0.4875
 3667TIP3    H211008   1.370   0.958   3.307 -0.2060 -0.0286 -0.5543
 3668TIP3   OH211009   2.450   5.732   0.204 -0.7504  0.1925 -0.1050
 3668TIP3    H111010   2.407   5.752   0.287  0.4093  0.2558  0.5080
 3668TIP3    H211011   2.378   5.717   0.142 -1.6326  0.4558  0.8275
 3669TIP3   OH211012   6.121   1.952   3.242  0.5347 -0.0507  0.3453
 3669TIP3    H111013   6.197   1.939   3.185  0.3796 -0.3569  0.2045
 3669TIP3    H211014   6.121   1.875   3.299 -0.4594 -0.7660 -0.5664
 3670TIP3   OH211015   4.187   2.336   2.726  0.9502  0.6283 -0.7312
 3670TIP3    H111016   4.127   2.382   2.784 -1.0356  1.1561 -3.0031
 3670TIP3    H211017   4.139   2.257   2.699  1.7733  0.4124 -1.6564
 3671TIP3   OH211018   2.074   5.278   2.388  0.3281 -0.0790  1.1094
 3671TIP3    H111019   2.111   5.364   2.408  0.0260 -0.2615  2.5300
 3671TIP3    H211020   2.015   5.259   2.461 -1.1423 -0.6316 -0.1674
 3672TIP3   OH211021   5.452   0.120   0.911 -0.4860  0.0053 -0.1489
 3672TIP3    H111022   5.382   0.180   0.887 -0.1496  0.9292  1.0858
 3672TIP3    H211023   5.407   0.042   0.942 -1.0588  1.0267  1.7570
 3673TIP3   OH211024   2.209   1.372   3.155  0.0012  0.2924  0.8208
 3673TIP3    H111025   2.129   1.377   3.103 -0.0087 -0.4578  0.7599
 3673TIP3    H211026   2.250   1.458   3.143 -0.2840  0.3296  0.0360
 3674TIP3   OH211027   4.198   4.230   4.600 -0.2828  0.1546  0.9817
 3674TIP3    H111028   4.279   4.255   4.556 -0.0319 -0.7498  0.8983
 3674TIP3    H211029   4.217   4.240   4.694  0.5050 -1.6139  1.0518
 3675TIP3   OH211030   2.506   5.404   0.387 -0.4099 -0.3526 -0.0858
 3675TIP3    H111031   2.515   5.319   0.343 -3.0288  0.3005 -2.1109
 3675TIP3    H211032   2.416   5.431   0.368 -0.8236  1.2929  3.4894
 3676TIP3   OH211033   4.337   2.717   4.656  0.6803 -0.0977 -0.0889
 3676TIP3    H111034   4.287   2.649   4.701 -0.2323  0.3009 -0.4805
 3676TIP3    H211035   4.271   2.775   4.618  1.4385  0.9692  0.1649
 3677TIP3   OH211036   4.254   2.803   0.432 -0.2572  0.4211 -0.5234
 3677TIP3    H111037   4.270   2.888   0.472 -1.3733  0.4264 -0.0418
 3677TIP3    H211038   4.167   2.810   0.393 -1.2687 -1.0735  1.2636
 3678TIP3   OH211039   2.910   1.575   1.569  0.4066  0.1241  0.2364
 3678TIP3    H111040   2.911   1.607   1.659 -1.3019  0.0903  0.3139
 3678TIP3    H211041   2.930   1.652   1.516  0.3294  0.3942  0.5968
 3679TIP3   OH211042   3.027   1.745   3.082 -0.1415 -0.3867  1.2085
 3679TIP3    H111043   3.073   1.767   3.001  0.5002 -2.4823  0.9262
 3679TIP3    H211044   2.935   1.742   3.058  0.1232 -1.9793  0.2612
 3680TIP3   OH211045   2.406   4.931   2.140  0.0755  0.1445 -0.0517
 3680TIP3    H111046   2.345   4.903   2.208 -2.0504  1.9235 -1.0771
 3680TIP3    H211047   2.477   4.975   2.188 -0.5565 -0.0536  1.0946
 3681TIP3   OH211048   4.264   2.011   4.233  0.0347 -0.0920 -0.6353
 3681TIP3    H111049   4.260   2.106   4.219  0.1303  0.3386  1.7905
 3681TIP3    H211050   4.200   1.995   4.303  1.5379 -1.4586  0.4903
 3682TIP3   OH211051   3.745   5.196   2.947 -0.4826  0.0859  0.2551
 3682TIP3    H111052   3.821   5.139   2.952 -0.5660  0.0907  2.6171
 3682TIP3    H211053   3.781   5.284   2.958 -0.7184  0.1911  0.1889
 3683TIP3   OH211054   2.680   3.056   2.313  0.2865  0.2927  0.8543
 3683TIP3    H111055   2.671   3.119   2.242  1.6510  1.4247  1.6260
 3683TIP3    H211056   2.616   2.987   2.293  0.0027  1.0309 -0.9547
 3684TIP3   OH211057   0.874   4.729   0.514 -0.1026 -0.6119  0.6408
 3684TIP3    H111058   0.916   4.651   0.548 -2.2443 -1.0261  2.5733
 3684TIP3    H211059   0.868   4.788   0.589 -2.3252 -0.3556  0.3268
 3685TIP3   OH211060   2.726   4.304   0.507 -0.0306 -0.8963  0.4739
 3685TIP3    H111061   2.759   4.344   0.588 -0.0633 -1.6974  0.8966
 3685TIP3    H211062   2.710   4.377   0.449 -0.9947 -0.2098  1.5587
 3686TIP3   OH211063   2.321   5.903   0.965  0.5056 -0.0333 -0.2622
 3686TIP3    H111064   2.279   5.875   0.884  1.2313 -0.0914 -0.6235
 3686TIP3    H211065   2.337   5.997   0.953  1.2748 -0.1912 -0.4844
 3687TIP3   OH211066   6.336   3.883   0.083 -0.3257 -0.0167 -0.1154
 3687TIP3    H111067   6.372   3.873   0.171 -0.3595  4.1357  0.5951
 3687TIP3    H211068   6.258   3.829   0.082  1.0275 -2.1575  1.4353
 3688TIP3   OH211069   6.029   2.293   0.030 -0.0328 -0.3218  0.5152
 3688TIP3    H111070   6.054   2.354  -0.040  0.2264 -1.7263 -0.6816
 3688TIP3    H211071   5.976   2.345   0.089  1.5446  1.4858  0.4509
 3689TIP3   OH211072   3.186   1.860   4.573  0.0152 -0.1039  0.0078
 3689TIP3    H111073   3.214   1.846   4.483 -0.1112 -1.3102  0.1348
 3689TIP3    H211074   3.091   1.846   4.571 -0.2788  1.7589 -0.0146
 3690TIP3   OH211075   0.401   1.231   0.272 -0.2288 -0.5605 -0.4214
 3690TIP3    H111076   0.408   1.258   0.364  2.1776 -0.5963 -0.5197
 3690TIP3    H211077   0.341   1.294   0.233 -0.4033  0.1495  0.9288
 3691TIP3   OH211078   5.976   1.500   3.271 -0.3558 -0.7983 -0.0553
 3691TIP3    H111079   5.969   1.449   3.351 -3.3856  0.3534  0.5202
 3691TIP3    H211080   5.908   1.566   3.278 -0.7428 -0.6287 -3.5874
 3692TIP3   OH211081   3.162   2.470   0.637 -0.3168  0.4260  0.4503
 3692TIP3    H111082   3.129   2.554   0.606 -0.4501  0.4918  0.7597
 3692TIP3    H211083   3.249   2.462   0.598  0.1106  1.1770  1.2235
 3693TIP3   OH211084   0.686   4.152   0.230  0.5188  0.1447 -0.1470
 3693TIP3    H111085   0.726   4.145   0.317 -1.5674  0.6396  0.9204
 3693TIP3    H211086   0.641   4.069   0.217 -0.9459  0.8242  0.2484
 3694TIP3   OH211087   1.583   0.299   4.998 -0.2217  0.3864 -0.2095
 3694TIP3    H111088   1.565   0.208   4.974 -0.8467  0.3709  0.2795
 3694TIP3    H211089   1.527   0.315   5.074  0.5451  0.9111  0.2630
 3695TIP3   OH211090   0.553   1.700   2.929  0.0358  0.3966 -0.2538
 3695TIP3    H111091   0.573   1.677   2.838 -0.6971  0.0554 -0.3337
 3695TIP3    H211092   0.629   1.752   2.958  1.6799 -1.8962 -0.1532
 3696TIP3   OH211093   0.551   2.917   1.559 -0.0756 -0.2720 -0.0917
 3696TIP3    H111094   0.461   2.904   1.590  0.1128  1.4509  1.3348
 3696TIP3    H211095   0.593   2.968   1.628  2.2149 -1.5498 -0.4457
 3697TIP3   OH211096   2.446   0.454   1.306  0.1073  0.8346  0.7190
 3697TIP3    H111097   2.470   0.481   1.217  0.5673 -1.1440  0.1952
 3697TIP3    H211098   2.353   0.434   1.301  0.0165  1.2279  0.8213
 3698TIP3   OH211099   1.457   1.389   3.132  0.0063  0.1524 -0.3772
 3698TIP3    H111100   1.477   1.342   3.052 -1.4841  1.8350 -1.8430
 3698TIP3    H211101   1.495   1.476   3.119 -0.6002  0.5756  0.5702
 3699TIP3   OH211102   1.681   2.832   2.762  0.4101 -0.0383  0.0219
 3699TIP3    H111103   1.729   2.835   2.679  0.9003  2.4789  0.3304
 3699TIP3    H211104   1.737   2.879   2.824  0.5389 -2.6904  2.1202
 3700TIP3   OH211105   5.032   4.602   2.159  0.2478  0.3084  0.0944
 3700TIP3    H111106   5.077   4.630   2.239  0.4174  2.6368 -0.7105
 3700TIP3    H211107   4.996   4.683   2.123  1.0671 -0.4566 -2.7251
 3701TIP3   OH211108   5.778   3.745   3.533  0.0478  0.4148  0.3407
 3701TIP3    H111109   5.698   3.774   3.578 -0.3351 -0.6502  0.3648
 3701TIP3    H211110   5.800   3.819   3.475 -1.6112  0.3025 -0.5177
 3702TIP3   OH211111   3.750   1.765   4.882  0.1120  0.3362  0.1973
 3702TIP3    H111112   3.702   1.769   4.800  0.6387  2.0695 -0.0650
 3702TIP3    H211113   3.717   1.839   4.933  1.8504  1.0470  0.3594
 3703TIP3   OH211114   4.208   4.740   3.478 -0.6925  0.0052 -0.2243
 3703TIP3    H111115   4.143   4.810   3.472 -0.6785 -0.0893 -2.4194
 3703TIP3    H211116   4.162   4.661   3.449  0.3230 -0.0777 -1.7371
 3704TIP3   OH211117   4.698   2.893   2.823 -0.4189 -0.6023  0.6983
 3704TIP3    H111118   4.637   2.958   2.856 -0.7155 -0.5937  0.1400
 3704TIP3    H211119   4.666   2.871   2.735  0.7388 -0.1208  0.1290
 3705TIP3   OH211120   1.227   1.313   4.666 -0.3292 -0.5499 -0.7545
 3705TIP3    H111121   1.275   1.326   4.585 -1.0755  2.4358 -0.8092
 3705TIP3    H211122   1.291   1.273   4.726  0.6874 -1.2731 -2.2685
 3706TIP3   OH211123   4.266   4.655   3.071  0.4862  0.0648  0.4333
 3706TIP3    H111124   4.355   4.621   3.064  1.6382  2.7611  0.9011
 3706TIP3    H211125   4.211   4.577   3.073  2.7969 -1.6855 -0.0983
 3707TIP3   OH211126   0.471   0.752   3.959 -0.6600  0.2620 -0.4136
 3707TIP3    H111127   0.389   0.730   4.002  0.0701 -1.1316  0.3576
 3707TIP3    H211128   0.533   0.686   3.991  0.8023  1.3785 -0.8222
 3708TIP3   OH211129   1.987   3.500   0.701 -0.1386  0.6910 -0.6107
 3708TIP3    H111130   1.989   3.595   0.710  1.3557  0.5218  1.4470
 3708TIP3    H211131   2.077   3.471   0.717 -0.2234 -1.0001 -2.6856
 3709TIP3   OH211132   5.209   4.889   4.694  0.0053  0.2466  0.0587
 3709TIP3    H111133   5.135   4.872   4.753  0.5356 -0.7825  0.4445
 3709TIP3    H211134   5.210   4.815   4.634 -0.6764  1.3941 -1.4509
 3710TIP3   OH211135   5.607   2.358   1.673 -0.2371  0.1073 -0.1295
 3710TIP3    H111136   5.675   2.343   1.739  0.1005  0.7005 -0.3311
 3710TIP3    H211137   5.534   2.395   1.723 -0.6269 -1.0232  0.1723
 3711TIP3   OH211138   4.110   2.925   0.714 -0.4840 -0.0854 -0.0922
 3711TIP3    H111139   4.033   2.918   0.657 -1.8880 -1.9549  1.8992
 3711TIP3    H211140   4.142   2.836   0.722  3.0233  0.8184 -2.1752
 3712TIP3   OH211141   3.393   3.398   3.852  0.5157 -0.1356 -0.3386
 3712TIP3    H111142   3.445   3.318   3.844  0.7843 -0.0918  0.7563
 3712TIP3    H211143   3.396   3.437   3.765 -0.0553 -1.5724 -1.0382
 3713TIP3   OH211144   4.380   2.367   0.149 -0.5950  0.2667 -0.2033
 3713TIP3    H111145   4.385   2.304   0.076 -0.6486  0.1054 -0.0688
 3713TIP3    H211146   4.315   2.431   0.121 -0.1229  0.5879 -0.5917
 3714TIP3   OH211147   0.987   2.937   1.221  0.4518 -0.0241  0.0508
 3714TIP3    H111148   0.912   2.911   1.167  0.1844  1.0190 -0.1037
 3714TIP3    H211149   0.948   2.958   1.307  0.4034  1.4741 -0.3115
 3715TIP3   OH211150   1.781   4.663   3.375 -0.4204  0.0214 -0.0007
 3715TIP3    H111151   1.844   4.726   3.341 -0.5335  0.3954  0.4871
 3715TIP3    H211152   1.698   4.711   3.379  0.0819  0.8115  3.2485
 3716TIP3   OH211153   1.792   3.674   1.864  0.1276 -0.6454  0.2580
 3716TIP3    H111154   1.849   3.688   1.789  0.6502 -1.7750  0.4077
 3716TIP3    H211155   1.850   3.686   1.940 -0.5406  1.1292  0.5272
 3717TIP3   OH211156   4.957   1.428   3.498 -0.4732  0.3826  0.0135
 3717TIP3    H111157   4.975   1.521   3.513 -3.2935  0.6797  2.4810
 3717TIP3    H211158   4.876   1.427   3.447  0.2304 -0.7885 -1.1479
 3718TIP3   OH211159   1.553   1.380   1.847 -0.1535  0.1646  0.2599
 3718TIP3    H111160   1.558   1.412   1.937 -0.1250 -0.8023  0.6161
 3718TIP3    H211161   1.460   1.385   1.825 -0.0391  1.3929 -0.0509
 3719TIP3   OH211162   0.708   1.010   2.244  0.2819 -0.9121 -0.4159
 3719TIP3    H111163   0.661   1.039   2.166  0.6691  0.7400 -0.0882
 3719TIP3    H211164   0.800   1.032   2.226  0.3929 -0.6331  0.4294
 3720TIP3   OH211165   5.363   3.837   0.256 -0.3069  0.3787 -0.4437
 3720TIP3    H111166   5.338   3.769   0.318  0.3986  0.7660  0.2971
 3720TIP3    H211167   5.289   3.845   0.196 -0.6225 -0.6406 -0.2017
 3721TIP3   OH211168   5.096   5.059   4.513  0.2350  0.2899  0.2045
 3721TIP3    H111169   5.040   4.990   4.478  0.0957  0.8954 -0.8171
 3721TIP3    H211170   5.146   5.017   4.583 -0.6698 -0.5429  0.3670
 3722TIP3   OH211171   1.392   2.500   4.435 -0.3839 -0.1815  0.2441
 3722TIP3    H111172   1.373   2.558   4.509 -0.1446 -0.7514  0.7592
 3722TIP3    H211173   1.365   2.550   4.358  0.4205  0.8642  0.6276
 3723TIP3   OH211174   0.737   0.106   0.575  0.0301 -0.0311  0.9067
 3723TIP3    H111175   0.692   0.026   0.546 -0.5799  0.7235 -0.3245
 3723TIP3    H211176   0.830   0.086   0.567 -0.0967 -0.0879 -1.0803
 3724TIP3   OH211177   5.531   3.777   0.026  0.2924 -0.2899 -0.5279
 3724TIP3    H111178   5.518   3.717   0.100  2.2511  0.2714  0.3319
 3724TIP3    H211179   5.453   3.832   0.026  0.8560  0.6461  2.0646
 3725TIP3   OH211180   2.304   5.724   4.550 -0.1210  0.1342 -0.3620
 3725TIP3    H111181   2.305   5.675   4.468 -0.7170 -0.2422 -0.1529
 3725TIP3    H211182   2.341   5.663   4.614 -3.0168 -0.9688  0.3810
 3726TIP3   OH211183   2.853   1.542   2.677 -0.2139  0.5001  1.0152
 3726TIP3    H111184   2.770   1.498   2.696 -0.9942  0.0149 -2.6442
 3726TIP3    H211185   2.851   1.621   2.731 -2.2561 -0.3290  2.2625
 3727TIP3   OH211186   0.666   0.436   0.973 -0.0918 -0.0379 -0.4729
 3727TIP3    H111187   0.712   0.368   0.924  1.1990 -0.5908  1.4044
 3727TIP3    H211188   0.733   0.503   0.989 -0.4443  0.0749  0.5934
 3728TIP3   OH211189   5.744   2.602   1.046  0.2679  0.2363  0.4147
 3728TIP3    H111190   5.802   2.620   0.972  1.2179 -0.4728  0.9675
 3728TIP3    H211191   5.792   2.633   1.122 -0.3058  0.1219  0.8283
 3729TIP3   OH211192   6.279   1.749   1.836  0.0149  0.4624  0.1173
 3729TIP3    H111193   6.361   1.747   1.788  0.4729  0.3989  0.8816
 3729TIP3    H211194   6.224   1.811   1.788  1.0879  1.7714  0.4966
 3730TIP3   OH211195   1.519   5.688   0.300 -0.2846 -0.0512  0.1619
 3730TIP3    H111196   1.545   5.652   0.385 -2.4357 -1.3682  0.3322
 3730TIP3    H211197   1.561   5.632   0.236 -0.5771 -0.5429  0.3973
 3731TIP3   OH211198   0.182   0.665   3.945 -0.6306  0.7676  0.0215
 3731TIP3    H111199   0.089   0.656   3.967 -0.3109  2.1155  2.1915
 3731TIP3    H211200   0.186   0.738   3.884 -1.2597 -1.4432 -2.9273
 3732TIP3   OH211201   2.627   1.456   5.113  0.3473 -0.6494  0.1839
 3732TIP3    H111202   2.692   1.475   5.045 -0.0806 -1.6560 -0.5318
 3732TIP3    H211203   2.616   1.361   5.110 -1.0441 -0.5131  0.3856
 3733TIP3   OH211204   4.593   1.692   4.665  0.3875 -0.3509  0.0951
 3733TIP3    H111205   4.689   1.682   4.666  0.2674 -1.5543  0.9327
 3733TIP3    H211206   4.566   1.646   4.585  0.4945 -0.1120 -0.0806
 3734TIP3   OH211207   1.723   2.352   1.728 -0.0386 -0.4527  0.0010
 3734TIP3    H111208   1.801   2.306   1.695  1.1035  0.5645  1.1699
 3734TIP3    H211209   1.687   2.396   1.651  0.9379 -0.3773 -0.4275
 3735TIP3   OH211210   6.189   5.870   1.638 -0.3860  0.4439 -0.7005
 3735TIP3    H111211   6.101   5.852   1.605 -0.3349 -0.5794 -0.3039
 3735TIP3    H211212   6.185   5.849   1.731 -0.2242  2.2234 -0.2438
 3736TIP3   OH211213   0.546   1.474   3.902 -0.1250  0.3461  0.5285
 3736TIP3    H111214   0.528   1.381   3.916  0.6709  0.0964 -0.0345
 3736TIP3    H211215   0.641   1.482   3.911  0.0751  0.7173 -1.4141
 3737TIP3   OH211216   2.624   1.649   4.819  0.1560 -0.1088 -0.6033
 3737TIP3    H111217   2.618   1.621   4.728 -0.7563 -1.2743 -0.2144
 3737TIP3    H211218   2.682   1.585   4.860 -0.0483 -0.0426 -0.2061
 3738TIP3   OH211219   0.779   5.075   4.682  0.3515  0.1344 -0.4865
 3738TIP3    H111220   0.860   5.095   4.635  0.8001  1.1748  0.6578
 3738TIP3    H211221   0.716   5.139   4.651 -0.0543 -0.6735 -1.3739
 3739TIP3   OH211222   2.182   0.154   2.176 -0.1852 -0.3660  0.5555
 3739TIP3    H111223   2.116   0.224   2.176  1.0070  0.8177 -0.2772
 3739TIP3    H211224   2.156   0.096   2.105  0.5138  1.0016 -0.9006
 3740TIP3   OH211225   4.105   4.519   3.377 -0.4907 -0.0955 -0.5570
 3740TIP3    H111226   4.041   4.463   3.419  0.2941 -0.2712  0.4595
 3740TIP3    H211227   4.122   4.478   3.292 -0.4439 -1.0059 -0.1155
 3741TIP3   OH211228   5.910   2.036   2.678  0.2698 -0.2280 -0.0675
 3741TIP3    H111229   5.939   2.111   2.626 -1.8833  1.6183  1.2182
 3741TIP3    H211230   5.989   2.008   2.725  1.1981  0.9957 -0.8396
 3742TIP3   OH211231   1.363   3.416   0.683  0.4536 -0.0487 -0.3575
 3742TIP3    H111232   1.446   3.398   0.728 -0.4015 -0.6942  1.0405
 3742TIP3    H211233   1.356   3.511   0.682  1.0980  0.0024 -0.2607
 3743TIP3   OH211234   0.971   2.531   3.299  0.0050  0.7219  0.2940
 3743TIP3    H111235   0.959   2.553   3.392 -0.2993  0.7521  0.2481
 3743TIP3    H211236   0.904   2.583   3.254  1.0859  1.8289 -0.0829
 3744TIP3   OH211237   3.438   4.543   3.466 -0.4915  0.1178 -0.4224
 3744TIP3    H111238   3.421   4.479   3.536 -1.0782  0.4820 -0.2205
 3744TIP3    H211239   3.511   4.506   3.418 -1.0394 -0.8943 -0.5240
 3745TIP3   OH211240   4.895   0.981   3.698  0.1625 -0.0066 -0.0205
 3745TIP3    H111241   4.837   1.056   3.713 -0.6891 -0.8379  1.0156
 3745TIP3    H211242   4.911   0.981   3.604  0.2952  1.5437 -0.0321
 3746TIP3   OH211243   2.862   4.342   3.571 -0.0873  0.2669  0.6425
 3746TIP3    H111244   2.844   4.250   3.591 -2.5951  1.0942  2.6852
 3746TIP3    H211245   2.924   4.339   3.498 -1.5544 -3.0206 -0.6357
 3747TIP3   OH211246   0.748   0.421   2.443 -0.0121 -0.2967 -0.1538
 3747TIP3    H111247   0.801   0.365   2.386  1.4684  1.1606 -0.2805
 3747TIP3    H211248   0.669   0.440   2.391  1.2001  0.8135 -1.7122
 3748TIP3   OH211249   2.465   2.479   2.345  0.1673  0.1652 -0.1868
 3748TIP3    H111250   2.491   2.546   2.409  1.4240  0.6164 -1.1329
 3748TIP3    H211251   2.388   2.438   2.384 -0.1309  1.5916  0.8194
 3749TIP3   OH211252   5.827   1.323   0.691  0.1192 -0.7872  0.4596
 3749TIP3    H111253   5.871   1.358   0.614  0.7208 -1.1707  0.6232
 3749TIP3    H211254   5.802   1.234   0.665 -0.3713 -0.6448  0.4410
 3750TIP3   OH211255   0.963   5.253   3.060  0.4255  0.5786 -0.3517
 3750TIP3    H111256   0.917   5.172   3.040 -0.8710  1.4125 -0.8783
 3750TIP3    H211257   0.963   5.257   3.156 -0.3886  0.4317 -0.3379
 3751TIP3   OH211258   5.846   4.391   1.805 -0.6399 -0.5095 -0.1622
 3751TIP3    H111259   5.795   4.338   1.744 -2.0348 -0.2648  0.7408
 3751TIP3    H211260   5.801   4.475   1.807 -0.5984 -0.5074  1.1770
 3752TIP3   OH211261   4.430   2.894   0.685  0.0161  0.0526  0.1968
 3752TIP3    H111262   4.372   2.957   0.641  0.0606  1.3158  1.8474
 3752TIP3    H211263   4.481   2.855   0.614 -2.2242 -0.4855 -1.2340
 3753TIP3   OH211264   2.060   2.887   4.374  0.5208  0.4036  0.1741
 3753TIP3    H111265   2.083   2.806   4.328 -0.4659  0.4259 -0.3854
 3753TIP3    H211266   1.974   2.911   4.338  1.1296  2.1080 -0.2331
 3754TIP3   OH211267   2.622   2.657   4.349 -0.0218 -0.5091 -0.0462
 3754TIP3    H111268   2.592   2.745   4.326  0.8724  0.1100  1.0000
 3754TIP3    H211269   2.542   2.607   4.364 -0.5641  0.6322  1.0942
 3755TIP3   OH211270   5.607   2.661   1.323 -0.7316  0.4969 -0.5471
 3755TIP3    H111271   5.515   2.671   1.347 -0.4248 -0.5612  1.3611
 3755TIP3    H211272   5.626   2.569   1.342  1.3100  1.2442  1.6383
 3756TIP3   OH211273   2.679   0.523   0.423 -0.3387 -0.2299  0.2837
 3756TIP3    H111274   2.632   0.451   0.380  0.5257  0.3414 -1.7172
 3756TIP3    H211275   2.691   0.493   0.513  1.2681 -3.2815 -0.8076
 3757TIP3   OH211276   3.457   2.968   2.749  0.2955  0.0603 -0.0493
 3757TIP3    H111277   3.381   2.946   2.803  0.6569 -0.8423  0.1113
 3757TIP3    H211278   3.427   3.041   2.695 -0.7644 -0.4258 -0.1532
 3758TIP3   OH211279   1.017   2.556   2.776  0.0501  0.5220  0.4408
 3758TIP3    H111280   0.958   2.601   2.837  2.0676  2.1428  1.2794
 3758TIP3    H211281   1.029   2.618   2.704  1.2273  0.4715  0.5897
 3759TIP3   OH211282   1.509   3.120   4.114  0.2463  0.3459  0.0402
 3759TIP3    H111283   1.473   3.128   4.025 -1.3507  0.2834  0.6389
 3759TIP3    H211284   1.530   3.027   4.123  0.5361  0.3748 -0.3075
 3760TIP3   OH211285   1.872   4.746   4.949  0.3744  0.0671  0.0047
 3760TIP3    H111286   1.828   4.829   4.930  0.0567 -0.2446 -0.6545
 3760TIP3    H211287   1.895   4.711   4.863  1.8278  0.1663  0.3240
 3761TIP3   OH211288   5.291   0.212   1.662 -0.5547 -0.2593 -0.3492
 3761TIP3    H111289   5.344   0.135   1.641 -1.0168 -0.4642 -0.7926
 3761TIP3    H211290   5.278   0.255   1.578  0.0778  0.5509 -0.0367
 3762TIP3   OH211291   5.289   4.928   1.518 -0.4058 -0.7599 -0.4608
 3762TIP3    H111292   5.368   4.971   1.486 -0.6002  0.5879  0.7744
 3762TIP3    H211293   5.295   4.839   1.484  2.3966 -1.1560  0.7440
 3763TIP3   OH211294   2.364   2.566   2.748  0.1470  0.0142  0.4947
 3763TIP3    H111295   2.368   2.631   2.817  0.7058 -0.1316  0.5976
 3763TIP3    H211296   2.327   2.488   2.790 -2.1257  0.7433 -0.0022
 3764TIP3   OH211297   4.915   3.642   3.735 -0.4662  0.0973 -0.2091
 3764TIP3    H111298   4.841   3.581   3.734  0.1117 -0.6336 -0.0050
 3764TIP3    H211299   4.931   3.658   3.828 -1.4006  1.5652 -0.2832
 3765TIP3   OH211300   0.751   4.626   1.736  0.2734 -0.5125  0.6700
 3765TIP3    H111301   0.813   4.680   1.785  0.5281  0.5933 -0.7912
 3765TIP3    H211302   0.683   4.687   1.708 -0.8292 -1.4730  1.1599
 3766TIP3   OH211303   0.113   2.634   2.141  0.4805  0.3925 -0.3672
 3766TIP3    H111304   0.099   2.552   2.189 -0.5692  0.6961 -0.1272
 3766TIP3    H211305   0.076   2.619   2.055  1.4345  0.1943 -0.7465
 3767TIP3   OH211306   1.471   1.804   1.727  0.0807  0.5483 -0.4168
 3767TIP3    H111307   1.494   1.849   1.808 -0.5141  0.8472 -0.4037
 3767TIP3    H211308   1.375   1.804   1.726  0.0552  2.1918 -2.0137
 3768TIP3   OH211309   3.634   5.965   1.769 -0.0485 -0.7802  0.3024
 3768TIP3    H111310   3.617   6.036   1.707  0.1832  0.9906  2.1445
 3768TIP3    H211311   3.585   5.890   1.734  0.7649 -0.1514 -2.4148
 3769TIP3   OH211312   0.502   5.276   1.539  0.2560  0.1625  0.1613
 3769TIP3    H111313   0.534   5.191   1.570  0.2339 -0.2953 -1.0170
 3769TIP3    H211314   0.417   5.286   1.581  0.2434 -0.4131  0.2854
 3770TIP3   OH211315   5.920   0.881   3.185  0.2811 -0.6758 -0.2867
 3770TIP3    H111316   5.904   0.972   3.212 -0.3523 -0.3735 -1.6058
 3770TIP3    H211317   5.839   0.854   3.143  0.7203 -1.6224 -0.5476
 3771TIP3   OH211318   0.148   0.378   0.743 -0.0684 -0.5184  0.2348
 3771TIP3    H111319   0.167   0.452   0.801 -1.4605  0.0218  0.0325
 3771TIP3    H211320   0.234   0.345   0.718  0.5743 -0.0288  1.6669
 3772TIP3   OH211321   5.551   0.167   5.000  0.1267  0.3133  0.3004
 3772TIP3    H111322   5.618   0.144   4.936 -1.4206  0.3208 -1.4112
 3772TIP3    H211323   5.575   0.255   5.029  0.5004  0.5663 -0.7557
 3773TIP3   OH211324   1.806   1.680   2.689 -0.2333  0.5994  0.2376
 3773TIP3    H111325   1.720   1.646   2.712 -0.5223  1.4182  0.3992
 3773TIP3    H211326   1.799   1.703   2.596 -0.5834  1.8074  0.5487
 3774TIP3   OH211327   3.016   4.759   2.876 -0.0145  0.1758 -0.6711
 3774TIP3    H111328   3.003   4.682   2.820 -0.7178 -0.9363  0.9476
 3774TIP3    H211329   2.978   4.831   2.826  0.0043 -0.6399 -1.9212
 3775TIP3   OH211330   2.942   2.759   4.264  0.5292 -0.0631  0.1258
 3775TIP3    H111331   2.950   2.725   4.354  1.2460 -0.1235  0.0417
 3775TIP3    H211332   2.885   2.696   4.220 -1.5317  1.0292  1.0649
 3776TIP3   OH211333   1.397   2.242   1.829  0.4581  0.3725  0.5932
 3776TIP3    H111334   1.319   2.189   1.844  0.1512  0.9842  1.1946
 3776TIP3    H211335   1.372   2.330   1.857  0.5756  1.1196 -1.4183
 3777TIP3   OH211336   4.982   5.946   1.978 -0.6454  0.2927  0.3856
 3777TIP3    H111337   4.994   5.967   1.885 -1.9451 -0.1648  0.0955
 3777TIP3    H211338   5.051   5.882   1.997 -0.0832  0.7294 -0.1356
 3778TIP3   OH211339   4.044   1.463   4.078 -0.8616 -0.2178  0.2255
 3778TIP3    H111340   4.111   1.405   4.042  0.4735  1.5082 -0.1613
 3778TIP3    H211341   3.963   1.436   4.033  0.1697 -0.2166 -1.7305
 3779TIP3   OH211342   5.872   2.966   2.148  0.3474 -0.4880 -0.2040
 3779TIP3    H111343   5.842   3.019   2.074 -2.0646 -1.6252 -0.1374
 3779TIP3    H211344   5.855   2.875   2.121  2.5344 -1.1497  0.4600
 3780TIP3   OH211345   0.910   4.745   1.932  0.2963 -0.0010 -0.9061
 3780TIP3    H111346   0.939   4.835   1.947  0.4730 -0.4179  1.6922
 3780TIP3    H211347   0.990   4.693   1.934 -0.0387 -0.5399  0.9887
 3781TIP3   OH211348   0.915   4.526   0.291  0.0329 -0.3676 -0.0613
 3781TIP3    H111349   0.826   4.558   0.278  0.7812  1.5812 -0.7922
 3781TIP3    H211350   0.937   4.552   0.380  0.7056  1.4699 -0.7162
 3782TIP3   OH211351   5.643   5.067   0.887 -0.0712 -0.5659 -0.3354
 3782TIP3    H111352   5.679   5.120   0.959 -0.3606  0.0249 -0.6247
 3782TIP3    H211353   5.700   4.989   0.885  0.0240 -0.5288  0.4427
 3783TIP3   OH211354   2.806   3.848   3.491  1.0647 -0.1050 -0.1379
 3783TIP3    H111355   2.877   3.825   3.551  0.5999 -1.0463  0.0578
 3783TIP3    H211356   2.828   3.803   3.409 -0.5447 -2.5073  0.6444
 3784TIP3   OH211357   6.248   4.013   1.379  0.1317 -0.0098  0.2271
 3784TIP3    H111358   6.288   4.100   1.386  1.3742 -0.1559 -3.1932
 3784TIP3    H211359   6.320   3.956   1.350 -1.2314 -1.5832 -0.1887
 3785TIP3   OH211360   0.642   3.952   4.450 -0.1200  0.2588  0.3492
 3785TIP3    H111361   0.558   3.907   4.454 -0.3956  0.6687 -0.5017
 3785TIP3    H211362   0.694   3.899   4.389  1.2803 -1.6048  2.9807
 3786TIP3   OH211363   0.701   1.287   2.001  0.7843 -0.4245  0.1547
 3786TIP3    H111364   0.663   1.199   2.008  2.3061 -1.0549  0.9922
 3786TIP3    H211365   0.795   1.271   1.989  1.0328  1.0910 -0.0447
 3787TIP3   OH211366   4.828   0.715   4.102 -0.0181 -0.4982 -0.1446
 3787TIP3    H111367   4.761   0.650   4.082  0.1368 -0.4237 -0.9395
 3787TIP3    H211368   4.863   0.740   4.017  1.1569 -0.6852  0.2649
 3788TIP3   OH211369   3.635   1.169   1.175 -0.2370  0.1568  0.4335
 3788TIP3    H111370   3.682   1.097   1.218 -0.3324 -0.6108 -0.7008
 3788TIP3    H211371   3.596   1.128   1.097 -1.8577  1.0268  0.7610
 3789TIP3   OH211372   2.370   1.217   5.181 -0.0836 -0.4774  0.5374
 3789TIP3    H111373   2.457   1.200   5.217  0.1230  0.0951  0.3180
 3789TIP3    H211374   2.376   1.187   5.090 -0.1201 -0.4487  0.5256
 3790TIP3   OH211375   3.772   5.660   3.692 -0.0683 -0.1840 -0.2143
 3790TIP3    H111376   3.814   5.745   3.698 -0.0242 -0.1212 -1.2400
 3790TIP3    H211377   3.816   5.607   3.758  0.6562  0.2853 -0.3049
 3791TIP3   OH211378   2.359   1.934   5.092 -0.4257 -0.0706  0.6894
 3791TIP3    H111379   2.394   1.947   5.004 -1.5633 -0.8833  0.0785
 3791TIP3    H211380   2.418   1.871   5.132  0.6556  1.0399  0.8703
 3792TIP3   OH211381   6.217   4.291   2.934 -0.4450  0.8165 -0.0483
 3792TIP3    H111382   6.248   4.265   2.847 -0.1803  0.0495  0.2705
 3792TIP3    H211383   6.297   4.296   2.987 -0.8424 -1.3681  0.8311
 3793TIP3   OH211384   1.744   4.640   4.144  0.1057 -0.0076  0.0984
 3793TIP3    H111385   1.685   4.680   4.208 -1.4978 -0.8171 -0.8203
 3793TIP3    H211386   1.752   4.705   4.074 -0.0654 -0.0875  0.0055
 3794TIP3   OH211387   0.800   1.837   2.365  0.5145  0.2815 -0.1272
 3794TIP3    H111388   0.883   1.797   2.393  0.9820  0.5615 -1.0832
 3794TIP3    H211389   0.760   1.867   2.447  1.5709  0.5583  0.3098
 3795TIP3   OH211390   2.894   4.773   4.844  0.4480 -0.4555 -0.0576
 3795TIP3    H111391   2.978   4.762   4.889  0.1292 -0.3903  0.5630
 3795TIP3    H211392   2.878   4.868   4.846  0.0502 -0.5295  0.4007
 3796TIP3   OH211393   1.252   4.154   1.988 -0.5680  0.6466  0.4802
 3796TIP3    H111394   1.246   4.164   1.893  0.4560  0.4679  0.3813
 3796TIP3    H211395   1.269   4.060   2.001  0.1029  0.8010  0.7812
 3797TIP3   OH211396   2.820   2.329   3.773  0.0929  0.4574  0.3432
 3797TIP3    H111397   2.894   2.273   3.795  0.5988  1.0254  0.1007
 3797TIP3    H211398   2.859   2.407   3.733 -0.7475 -0.1446 -1.7835
 3798TIP3   OH211399   1.011   5.283   3.339  0.0252 -0.1092 -0.2548
 3798TIP3    H111400   1.102   5.264   3.316 -0.6955 -2.7264 -1.3401
 3798TIP3    H211401   0.988   5.214   3.401 -0.6894  1.7373  1.6649
 3799TIP3   OH211402   2.335   5.359   4.825 -0.1959  0.2114 -0.4765
 3799TIP3    H111403   2.240   5.366   4.836 -0.5977 -0.6114 -2.8853
 3799TIP3    H211404   2.367   5.331   4.911 -2.3112 -0.9271  0.0088
 3800TIP3   OH211405   4.797   5.710   2.534 -0.1193  0.1950  0.1723
 3800TIP3    H111406   4.862   5.742   2.596  0.2299 -0.5151  0.1813
 3800TIP3    H211407   4.803   5.615   2.540  1.5779  0.0195 -2.6168
 3801TIP3   OH211408   1.888   3.763   1.236  0.1294 -0.0407 -0.2794
 3801TIP3    H111409   1.843   3.806   1.309 -0.3034  0.1443 -0.6478
 3801TIP3    H211410   1.824   3.699   1.204  0.3427 -0.1636 -0.4555
 3802TIP3   OH211411   0.297   2.688   3.833  0.2832  0.1234 -0.0874
 3802TIP3    H111412   0.358   2.762   3.840  1.4487 -0.4149 -3.0425
 3802TIP3    H211413   0.340   2.617   3.879  0.4786  0.5441  0.3843
 3803TIP3   OH211414   4.211   3.550   4.074  0.4316  0.2205 -0.2516
 3803TIP3    H111415   4.265   3.490   4.125  0.9252  1.6023  0.9031
 3803TIP3    H211416   4.253   3.636   4.084 -0.9687  1.0074 -0.7879
 3804TIP3   OH211417   1.010   2.204   5.103  0.0491 -0.4672  0.1068
 3804TIP3    H111418   0.927   2.203   5.151 -0.0817 -0.9106 -0.1175
 3804TIP3    H211419   1.058   2.279   5.138 -0.0531 -0.7719  0.9021
 3805TIP3   OH211420   3.104   5.603   1.981 -0.3076  0.3646  0.2255
 3805TIP3    H111421   3.078   5.625   2.071 -1.1793 -0.2814  0.1382
 3805TIP3    H211422   3.041   5.649   1.926  0.0223  0.4843 -0.0538
 3806TIP3   OH211423   3.149   4.177   1.022  0.4385  0.2049  0.0447
 3806TIP3    H111424   3.202   4.108   0.980  0.0688 -0.2693  0.3563
 3806TIP3    H211425   3.149   4.154   1.115  0.3134  0.6325  0.1518
 3807TIP3   OH211426   4.264   4.350   4.845  0.4518 -0.1251 -0.3072
 3807TIP3    H111427   4.288   4.301   4.923  0.2502 -0.6670 -0.5793
 3807TIP3    H211428   4.195   4.411   4.874  0.5933 -0.1112 -0.0032
 3808TIP3   OH211429   0.336   5.745   2.597 -0.0892 -0.1514  0.2522
 3808TIP3    H111430   0.385   5.715   2.674  0.9080 -2.4403 -1.1432
 3808TIP3    H211431   0.333   5.668   2.540  0.1283  1.6899 -2.4511
 3809TIP3   OH211432   3.587   2.701   5.165 -0.4873 -0.3271  0.0837
 3809TIP3    H111433   3.538   2.745   5.096  1.1877  2.1776  0.3536
 3809TIP3    H211434   3.677   2.697   5.131  0.3335  0.8134  1.9994
 3810TIP3   OH211435   2.725   5.607   3.409  0.1580  0.3774  0.4596
 3810TIP3    H111436   2.639   5.616   3.452 -0.2504  3.2573 -0.7231
 3810TIP3    H211437   2.787   5.636   3.476  0.3016 -1.7841  1.3453
 3811TIP3   OH211438   3.718   5.365   4.053  0.0664 -0.4231  0.2208
 3811TIP3    H111439   3.642   5.419   4.029 -0.9338 -1.7862  0.1797
 3811TIP3    H211440   3.764   5.350   3.970  0.8000  0.9747  0.3473
 3812TIP3   OH211441   5.124   4.040   2.801 -0.0203  0.4541 -0.0537
 3812TIP3    H111442   5.144   3.958   2.846 -0.9569  1.3646  2.1604
 3812TIP3    H211443   5.067   4.014   2.728  0.7087 -0.9662 -0.1602
 3813TIP3   OH211444   1.232   3.418   2.600  0.6019 -0.2306 -0.4610
 3813TIP3    H111445   1.244   3.348   2.664 -1.0419 -0.7203 -0.6542
 3813TIP3    H211446   1.143   3.450   2.615  0.9457  1.1109 -1.0925
 3814TIP3   OH211447   1.872   2.706   1.964 -0.2764  0.3661  0.2277
 3814TIP3    H111448   1.891   2.623   1.921  0.0968  0.5082  0.1137
 3814TIP3    H211449   1.779   2.701   1.986 -0.7119  0.6625 -1.4179
 3815TIP3   OH211450   0.410   4.635   0.278  0.2685  1.0431  0.0820
 3815TIP3    H111451   0.363   4.668   0.202 -0.0230 -0.6363 -0.5080
 3815TIP3    H211452   0.480   4.581   0.242 -1.2389 -1.6426  0.9536
 3816TIP3   OH211453   4.427   3.449   1.567 -0.2262  0.3718  0.4540
 3816TIP3    H111454   4.481   3.525   1.542 -0.0122 -1.0362 -4.3558
 3816TIP3    H211455   4.337   3.479   1.555 -0.3534  0.8554  2.2909
 3817TIP3   OH211456   2.873   1.760   1.052 -0.3906  0.1503 -0.1619
 3817TIP3    H111457   2.949   1.815   1.067 -0.0580 -0.2651 -0.3161
 3817TIP3    H211458   2.869   1.747   0.958 -1.3425  1.1349 -0.2806
 3818TIP3   OH211459   2.094   2.930   0.735 -0.6061 -0.0767 -0.2780
 3818TIP3    H111460   2.065   2.867   0.669 -1.5764  0.9019 -0.8168
 3818TIP3    H211461   2.014   2.977   0.759  0.0235  0.6274  0.4577
 3819TIP3   OH211462   0.908   3.429   0.708  0.3609  0.8198  0.4205
 3819TIP3    H111463   0.916   3.508   0.655 -0.3622 -0.2064 -1.3359
 3819TIP3    H211464   0.842   3.450   0.774 -1.3962  1.0850 -1.3258
 3820TIP3   OH211465   4.687   5.553   0.961  0.7494 -0.0234 -0.4424
 3820TIP3    H111466   4.754   5.601   1.010  0.9767 -1.4021  0.6699
 3820TIP3    H211467   4.737   5.503   0.896  0.5944  0.5024 -0.9795
 3821TIP3   OH211468   4.405   3.161   4.618  0.7388 -0.1363  0.2966
 3821TIP3    H111469   4.437   3.251   4.623  0.5971  0.0362 -1.3810
 3821TIP3    H211470   4.313   3.170   4.593  0.3584 -0.7302  1.4149
 3822TIP3   OH211471   3.154   1.911   2.854  0.0528  0.3720  0.4233
 3822TIP3    H111472   3.128   1.838   2.798 -2.8614  1.2768  0.4251
 3822TIP3    H211473   3.231   1.947   2.812  0.8134 -1.9001 -0.2767
 3823TIP3   OH211474   5.356   3.787   5.104 -0.3319 -0.5800  0.4190
 3823TIP3    H111475   5.285   3.722   5.103 -0.6616 -0.2169  0.1057
 3823TIP3    H211476   5.407   3.768   5.025 -1.0813  0.2488 -0.2870
 3824TIP3   OH211477   5.801   5.433   3.927 -0.6364 -0.0923  0.2351
 3824TIP3    H111478   5.842   5.405   3.845 -0.0718  1.8317 -0.1892
 3824TIP3    H211479   5.873   5.470   3.978 -1.3468  0.7800  0.6351
 3825TIP3   OH211480   3.386   2.054   5.064  0.3594  0.0227 -0.4490
 3825TIP3    H111481   3.343   2.007   4.993 -1.1927  2.0038 -0.9255
 3825TIP3    H211482   3.321   2.054   5.135  1.0808 -0.1870  0.2148
 3826TIP3   OH211483   4.145   3.562   1.965 -0.2621  0.3618  0.2489
 3826TIP3    H111484   4.172   3.537   2.053 -0.6566 -0.1182  0.2359
 3826TIP3    H211485   4.215   3.619   1.933  1.9160 -2.5911 -0.6515
 3827TIP3   OH211486   1.027   5.568   4.708  0.5533  0.6372 -0.0788
 3827TIP3    H111487   1.008   5.483   4.748 -0.4115  1.3349  1.0212
 3827TIP3    H211488   1.120   5.565   4.688  0.7256 -0.3494  0.8021
 3828TIP3   OH211489   1.536   2.186   2.887 -0.0490 -0.5207 -0.1731
 3828TIP3    H111490   1.575   2.102   2.865  1.4806  0.3058 -0.7646
 3828TIP3    H211491   1.479   2.206   2.812 -2.0915 -1.9520  0.9105
 3829TIP3   OH211492   2.657   3.442   1.909  0.1217 -0.0176  0.3383
 3829TIP3    H111493   2.668   3.497   1.987 -1.1171  1.4742 -0.4819
 3829TIP3    H211494   2.569   3.462   1.877  0.4852 -0.7882 -1.2800
 3830TIP3   OH211495   6.276   3.054   0.736  0.1501  0.3653  0.3795
 3830TIP3    H111496   6.230   3.098   0.665 -1.0037 -0.0950  0.8246
 3830TIP3    H211497   6.271   2.961   0.713  0.3375  0.2662  0.7377
 3831TIP3   OH211498   1.569   5.270   0.065  0.1368 -0.1113 -0.3117
 3831TIP3    H111499   1.561   5.342   0.003 -0.3212  0.1605  0.0573
 3831TIP3    H211500   1.604   5.198   0.013  0.5337  0.3553 -0.6969
 3832TIP3   OH211501   2.946   5.431   3.175  0.2432  0.2265  0.4297
 3832TIP3    H111502   2.867   5.418   3.229 -0.1165  0.4846 -0.0281
 3832TIP3    H211503   3.008   5.366   3.207 -0.0609  0.2038  0.9807
 3833TIP3   OH211504   3.185   4.420   3.541 -0.7435 -0.0690 -0.2920
 3833TIP3    H111505   3.249   4.349   3.550 -2.0827 -1.1891  0.9943
 3833TIP3    H211506   3.235   4.493   3.505  0.9418 -1.3089 -0.5897
 3834TIP3   OH211507   1.101   1.464   1.962  0.2643  0.2100 -0.2905
 3834TIP3    H111508   1.026   1.463   1.903  0.4684 -0.5011 -0.5451
 3834TIP3    H211509   1.168   1.514   1.915  0.7291 -1.0895 -1.0570
 3835TIP3   OH211510   4.706   4.729   4.065  0.4302 -0.6225  0.0036
 3835TIP3    H111511   4.668   4.784   3.997  0.1031 -1.3548 -0.4152
 3835TIP3    H211512   4.639   4.723   4.133  0.8943  0.4151  0.5938
 3836TIP3   OH211513   3.884   4.360   1.065 -0.0847  0.5754  0.2963
 3836TIP3    H111514   3.932   4.298   1.120  0.1520 -0.0126 -0.5384
 3836TIP3    H211515   3.856   4.308   0.990 -2.3500  0.8245  0.9053
 3837TIP3   OH211516   3.464   5.122   0.578 -0.4723 -0.0675 -0.0468
 3837TIP3    H111517   3.546   5.162   0.550 -0.6322  0.1039 -0.2762
 3837TIP3    H211518   3.409   5.122   0.499 -0.7798  0.0426  0.1642
 3838TIP3   OH211519   4.498   0.775   2.435 -0.3902  0.6513 -0.2310
 3838TIP3    H111520   4.482   0.830   2.512  0.7163  0.1136  0.4051
 3838TIP3    H211521   4.482   0.685   2.466 -0.0786  0.4434 -0.6606
 3839TIP3   OH211522   0.726   5.796   2.556 -0.3243 -0.1520  0.5408
 3839TIP3    H111523   0.782   5.819   2.629 -1.5634 -2.2803  2.2780
 3839TIP3    H211524   0.653   5.748   2.595 -2.8621  1.5528 -1.6966
 3840TIP3   OH211525   1.724   1.566   4.970  0.1174 -0.1974  0.0828
 3840TIP3    H111526   1.649   1.518   5.006  0.4465 -0.6232  0.2126
 3840TIP3    H211527   1.800   1.528   5.014  0.3867  0.4575  0.1963
 3841TIP3   OH211528   2.110   3.867   2.443 -0.3867  0.0992  0.1010
 3841TIP3    H111529   2.151   3.819   2.371 -1.0781 -0.1036 -0.1596
 3841TIP3    H211530   2.087   3.951   2.405  0.7668  0.6408  0.5408
 3842TIP3   OH211531   5.077   0.466   0.372  0.2816  0.1438 -0.2061
 3842TIP3    H111532   5.044   0.376   0.369  0.6117  0.0344 -1.1318
 3842TIP3    H211533   5.005   0.519   0.337 -0.0338  0.2904  0.6416
 3843TIP3   OH211534   1.204   3.651   2.956 -0.1474 -0.3291  0.0781
 3843TIP3    H111535   1.189   3.732   2.906  1.3619  0.7453  1.2790
 3843TIP3    H211536   1.256   3.596   2.898 -0.5257 -0.1310 -0.4602
 3844TIP3   OH211537   5.878   5.225   0.520 -0.3248 -0.4441 -0.5208
 3844TIP3    H111538   5.804   5.263   0.566  0.0784  0.6523 -0.7661
 3844TIP3    H211539   5.928   5.299   0.488  0.3933 -1.1761 -1.1501
 3845TIP3   OH211540   3.533   2.011   2.989 -0.0021  0.0003 -0.0270
 3845TIP3    H111541   3.560   2.055   2.909 -1.2898  0.5040 -0.2028
 3845TIP3    H211542   3.488   1.932   2.959 -1.6012  0.8067  0.1054
 3846TIP3   OH211543   2.038   5.689   3.046  0.2597  0.4045  0.3373
 3846TIP3    H111544   1.993   5.772   3.062 -1.5604 -0.3207 -0.7347
 3846TIP3    H211545   1.991   5.625   3.100  0.6902 -0.1886  0.0222
 3847TIP3   OH211546   3.548   4.452   4.885  0.1643 -0.2418  0.3293
 3847TIP3    H111547   3.644   4.458   4.881  0.1532 -0.6669 -1.5667
 3847TIP3    H211548   3.530   4.359   4.899  0.0500 -0.3537 -0.4694
 3848TIP3   OH211549   2.931   5.436   3.908  0.5192 -0.0994 -0.1325
 3848TIP3    H111550   2.867   5.453   3.977 -0.1447 -1.8820 -0.2704
 3848TIP3    H211551   3.010   5.482   3.937  0.3379 -0.9960  1.9326
 3849TIP3   OH211552   2.916   1.370   3.319  0.2821 -0.1385  0.1413
 3849TIP3    H111553   2.887   1.447   3.367 -0.6703  0.0002 -0.6317
 3849TIP3    H211554   2.917   1.299   3.384 -0.9856  0.0456  0.3749
 3850TIP3   OH211555   1.147   4.574   1.494  0.1060 -0.0266 -0.1427
 3850TIP3    H111556   1.240   4.565   1.471  0.0124  1.6878 -1.4394
 3850TIP3    H211557   1.102   4.509   1.440  0.5294 -0.9583  0.5891
 3851TIP3   OH211558   4.119   0.814   2.776 -0.7848 -0.3838 -0.1908
 3851TIP3    H111559   4.087   0.902   2.796  0.3104 -0.1352  0.5930
 3851TIP3    H211560   4.070   0.787   2.698 -1.7160  0.5900  0.0362
 3852TIP3   OH211561   2.726   0.426   2.530 -0.4942 -0.2284  0.1367
 3852TIP3    H111562   2.726   0.417   2.435 -3.6116 -0.2581  0.0476
 3852TIP3    H211563   2.735   0.337   2.563  0.7118 -0.2067 -0.0874
 3853TIP3   OH211564   3.309   4.760   1.528 -0.2174 -0.1342  0.5292
 3853TIP3    H111565   3.271   4.721   1.607 -3.4752  0.8684 -0.3908
 3853TIP3    H211566   3.315   4.853   1.547 -1.1097  0.1317 -0.3908
 3854TIP3   OH211567   1.450   1.891   2.645 -0.1906  0.3231 -0.0999
 3854TIP3    H111568   1.372   1.941   2.670  0.0057  0.1739  0.8259
 3854TIP3    H211569   1.451   1.896   2.549 -1.3900  0.2514 -0.1357
 3855TIP3   OH211570   1.485   5.134   1.145 -0.2293  0.0491  0.4722
 3855TIP3    H111571   1.467   5.111   1.054  0.6045  0.7975  0.1051
 3855TIP3    H211572   1.550   5.203   1.140  0.8614 -0.8476  1.6810
 3856TIP3   OH211573   5.298   3.887   2.034 -0.7875 -0.1339  0.1148
 3856TIP3    H111574   5.254   3.880   1.949 -1.5831 -1.7987  0.6167
 3856TIP3    H211575   5.257   3.819   2.088  0.6760 -0.0589  1.3963
 3857TIP3   OH211576   5.576   4.700   3.893  0.1048 -0.6342 -0.4128
 3857TIP3    H111577   5.623   4.617   3.885 -0.2211 -0.7854 -0.7859
 3857TIP3    H211578   5.524   4.691   3.972  0.2745 -0.6836 -0.3070
 3858TIP3   OH211579   5.530   2.916   1.600 -0.0316 -0.2441 -0.4207
 3858TIP3    H111580   5.469   2.990   1.601 -1.4961 -1.4082  0.7019
 3858TIP3    H211581   5.492   2.854   1.538  1.7075  0.2777 -2.1295
 3859TIP3   OH211582   5.519   5.474   4.258  0.3275 -0.2336 -0.3026
 3859TIP3    H111583   5.506   5.449   4.167 -0.7290  0.0898 -0.2492
 3859TIP3    H211584   5.613   5.461   4.273  0.2928 -1.5659 -1.0434
 3860TIP3   OH211585   5.255   2.287   1.090  0.0102 -0.2118 -0.3383
 3860TIP3    H111586   5.349   2.304   1.104  0.0954 -1.8696  1.5055
 3860TIP3    H211587   5.217   2.374   1.076  1.4416  0.7715  1.4140
 3861TIP3   OH211588   2.394   2.522   0.804 -0.1660 -0.8750  0.6021
 3861TIP3    H111589   2.328   2.573   0.851  0.6466 -0.2032  1.0365
 3861TIP3    H211590   2.372   2.534   0.712 -0.7334 -0.7783  0.7444
 3862TIP3   OH211591   4.033   3.674   3.294 -0.0411 -0.0712 -0.3155
 3862TIP3    H111592   4.071   3.715   3.216  0.6005 -0.3042 -0.1336
 3862TIP3    H211593   4.095   3.694   3.365 -1.9965  2.6151  0.8076
 3863TIP3   OH211594   0.610   0.510   4.717 -0.0308  0.3626  0.7208
 3863TIP3    H111595   0.659   0.578   4.761  1.0065 -0.1034  0.3145
 3863TIP3    H211596   0.648   0.506   4.629  0.6967 -1.4732  1.0749
 3864TIP3   OH211597   5.231   2.424   4.175  0.6557  0.2991 -0.0929
 3864TIP3    H111598   5.264   2.477   4.103  1.1349 -0.3560 -0.3656
 3864TIP3    H211599   5.232   2.483   4.251  1.6179  0.5540 -0.2867
 3865TIP3   OH211600   1.039   4.264   0.702 -0.0767  0.1771 -0.3782
 3865TIP3    H111601   1.109   4.200   0.695 -1.3268 -1.3238  0.3656
 3865TIP3    H211602   0.961   4.218   0.671 -0.3856  2.5626 -3.7001
 3866TIP3   OH211603  -0.002   4.460   4.077 -0.2592  0.1950  0.1684
 3866TIP3    H111604  -0.033   4.405   4.005 -0.2455  1.1541 -0.5770
 3866TIP3    H211605   0.091   4.473   4.059  0.2727 -1.3415  1.5364
 3867TIP3   OH211606   2.651   0.770   3.390  0.6308  0.3294  0.3194
 3867TIP3    H111607   2.567   0.772   3.344  0.6177 -0.2252  0.3145
 3867TIP3    H211608   2.716   0.761   3.321  0.5860 -0.9188  0.4212
 3868TIP3   OH211609   3.604   1.806   4.623  0.5478 -0.0510 -0.8254
 3868TIP3    H111610   3.614   1.734   4.561 -0.5599 -0.7790 -0.1878
 3868TIP3    H211611   3.531   1.857   4.588 -2.5937 -2.4589  1.6137
 3869TIP3   OH211612   0.136   3.321   3.244 -0.2242  0.4201 -0.2437
 3869TIP3    H111613   0.151   3.235   3.203  0.1499  0.8546 -1.0394
 3869TIP3    H211614   0.060   3.307   3.301 -0.1341 -0.4533 -0.3132
 3870TIP3   OH211615   1.215   5.757   3.116  0.1869  0.2534  0.7685
 3870TIP3    H111616   1.154   5.773   3.043  1.7879 -1.2863 -1.0198
 3870TIP3    H211617   1.185   5.675   3.154  0.3125  0.2177  0.7898
 3871TIP3   OH211618   0.504   1.120   2.396 -0.0017 -0.0406 -0.4308
 3871TIP3    H111619   0.593   1.120   2.363  0.4291 -1.5721  0.6445
 3871TIP3    H211620   0.457   1.059   2.339  0.0778 -0.5856  0.0797
 3872TIP3   OH211621   4.089   1.472   0.590  0.4761 -0.3653 -0.1596
 3872TIP3    H111622   4.094   1.409   0.518  0.1639  0.6200 -1.0666
 3872TIP3    H211623   4.089   1.558   0.547 -2.0302  0.2292  0.8405
 3873TIP3   OH211624   4.669   4.657   5.014  0.3043  0.3442 -0.5659
 3873TIP3    H111625   4.600   4.626   4.955  0.2231  0.2936 -0.4458
 3873TIP3    H211626   4.684   4.748   4.989 -0.8597  0.8195  0.3894
 3874TIP3   OH211627   6.073   2.497   2.654 -0.3265 -0.0500 -0.3903
 3874TIP3    H111628   6.058   2.506   2.748 -1.2497 -0.2640 -0.5054
 3874TIP3    H211629   6.136   2.566   2.633 -0.2470  0.1158  0.3500
 3875TIP3   OH211630   0.935   4.767   1.453 -0.9115  0.5058  0.1675
 3875TIP3    H111631   0.972   4.683   1.479  0.1724  1.2947  1.2749
 3875TIP3    H211632   0.847   4.767   1.491 -0.5211  0.3082  1.1078
 3876TIP3   OH211633   3.752   3.077   4.108  0.8217  0.1308 -0.1871
 3876TIP3    H111634   3.708   3.155   4.142 -1.9882 -1.7582  0.8738
 3876TIP3    H211635   3.820   3.058   4.173  2.6125  2.4360 -1.2436
 3877TIP3   OH211636   5.002   5.720   1.796 -0.3260 -0.4247 -0.2638
 3877TIP3    H111637   4.957   5.645   1.836  0.9614 -0.8919  0.3715
 3877TIP3    H211638   5.092   5.712   1.827  0.1141  0.6840 -1.2201
 3878TIP3   OH211639   3.921   0.951   0.212  0.2627  0.0563  0.0671
 3878TIP3    H111640   3.827   0.966   0.223  0.3999 -0.3978  2.3734
 3878TIP3    H211641   3.928   0.860   0.185  0.0549 -0.3997  1.4494
 3879TIP3   OH211642   1.271   3.219   4.265 -0.2078 -0.1900 -0.1057
 3879TIP3    H111643   1.322   3.299   4.281  1.1508 -1.1780  0.7108
 3879TIP3    H211644   1.330   3.161   4.217 -1.7259 -0.1458 -2.1579
 3880TIP3   OH211645   5.302   5.624   4.318 -0.5165  0.1484 -0.8684
 3880TIP3    H111646   5.330   5.704   4.362 -1.7665 -0.1615  0.5604
 3880TIP3    H211647   5.384   5.585   4.285  0.4077  0.7166  0.6387
 3881TIP3   OH211648   0.816   0.580   0.026  0.2139  0.1254 -0.5367
 3881TIP3    H111649   0.857   0.655   0.068 -0.0898  0.5639 -1.0100
 3881TIP3    H211650   0.722   0.590   0.044  0.1223  0.1120 -0.9771
 3882TIP3   OH211651   2.782   3.302   0.248 -0.0762  0.2988 -0.5100
 3882TIP3    H111652   2.871   3.299   0.283 -1.0478 -0.9910  2.1308
 3882TIP3    H211653   2.762   3.395   0.241  1.1202  0.5993 -0.1927
 3883TIP3   OH211654   0.262   4.022   4.288 -0.2846  0.1037 -0.2837
 3883TIP3    H111655   0.345   3.985   4.258 -0.3633 -0.8250  0.5550
 3883TIP3    H211656   0.197   3.956   4.265 -0.2324 -1.0929  2.5902
 3884TIP3   OH211657   0.140   4.307   1.764  0.7425 -0.4009 -0.0531
 3884TIP3    H111658   0.167   4.397   1.780 -0.7455 -0.0459  0.5866
 3884TIP3    H211659   0.193   4.256   1.826  1.8282 -0.0354 -0.6441
 3885TIP3   OH211660   2.997   1.727   0.530  0.2212 -0.0690 -0.0420
 3885TIP3    H111661   2.959   1.813   0.511  0.4130  0.0505  0.1045
 3885TIP3    H211662   2.975   1.673   0.454  1.0598  0.4237 -0.6515
 3886TIP3   OH211663   3.527   2.918   1.674 -0.4387 -0.0581 -0.0762
 3886TIP3    H111664   3.619   2.902   1.696 -0.5066 -0.1799  0.1267
 3886TIP3    H211665   3.520   3.014   1.668 -0.1257 -0.0784 -0.8823
 3887TIP3   OH211666   2.354   0.105   3.525 -0.3090  0.2941 -0.1351
 3887TIP3    H111667   2.277   0.058   3.491 -1.9134  2.2758  0.5738
 3887TIP3    H211668   2.318   0.167   3.589  1.9822  0.8009  0.7621
 3888TIP3   OH211669   0.688   1.581   0.958  0.1123  0.5943  0.0109
 3888TIP3    H111670   0.668   1.505   0.904  0.6775  0.4853 -0.0525
 3888TIP3    H211671   0.779   1.601   0.938  0.8516 -0.4206  2.0944
 3889TIP3   OH211672   5.730   1.463   4.647 -0.0136  0.4472  0.0127
 3889TIP3    H111673   5.655   1.409   4.622 -0.5048  0.2915  1.7151
 3889TIP3    H211674   5.696   1.524   4.712  0.9862  1.4842 -0.3876
 3890TIP3   OH211675   2.593   3.038   3.761  0.0362 -0.3936  0.2762
 3890TIP3    H111676   2.564   3.117   3.715  0.8750 -0.4782 -0.4109
 3890TIP3    H211677   2.672   3.065   3.807 -1.1219 -0.1280  2.2526
 3891TIP3   OH211678   0.855   5.604   0.226 -0.0609 -0.0034  0.6545
 3891TIP3    H111679   0.792   5.667   0.260 -0.4059 -1.4725  3.0273
 3891TIP3    H211680   0.936   5.623   0.274  0.7352  0.5540 -0.8587
 3892TIP3   OH211681   2.077   2.306   5.044  0.2440  0.5218  0.0778
 3892TIP3    H111682   2.045   2.304   5.133  0.0451 -2.6719  0.0624
 3892TIP3    H211683   2.166   2.270   5.049  0.4781  0.8863 -0.9596
 3893TIP3   OH211684   4.731   1.396   5.016  0.0718  0.2696 -0.6684
 3893TIP3    H111685   4.794   1.346   5.069  1.7382  2.0751 -0.8019
 3893TIP3    H211686   4.671   1.330   4.981  1.7175 -1.5337 -0.2919
 3894TIP3   OH211687   1.736   3.180   1.154 -0.0505  0.3522 -0.4725
 3894TIP3    H111688   1.826   3.174   1.186  0.3362 -0.1410 -1.5955
 3894TIP3    H211689   1.724   3.273   1.133 -0.1096  0.5738  0.4830
 3895TIP3   OH211690   6.050   4.755   0.517 -0.0249 -0.1881  0.2203
 3895TIP3    H111691   6.105   4.804   0.579 -0.0625 -1.6571  1.4715
 3895TIP3    H211692   5.962   4.760   0.554  0.0142 -1.3980  0.5132
 3896TIP3   OH211693   4.771   5.650   1.390 -0.2135  0.0029  0.5795
 3896TIP3    H111694   4.745   5.559   1.408 -0.8807 -0.0759 -0.6912
 3896TIP3    H211695   4.848   5.664   1.445 -0.8130 -0.9371  1.7125
 3897TIP3   OH211696   3.504   1.086   0.908  0.3840  0.2572 -0.6484
 3897TIP3    H111697   3.518   1.178   0.889  0.3052  0.2657 -0.6676
 3897TIP3    H211698   3.570   1.040   0.856  0.1228  0.2768 -1.0040
 3898TIP3   OH211699   4.587   0.070   2.200  0.0339  0.1203 -0.2967
 3898TIP3    H111700   4.656   0.016   2.239 -0.9112 -0.9397 -0.0742
 3898TIP3    H211701   4.508   0.017   2.206 -0.6396  0.9629 -1.3589
 3899TIP3   OH211702   5.462   5.971   4.733 -0.0808  0.1239  0.5202
 3899TIP3    H111703   5.381   6.015   4.757 -1.3441 -1.2557 -0.9858
 3899TIP3    H211704   5.435   5.900   4.674  2.3266  0.4532 -1.1348
 3900TIP3   OH211705   4.871   3.866   4.094  0.1332  0.3964  0.0832
 3900TIP3    H111706   4.920   3.923   4.154 -0.7719 -0.7013  1.9798
 3900TIP3    H211707   4.781   3.898   4.098  0.2032  0.8306 -1.3915
 3901TIP3   OH211708   4.123   1.951   5.023  0.0176 -0.2611  0.6946
 3901TIP3    H111709   4.148   1.912   4.939 -0.4003 -0.1212  0.5048
 3901TIP3    H211710   4.142   2.044   5.013 -0.4644 -0.1716  0.5905
 3902TIP3   OH211711   1.912   5.234   1.248  0.3481  0.2353  0.0509
 3902TIP3    H111712   1.905   5.323   1.282 -2.3403  0.2607 -0.3684
 3902TIP3    H211713   1.985   5.238   1.186  1.2465  1.7420  1.1481
 3903TIP3   OH211714   1.660   0.085   3.754  0.2204  0.2485 -0.2348
 3903TIP3    H111715   1.623   0.042   3.832 -2.3435  2.1029 -0.3079
 3903TIP3    H211716   1.748   0.048   3.746 -0.3444 -1.8669  2.0568
 3904TIP3   OH211717   0.338   0.303   1.281 -0.1026 -0.1587  0.2921
 3904TIP3    H111718   0.387   0.383   1.262  0.2952  0.1047  2.2134
 3904TIP3    H211719   0.247   0.326   1.266  0.1202  0.1639 -0.6764
 3905TIP3   OH211720   0.223   0.651   5.003 -0.1656  0.4974  0.1072
 3905TIP3    H111721   0.269   0.623   4.924 -1.0607 -0.2768 -0.1520
 3905TIP3    H211722   0.252   0.589   5.071 -0.3950  0.3557  0.0761
 3906TIP3   OH211723   3.883   3.598   3.585 -0.0541 -0.2314  0.3003
 3906TIP3    H111724   3.859   3.686   3.556  2.4232  0.6844  0.7740
 3906TIP3    H211725   3.878   3.603   3.681 -0.1786 -0.7041  0.3202
 3907TIP3   OH211726   4.753   4.737   0.125  0.2415  0.1072 -0.2487
 3907TIP3    H111727   4.692   4.721   0.053  1.6489 -0.7042 -1.3185
 3907TIP3    H211728   4.711   4.700   0.202 -0.3379 -1.0287 -1.0903
 3908TIP3   OH211729   4.582   4.805   3.095  0.5478  0.6765  0.0919
 3908TIP3    H111730   4.656   4.771   3.046  0.5939 -1.3927  1.4619
 3908TIP3    H211731   4.520   4.835   3.029  2.2600  1.7334 -1.0900
 3909TIP3   OH211732   2.461   1.213   2.588 -0.3793 -0.0821  0.4002
 3909TIP3    H111733   2.510   1.173   2.659 -0.0065  1.6138  1.1441
 3909TIP3    H211734   2.462   1.307   2.607 -2.9237  0.1538 -0.1799
 3910TIP3   OH211735   2.097   2.362   0.860  0.0839 -0.1628  0.2583
 3910TIP3    H111736   2.185   2.383   0.892 -0.0319  1.3587 -0.3265
 3910TIP3    H211737   2.088   2.268   0.874  1.7591 -0.3268  0.4384
 3911TIP3   OH211738   5.549   1.221   2.160  0.1457 -0.2228  0.1390
 3911TIP3    H111739   5.642   1.215   2.136  0.1709  1.1298 -0.1638
 3911TIP3    H211740   5.546   1.193   2.252  0.6724 -1.3513 -0.1683
 3912TIP3   OH211741   2.164   5.753   3.845 -0.3789 -0.1969 -0.2303
 3912TIP3    H111742   2.203   5.706   3.771  2.6486  1.4119  0.1727
 3912TIP3    H211743   2.094   5.806   3.806  0.2129 -0.4536 -1.7065
 3913TIP3   OH211744   1.443   4.688   1.833 -0.3039 -0.2750 -0.3973
 3913TIP3    H111745   1.479   4.602   1.854 -0.6623 -0.6033 -1.0810
 3913TIP3    H211746   1.361   4.669   1.788  0.0559  0.3936 -1.3843
 3914TIP3   OH211747   6.008   3.715   3.748 -0.3932 -0.2319 -0.1574
 3914TIP3    H111748   6.093   3.692   3.710 -1.0401 -0.6045 -1.4342
 3914TIP3    H211749   5.947   3.711   3.674 -1.9122 -2.0225  1.1083
 3915TIP3   OH211750   0.333   2.118   1.307 -0.3116 -0.3378 -0.5796
 3915TIP3    H111751   0.368   2.207   1.315 -0.4773 -0.2291 -1.0422
 3915TIP3    H211752   0.404   2.068   1.266  0.3864 -0.8022  1.1227
 3916TIP3   OH211753   2.641   4.274   3.887  0.2756 -0.0118  0.2037
 3916TIP3    H111754   2.548   4.271   3.865  0.4784  0.4666 -0.7526
 3916TIP3    H211755   2.674   4.187   3.861  0.6855  0.8061 -2.3336
 3917TIP3   OH211756   1.461   1.165   2.411 -0.6555  0.6430  0.0516
 3917TIP3    H111757   1.520   1.213   2.353  1.6918  1.1003  2.6385
 3917TIP3    H211758   1.428   1.230   2.472  0.0831 -0.4173  1.6550
 3918TIP3   OH211759   0.285   0.090   2.758  0.5828  0.7659  0.4322
 3918TIP3    H111760   0.308   0.183   2.758  0.3701  0.8246 -0.4804
 3918TIP3    H211761   0.239   0.076   2.675  0.5537 -0.1415  0.5883
 3919TIP3   OH211762   2.170   1.348   0.182 -0.1477 -0.1032  0.1140
 3919TIP3    H111763   2.144   1.286   0.250 -0.3077  0.6229  0.7241
 3919TIP3    H211764   2.184   1.430   0.228  2.5151 -0.2498 -0.2893
 3920TIP3   OH211765   1.024   0.093   4.435 -0.5929 -0.0070 -0.2983
 3920TIP3    H111766   1.006   0.104   4.342 -2.0842  0.2781  0.0010
 3920TIP3    H211767   1.009   0.180   4.473  0.6537  0.0468  0.1294
 3921TIP3   OH211768   5.666   0.993   3.715  0.2210  0.1718  0.0051
 3921TIP3    H111769   5.671   0.962   3.806 -0.1903  2.1720  0.7507
 3921TIP3    H211770   5.634   1.082   3.722  1.2032  0.7383 -2.0614
 3922TIP3   OH211771   1.429   5.068   0.867 -0.1926  0.1429 -0.1744
 3922TIP3    H111772   1.459   4.978   0.859 -0.1356  0.0900  0.5946
 3922TIP3    H211773   1.336   5.065   0.843 -0.0083  0.0217 -0.9078
 3923TIP3   OH211774   1.204   3.332   1.514  0.4579 -0.0157 -0.0483
 3923TIP3    H111775   1.241   3.246   1.534 -1.4765 -0.6755  0.9433
 3923TIP3    H211776   1.137   3.346   1.580 -0.9928  1.1489 -1.6480
 3924TIP3   OH211777   2.875   5.381   4.286  0.1615  0.0573  0.3588
 3924TIP3    H111778   2.857   5.365   4.378  2.4198 -0.4166  0.7761
 3924TIP3    H211779   2.901   5.296   4.251  1.3135  0.6019 -0.1771
 3925TIP3   OH211780   4.308   1.777   4.082 -0.0363  0.0281  0.2417
 3925TIP3    H111781   4.282   1.790   3.991 -2.9542  0.7945  1.0978
 3925TIP3    H211782   4.302   1.864   4.122  1.0487 -0.3235  1.2464
 3926TIP3   OH211783   3.704   1.302   2.825  0.1319 -0.1853 -0.2638
 3926TIP3    H111784   3.799   1.308   2.809  0.3192  0.2294  0.8859
 3926TIP3    H211785   3.697   1.275   2.916 -0.8741 -1.7554 -0.7664
 3927TIP3   OH211786   4.381   1.242   0.174  0.1941 -0.1425 -0.1667
 3927TIP3    H111787   4.349   1.331   0.190  0.7610 -0.0574  0.5500
 3927TIP3    H211788   4.313   1.202   0.120 -0.4081  0.5017  0.0892
 3928TIP3   OH211789   3.030   1.136   2.892  0.1065 -0.0694  1.0216
 3928TIP3    H111790   2.971   1.209   2.906  0.1639 -0.2124  2.1229
 3928TIP3    H211791   3.101   1.172   2.839 -2.0319 -0.4548 -2.3875
 3929TIP3   OH211792   4.581   4.985   2.474  0.0211 -0.6113 -0.0005
 3929TIP3    H111793   4.573   4.998   2.380  2.0539  1.2761  0.0078
 3929TIP3    H211794   4.502   5.023   2.511 -0.1176 -0.0335 -0.8696
 3930TIP3   OH211795   2.785   2.282   1.677 -0.5946  0.1806  0.2593
 3930TIP3    H111796   2.853   2.349   1.679 -1.1226  0.7230  0.1601
 3930TIP3    H211797   2.704   2.330   1.690 -0.8136 -0.6800  2.3777
 3931TIP3   OH211798   3.100   0.543   1.247  0.4804  0.0133 -0.0205
 3931TIP3    H111799   3.172   0.521   1.306  1.2421 -0.9281 -1.2315
 3931TIP3    H211800   3.143   0.553   1.161 -0.6111  1.1278 -0.4674
 3932TIP3   OH211801   2.062   1.967   0.541 -0.0430 -0.2609 -0.2872
 3932TIP3    H111802   2.041   2.058   0.561  0.1551 -0.2349 -0.1947
 3932TIP3    H211803   1.978   1.929   0.513 -0.2680 -0.2285  0.3272
 3933TIP3   OH211804   4.779   2.818   2.125 -0.3744 -0.0044 -0.0038
 3933TIP3    H111805   4.820   2.777   2.201  1.2365 -1.0573 -1.3609
 3933TIP3    H211806   4.777   2.749   2.059  1.1265  1.6449 -1.9100
 3934TIP3   OH211807   6.059   0.063   0.176  0.0480 -0.0304  0.1279
 3934TIP3    H111808   5.992   0.075   0.243 -1.0141  1.7777 -1.1620
 3934TIP3    H211809   6.128   0.125   0.199 -0.6490  1.1257 -0.8016
 3935TIP3   OH211810   2.497   5.760   0.591 -0.2784 -0.4864  0.2090
 3935TIP3    H111811   2.454   5.823   0.534  0.6134  1.2601  1.3922
 3935TIP3    H211812   2.582   5.799   0.610  0.4002 -2.1712  0.8105
 3936TIP3   OH211813   2.830   0.683   5.087 -0.4534 -0.3013 -0.0840
 3936TIP3    H111814   2.823   0.778   5.096  2.8189 -0.0987  1.8383
 3936TIP3    H211815   2.888   0.671   5.012  0.4790 -0.7041  0.6968
 3937TIP3   OH211816   4.664   5.348   2.732  0.0153 -0.4977 -0.1701
 3937TIP3    H111817   4.636   5.353   2.641  0.5001 -1.4417 -0.3809
 3937TIP3    H211818   4.648   5.257   2.757  0.2786 -0.3517  0.5624
 3938TIP3   OH211819   2.914   2.917   2.200 -0.0808  0.2895 -0.0833
 3938TIP3    H111820   2.998   2.942   2.162  0.2101 -0.8166 -0.2254
 3938TIP3    H211821   2.866   2.999   2.210  1.1848  0.9960  0.4244
 3939TIP3   OH211822   3.215   5.975   1.198  0.1526 -0.7670 -0.1177
 3939TIP3    H111823   3.288   5.919   1.169 -0.6645 -0.3596 -3.4710
 3939TIP3    H211824   3.154   5.914   1.239  0.6751 -1.8048 -0.8241
 3940TIP3   OH211825   1.446   5.232   1.658 -0.2179 -0.4681  0.0896
 3940TIP3    H111826   1.442   5.306   1.718 -0.1405 -0.0113 -0.4603
 3940TIP3    H211827   1.527   5.246   1.609 -0.6082 -0.4791 -0.5692
 3941TIP3   OH211828   3.066   0.525   2.958  0.4168 -0.3284 -0.4687
 3941TIP3    H111829   3.060   0.575   2.876  2.6233 -2.5469 -2.1501
 3941TIP3    H211830   3.160   0.511   2.971  0.0369 -1.1305  1.7576
 3942TIP3   OH211831   0.312   3.540   1.478  0.2018  1.0382  0.3754
 3942TIP3    H111832   0.311   3.445   1.464  0.3022  1.2546 -1.1770
 3942TIP3    H211833   0.230   3.571   1.440  0.9111  1.7632 -0.6115
 3943TIP3   OH211834   4.815   2.029   1.418 -0.0607  0.0133  0.2888
 3943TIP3    H111835   4.904   2.019   1.384 -0.5914 -1.4300 -0.8058
 3943TIP3    H211836   4.792   1.941   1.449 -1.5209  0.0652 -0.5755
 3944TIP3   OH211837   1.666   2.518   1.180  0.6808 -0.8237  0.4861
 3944TIP3    H111838   1.698   2.585   1.240  1.3893  1.9832 -2.7122
 3944TIP3    H211839   1.571   2.528   1.180  0.6948 -0.6868  0.9661
 3945TIP3   OH211840   5.021   2.915   3.207 -0.4952 -0.5447  0.5417
 3945TIP3    H111841   5.023   2.990   3.148  0.8096 -0.7826  0.2409
 3945TIP3    H211842   4.928   2.895   3.218 -0.8180  0.4570 -0.2033
 3946TIP3   OH211843   3.262   5.556   4.578 -0.3061  0.0834 -0.4763
 3946TIP3    H111844   3.322   5.594   4.642 -0.3276 -1.7319  0.6734
 3946TIP3    H211845   3.290   5.595   4.495  1.3891  0.5619  0.2621
 3947TIP3   OH211846   0.038   2.744   3.510 -0.6664 -0.3639 -0.3768
 3947TIP3    H111847   0.051   2.720   3.602  0.4014 -0.2933 -0.4972
 3947TIP3    H211848  -0.043   2.795   3.510  0.7171  1.9755  0.9604
 3948TIP3   OH211849   2.500   3.558   3.004 -0.4131 -0.4876  0.2697
 3948TIP3    H111850   2.479   3.465   2.998  1.0805 -0.7304 -3.3745
 3948TIP3    H211851   2.519   3.585   2.914 -0.0113  3.1834  1.2926
 3949TIP3   OH211852   0.254   5.845   2.930 -0.6281  0.1497  0.0459
 3949TIP3    H111853   0.282   5.900   3.004  0.3963 -0.0280 -0.1926
 3949TIP3    H211854   0.272   5.756   2.958  0.9019  0.1396 -0.8479
 3950TIP3   OH211855   4.725   3.198   4.456  0.3633  0.3096 -0.0269
 3950TIP3    H111856   4.717   3.292   4.474  0.9280  0.7126 -1.7515
 3950TIP3    H211857   4.813   3.175   4.485 -0.2061  0.0059  1.5568
 3951TIP3   OH211858   5.220   4.271   1.625 -0.3461 -0.1211  0.3024
 3951TIP3    H111859   5.299   4.224   1.597 -1.3813 -0.8735 -1.4885
 3951TIP3    H211860   5.168   4.206   1.671 -0.8271 -0.1823 -0.3160
 3952TIP3   OH211861   5.091   4.512   1.636  0.0669  0.0515  0.0443
 3952TIP3    H111862   5.150   4.437   1.642 -0.1194 -0.0998 -0.0144
 3952TIP3    H211863   5.120   4.570   1.706  0.2157 -0.0714  0.0863
 3953TIP3   OH211864   4.039   0.123   1.778  0.3330  0.0119 -0.0142
 3953TIP3    H111865   4.113   0.152   1.724  0.2138 -0.7410 -0.5982
 3953TIP3    H211866   3.973   0.093   1.715  1.0801 -3.0783  0.5128
 3954TIP3   OH211867   5.172   1.031   4.748 -0.0543 -0.1314  0.0152
 3954TIP3    H111868   5.201   1.118   4.777 -2.2291  0.2521  1.2122
 3954TIP3    H211869   5.092   1.015   4.798 -0.5972 -2.1272 -1.4117
 3955TIP3   OH211870   2.368   1.673   0.549  0.6247 -0.1940 -0.6117
 3955TIP3    H111871   2.351   1.767   0.542 -0.8858 -0.2357  1.5730
 3955TIP3    H211872   2.293   1.638   0.597  2.2426 -2.1113  0.7072
 3956TIP3   OH211873   3.453   0.083   2.248  0.1974  0.3315  0.6159
 3956TIP3    H111874   3.370   0.109   2.208 -0.3535 -0.3759  1.2818
 3956TIP3    H211875   3.474  -0.002   2.208  0.9695  0.8204 -0.0653
 3957TIP3   OH211876   0.021   0.612   2.393  0.1276 -0.5867  0.0632
 3957TIP3    H111877   0.016   0.610   2.298  0.3677  0.3329  0.0175
 3957TIP3    H211878   0.115   0.618   2.412  0.0077  1.4757  0.2589
 3958TIP3   OH211879   2.497   4.308   3.177  0.0033  0.2125 -0.1614
 3958TIP3    H111880   2.457   4.251   3.243  0.3545  0.4770  0.2808
 3958TIP3    H211881   2.566   4.354   3.224  0.7292 -0.1279 -0.8908
 3959TIP3   OH211882   0.258   5.442   3.704  0.0965 -0.9007  0.1834
 3959TIP3    H111883   0.192   5.466   3.768 -0.6654  0.6672 -1.1052
 3959TIP3    H211884   0.221   5.367   3.658  0.1775 -1.3650  0.8685
 3960TIP3   OH211885   1.901   0.888   4.408  0.3250  0.5234 -0.4148
 3960TIP3    H111886   1.957   0.830   4.460  0.5663  0.6398 -0.5437
 3960TIP3    H211887   1.850   0.829   4.353  1.3893  0.4770 -1.3772
 3961TIP3   OH211888   1.439   5.098   3.165 -0.1729 -0.0646 -0.2792
 3961TIP3    H111889   1.464   5.140   3.083 -1.0439  0.5262 -0.2577
 3961TIP3    H211890   1.355   5.055   3.146 -1.0131  1.1154  0.6045
 3962TIP3   OH211891   3.407   5.881   3.288 -0.1451  0.1026  0.0302
 3962TIP3    H111892   3.453   5.956   3.324  0.9277 -1.3024  1.7776
 3962TIP3    H211893   3.472   5.837   3.233 -0.6173  0.1822 -0.6040
 3963TIP3   OH211894   5.990   2.549   2.193 -0.0144  0.1852 -0.2187
 3963TIP3    H111895   5.938   2.471   2.213 -0.4947 -0.0785 -2.2135
 3963TIP3    H211896   5.957   2.578   2.107 -0.4727  3.1045  0.8174
 3964TIP3   OH211897   2.045   4.904   4.459 -0.4036  0.1856 -0.1395
 3964TIP3    H111898   2.016   4.958   4.385 -1.8121  0.4525  0.5719
 3964TIP3    H211899   2.081   4.825   4.418 -2.0172 -0.0993 -1.1161
 3965TIP3   OH211900   3.540   5.110   3.182 -0.1434  0.3363  0.3347
 3965TIP3    H111901   3.468   5.114   3.244 -1.4616 -1.9570 -0.9053
 3965TIP3    H211902   3.615   5.080   3.233 -0.6751  0.4520  1.1967
 3966TIP3   OH211903   6.019   0.270   4.086 -0.2671  0.3138 -0.4689
 3966TIP3    H111904   6.005   0.273   3.992 -1.2835 -1.8561 -0.4659
 3966TIP3    H211905   6.021   0.176   4.107  1.7778  0.6733  1.4260
 3967TIP3   OH211906   5.488   2.602   4.943  0.0230  0.5887 -0.3375
 3967TIP3    H111907   5.504   2.599   4.848 -2.2721  1.0567 -0.8097
 3967TIP3    H211908   5.516   2.690   4.969  2.7017 -0.2536 -0.0828
 3968TIP3   OH211909   5.549   0.613   4.915  0.2460 -0.4893 -0.4670
 3968TIP3    H111910   5.529   0.706   4.905  1.6753  0.4594  3.5708
 3968TIP3    H211911   5.636   0.603   4.875 -0.1810 -0.2576 -1.4743
 3969TIP3   OH211912   3.814   3.498   5.044 -0.4394  0.0192  0.3979
 3969TIP3    H111913   3.729   3.531   5.075 -0.4535 -0.0446  0.4283
 3969TIP3    H211914   3.794   3.411   5.009 -0.4278  0.1033  0.1830
 3970TIP3   OH211915   0.510   0.726   2.279  0.3577 -0.0682  0.0848
 3970TIP3    H111916   0.570   0.749   2.350 -0.8125  1.1801  0.7076
 3970TIP3    H211917   0.568   0.704   2.206  1.5779 -1.1325  1.3294
 3971TIP3   OH211918   3.378  -0.001   3.743 -0.4145 -0.3208  0.3443
 3971TIP3    H111919   3.318   0.073   3.729  0.5952  0.3756 -0.5176
 3971TIP3    H211920   3.464   0.040   3.747  0.2380 -1.5156 -0.8344
 3972TIP3   OH211921   4.229   2.611   0.066  0.6163 -0.7563 -0.2399
 3972TIP3    H111922   4.179   2.663   0.004 -0.3130 -2.5025 -1.0093
 3972TIP3    H211923   4.259   2.535   0.016  1.5307 -1.2216  0.9555
 3973TIP3   OH211924   1.550   0.333   3.786 -0.1126  0.4552  0.0114
 3973TIP3    H111925   1.523   0.349   3.876  0.6505 -0.0732  0.3424
 3973TIP3    H211926   1.596   0.249   3.789  0.1037  0.5350 -0.8278
 3974TIP3   OH211927   3.828   4.072   3.142  0.0521 -0.4101 -0.6537
 3974TIP3    H111928   3.811   3.978   3.137  0.4737 -0.5698  0.4343
 3974TIP3    H211929   3.905   4.078   3.199 -0.2875  0.6219 -0.2943
 3975TIP3   OH211930   3.891   5.875   3.537  0.3422 -0.1111  0.1601
 3975TIP3    H111931   3.810   5.898   3.491  1.3864  0.3302 -1.5545
 3975TIP3    H211932   3.941   5.824   3.474  2.4078  1.6167  0.2761
 3976TIP3   OH211933   6.310   5.552   4.179 -0.5037  0.2500 -0.3777
 3976TIP3    H111934   6.385   5.495   4.191 -1.7824 -1.3232  0.5795
 3976TIP3    H211935   6.265   5.518   4.101 -1.3532 -0.1873  0.2836
 3977TIP3   OH211936   5.164   5.175   3.641  1.0032  0.5882 -0.0347
 3977TIP3    H111937   5.151   5.089   3.601  1.8571  0.5029 -0.1532
 3977TIP3    H211938   5.160   5.158   3.736  0.9624  0.4492 -0.0607
 3978TIP3   OH211939   0.992   4.906   3.300  0.1631  0.5441 -0.1251
 3978TIP3    H111940   0.904   4.881   3.329  0.0038 -1.3208 -2.0613
 3978TIP3    H211941   1.033   4.941   3.379 -1.9155  0.3887  1.1078
 3979TIP3   OH211942   4.622   5.650   4.499  0.2720 -0.3516 -0.1087
 3979TIP3    H111943   4.673   5.702   4.561 -2.3426  0.1121  1.8516
 3979TIP3    H211944   4.679   5.576   4.476  1.3541 -0.6427  3.0416
 3980TIP3   OH211945   6.000   1.010   0.876  0.1752 -0.2402  0.3130
 3980TIP3    H111946   5.958   0.998   0.961  1.3999 -3.2129  0.6314
 3980TIP3    H211947   6.077   1.063   0.894  0.7288 -1.3159  1.2098
 3981TIP3   OH211948   5.188   1.518   2.520  0.4532  0.5987  0.7383
 3981TIP3    H111949   5.133   1.578   2.571 -0.4678  0.5355 -0.1332
 3981TIP3    H211950   5.165   1.537   2.429  2.1685  0.8218  0.3262
 3982TIP3   OH211951   5.524   2.864   0.109  0.2485 -0.1882 -0.0820
 3982TIP3    H111952   5.535   2.810   0.187 -1.2440  1.3057  1.2499
 3982TIP3    H211953   5.429   2.879   0.104  0.5599  1.7667 -0.7354
 3983TIP3   OH211954   1.961   2.505   1.796 -0.0868  0.2792 -0.7141
 3983TIP3    H111955   1.986   2.447   1.868 -1.9728  2.7310  2.1345
 3983TIP3    H211956   1.960   2.447   1.719  1.5546 -2.6073  1.2138
 3984TIP3   OH211957   6.165   1.202   3.339 -0.3084  0.1138  0.2537
 3984TIP3    H111958   6.088   1.259   3.340 -1.4989 -1.4079 -0.5836
 3984TIP3    H211959   6.149   1.141   3.411  1.7655  1.7541  2.2606
 3985TIP3   OH211960   1.073   5.248   3.631 -0.2055 -0.1907  0.3952
 3985TIP3    H111961   1.138   5.244   3.701  0.7366  0.5732 -0.4002
 3985TIP3    H211962   1.074   5.340   3.603 -1.7204 -0.1299  0.4244
 3986TIP3   OH211963   2.216   4.887   0.670 -0.8723  0.4351  0.0119
 3986TIP3    H111964   2.289   4.826   0.662 -1.7140 -0.6142  0.0385
 3986TIP3    H211965   2.230   4.930   0.754 -0.0542  0.5731 -0.1854
 3987TIP3   OH211966   2.658   0.290   1.051  0.0918  0.0395 -1.1016
 3987TIP3    H111967   2.601   0.366   1.037 -0.7962  0.0434  1.8516
 3987TIP3    H211968   2.665   0.283   1.146  5.0507 -0.0464 -1.2448
 3988TIP3   OH211969   2.016   2.917   0.166  0.2411 -0.0172  0.3772
 3988TIP3    H111970   2.029   2.828   0.134 -1.7214 -0.7492  1.4679
 3988TIP3    H211971   2.093   2.936   0.219  0.4925 -1.1985  0.4411
 3989TIP3   OH211972   2.633   1.732   1.913  0.4014 -0.2592 -0.3506
 3989TIP3    H111973   2.600   1.802   1.856  0.4337  0.0225 -0.0292
 3989TIP3    H211974   2.681   1.778   1.982  2.8074 -0.7016 -1.6189
 3990TIP3   OH211975   1.561   5.259   4.854 -0.1741  0.2833 -0.0850
 3990TIP3    H111976   1.578   5.223   4.767 -0.5102 -1.3347  0.4820
 3990TIP3    H211977   1.484   5.315   4.844 -0.6215 -0.4365 -0.6974
 3991TIP3   OH211978   0.076   4.649   0.093 -0.0880 -0.1055  0.6465
 3991TIP3    H111979   0.084   4.734   0.138  1.2055  1.1104 -1.6735
 3991TIP3    H211980  -0.017   4.641   0.073  0.0024  1.8296 -0.8660
 3992TIP3   OH211981   5.501   1.169   4.286  0.5487  0.3798  0.1841
 3992TIP3    H111982   5.425   1.170   4.345  0.2734 -1.1445 -0.1068
 3992TIP3    H211983   5.550   1.091   4.311  2.8095  2.0229  1.2814
 3993TIP3   OH211984   2.362   3.727   3.761 -0.0293  0.5132  0.0230
 3993TIP3    H111985   2.443   3.739   3.711  0.9839 -1.4246  1.0746
 3993TIP3    H211986   2.299   3.785   3.718  1.1360 -0.0119 -2.6210
 3994TIP3   OH211987   2.069   5.740   3.414  0.3698 -0.1867 -0.0102
 3994TIP3    H111988   2.001   5.683   3.452  0.6186 -0.6159 -0.2094
 3994TIP3    H211989   2.019   5.808   3.369  0.0483  0.7332  1.6342
 3995TIP3   OH211990   3.303   0.980   1.554 -0.4934 -0.4543 -0.0878
 3995TIP3    H111991   3.219   1.027   1.555  0.8375  2.1301  1.5480
 3995TIP3    H211992   3.366   1.045   1.524  1.1468 -1.9353  0.0014
 3996TIP3   OH211993   1.350   4.328   3.727  0.0968 -1.0465 -0.6140
 3996TIP3    H111994   1.263   4.317   3.765 -0.3757 -0.2760 -1.4309
 3996TIP3    H211995   1.406   4.268   3.777 -1.0092 -1.9983 -0.4719
 3997TIP3   OH211996   0.191   4.594   3.111  0.0603  0.0865  0.0037
 3997TIP3    H111997   0.196   4.681   3.072  1.1163  0.6207  1.2540
 3997TIP3    H211998   0.228   4.536   3.045  1.8844  0.9764  0.1740
 3998TIP3   OH211999   3.293   2.973   0.560 -0.3751  0.3752  0.1122
 3998TIP3    H112000   3.382   2.952   0.531  0.1429  0.2642  1.6601
 3998TIP3    H212001   3.251   2.888   0.574 -0.1090  0.3817  1.0751
 3999TIP3   OH212002   5.024   2.328   0.315  0.2518  0.1139 -0.5067
 3999TIP3    H112003   5.043   2.278   0.394 -0.2770  1.2964  0.4103
 3999TIP3    H212004   5.107   2.329   0.267  0.3017 -1.5132 -0.5080
 4000TIP3   OH212005   4.558   5.289   3.780 -0.2819 -0.4113 -0.1001
 4000TIP3    H112006   4.603   5.207   3.762  0.2527  0.0863 -1.1140
 4000TIP3    H212007   4.626   5.356   3.770 -0.5963  0.1275  1.1681
 4001TIP3   OH212008   2.012   4.474   3.685  0.1078 -0.6193 -0.8426
 4001TIP3    H112009   2.101   4.507   3.673  0.6365 -1.5498  0.3495
 4001TIP3    H212010   2.020   4.379   3.675 -0.4914 -0.8521  0.7040
 4002TIP3   OH212011   6.041   2.092   1.153 -0.0082 -0.4013 -0.4331
 4002TIP3    H112012   6.012   2.151   1.084 -0.9804 -0.2406  0.0841
 4002TIP3    H212013   5.996   2.009   1.133  2.0759 -1.2946 -1.6938
 4003TIP3   OH212014   2.988   2.178   0.344  0.2508  0.5966  0.1078
 4003TIP3    H112015   2.981   2.254   0.402  1.9836  2.5236 -1.9900
 4003TIP3    H212016   3.082   2.171   0.325 -0.2402  0.4276 -2.7572
 4004TIP3   OH212017   2.015   1.028   1.161 -0.2877 -0.4376 -0.4344
 4004TIP3    H112018   1.993   1.084   1.087 -2.5709 -1.4931 -0.6360
 4004TIP3    H212019   1.955   1.055   1.231  0.7823 -0.4963  0.5420
 4005TIP3   OH212020   0.236   5.368   0.922 -0.5662  0.2966 -0.3040
 4005TIP3    H112021   0.213   5.314   0.997 -1.4474  0.1092 -0.6964
 4005TIP3    H212022   0.164   5.355   0.860 -0.0626  0.7768 -1.0063
 4006TIP3   OH212023   4.586   1.966   3.918  0.2516 -0.2501 -0.3582
 4006TIP3    H112024   4.620   2.000   4.000  1.4954 -1.5401 -0.3137
 4006TIP3    H212025   4.642   2.003   3.851 -1.0977  1.2463 -0.7292
 4007TIP3   OH212026   2.470   2.770   1.281  0.4921 -0.4614  0.1071
 4007TIP3    H112027   2.518   2.828   1.340  0.0252 -0.7867  0.8225
 4007TIP3    H212028   2.478   2.684   1.322 -1.2988 -0.4081  0.6318
 4008TIP3   OH212029   1.216   5.120   1.591 -0.0429 -0.6369  0.8851
 4008TIP3    H112030   1.304   5.141   1.623  0.0397 -0.1409  0.3654
 4008TIP3    H212031   1.228   5.110   1.496 -0.9912  2.2577  0.3425
 4009TIP3   OH212032   1.794   0.308   1.155  0.7316  0.0249 -0.3890
 4009TIP3    H112033   1.760   0.220   1.138 -1.4576  0.2541  2.1525
 4009TIP3    H212034   1.732   0.367   1.113  1.2143  0.3927 -0.5897
 4010TIP3   OH212035   5.720   0.105   1.243  0.4350 -0.4800 -0.2086
 4010TIP3    H112036   5.749   0.014   1.232 -0.2668 -0.6457 -0.7782
 4010TIP3    H212037   5.702   0.112   1.337 -1.1038 -1.4643 -0.3781
 4011TIP3   OH212038   6.354   3.708   1.590  0.0469 -0.4247 -0.2175
 4011TIP3    H112039   6.358   3.706   1.685 -1.8358  0.1554 -0.0942
 4011TIP3    H212040   6.284   3.770   1.570 -0.7247 -1.7673 -1.9415
 4012TIP3   OH212041   3.283   0.344   0.832 -0.0493 -0.3530  0.5044
 4012TIP3    H112042   3.258   0.419   0.777  0.9794 -0.2659  0.1350
 4012TIP3    H212043   3.282   0.378   0.921 -0.9427 -0.2785  0.4750
 4013TIP3   OH212044   0.733   2.901   2.525 -0.7180  0.5750 -0.0546
 4013TIP3    H112045   0.698   2.972   2.579  0.2919  0.2335  1.1093
 4013TIP3    H212046   0.706   2.922   2.436 -0.4954  2.3930  0.2685
 4014TIP3   OH212047   3.567   2.953   0.464 -0.0542 -0.5040 -0.0210
 4014TIP3    H112048   3.597   3.000   0.542 -0.9497  0.2609 -0.1109
 4014TIP3    H212049   3.632   2.885   0.450  0.2905 -0.4523  1.2082
 4015TIP3   OH212050   3.865   1.622   4.276  0.6132 -0.4480  0.0278
 4015TIP3    H112051   3.924   1.606   4.350 -0.1946 -0.5904  0.6484
 4015TIP3    H212052   3.898   1.702   4.236  1.6914 -0.9368 -0.0978
 4016TIP3   OH212053   1.846   4.222   0.279 -0.1460 -0.7995 -0.3620
 4016TIP3    H112054   1.873   4.140   0.237  1.6057 -0.6989  0.4777
 4016TIP3    H212055   1.882   4.217   0.367 -2.5758 -0.3911  0.7080
 4017TIP3   OH212056   5.464   3.748   4.843  0.2977 -0.0080  0.1406
 4017TIP3    H112057   5.538   3.805   4.823  1.3413 -1.2968  0.2278
 4017TIP3    H212058   5.502   3.661   4.852 -0.9063 -0.3850  2.3260
 4018TIP3   OH212059   4.921   2.259   1.973  0.8101  0.1255  0.1569
 4018TIP3    H112060   4.927   2.334   1.914  2.3137  0.5320  0.7792
 4018TIP3    H212061   4.932   2.183   1.916 -0.6284  0.3558 -0.4648
 4019TIP3   OH212062   0.298   4.257   3.316 -0.6688 -0.4744  0.5783
 4019TIP3    H112063   0.291   4.180   3.372 -2.8087 -1.2807 -0.6800
 4019TIP3    H212064   0.342   4.225   3.237 -0.9071 -0.2460  0.3509
 4020TIP3   OH212065   1.056   2.869   2.899  0.1283  0.0104 -0.0160
 4020TIP3    H112066   0.998   2.944   2.888 -0.7788 -0.3881  1.6770
 4020TIP3    H212067   1.061   2.829   2.812  0.0895  1.6146 -0.7924
 4021TIP3   OH212068   0.538   3.416   1.701 -0.0221 -0.1273 -0.2494
 4021TIP3    H112069   0.606   3.460   1.649  0.0562  0.0184 -0.0242
 4021TIP3    H212070   0.456   3.451   1.667  0.0666  0.8474  0.5182
 4022TIP3   OH212071   3.810   4.762   4.678  0.3565 -0.3136  0.1044
 4022TIP3    H112072   3.871   4.835   4.666  0.2305 -0.1266  0.5678
 4022TIP3    H212073   3.725   4.804   4.695  0.1666 -0.5693 -0.1979
 4023TIP3   OH212074   2.397   4.451   0.664  0.4496  0.6118 -0.0657
 4023TIP3    H112075   2.345   4.514   0.713  0.3935  1.9031 -1.7199
 4023TIP3    H212076   2.462   4.504   0.617 -0.8562 -0.2689 -3.0982
 4024TIP3   OH212077   5.603   1.283   3.369  0.7397 -0.0866 -0.4121
 4024TIP3    H112078   5.577   1.255   3.281  0.1998  0.9456 -0.5988
 4024TIP3    H212079   5.603   1.379   3.365 -0.7089  0.0315  1.0871
 4025TIP3   OH212080   1.208   2.015   0.945 -0.0168 -0.0899 -0.1324
 4025TIP3    H112081   1.280   1.982   0.891  2.2385  1.6429  1.6211
 4025TIP3    H212082   1.219   2.110   0.945 -1.7963  0.1626  0.9171
 4026TIP3   OH212083   0.707   0.777   0.660 -0.1435  0.0517  0.0005
 4026TIP3    H112084   0.661   0.699   0.691  0.6241 -0.9285 -1.2563
 4026TIP3    H212085   0.796   0.768   0.696 -0.1505  0.5453  0.1509
 4027TIP3   OH212086   3.518   0.254   0.713  0.0308  0.1131 -0.2678
 4027TIP3    H112087   3.435   0.244   0.760 -0.5869 -1.0596 -1.5124
 4027TIP3    H212088   3.498   0.316   0.643 -0.0688 -0.7986 -1.0767
 4028TIP3   OH212089   5.155   3.314   1.087 -0.0288  0.0757  0.1154
 4028TIP3    H112090   5.064   3.334   1.064 -0.3509 -0.9882  0.4038
 4028TIP3    H212091   5.205   3.386   1.049 -0.8897  0.1621 -0.9275
 4029TIP3   OH212092   0.671   1.262   0.798  0.3755 -0.3206 -0.1808
 4029TIP3    H112093   0.757   1.252   0.839  0.0373  1.0945  0.9296
 4029TIP3    H212094   0.666   1.189   0.736  3.0524  0.4570 -1.4600
 4030TIP3   OH212095   5.026   0.433   2.456 -0.4860  0.1494 -0.3815
 4030TIP3    H112096   4.930   0.429   2.458 -0.5195  0.9327  1.5675
 4030TIP3    H212097   5.054   0.390   2.536  0.7001  1.5994  0.0187
 4031TIP3   OH212098   3.332   3.384   0.201  0.0709  0.5555 -0.0399
 4031TIP3    H112099   3.345   3.298   0.240 -1.3035  0.3177 -0.0370
 4031TIP3    H212100   3.240   3.383   0.172  0.3405  1.6284 -1.0083
 4032TIP3   OH212101   2.117   1.743   1.884 -0.1722 -0.0310  0.7788
 4032TIP3    H112102   2.064   1.721   1.807  0.4034  0.4895  0.2278
 4032TIP3    H212103   2.141   1.658   1.921 -0.2575 -0.2916  0.2507
 4033TIP3   OH212104   1.644   3.930   3.668 -0.6156 -0.6561 -0.5275
 4033TIP3    H112105   1.653   3.856   3.728 -0.9265 -0.3821 -0.1408
 4033TIP3    H212106   1.666   3.893   3.582  1.2370 -0.7216 -0.0687
 4034TIP3   OH212107   1.341   2.556   0.849  0.0171  0.3154  0.3378
 4034TIP3    H112108   1.357   2.551   0.755 -1.1466  1.6774  0.0329
 4034TIP3    H212109   1.400   2.624   0.880 -0.1112  0.3691  0.4668
 4035TIP3   OH212110   3.321   4.387   1.053 -0.3568 -0.1869 -0.3005
 4035TIP3    H112111   3.257   4.318   1.069  0.3771 -0.5632  1.1919
 4035TIP3    H212112   3.269   4.466   1.041 -1.1252 -0.3385  1.6377
 4036TIP3   OH212113   1.469   4.862   0.184  0.7120 -0.4781  0.2597
 4036TIP3    H112114   1.384   4.856   0.141  1.1852  0.6970 -0.8987
 4036TIP3    H212115   1.459   4.930   0.250  1.1422  0.7673 -0.9164
 4037TIP3   OH212116   3.490   2.535   1.669 -0.5622 -0.0734 -0.6691
 4037TIP3    H112117   3.458   2.468   1.729 -1.4466 -0.1404 -1.1934
 4037TIP3    H212118   3.585   2.532   1.678 -0.5802 -1.3748 -0.6476
 4038TIP3   OH212119   5.985   2.424   3.557 -0.2286 -0.1487  0.3530
 4038TIP3    H112120   6.012   2.333   3.547 -1.3630 -0.3453 -1.4286
 4038TIP3    H212121   5.890   2.419   3.570 -0.0895  0.7247  1.9834
 4039TIP3   OH212122   5.575   5.661   3.653 -0.5633 -0.1271 -0.5407
 4039TIP3    H112123   5.608   5.710   3.577  0.0651 -2.7111 -2.0713
 4039TIP3    H212124   5.640   5.678   3.722  1.4006 -1.1797 -2.0020
 4040TIP3   OH212125   1.628   2.577   3.104 -0.0153 -0.9722 -0.0280
 4040TIP3    H112126   1.705   2.615   3.061 -0.8263 -0.2379 -0.8738
 4040TIP3    H212127   1.593   2.515   3.041 -0.4373 -0.8904  0.1191
 4041TIP3   OH212128   3.264   2.710   2.134 -0.3619  0.0818 -0.3813
 4041TIP3    H112129   3.201   2.699   2.063 -0.8488  0.9517 -0.0951
 4041TIP3    H212130   3.213   2.745   2.207  0.4579  0.9080 -0.1790
 4042TIP3   OH212131   2.939   4.781   3.150  0.4162  0.1408  0.1232
 4042TIP3    H112132   2.989   4.709   3.189  2.0749 -0.0259 -2.0824
 4042TIP3    H212133   2.965   4.780   3.058 -0.5488  2.7342 -0.2477
 4043TIP3   OH212134   3.418   2.628   1.111  0.6112 -0.2568 -0.4426
 4043TIP3    H112135   3.505   2.596   1.134  0.2754 -0.7499  0.1996
 4043TIP3    H212136   3.360   2.553   1.125  0.0672  0.1008 -0.7314
 4044TIP3   OH212137   5.189   2.901   2.271  0.0245 -0.0574  0.1419
 4044TIP3    H112138   5.097   2.922   2.254  0.1067  0.5455  0.4152
 4044TIP3    H212139   5.218   2.856   2.192 -0.2872  0.4747 -0.2888
 4045TIP3   OH212140   3.042   0.211   5.127  0.2827  0.2123  0.1103
 4045TIP3    H112141   2.971   0.152   5.152 -0.9910  1.0308 -1.3622
 4045TIP3    H212142   3.077   0.244   5.210 -1.9950  0.8470  0.8853
 4046TIP3   OH212143   5.940   0.530   3.756  0.6354 -0.2262 -0.3266
 4046TIP3    H112144   6.013   0.486   3.712  1.1294  2.1030 -2.0157
 4046TIP3    H212145   5.979   0.568   3.835  0.8296 -0.4924 -0.2933
 4047TIP3   OH212146   4.823   2.067   3.091 -0.1955  0.1813  0.1996
 4047TIP3    H112147   4.847   1.981   3.057  1.1349  0.3105  0.7664
 4047TIP3    H212148   4.858   2.128   3.027 -0.8512  0.3189 -0.0329
 4048TIP3   OH212149   3.510   4.764   0.322 -0.3736  0.6089  0.1188
 4048TIP3    H112150   3.557   4.830   0.373  3.5772 -2.0596  0.3849
 4048TIP3    H212151   3.540   4.778   0.232 -1.8742  1.0011 -0.3374
 4049TIP3   OH212152   3.863   1.699   1.841 -0.0216 -0.3731  0.1783
 4049TIP3    H112153   3.894   1.787   1.858  0.7923 -0.4840 -0.6524
 4049TIP3    H212154   3.769   1.709   1.826  0.3437  0.6398 -1.7299
 4050TIP3   OH212155   5.576   4.108   2.559 -0.5272 -0.4352  0.4521
 4050TIP3    H112156   5.603   4.097   2.468 -0.0026  0.0013  0.5493
 4050TIP3    H212157   5.557   4.020   2.589  1.6251 -0.8913  0.6232
 4051TIP3   OH212158   1.531   1.516   2.373 -0.0203 -0.1765 -0.3326
 4051TIP3    H112159   1.562   1.505   2.283  2.2437  1.4953  0.1558
 4051TIP3    H212160   1.527   1.611   2.386 -1.1360 -0.3772  1.0912
 4052TIP3   OH212161   5.677   0.109   0.665  0.9610 -0.3605 -0.2966
 4052TIP3    H112162   5.733   0.076   0.736  0.1652 -0.0501  0.4885
 4052TIP3    H212163   5.676   0.204   0.676 -1.3401 -0.4624  0.9940
 4053TIP3   OH212164   4.243   4.391   3.637  0.5093  0.0168  0.1734
 4053TIP3    H112165   4.179   4.348   3.580  1.3135 -0.2479 -0.5552
 4053TIP3    H212166   4.324   4.393   3.585  0.7843  1.4339  0.6128
 4054TIP3   OH212167   3.253   1.815   0.570 -0.2672 -0.1026  0.4685
 4054TIP3    H112168   3.161   1.800   0.551 -0.2704  1.3629 -0.8212
 4054TIP3    H212169   3.257   1.905   0.604  0.6897 -0.1194  0.4509
 4055TIP3   OH212170   6.194   5.722   5.053  0.7083  0.1577  0.5658
 4055TIP3    H112171   6.118   5.694   5.104  1.7018 -3.0304  0.5376
 4055TIP3    H212172   6.159   5.740   4.966  0.0317 -2.7119  0.1287
 4056TIP3   OH212173   5.378   3.763   3.333 -0.6207 -0.2146  0.3799
 4056TIP3    H112174   5.398   3.856   3.332 -1.4446 -0.0274 -0.6819
 4056TIP3    H212175   5.297   3.756   3.383 -1.3779 -0.1585 -0.8067
 4057TIP3   OH212176   5.207   4.261   4.238 -0.0469  0.2439 -0.5131
 4057TIP3    H112177   5.193   4.313   4.317  1.9095 -1.2058  0.8921
 4057TIP3    H212178   5.266   4.314   4.184 -0.4581  0.7313 -0.4933
 4058TIP3   OH212179   0.695   4.231  -0.017 -0.2069  0.0851  0.6122
 4058TIP3    H112180   0.785   4.262  -0.022 -0.7454  1.8612  1.1945
 4058TIP3    H212181   0.680   4.214   0.076  0.1295 -2.2383  0.2950
 4059TIP3   OH212182   2.892   3.051   1.182  0.2050 -0.1031 -0.0849
 4059TIP3    H112183   2.870   3.079   1.271  0.3327  1.8163 -0.6275
 4059TIP3    H212184   2.963   2.988   1.194  0.7110  0.6665  1.1442
 4060TIP3   OH212185   5.475   0.836   3.580 -0.3188 -0.5725  0.5351
 4060TIP3    H112186   5.542   0.882   3.630  0.0577 -0.8098  0.2587
 4060TIP3    H212187   5.416   0.905   3.549  0.3312 -0.2504 -0.0154
 4061TIP3   OH212188   6.214   0.595   1.227  0.0471 -0.8092  0.6438
 4061TIP3    H112189   6.171   0.658   1.285  0.5603 -1.4838  1.8033
 4061TIP3    H212190   6.192   0.509   1.264 -0.1046 -1.3005 -0.5291
 4062TIP3   OH212191   5.888   2.595   1.364 -0.2227 -0.3005 -0.1242
 4062TIP3    H112192   5.971   2.562   1.330 -0.6099  0.3510 -1.8105
 4062TIP3    H212193   5.902   2.689   1.375 -0.9595 -0.0433 -1.2202
 4063TIP3   OH212194   2.313   2.711   3.031 -0.4441  0.5415 -0.5616
 4063TIP3    H112195   2.319   2.806   3.018 -1.7545  0.6087 -0.7388
 4063TIP3    H212196   2.378   2.693   3.099  1.4602  1.2141 -2.0966
 4064TIP3   OH212197   5.516   1.249   3.701  0.3940 -0.5629 -0.1654
 4064TIP3    H112198   5.508   1.232   3.608  0.2714  1.3632 -0.5436
 4064TIP3    H212199   5.454   1.189   3.742 -0.4559 -0.5623 -1.4131
 4065TIP3   OH212200   5.053   2.106   2.549 -0.0640  0.5334  0.0218
 4065TIP3    H112201   4.992   2.091   2.622 -1.3912 -1.8195 -1.4154
 4065TIP3    H212202   4.999   2.145   2.480 -0.1666 -1.9315 -1.4133
 4066TIP3   OH212203   4.060   1.835   1.062 -0.1025 -0.2750  0.0619
 4066TIP3    H112204   4.074   1.885   1.143 -0.7692  0.4064 -0.2326
 4066TIP3    H212205   3.970   1.805   1.068  0.2682 -1.4079  0.1985
 4067TIP3   OH212206   0.736   5.973   0.557 -0.3555  0.0062 -0.0784
 4067TIP3    H112207   0.747   5.917   0.634  0.5003  0.7754  0.3771
 4067TIP3    H212208   0.784   5.929   0.487 -1.0189 -0.6262 -0.1437
 4068TIP3   OH212209   3.693   1.106   3.331  0.8169 -0.4339  0.0472
 4068TIP3    H112210   3.737   1.022   3.342  0.6146 -0.5545 -0.0693
 4068TIP3    H212211   3.721   1.158   3.407  0.8002 -0.6661  0.2138
 4069TIP3   OH212212   0.367   2.309   1.682  0.9873 -0.4366  0.7464
 4069TIP3    H112213   0.459   2.286   1.668  1.5477  0.6538  2.3644
 4069TIP3    H212214   0.367   2.404   1.690 -0.2515 -0.4458  1.0222
 4070TIP3   OH212215   0.711   2.243   4.439  0.0249  0.0536  0.1805
 4070TIP3    H112216   0.675   2.255   4.527 -1.1483 -0.7534 -0.1650
 4070TIP3    H212217   0.667   2.165   4.406  0.6437  0.1990 -1.0287
 4071TIP3   OH212218   1.682   3.783   3.434 -0.4326  0.0728 -0.3845
 4071TIP3    H112219   1.631   3.704   3.451 -2.3285  1.3995  0.4627
 4071TIP3    H212220   1.684   3.791   3.339 -0.7857 -0.6150 -0.4575
 4072TIP3   OH212221   3.119   0.500   3.884 -0.2421 -0.4848 -0.3515
 4072TIP3    H112222   3.103   0.594   3.894 -0.6507 -0.6254  0.3673
 4072TIP3    H212223   3.212   0.494   3.862  0.1998  0.0055  1.2191
 4073TIP3   OH212224   0.282   1.638   1.447  0.2558  0.3314  0.0252
 4073TIP3    H112225   0.315   1.554   1.477  0.8157  1.0932  1.5962
 4073TIP3    H212226   0.358   1.681   1.407  0.3275  0.6564  0.5010
 4074TIP3   OH212227   3.677   0.992   0.297  0.3056 -0.1121 -0.4189
 4074TIP3    H112228   3.615   1.035   0.239 -0.4235 -0.7730 -0.1352
 4074TIP3    H212229   3.640   0.906   0.314  0.9734 -0.2794  0.2760
 4075TIP3   OH212230   1.973   5.830   2.049  0.1396 -0.1606 -0.1607
 4075TIP3    H112231   1.964   5.908   2.103 -0.2236  0.5750 -1.2372
 4075TIP3    H212232   1.884   5.813   2.016  0.2172 -1.0288  0.0644
 4076TIP3   OH212233   2.604   3.449   4.502  0.0691 -0.3785 -0.0940
 4076TIP3    H112234   2.552   3.411   4.573  1.2958  3.9693  3.5908
 4076TIP3    H212235   2.694   3.424   4.522  0.2855 -0.4963 -1.1624
 4077TIP3   OH212236   1.083   4.221   2.960  0.4093 -0.1040 -0.6336
 4077TIP3    H112237   1.104   4.200   2.869 -0.5698 -1.0756 -0.6517
 4077TIP3    H212238   0.997   4.182   2.974  0.7921 -0.4338  0.8824
 4078TIP3   OH212239   0.626   4.736   4.353  0.0743  0.1717  0.0516
 4078TIP3    H112240   0.665   4.691   4.428  1.0108 -0.0778 -0.5666
 4078TIP3    H212241   0.613   4.668   4.288 -0.9126  0.3548  0.0431
 4079TIP3   OH212242   4.864   2.456   4.557  0.2399 -0.7145  0.9316
 4079TIP3    H112243   4.782   2.470   4.604 -0.6406 -3.3628  0.2933
 4079TIP3    H212244   4.841   2.465   4.465  0.8664 -0.6399  0.7776
 4080TIP3   OH212245   2.268   5.077   4.518 -0.4827 -0.1215  0.3438
 4080TIP3    H112246   2.192   5.073   4.577  0.7775 -1.1481  1.9829
 4080TIP3    H212247   2.312   5.159   4.543 -0.8639  0.3157 -0.3915
 4081TIP3   OH212248   1.756   2.268   1.296  0.1993  0.3251 -0.0902
 4081TIP3    H112249   1.718   2.354   1.317 -0.1414 -0.1729  1.3901
 4081TIP3    H212250   1.775   2.228   1.380  1.3511 -0.6412 -0.7799
 4082TIP3   OH212251   0.069   1.048   0.643 -0.0164 -0.1329 -0.4021
 4082TIP3    H112252   0.015   1.009   0.712 -0.2053  0.7815 -0.0174
 4082TIP3    H212253   0.008   1.071   0.574 -0.5557  2.8315  0.8742
 4083TIP3   OH212254   2.212   4.820   2.832  0.4753 -0.0815  0.0488
 4083TIP3    H112255   2.207   4.845   2.740 -0.5115 -0.2087  0.0539
 4083TIP3    H212256   2.188   4.899   2.881 -2.0912 -0.7953  0.0784
 4084TIP3   OH212257   5.241   5.897   0.883  0.2158  0.5094  0.6337
 4084TIP3    H112258   5.146   5.897   0.888  0.1279 -0.5018 -0.5474
 4084TIP3    H212259   5.267   5.825   0.942  0.3218  1.3413  1.6337
 4085TIP3   OH212260   3.713   5.047   4.758 -0.3060 -0.6637 -0.1428
 4085TIP3    H112261   3.807   5.030   4.753 -0.2808 -0.2829 -1.4550
 4085TIP3    H212262   3.705   5.142   4.745 -0.7779 -0.3744  1.8211
 4086TIP3   OH212263   2.466   5.233   3.343  0.1910  0.3718 -0.6821
 4086TIP3    H112264   2.376   5.263   3.340  0.1627  0.2260 -1.7844
 4086TIP3    H212265   2.469   5.171   3.416 -0.2577  1.3931  0.2214
 4087TIP3   OH212266   0.263   1.213   3.022  0.6232 -0.2115  0.7882
 4087TIP3    H112267   0.185   1.218   3.077  0.5840  0.9414  0.6500
 4087TIP3    H212268   0.298   1.126   3.038 -0.1811 -0.4078  1.5499
 4088TIP3   OH212269   2.063   4.345   4.150 -0.4229  0.0302 -0.8784
 4088TIP3    H112270   2.029   4.260   4.121  2.3172 -1.0502 -1.2503
 4088TIP3    H212271   2.122   4.372   4.079  2.5493 -0.1921  1.3502
 4089TIP3   OH212272   4.354   4.490   4.467  0.5084 -0.2730 -0.2792
 4089TIP3    H112273   4.412   4.533   4.404 -1.5115  0.1405 -1.9524
 4089TIP3    H212274   4.387   4.400   4.473  2.9872  0.6321  1.0165
 4090TIP3   OH212275   2.502   2.226   4.000  0.2474  1.0278  0.1197
 4090TIP3    H112276   2.485   2.228   3.906 -0.3575  0.2154  0.1991
 4090TIP3    H212277   2.576   2.166   4.010 -0.3449  0.2899  0.2322
 4091TIP3   OH212278   5.234   2.709   2.456 -0.7596 -0.2480  0.0971
 4091TIP3    H112279   5.206   2.760   2.379  2.5305 -1.1097 -1.8650
 4091TIP3    H212280   5.305   2.760   2.495  0.2820 -1.6545  0.1396
 4092TIP3   OH212281   5.688   3.761   2.365  0.1575 -0.2660 -0.1777
 4092TIP3    H112282   5.720   3.686   2.313  2.2791  1.0720 -0.9307
 4092TIP3    H212283   5.732   3.751   2.449 -0.2165 -0.3030  0.0145
 4093TIP3   OH212284   4.851   4.901   4.418  0.9226  0.2212 -0.3626
 4093TIP3    H112285   4.883   4.888   4.329  1.2110  1.6279 -0.4820
 4093TIP3    H212286   4.806   4.985   4.416 -0.3230 -0.3934  0.5012
 4094TIP3   OH212287   5.726   1.420   3.748  0.0726 -0.0088 -0.0948
 4094TIP3    H112288   5.745   1.363   3.822 -1.4057 -0.3167  0.0617
 4094TIP3    H212289   5.635   1.402   3.726 -0.4159  2.2566 -0.0891
 4095TIP3   OH212290   0.090   5.751   0.425  0.3008 -0.1565  0.2737
 4095TIP3    H112291   0.123   5.751   0.335  0.6995 -1.0740  0.4130
 4095TIP3    H212292   0.112   5.838   0.458  2.7169 -0.7438  0.3917
 4096TIP3   OH212293   5.209   3.250   2.672  0.4124 -0.2774  0.0762
 4096TIP3    H112294   5.211   3.175   2.731 -1.1733  0.0399  0.5667
 4096TIP3    H212295   5.222   3.212   2.585  1.5095 -0.8844  0.4790
 4097TIP3   OH212296   5.849   2.549   4.711  0.0184 -0.2950  0.2194
 4097TIP3    H112297   5.832   2.465   4.753 -1.1788  0.2031  0.7778
 4097TIP3    H212298   5.923   2.532   4.652  0.0376 -1.6339  0.5973
 4098TIP3   OH212299   5.386   4.632   2.391 -0.1551  0.5199 -0.3028
 4098TIP3    H112300   5.325   4.689   2.345 -1.8084  0.0085  1.1520
 4098TIP3    H212301   5.466   4.633   2.338 -1.1159  1.9316 -1.7722
 4099TIP3   OH212302   0.759   4.690   4.963 -0.0311  0.1409 -0.2180
 4099TIP3    H112303   0.692   4.629   4.995 -0.7412  0.6499 -0.6876
 4099TIP3    H212304   0.841   4.655   4.997 -0.1490 -2.2242 -2.0655
 4100TIP3   OH212305   3.843   1.217   0.567 -0.2488  0.1364  0.8926
 4100TIP3    H112306   3.749   1.203   0.557 -0.2147  0.3073  0.2893
 4100TIP3    H212307   3.850   1.301   0.611 -0.3701  2.2117 -2.6534
 4101TIP3   OH212308   1.140   2.038   3.404 -0.3447 -0.5154  0.0667
 4101TIP3    H112309   1.068   2.024   3.465 -1.4001  0.3806 -0.9208
 4101TIP3    H212310   1.122   2.124   3.366  2.2033  0.5607  1.0530
 4102TIP3   OH212311   4.337   4.717   0.575 -0.5687 -0.4242  0.3221
 4102TIP3    H112312   4.346   4.631   0.615 -2.0673 -0.6679  0.1599
 4102TIP3    H212313   4.243   4.729   0.563 -0.2675  0.3466 -1.6167
 4103TIP3   OH212314   0.522   0.090   2.502 -0.0338 -0.3953  0.1121
 4103TIP3    H112315   0.604   0.104   2.455  0.2291  1.3600  0.9823
 4103TIP3    H212316   0.537   0.012   2.555  1.3876  0.3174  0.8209
 4104TIP3   OH212317   2.648   4.428   5.142  0.3020 -0.0808  0.3423
 4104TIP3    H112318   2.571   4.486   5.142 -1.0682 -1.7952 -0.4536
 4104TIP3    H212319   2.611   4.341   5.153  2.0851 -1.0481 -0.9820
 4105TIP3   OH212320   0.355   0.527   4.793 -0.3958  0.4562  0.1134
 4105TIP3    H112321   0.434   0.535   4.741 -1.0920  0.4736 -0.9793
 4105TIP3    H212322   0.384   0.487   4.875  0.7197  0.3625 -0.3070
 4106TIP3   OH212323   3.919   1.826   2.275  0.2695  0.1537 -0.0305
 4106TIP3    H112324   3.944   1.883   2.202 -0.6221 -0.8370 -1.1748
 4106TIP3    H212325   3.859   1.879   2.327  1.9503  1.3416  0.7905
 4107TIP3   OH212326   5.144   2.522   3.780  0.2323  0.8262  0.2093
 4107TIP3    H112327   5.155   2.584   3.708 -0.6520  0.9102  0.1322
 4107TIP3    H212328   5.226   2.526   3.829 -0.2053  2.8845  0.8487
 4108TIP3   OH212329   2.081   5.644   0.570 -0.0252 -0.0983  0.2066
 4108TIP3    H112330   2.138   5.567   0.569  2.6613  1.6943  1.6426
 4108TIP3    H212331   2.049   5.648   0.660  0.3685  0.7828  0.3149
 4109TIP3   OH212332   2.476   5.897   3.317 -0.2748  0.1988 -0.3108
 4109TIP3    H112333   2.442   5.814   3.283 -1.3485  0.5958 -0.2375
 4109TIP3    H212334   2.427   5.964   3.270 -1.1274  0.7774  1.3198
 4110TIP3   OH212335   4.203   5.652   0.533 -0.0618 -0.6026 -0.3635
 4110TIP3    H112336   4.159   5.734   0.512 -2.2936 -1.7564 -0.4773
 4110TIP3    H212337   4.287   5.679   0.571 -1.7441  1.8087  1.9712
 4111TIP3   OH212338   0.938   5.687   4.231 -0.2575  0.2787  0.7417
 4111TIP3    H112339   0.867   5.751   4.222  0.7812  1.1525 -2.5039
 4111TIP3    H212340   1.010   5.738   4.269 -0.2524  0.3668  0.6172
 4112TIP3   OH212341   2.655   4.113   0.254 -0.1838  0.0528 -0.1531
 4112TIP3    H112342   2.583   4.176   0.246  0.6573  1.0893  0.0979
 4112TIP3    H212343   2.681   4.119   0.346  0.0948 -0.4496 -0.1996
 4113TIP3   OH212344   5.576   5.665   2.991  0.5143 -0.5432 -0.0180
 4113TIP3    H112345   5.484   5.661   3.017  0.1154 -0.1988 -1.3217
 4113TIP3    H212346   5.590   5.757   2.968  1.1812 -0.6037  0.1156
 4114TIP3   OH212347   2.382   1.154   0.195 -0.3979  0.1226  0.0755
 4114TIP3    H112348   2.387   1.059   0.187  0.4452  0.1676 -0.0602
 4114TIP3    H212349   2.375   1.185   0.105  1.6957  0.2782 -0.0934
 4115TIP3   OH212350   1.218   5.920   1.684 -0.4250  0.2869  0.3620
 4115TIP3    H112351   1.199   5.826   1.684  1.2834 -0.1730 -2.4161
 4115TIP3    H212352   1.171   5.954   1.607  0.9522  1.1869 -0.1213
 4116TIP3   OH212353   5.701   1.291   1.199 -0.0452  0.1671  0.2542
 4116TIP3    H112354   5.606   1.282   1.185 -0.1130  0.3490  0.5702
 4116TIP3    H212355   5.707   1.342   1.280  0.3088 -1.1366  1.0881
 4117TIP3   OH212356   4.806   4.505   2.423 -0.9025 -0.0252  0.5704
 4117TIP3    H112357   4.765   4.537   2.343  0.3826 -0.0571 -0.1308
 4117TIP3    H212358   4.890   4.551   2.428  0.7004 -2.5916 -0.1028
 4118TIP3   OH212359   4.132   4.424   3.088  0.3313 -0.4378  0.1682
 4118TIP3    H112360   4.065   4.406   3.022 -2.2018  1.8170  1.8902
 4118TIP3    H212361   4.209   4.376   3.058 -1.8749 -2.8045 -2.2082
 4119TIP3   OH212362   0.949   4.557   0.019  0.1730  0.5242  0.4754
 4119TIP3    H112363   0.907   4.553   0.105  0.7993  0.6714  0.7968
 4119TIP3    H212364   0.973   4.466  -0.000 -0.2312  0.4511  0.3246
 4120TIP3   OH212365   2.584   3.428   5.035  0.0160  0.0452  0.4870
 4120TIP3    H112366   2.520   3.450   5.102  0.1236  0.1849  0.5456
 4120TIP3    H212367   2.569   3.335   5.016 -0.7912  0.2997 -0.1455
 4121TIP3   OH212368   4.501   4.635   3.342 -0.5596 -0.4926  0.2257
 4121TIP3    H112369   4.529   4.718   3.381  1.5675 -0.6203 -0.8548
 4121TIP3    H212370   4.449   4.661   3.266 -1.0827 -0.1822  0.6831
 4122TIP3   OH212371   4.838   5.441   0.753 -0.2615 -0.3426  0.1889
 4122TIP3    H112372   4.879   5.523   0.725 -0.5227 -0.1323  0.4176
 4122TIP3    H212373   4.890   5.373   0.710  0.3132 -0.0808  0.4573
 4123TIP3   OH212374   5.210   1.558   2.931 -0.0680 -0.1894  0.5895
 4123TIP3    H112375   5.121   1.523   2.941  0.2964 -0.9784  1.1631
 4123TIP3    H212376   5.251   1.501   2.867 -0.7760  1.7797 -1.7667
 4124TIP3   OH212377   0.769   5.729   5.157  0.0301  0.6770 -0.4888
 4124TIP3    H112378   0.679   5.745   5.129 -0.4753 -0.4107  0.4474
 4124TIP3    H212379   0.784   5.636   5.137  0.6744  0.6551  0.0660
 4125TIP3   OH212380   5.601   4.767   5.023  0.1031 -0.4419  0.4270
 4125TIP3    H112381   5.548   4.696   5.059 -0.4763 -0.0560  0.3662
 4125TIP3    H212382   5.554   4.847   5.049  1.5465  0.0021  1.8118
 4126TIP3   OH212383   1.403   0.990   4.852  0.1471 -0.1768  0.1879
 4126TIP3    H112384   1.358   1.017   4.931 -1.9798 -0.0584 -1.0009
 4126TIP3    H212385   1.452   1.067   4.824  0.0267  0.1192  0.7882
 4127TIP3   OH212386   4.364   3.540   3.165  0.2532  0.7172 -0.4955
 4127TIP3    H112387   4.319   3.525   3.083  1.8312  0.5076 -1.3722
 4127TIP3    H212388   4.356   3.457   3.212  0.6835  0.2925 -1.1467
 4128TIP3   OH212389   5.252   3.352   3.386  0.0986  0.3043 -0.1968
 4128TIP3    H112390   5.169   3.308   3.406 -0.2518  1.1024  0.1363
 4128TIP3    H212391   5.252   3.430   3.441  1.5171 -0.1757  0.5484
 4129TIP3   OH212392   2.663   0.020   0.964  0.1381 -0.2362 -0.3131
 4129TIP3    H112393   2.573   0.021   0.997  0.4978 -0.2979  0.6819
 4129TIP3    H212394   2.688   0.113   0.962  1.4041 -0.3598  3.2595
 4130TIP3   OH212395   1.343   0.620   2.094  0.2731 -0.1914  0.4275
 4130TIP3    H112396   1.407   0.691   2.086  0.8425 -0.8495 -1.1477
 4130TIP3    H212397   1.263   0.664   2.121  0.5813  1.0924 -0.6277
 4131TIP3   OH212398   1.195   5.158   0.569  0.0164 -0.1203 -0.5015
 4131TIP3    H112399   1.220   5.111   0.649 -0.2126  1.1088  0.3317
 4131TIP3    H212400   1.120   5.109   0.535  1.5630 -2.0383 -1.3082
 4132TIP3   OH212401   3.545   2.636   2.357  0.4699 -0.4198  0.5323
 4132TIP3    H112402   3.470   2.601   2.404 -0.5919 -0.2206 -0.9289
 4132TIP3    H212403   3.598   2.559   2.335  0.5082 -0.5996  1.2502
 4133TIP3   OH212404   0.394   0.167   4.002 -0.9303  0.0261 -0.3939
 4133TIP3    H112405   0.303   0.164   3.973 -1.8034  2.9858  1.5535
 4133TIP3    H212406   0.403   0.253   4.044  1.7470 -1.5183  2.7034
 4134TIP3   OH212407   5.393   4.647   4.752 -0.1554 -0.6499  0.4890
 4134TIP3    H112408   5.428   4.735   4.769 -0.6658 -0.4005  0.2832
 4134TIP3    H212409   5.350   4.655   4.666  0.4300 -1.2926  0.1238
 4135TIP3   OH212410   6.031   3.095   1.040 -0.0714 -0.7123  0.6379
 4135TIP3    H112411   5.958   3.033   1.031 -0.2617 -0.3453 -0.5418
 4135TIP3    H212412   5.989   3.180   1.054  0.1179 -0.4938 -0.0754
 4136TIP3   OH212413   1.769   2.365   2.186 -0.3919  0.6017 -0.0965
 4136TIP3    H112414   1.708   2.326   2.123 -1.7227  0.2982  1.3366
 4136TIP3    H212415   1.715   2.389   2.261  0.9584  2.0815  0.4630
 4137TIP3   OH212416   4.011   4.271   3.498 -0.2826  0.1204 -0.2110
 4137TIP3    H112417   3.951   4.204   3.466  0.6076 -0.2702 -1.1260
 4137TIP3    H212418   4.035   4.242   3.586 -1.0688  0.0391 -0.0196
 4138TIP3   OH212419   1.161   4.178   2.699  0.1300  0.0307 -0.1273
 4138TIP3    H112420   1.118   4.134   2.625  0.0515 -0.4627  0.2033
 4138TIP3    H212421   1.248   4.200   2.667  0.1588 -0.3409 -0.3153
 4139TIP3   OH212422   1.333   0.792   3.880 -0.0843 -0.2018 -0.1743
 4139TIP3    H112423   1.328   0.719   3.818  2.0780  0.1854 -0.8559
 4139TIP3    H212424   1.252   0.842   3.865 -0.5494 -1.2346 -1.2274
 4140TIP3   OH212425   5.179   5.787   2.350 -0.0907 -0.2567  0.1352
 4140TIP3    H112426   5.241   5.844   2.305 -1.2058 -0.1036 -1.2708
 4140TIP3    H212427   5.207   5.790   2.442  0.6432  1.5471 -0.0960
 4141TIP3   OH212428   2.633   3.906   4.195 -0.1835  0.2455  0.2638
 4141TIP3    H112429   2.646   3.853   4.117 -1.8027  0.5245 -0.2482
 4141TIP3    H212430   2.697   3.977   4.187 -0.3983  0.3375 -0.8909
 4142TIP3   OH212431   4.326   5.475   2.649 -0.6835 -0.6731 -0.4618
 4142TIP3    H112432   4.339   5.570   2.639 -0.6738 -0.7504 -1.2685
 4142TIP3    H212433   4.314   5.444   2.559  0.4401 -1.6010 -0.3030
 4143TIP3   OH212434   4.336   0.733   0.162  0.4073  0.7526 -0.0953
 4143TIP3    H112435   4.343   0.791   0.238 -0.9123  1.5162 -0.5149
 4143TIP3    H212436   4.321   0.793   0.088  1.5050  0.0157 -0.9393
 4144TIP3   OH212437   0.335   1.434   4.949 -0.2240  0.5372 -0.0025
 4144TIP3    H112438   0.280   1.358   4.930  0.5118  0.0951 -0.4225
 4144TIP3    H212439   0.308   1.463   5.036  0.6584 -1.2635  0.9224
 4145TIP3   OH212440   4.663   3.619   1.902  0.4461 -0.1786  1.1405
 4145TIP3    H112441   4.751   3.639   1.932  0.0838  0.5965  1.7364
 4145TIP3    H212442   4.606   3.671   1.959 -0.4980 -1.9541  1.8948
 4146TIP3   OH212443   4.756   3.842   2.260 -0.0539 -0.3619  0.1171
 4146TIP3    H112444   4.699   3.878   2.192 -0.4433 -0.9056  0.1459
 4146TIP3    H212445   4.696   3.821   2.332  0.6039  2.3130  1.5676
 4147TIP3   OH212446   1.774   4.970   1.198  0.0028  0.4026  0.6896
 4147TIP3    H112447   1.809   5.059   1.198 -0.0539  0.4489 -0.8040
 4147TIP3    H212448   1.789   4.939   1.287 -2.1041  2.7146  1.9775
 4148TIP3   OH212449   3.084   1.945   1.102 -0.1612 -0.3537  0.4225
 4148TIP3    H112450   3.030   1.996   1.161  0.1705  0.8402 -0.2767
 4148TIP3    H212451   3.134   2.010   1.053 -0.1916 -1.3108 -0.9357
 4149TIP3   OH212452   0.830   5.376   0.528 -0.1011 -0.4011  0.1632
 4149TIP3    H112453   0.879   5.352   0.606 -3.1208 -1.4672  1.8967
 4149TIP3    H212454   0.802   5.467   0.543 -0.2328 -0.4254  0.0741
 4150TIP3   OH212455   1.272   3.242   2.096 -0.6566  0.6570  0.1664
 4150TIP3    H112456   1.277   3.159   2.048 -3.1486  0.1968  0.5942
 4150TIP3    H212457   1.349   3.291   2.066 -0.4783 -0.7943 -1.9858
 4151TIP3   OH212458   5.091   2.735   4.546  0.1116  0.0010  0.2073
 4151TIP3    H112459   5.123   2.737   4.636  0.5517 -1.2032  0.1038
 4151TIP3    H212460   4.996   2.744   4.554  0.2860  1.8536  0.6355
 4152TIP3   OH212461   6.112   5.852   4.525 -0.1251 -0.2588 -0.3167
 4152TIP3    H112462   6.170   5.923   4.549  0.9304 -0.2436 -2.6034
 4152TIP3    H212463   6.129   5.838   4.432 -3.0188 -0.9805 -0.8406
 4153TIP3   OH212464   6.221   1.646   3.606  0.3781 -0.5083 -0.1446
 4153TIP3    H112465   6.169   1.566   3.611  0.9579 -0.9632 -1.1597
 4153TIP3    H212466   6.160   1.712   3.574  0.4661 -1.1027 -1.6027
 4154TIP3   OH212467   2.465   3.103   1.593 -0.1450  0.2047  0.1022
 4154TIP3    H112468   2.507   3.185   1.620 -0.3443  0.6438 -0.8799
 4154TIP3    H212469   2.371   3.120   1.600 -0.2013  0.3171 -0.7988
 4155TIP3   OH212470   0.200   3.854   3.341  0.4714  0.3651  0.0567
 4155TIP3    H112471   0.112   3.886   3.363 -0.9262 -2.3592 -1.0396
 4155TIP3    H212472   0.222   3.900   3.260 -0.2960  0.5286 -0.0754
 4156TIP3   OH212473   4.116   0.064   2.850 -0.4087 -0.2021 -0.3232
 4156TIP3    H112474   4.205   0.032   2.839 -0.1409  0.7490 -1.0575
 4156TIP3    H212475   4.067  -0.012   2.882  0.5715 -0.8392 -0.2905
 4157TIP3   OH212476   3.508   3.960   5.083  0.2404  0.1172  0.1957
 4157TIP3    H112477   3.554   3.959   5.166 -0.5894  0.4335  0.6723
 4157TIP3    H212478   3.554   3.896   5.029 -0.0840 -1.1510  1.3775
 4158TIP3   OH212479   2.568   1.990   3.072 -0.0073  0.5469 -0.0667
 4158TIP3    H112480   2.570   2.028   2.984 -0.1468  1.1307  0.1836
 4158TIP3    H212481   2.646   2.026   3.115 -0.2810  0.7584  0.2554
 4159TIP3   OH212482   5.503   4.090   4.595  0.1456  0.5066 -0.0657
 4159TIP3    H112483   5.445   4.015   4.587 -0.2768  0.9495 -1.3207
 4159TIP3    H212484   5.573   4.060   4.654 -0.5584 -0.5129  0.2766
 4160TIP3   OH212485   6.069   2.452   4.944 -0.2750 -0.4604 -0.4629
 4160TIP3    H112486   6.007   2.383   4.919 -0.6502 -0.2356 -0.1684
 4160TIP3    H212487   6.037   2.531   4.901  1.0251 -0.7676 -2.0441
 4161TIP3   OH212488   2.411   3.206   4.424  0.0882 -0.4734 -0.1305
 4161TIP3    H112489   2.421   3.225   4.518 -0.5351 -2.0768  0.2940
 4161TIP3    H212490   2.321   3.175   4.416 -0.2957  0.9064 -1.5133
 4162TIP3   OH212491   4.429   3.414   4.705 -0.3159 -0.8746 -0.3223
 4162TIP3    H112492   4.407   3.418   4.798 -0.5470  0.3651 -0.4246
 4162TIP3    H212493   4.374   3.480   4.663  2.2315  1.0706 -0.8419
 4163TIP3   OH212494   5.494   0.032   1.624  0.6145  0.0170  0.1743
 4163TIP3    H112495   5.509   0.050   1.716  0.1972 -1.7757  0.6370
 4163TIP3    H212496   5.491  -0.064   1.618 -1.1282  0.1027 -1.3989
 4164TIP3   OH212497   1.327   5.351   5.106 -0.4468 -0.5103  0.7269
 4164TIP3    H112498   1.407   5.302   5.126  1.1508  1.9381  0.8309
 4164TIP3    H212499   1.301   5.389   5.190 -0.8548 -0.0745  0.4056
 4165TIP3   OH212500   1.395   4.521   2.168 -0.3533  0.2697 -0.5990
 4165TIP3    H112501   1.441   4.604   2.158 -2.8507  1.6852 -1.1550
 4165TIP3    H212502   1.462   4.454   2.150  2.1106  2.0225  1.3080
 4166TIP3   OH212503   0.221   4.127   2.879  0.1218 -0.0881  0.2746
 4166TIP3    H112504   0.286   4.182   2.836  0.7999 -0.3953  0.8897
 4166TIP3    H212505   0.170   4.188   2.932 -0.1459  0.1628 -0.2590
 4167TIP3   OH212506   3.082   0.017   1.941 -0.0286 -0.1676  0.2162
 4167TIP3    H112507   3.062   0.060   1.858  0.5760 -2.5642 -1.2737
 4167TIP3    H212508   3.034  -0.065   1.937  0.8724 -0.8096  1.7573
 4168TIP3   OH212509   3.107   1.601   3.748  0.6234  0.1132  0.2619
 4168TIP3    H112510   3.056   1.521   3.737  3.2998 -1.7039  0.2502
 4168TIP3    H212511   3.169   1.600   3.674  0.2481  2.6146 -0.1630
 4169TIP3   OH212512   1.993   3.072   4.794  0.8452  0.1332 -0.0847
 4169TIP3    H112513   2.019   2.990   4.753 -0.0452 -0.4388  0.4464
 4169TIP3    H212514   1.991   3.053   4.888  0.1805  0.6206  0.0123
 4170TIP3   OH212515   2.328   2.955   1.101  0.1539  0.0073  0.2313
 4170TIP3    H112516   2.369   2.883   1.149 -0.1033 -1.4501 -1.6292
 4170TIP3    H212517   2.235   2.932   1.097 -0.4046  1.7143  1.6929
 4171TIP3   OH212518   4.508   3.745  -0.011 -0.0595  0.0526 -0.4076
 4171TIP3    H112519   4.594   3.754   0.031 -0.2377 -0.3959  0.0648
 4171TIP3    H212520   4.447   3.784   0.050 -0.8104 -3.7085  1.5575
 4172TIP3   OH212521   1.609   2.008   1.484  0.2738  0.0240  0.2902
 4172TIP3    H112522   1.689   2.006   1.537  2.3594  2.3061 -2.4895
 4172TIP3    H212523   1.575   2.097   1.494 -2.1478 -0.9548  1.5691
 4173TIP3   OH212524   5.992   2.105   4.334 -0.2747  0.2085 -0.0596
 4173TIP3    H112525   6.039   2.091   4.417 -1.0282  0.4419  0.4221
 4173TIP3    H212526   6.046   2.168   4.286  0.4088 -0.2921  0.0511
 4174TIP3   OH212527   4.563   1.659   3.947  0.4596  0.6703 -0.1338
 4174TIP3    H112528   4.496   1.674   4.014 -0.6758  0.8358 -1.2605
 4174TIP3    H212529   4.589   1.747   3.920 -1.6974  0.7155 -2.3806
 4175TIP3   OH212530   4.691   2.277   4.156  0.1755  0.1005 -0.7447
 4175TIP3    H112531   4.786   2.266   4.160  0.1649  0.1341 -0.3740
 4175TIP3    H212532   4.656   2.188   4.157  0.1932  0.0950 -0.5979
 4176TIP3   OH212533   4.372   1.231   1.426  0.0354 -0.3490  0.3296
 4176TIP3    H112534   4.416   1.162   1.376 -0.8971 -1.0886  0.5031
 4176TIP3    H212535   4.308   1.268   1.364  0.9312  0.7882  0.0455
 4177TIP3   OH212536   3.940   1.871   1.502 -0.3425 -1.1971 -0.0130
 4177TIP3    H112537   3.993   1.917   1.437  2.4526 -3.6093  0.3362
 4177TIP3    H212538   3.984   1.887   1.585 -0.3555 -2.9324  0.3668
 4178TIP3   OH212539   3.872   0.943   0.856  0.2827  0.3982  0.1521
 4178TIP3    H112540   3.865   0.878   0.925 -1.0181  0.1475 -0.1799
 4178TIP3    H212541   3.786   0.942   0.813  0.7129  1.2945 -0.7898
 4179TIP3   OH212542   2.953   2.321   3.486 -0.4226 -0.5346  0.9176
 4179TIP3    H112543   2.984   2.250   3.542 -0.2704  0.8785  2.7506
 4179TIP3    H212544   2.983   2.401   3.530  0.1392  0.6753 -1.5003
 4180TIP3   OH212545   3.657   0.781   1.389 -0.9452 -0.7126  0.0043
 4180TIP3    H112546   3.669   0.808   1.480  0.8554  0.3822 -0.5130
 4180TIP3    H212547   3.624   0.691   1.395 -1.6928 -0.3586  1.7225
 4181TIP3   OH212548   2.938   0.752   3.805  0.6518 -0.5095  0.3307
 4181TIP3    H112549   2.981   0.736   3.721  2.2081 -0.3413  1.0545
 4181TIP3    H212550   2.957   0.844   3.824  1.7276 -0.9517  1.5929
 4182TIP3   OH212551   1.348   5.705   5.041 -0.0135 -0.2970  0.1628
 4182TIP3    H112552   1.345   5.737   5.131 -1.5037  1.9784 -0.5983
 4182TIP3    H212553   1.275   5.644   5.035 -0.9132  0.7436  0.1447
 4183TIP3   OH212554   4.033   3.930   3.817 -0.0638 -0.4942  0.2906
 4183TIP3    H112555   3.988   3.892   3.742 -0.3298 -0.9319  0.6599
 4183TIP3    H212556   3.992   4.015   3.830  1.6690  0.6977 -1.5798
 4184TIP3   OH212557   0.457   4.768   1.101 -0.2363  0.0433 -0.1709
 4184TIP3    H112558   0.535   4.724   1.068 -0.2981  0.9644 -1.6685
 4184TIP3    H212559   0.400   4.777   1.024 -0.2525  2.5887  0.0439
 4185TIP3   OH212560   4.600   3.957   3.629 -0.4260  0.1222  0.2543
 4185TIP3    H112561   4.559   3.999   3.705 -0.9657  0.8425 -0.4137
 4185TIP3    H212562   4.619   4.030   3.570  1.1293 -0.2889  0.2158
 4186TIP3   OH212563   3.399   1.191   3.058  0.1942  0.1845 -0.4751
 4186TIP3    H112564   3.341   1.187   2.981 -2.4892 -0.1974  1.4342
 4186TIP3    H212565   3.341   1.172   3.132  2.9171 -0.7250  1.5624
 4187TIP3   OH212566   1.326   5.040   4.743 -0.5286 -0.3283  0.2886
 4187TIP3    H112567   1.252   5.070   4.796 -0.6668  0.9547 -0.5622
 4187TIP3    H212568   1.376   4.984   4.801 -0.5238  1.2331  1.8938
 4188TIP3   OH212569   5.212   5.249   2.077 -0.1094  0.5747  1.1835
 4188TIP3    H112570   5.229   5.341   2.096  0.2220  0.3261  2.1829
 4188TIP3    H212571   5.239   5.203   2.157 -1.3549 -0.2818  1.1368
 4189TIP3   OH212572   6.133   3.119   4.627 -0.0967 -1.0706 -0.5463
 4189TIP3    H112573   6.058   3.175   4.607  0.9763  1.3251  1.6170
 4189TIP3    H212574   6.192   3.130   4.552  0.4789  1.5472  0.1940
 4190TIP3   OH212575   5.060   0.157   4.207  0.3300  0.4249  0.1979
 4190TIP3    H112576   5.010   0.179   4.129  0.4132 -1.6977 -0.5313
 4190TIP3    H212577   5.060   0.237   4.260  0.2002  1.8889 -1.9039
 4191TIP3   OH212578   6.035   0.227   2.226 -0.5703  0.0079  0.1961
 4191TIP3    H112579   6.014   0.213   2.133 -0.6297 -0.4474  0.2786
 4191TIP3    H212580   6.065   0.318   2.229 -0.0532 -0.1347 -0.3596
 4192TIP3   OH212581   1.593   0.040   0.544 -0.2411 -0.1910 -0.5226
 4192TIP3    H112582   1.504   0.053   0.510 -1.2017 -1.6708  1.2111
 4192TIP3    H212583   1.588   0.072   0.634  0.9635 -0.4033 -0.3708
 4193TIP3   OH212584   2.587   5.587   5.070  0.4915 -0.1604  0.0975
 4193TIP3    H112585   2.627   5.667   5.104 -0.9147  0.0872  1.2992
 4193TIP3    H212586   2.559   5.610   4.981 -0.2107  0.8361  0.5483
 4194TIP3   OH212587   1.211   2.668   0.351  0.0310  0.1001 -0.7628
 4194TIP3    H112588   1.195   2.729   0.279 -0.0304  1.0136 -0.0007
 4194TIP3    H212589   1.125   2.654   0.390 -0.4096 -2.5029 -2.4537
 4195TIP3   OH212590   3.506   2.140   1.614 -0.3619  0.5692 -0.0871
 4195TIP3    H112591   3.592   2.103   1.635  0.1137  0.2452 -2.3807
 4195TIP3    H212592   3.473   2.172   1.698  0.6832 -1.9567  1.3983
 4196TIP3   OH212593   5.100   1.514   4.063  0.0850 -0.0918 -0.2832
 4196TIP3    H112594   5.078   1.431   4.021  0.4665 -0.8228  0.9171
 4196TIP3    H212595   5.196   1.514   4.067  0.0462 -0.3532  1.1542
 4197TIP3   OH212596   4.064   1.371   1.769 -0.4902  0.5033 -0.4120
 4197TIP3    H112597   4.136   1.314   1.741 -1.1614 -1.0029  0.7623
 4197TIP3    H212598   3.992   1.311   1.786 -1.6131  1.8478 -0.2567
 4198TIP3   OH212599   4.907   2.730   2.652  0.0147  0.0589 -0.0721
 4198TIP3    H112600   4.949   2.760   2.733  0.5146  0.3982 -0.4508
 4198TIP3    H212601   4.897   2.809   2.599  0.6700 -0.3245 -0.7860
 4199TIP3   OH212602   0.266   2.608   3.116 -0.3265  0.0255  0.4241
 4199TIP3    H112603   0.197   2.557   3.074  0.7312 -0.3826 -0.8841
 4199TIP3    H212604   0.226   2.693   3.133 -1.0037 -0.0453 -0.7359
 4200TIP3   OH212605   3.401   4.251   5.130 -0.2578 -0.1847 -0.4680
 4200TIP3    H112606   3.393   4.179   5.192  0.7325 -0.1590 -0.2980
 4200TIP3    H212607   3.495   4.267   5.123 -0.4792  1.6974  0.1898
 4201TIP3   OH212608   1.479   0.604   0.043 -0.1364 -0.1433 -0.4134
 4201TIP3    H112609   1.438   0.546  -0.021  1.8454 -1.8130 -0.2843
 4201TIP3    H212610   1.465   0.692   0.008 -2.7575 -0.6659 -0.9031
 4202TIP3   OH212611   5.648   1.099   1.673  0.0772 -0.9210 -0.2647
 4202TIP3    H112612   5.709   1.126   1.604  0.4341  3.5805  1.4632
 4202TIP3    H212613   5.572   1.157   1.661 -0.9434 -1.8181  1.5884
 4203TIP3   OH212614   0.228   0.742   1.741 -0.3585 -0.3724  0.0863
 4203TIP3    H112615   0.205   0.653   1.713  2.1481 -1.3910  1.0312
 4203TIP3    H212616   0.274   0.780   1.666  0.9588 -0.8839  0.6165
 4204TIP3   OH212617   3.859   3.360   0.119  0.0085  0.4729  0.8301
 4204TIP3    H112618   3.914   3.437   0.111  0.3525  0.0416 -1.5959
 4204TIP3    H212619   3.770   3.393   0.110  0.2382  0.4141 -2.8917
 4205TIP3   OH212620   5.916   5.934   1.842  0.1349 -0.3029  0.2681
 4205TIP3    H112621   5.860   5.860   1.820  0.0061  0.0547 -0.6517
 4205TIP3    H212622   5.926   5.982   1.760  1.7850 -0.3479  0.4028
 4206TIP3   OH212623   4.724   2.842   4.227 -0.2674  0.1688 -0.1216
 4206TIP3    H112624   4.683   2.897   4.160 -0.7904 -0.5145 -0.3736
 4206TIP3    H212625   4.657   2.833   4.294  0.1230  0.5353  0.3218
 4207TIP3   OH212626   0.405   1.359   1.258 -0.1159 -0.3467  0.5130
 4207TIP3    H112627   0.495   1.371   1.287  0.0921  0.0061 -0.2575
 4207TIP3    H212628   0.353   1.403   1.326  0.4182  1.3685 -0.1168
 4208TIP3   OH212629   5.600   3.925   3.769  0.4262  0.3790  0.3323
 4208TIP3    H112630   5.582   3.836   3.798  0.5267  0.0851 -0.4779
 4208TIP3    H212631   5.686   3.945   3.807  0.1037  0.3882  1.0734
 4209TIP3   OH212632   4.346   2.057   2.898  0.4640  0.0297 -0.4962
 4209TIP3    H112633   4.370   1.999   2.825 -1.0039 -1.0485 -0.1615
 4209TIP3    H212634   4.250   2.053   2.901  0.4920 -1.6106  2.7539
 4210TIP3   OH212635   1.302   0.534   3.210  0.0576 -0.0310  0.2584
 4210TIP3    H112636   1.359   0.551   3.286 -0.4383  0.8571  0.4420
 4210TIP3    H212637   1.228   0.593   3.222  0.7556  1.3735 -1.7788
 4211TIP3   OH212638   6.014   4.189   0.999  0.7772  0.1203 -0.3070
 4211TIP3    H112639   5.994   4.278   1.028  0.2486  0.1016 -0.6087
 4211TIP3    H212640   6.098   4.198   0.954  0.2430  0.6643 -1.2353
 4212TIP3   OH212641   5.616   5.646   0.783  0.1306 -0.1708  0.3314
 4212TIP3    H112642   5.595   5.588   0.710  1.2292 -2.4819  1.7538
 4212TIP3    H212643   5.709   5.632   0.799  0.1256  1.0495  1.5458
 4213TIP3   OH212644   5.525   3.028   2.934  0.1543  0.5805 -0.1081
 4213TIP3    H112645   5.529   3.111   2.887  1.8023 -0.6841 -2.3798
 4213TIP3    H212646   5.488   3.051   3.020  0.6206  3.6268 -0.6058
 4214TIP3   OH212647   3.244   0.220   4.898  0.1093  0.4621 -0.2673
 4214TIP3    H112648   3.268   0.199   4.989  0.4901 -0.0828 -0.4903
 4214TIP3    H212649   3.150   0.202   4.893 -0.3174  2.2525  0.5127
 4215TIP3   OH212650   4.883   0.665   0.642 -0.0694 -0.0142 -0.7301
 4215TIP3    H112651   4.929   0.741   0.607  0.2408  0.8596  1.4297
 4215TIP3    H212652   4.815   0.701   0.698  0.6526 -1.2703  1.0531
 4216TIP3   OH212653   1.536   1.665   2.792 -0.5772 -0.1933 -0.6597
 4216TIP3    H112654   1.521   1.584   2.743 -0.4437  0.4948 -1.8882
 4216TIP3    H212655   1.505   1.734   2.733  0.7298  0.7567 -0.2804
 4217TIP3   OH212656   1.728   5.284   4.185 -0.2368 -0.4032 -0.0918
 4217TIP3    H112657   1.672   5.242   4.120 -1.7965  0.1028  0.8742
 4217TIP3    H212658   1.795   5.329   4.133 -2.3790  1.3653 -1.4972
 4218TIP3   OH212659   3.176   5.884   3.441 -0.1521 -0.8685  0.5236
 4218TIP3    H112660   3.232   5.863   3.367 -0.2067  1.1421 -0.1468
 4218TIP3    H212661   3.090   5.903   3.402  0.1099  1.3771  0.8930
 4219TIP3   OH212662   5.732   3.620   0.994 -0.3455  0.3947  0.2490
 4219TIP3    H112663   5.717   3.531   0.962 -0.9746  0.6426 -0.1676
 4219TIP3    H212664   5.824   3.621   1.020 -0.4956 -0.5644  0.8681
 4220TIP3   OH212665   2.554   4.594   3.508 -0.1603  0.5633 -0.0796
 4220TIP3    H112666   2.508   4.514   3.483  1.9391 -0.7639  0.0497
 4220TIP3    H212667   2.535   4.655   3.437 -1.5697 -0.1113 -0.3253
 4221TIP3   OH212668   3.729   2.621   2.661  0.2426 -0.0140 -0.6139
 4221TIP3    H112669   3.819   2.599   2.682 -0.3007 -1.5399  0.2893
 4221TIP3    H212670   3.729   2.717   2.651  2.1739 -0.0947 -1.9173
 4222TIP3   OH212671   2.483   3.545   1.409  0.3291  0.3102 -0.1758
 4222TIP3    H112672   2.427   3.469   1.426  1.2826 -0.0505  1.6380
 4222TIP3    H212673   2.482   3.555   1.314 -2.9412  0.4518 -0.2463
 4223TIP3   OH212674   2.732   5.122   1.344  0.1520  0.1623 -0.2575
 4223TIP3    H112675   2.724   5.210   1.381 -0.3315 -0.0841  0.2301
 4223TIP3    H212676   2.819   5.093   1.370 -0.5923 -0.4500  1.6959
 4224TIP3   OH212677   3.501   5.282   1.772  0.0392  0.0345  0.3096
 4224TIP3    H112678   3.411   5.261   1.800 -0.3599  0.9507 -0.2251
 4224TIP3    H212679   3.535   5.200   1.737 -1.0559 -0.0326 -0.6637
 4225TIP3   OH212680   0.414   4.988   2.646 -0.5659 -0.0097  0.1105
 4225TIP3    H112681   0.383   4.995   2.737  0.7966 -1.3520  0.7261
 4225TIP3    H212682   0.335   4.999   2.593 -1.0730  3.2971  1.2928
 4226TIP3   OH212683   2.020   2.444   1.231 -1.0328 -0.3017  0.3763
 4226TIP3    H112684   1.956   2.413   1.166 -0.6158 -0.2689 -0.0591
 4226TIP3    H212685   2.104   2.439   1.185 -0.9531  1.5278  0.2658
 4227TIP3   OH212686   1.333   2.488   1.897  0.5229 -0.0138 -0.1944
 4227TIP3    H112687   1.265   2.528   1.842  0.4874 -0.3694 -0.4081
 4227TIP3    H212688   1.382   2.563   1.931 -0.8771  0.3408  1.1624
 4228TIP3   OH212689   0.753   4.773   2.408 -0.9380  0.0932 -0.1303
 4228TIP3    H112690   0.793   4.859   2.415 -0.5947 -0.0738 -0.0560
 4228TIP3    H212691   0.728   4.765   2.316  0.2057 -0.2521 -0.4250
 4229TIP3   OH212692   2.535   2.442   1.138  0.6187 -0.5889  0.5191
 4229TIP3    H112693   2.558   2.410   1.051  0.0695 -0.3194  0.2708
 4229TIP3    H212694   2.617   2.477   1.174  0.8537 -0.7386  0.1307
 4230TIP3   OH212695   0.564   5.859   1.382  0.4867 -0.4887 -0.3190
 4230TIP3    H112696   0.473   5.885   1.367  0.1267 -1.3724  0.2725
 4230TIP3    H212697   0.560   5.765   1.397  1.1799 -0.1967  2.1330
 4231TIP3   OH212698   1.892   3.206   0.051 -0.3978 -0.4289 -0.3799
 4231TIP3    H112699   1.843   3.134   0.091  0.3180 -0.6501  0.1091
 4231TIP3    H212700   1.952   3.162  -0.009  1.5237 -0.4332  1.4442
 4232TIP3   OH212701   4.567   1.553   2.089 -0.3388  0.0550 -0.0615
 4232TIP3    H112702   4.489   1.577   2.138 -0.9854  1.0127 -1.4866
 4232TIP3    H212703   4.549   1.465   2.056 -0.6042  0.0737  0.0367
 4233TIP3   OH212704   5.644   5.467   4.856 -0.3994  0.1748  0.6118
 4233TIP3    H112705   5.672   5.549   4.814  1.2939 -0.6239  0.1262
 4233TIP3    H212706   5.647   5.486   4.950 -1.4648  1.0924  0.4939
 4234TIP3   OH212707   0.552   4.364   2.428  0.1372 -0.4225 -0.4692
 4234TIP3    H112708   0.545   4.446   2.380  1.6457 -0.8181 -1.4529
 4234TIP3    H212709   0.537   4.296   2.362 -1.9367 -0.9632  0.5016
 4235TIP3   OH212710   3.816   4.390   4.889 -0.1391  0.6318 -0.5820
 4235TIP3    H112711   3.860   4.357   4.811  0.7206  1.1773 -0.3301
 4235TIP3    H212712   3.845   4.481   4.897  0.9955  0.1598  1.2285
 4236TIP3   OH212713   1.728   4.715   2.014 -0.3592  0.0853 -0.3668
 4236TIP3    H112714   1.688   4.667   2.086 -0.6063  1.6135  0.5491
 4236TIP3    H212715   1.691   4.803   2.020  0.6315  0.6090 -1.5408
 4237TIP3   OH212716   5.468   1.678   0.201 -0.3164 -0.0937  0.6969
 4237TIP3    H112717   5.477   1.588   0.233  1.0123 -0.7988 -1.5158
 4237TIP3    H212718   5.492   1.733   0.277  1.9777 -1.6615  1.2002
 4238TIP3   OH212719   3.127   0.172   4.333 -0.0973 -0.2405 -0.1638
 4238TIP3    H112720   3.041   0.214   4.329  0.0877  0.2459  0.8051
 4238TIP3    H212721   3.181   0.233   4.383  0.8055 -0.5719 -0.7092
 4239TIP3   OH212722   1.764   4.609   1.247  0.5071  0.3058 -0.0534
 4239TIP3    H112723   1.776   4.527   1.200 -0.0440  0.0492  0.2465
 4239TIP3    H212724   1.705   4.660   1.191  0.2386  0.1944  0.1307
 4240TIP3   OH212725   2.771   1.711   1.321 -0.1920  0.1249  0.4305
 4240TIP3    H112726   2.765   1.772   1.247  0.1445 -0.6068 -0.2083
 4240TIP3    H212727   2.787   1.626   1.281  0.4437 -0.2144  1.3665
 4241TIP3   OH212728   5.847   1.360   2.420  0.2137 -0.3979  0.1923
 4241TIP3    H112729   5.919   1.320   2.371  1.3139 -0.9831  2.1720
 4241TIP3    H212730   5.778   1.294   2.419 -0.1391 -0.0453 -1.2734
 4242TIP3   OH212731   6.121   0.591   2.531  0.7599 -0.2122  0.4105
 4242TIP3    H112732   6.200   0.624   2.488  0.6575  0.5350  0.7853
 4242TIP3    H212733   6.124   0.497   2.517  2.4030 -0.3671  1.5271
 4243TIP3   OH212734   4.198   5.114   4.273  0.8455  0.3533 -0.1986
 4243TIP3    H112735   4.127   5.141   4.215  1.4797  0.6231 -0.8634
 4243TIP3    H212736   4.218   5.024   4.245  1.0027  0.4061 -0.2582
 4244TIP3   OH212737   0.634   1.845   2.612 -0.0423 -0.9808  0.1722
 4244TIP3    H112738   0.704   1.899   2.649 -2.1488  1.1075  1.3648
 4244TIP3    H212739   0.554   1.894   2.631 -1.7795 -2.8799 -1.8352
 4245TIP3   OH212740   5.799   4.017   5.132  0.2045 -0.0325  0.6905
 4245TIP3    H112741   5.773   3.925   5.132 -0.6170  0.1532 -1.1420
 4245TIP3    H212742   5.728   4.063   5.175 -1.9972  0.2771 -2.8710
 4246TIP3   OH212743   3.210   3.251   2.907  0.0855 -0.0613 -0.0360
 4246TIP3    H112744   3.248   3.272   2.992  0.8935 -0.1501 -0.3732
 4246TIP3    H212745   3.280   3.267   2.844  0.0405 -1.5965 -0.5262
 4247TIP3   OH212746   1.356   0.587   0.912 -0.3976  0.1651 -0.3303
 4247TIP3    H112747   1.325   0.677   0.906  0.0967  0.3486 -0.2415
 4247TIP3    H212748   1.450   0.594   0.895 -0.5824 -0.5141 -1.8255
 4248TIP3   OH212749   1.186   0.133   2.331  0.8236  0.1646 -0.4086
 4248TIP3    H112750   1.222   0.221   2.346  0.8469  0.1848 -0.5799
 4248TIP3    H212751   1.107   0.148   2.278  0.3555  0.1496  0.2777
 4249TIP3   OH212752   0.074   4.275   3.579 -0.3574  0.1161 -0.1445
 4249TIP3    H112753   0.168   4.289   3.581 -0.2509 -0.5390 -0.1932
 4249TIP3    H212754   0.062   4.187   3.615 -1.0299  0.5614  0.7647
 4250TIP3   OH212755   3.557   0.765   0.351 -0.0026 -0.0682 -0.5919
 4250TIP3    H112756   3.466   0.781   0.329  0.1413  0.0245 -1.1407
 4250TIP3    H212757   3.573   0.674   0.324 -0.2399 -0.4621  0.5576
 4251TIP3   OH212758   5.758   2.968   2.428  0.0280  0.2494  0.1532
 4251TIP3    H112759   5.735   2.912   2.502  0.5798  0.0801  0.2043
 4251TIP3    H212760   5.751   2.910   2.352 -1.6757  0.7229 -0.0792
 4252TIP3   OH212761   1.720   4.673   0.349  0.0274 -0.3007  0.4921
 4252TIP3    H112762   1.769   4.698   0.271 -1.2080  1.5572  0.2373
 4252TIP3    H212763   1.679   4.589   0.326  2.2993 -1.4741  0.4188
 4253TIP3   OH212764   4.008   3.330   4.820 -0.1380  0.2383  0.0642
 4253TIP3    H112765   4.027   3.252   4.872  1.9998  1.8226  1.8683
 4253TIP3    H212766   3.913   3.330   4.810 -0.4030 -1.3908  2.0029
 4254TIP3   OH212767   1.737   3.613   0.968 -0.2613 -0.0293 -0.0540
 4254TIP3    H112768   1.805   3.676   0.946 -0.0085 -0.5388 -0.7733
 4254TIP3    H212769   1.662   3.639   0.915 -0.1292 -0.3749 -0.4172
 4255TIP3   OH212770   5.142   0.829   4.980  0.0989 -0.6331  0.0676
 4255TIP3    H112771   5.132   0.814   5.075 -2.6098  1.1660  0.1733
 4255TIP3    H212772   5.233   0.807   4.962  0.7117 -1.0269  3.0989
 4256TIP3   OH212773   1.946   2.222   4.791  0.1733  0.1193 -0.0570
 4256TIP3    H112774   1.980   2.133   4.802 -3.0708 -1.3683 -0.8474
 4256TIP3    H212775   1.912   2.246   4.877  0.1435  0.1669 -0.0819
 4257TIP3   OH212776   5.276   3.264   4.286  0.6325 -0.0332  0.4460
 4257TIP3    H112777   5.229   3.254   4.369  0.9227  1.4089  0.8127
 4257TIP3    H212778   5.249   3.189   4.234 -0.1440 -0.5628  1.5649
 4258TIP3   OH212779   2.111   0.122   0.269  0.7515  0.0915 -0.8621
 4258TIP3    H112780   2.206   0.125   0.256  0.9167 -1.9309 -0.4199
 4258TIP3    H212781   2.097   0.046   0.325 -0.9881  1.3937  0.6019
 4259TIP3   OH212782   5.484   0.120   3.508  0.1526 -0.1084 -0.0673
 4259TIP3    H112783   5.455   0.170   3.585  0.0542 -1.3128  0.7094
 4259TIP3    H212784   5.415   0.056   3.493  1.0852 -1.1969  0.0999
 4260TIP3   OH212785   3.735   1.293   1.491 -0.4009  0.9767 -0.4735
 4260TIP3    H112786   3.808   1.237   1.465 -0.6999  0.7942 -0.9275
 4260TIP3    H212787   3.658   1.248   1.458 -0.9016  0.1830  1.6368
 4261TIP3   OH212788   1.167   5.782   1.949 -0.1020  0.9139 -0.0930
 4261TIP3    H112789   1.124   5.866   1.933  0.6685  0.8750 -2.8242
 4261TIP3    H212790   1.096   5.718   1.950 -0.7836  1.5826  2.7864
 4262TIP3   OH212791   4.493   4.736   4.252  0.4170 -0.8048 -0.0168
 4262TIP3    H112792   4.527   4.749   4.341  1.7720 -1.4451 -0.4134
 4262TIP3    H212793   4.422   4.800   4.244  2.0520  1.1730  0.5822
 4263TIP3   OH212794   3.293   1.511   2.344  0.0291 -0.2836 -0.0966
 4263TIP3    H112795   3.278   1.519   2.250 -1.0875 -0.5801  0.0429
 4263TIP3    H212796   3.212   1.473   2.378 -0.2397  1.3267  1.1948
 4264TIP3   OH212797   5.324   3.880   4.668 -0.1090  0.8422 -0.0487
 4264TIP3    H112798   5.233   3.854   4.660 -0.6872  2.7914 -0.3850
 4264TIP3    H212799   5.361   3.821   4.735 -1.1097 -1.1164 -1.1548
 4265TIP3   OH212800   5.718   5.083   5.148 -0.3501  0.0037  0.4261
 4265TIP3    H112801   5.671   5.069   5.066  0.3218 -1.8212  0.3277
 4265TIP3    H212802   5.663   5.041   5.214  0.2607 -0.5669  0.5692
 4266TIP3   OH212803   5.802   4.886   3.833 -0.5578  0.2383  0.1253
 4266TIP3    H112804   5.724   4.838   3.860 -1.2998  1.1312 -0.3498
 4266TIP3    H212805   5.801   4.966   3.887 -0.5167  0.7170 -0.5725
 4267TIP3   OH212806   1.067   3.067   4.542 -0.2525  0.4755  0.0982
 4267TIP3    H112807   0.979   3.094   4.567  0.1100  0.0760  1.9951
 4267TIP3    H212808   1.124   3.136   4.577  0.3142 -0.2935  0.7436
 4268TIP3   OH212809   0.864   2.353   1.273 -0.1246  0.2350 -0.3915
 4268TIP3    H112810   0.863   2.330   1.180 -1.6104  1.4652 -0.7058
 4268TIP3    H212811   0.863   2.269   1.318  0.9621 -0.3882 -1.4595
 4269TIP3   OH212812   5.131   2.354   4.642 -1.3374 -0.1285  0.2704
 4269TIP3    H112813   5.204   2.392   4.594 -0.6773 -0.8968  0.6201
 4269TIP3    H212814   5.053   2.398   4.609 -0.7971  0.0746 -0.7499
 4270TIP3   OH212815   2.133   1.580   3.713 -0.7667 -0.5215 -0.1092
 4270TIP3    H112816   2.098   1.599   3.626 -0.0959 -0.2301 -0.3215
 4270TIP3    H212817   2.137   1.665   3.756 -0.5957 -0.5946  0.0179
 4271TIP3   OH212818   3.578   0.963   2.677 -0.3143  0.0545  0.3937
 4271TIP3    H112819   3.633   1.026   2.630  0.1359 -0.1632  0.6261
 4271TIP3    H212820   3.614   0.960   2.765 -0.0144 -0.9031  0.2470
 4272TIP3   OH212821   5.133   0.862   2.941 -0.4195  0.3027  0.4810
 4272TIP3    H112822   5.167   0.950   2.924 -0.9944  1.1998  3.4222
 4272TIP3    H212823   5.045   0.863   2.905  0.4873 -0.0796 -1.9531
 4273TIP3   OH212824   4.987   3.097   4.596 -0.1792 -0.3314  0.1611
 4273TIP3    H112825   5.082   3.091   4.604 -0.1605  0.2252  0.4091
 4273TIP3    H212826   4.955   3.011   4.622  0.3185 -0.9454 -1.1421
 4274TIP3   OH212827   0.072   0.952   2.768 -0.5663  0.3047 -0.2509
 4274TIP3    H112828   0.141   0.974   2.706 -1.5782  1.1779 -1.0796
 4274TIP3    H212829   0.052   0.860   2.750 -1.7291  0.8771 -2.1311
 4275TIP3   OH212830   3.779   0.694   2.790  0.0613 -0.0891  0.2326
 4275TIP3    H112831   3.772   0.784   2.821  0.0910 -0.4371  1.2597
 4275TIP3    H212832   3.851   0.696   2.726  1.0744  0.3180  1.3549
 4276TIP3   OH212833   1.869   5.528   0.051 -0.1638  0.3259 -0.1378
 4276TIP3    H112834   1.825   5.482  -0.021 -1.2026  0.7064  0.2358
 4276TIP3    H212835   1.804   5.591   0.082  1.5110  2.8021 -1.2850
 4277TIP3   OH212836   4.386   0.431   3.027  0.3841  0.0179  0.2316
 4277TIP3    H112837   4.454   0.464   3.085  0.1382 -0.0260  0.5489
 4277TIP3    H212838   4.328   0.506   3.014 -0.0965 -0.2410  0.8363
 4278TIP3   OH212839   1.922   0.748   1.995  0.2754  0.0120  0.0538
 4278TIP3    H112840   2.008   0.717   1.965  0.3120  0.9437 -0.8926
 4278TIP3    H212841   1.890   0.803   1.922 -0.4226  0.9563  1.0412
 4279TIP3   OH212842   2.006   4.094   4.062  0.3850  0.0039  0.0254
 4279TIP3    H112843   1.921   4.095   4.018 -0.6365 -0.0598  1.9206
 4279TIP3    H212844   2.064   4.049   4.000 -1.0286 -0.2725 -1.1484
 4280TIP3   OH212845   3.956   5.264   0.337  0.4317 -0.1199 -0.5300
 4280TIP3    H112846   4.047   5.276   0.312  0.3465 -0.7036 -1.1890
 4280TIP3    H212847   3.908   5.270   0.254 -0.2725  1.4405 -0.0362
 4281TIP3   OH212848   5.938   3.097   4.854 -0.2562 -0.0165  0.1596
 4281TIP3    H112849   6.014   3.155   4.842 -0.0427 -0.3561 -0.1464
 4281TIP3    H212850   5.863   3.156   4.851 -0.1028  0.1615 -1.0587
 4282TIP3   OH212851   1.055   2.367   4.033 -0.4816 -0.0233  0.0298
 4282TIP3    H112852   1.023   2.293   3.980  0.5580 -0.9291  0.6213
 4282TIP3    H212853   1.021   2.445   3.989  0.1523 -0.7586 -1.8507
 4283TIP3   OH212854   0.103   4.808   3.595  0.1534 -0.2597  0.0507
 4283TIP3    H112855   0.040   4.814   3.667  0.1185 -0.3237  0.0255
 4283TIP3    H212856   0.050   4.821   3.516 -0.1769 -2.2957 -0.1191
 4284TIP3   OH212857   4.820   3.091   1.505 -0.5455  0.0894 -0.2659
 4284TIP3    H112858   4.763   3.030   1.458 -0.3785 -0.7726  0.5936
 4284TIP3    H212859   4.765   3.167   1.522 -1.7503 -1.0298  1.2365
 4285TIP3   OH212860   6.158   3.660   0.516 -0.7498 -0.5029  0.2802
 4285TIP3    H112861   6.086   3.666   0.578 -0.5070  1.3244  0.4180
 4285TIP3    H212862   6.228   3.618   0.566 -0.5166  1.0498  1.3240
 4286TIP3   OH212863   4.288   5.902   4.508 -0.2604  0.7262  0.0731
 4286TIP3    H112864   4.314   5.947   4.428 -0.6792  2.0303  0.6511
 4286TIP3    H212865   4.257   5.971   4.566 -1.2521 -0.3421  0.8673
 4287TIP3   OH212866   1.278   0.821   0.798  0.1919 -0.0415  0.3444
 4287TIP3    H112867   1.348   0.886   0.799 -0.8785  1.1583 -0.2174
 4287TIP3    H212868   1.221   0.846   0.871  0.1236 -0.7766  0.5571
 4288TIP3   OH212869   2.631   0.506   4.872 -0.2059 -0.0904  0.9487
 4288TIP3    H112870   2.639   0.568   4.944  2.0070  1.2218 -0.2931
 4288TIP3    H212871   2.701   0.442   4.887  0.7291  0.5732 -0.2728
 4289TIP3   OH212872   0.933   0.320   1.580 -0.0703 -0.2262  0.4315
 4289TIP3    H112873   0.894   0.287   1.499 -0.5692  0.5747  0.3346
 4289TIP3    H212874   0.987   0.394   1.552  0.1756 -0.2790  0.7697
 4290TIP3   OH212875   3.188   4.264   4.925  0.1685 -0.4316 -0.1626
 4290TIP3    H112876   3.245   4.263   5.002  0.7601 -1.0745 -0.5980
 4290TIP3    H212877   3.118   4.202   4.946  1.4167 -2.1850 -0.9188
 4291TIP3   OH212878   4.824   1.082   2.015  0.4605 -0.2064  0.2473
 4291TIP3    H112879   4.743   1.054   1.973  0.6347  0.3475 -0.4690
 4291TIP3    H212880   4.800   1.093   2.108 -0.9325  2.3106 -0.3231
 4292TIP3   OH212881   0.658   3.911   3.915  0.0895 -0.1107  1.1055
 4292TIP3    H112882   0.710   3.940   3.840 -3.6241  2.1643 -0.9331
 4292TIP3    H212883   0.622   3.826   3.888 -1.4658  0.8303  0.0147
 4293TIP3   OH212884   3.420   2.031   3.819  0.0615 -0.5053 -0.0503
 4293TIP3    H112885   3.379   2.102   3.770 -1.4592 -0.6149  0.9781
 4293TIP3    H212886   3.514   2.046   3.809 -0.0856  3.0729  1.9825
 4294TIP3   OH212887   2.308   1.478   3.921  0.4912 -0.3394 -0.3738
 4294TIP3    H112888   2.326   1.563   3.960 -0.0681  0.3782 -1.6437
 4294TIP3    H212889   2.255   1.497   3.844 -0.8119 -1.9419  0.0575
 4295TIP3   OH212890   2.256   2.812   2.443  0.1522 -0.2633 -0.6547
 4295TIP3    H112891   2.227   2.725   2.468 -1.1769  0.4993  0.5482
 4295TIP3    H212892   2.349   2.814   2.466 -0.1674 -0.8526  0.7277
 4296TIP3   OH212893   1.448   0.326   0.008  0.1024  0.1151 -0.1998
 4296TIP3    H112894   1.400   0.351   0.087  0.8272 -0.5963  0.4860
 4296TIP3    H212895   1.530   0.289   0.040 -1.3365 -4.4122 -0.9392
 4297TIP3   OH212896   4.901   1.068   3.974 -0.3453  0.0433  0.0590
 4297TIP3    H112897   4.948   1.117   3.907  0.8283 -1.3889 -0.2183
 4297TIP3    H212898   4.898   0.978   3.941 -2.0018 -0.1911  0.7631
 4298TIP3   OH212899   1.496   2.379   0.427 -0.5169 -0.1680 -0.4355
 4298TIP3    H112900   1.588   2.377   0.400 -0.3821 -0.9713  0.0569
 4298TIP3    H212901   1.492   2.448   0.493 -0.1040 -0.6503  0.1048
 4299TIP3   OH212902   6.147   2.370   1.743  0.2117 -0.2576 -0.2065
 4299TIP3    H112903   6.202   2.380   1.821  1.0212  2.6002 -1.0507
 4299TIP3    H212904   6.119   2.458   1.720 -1.9966 -1.2500 -1.8249
 4300TIP3   OH212905   3.995   2.488   1.193 -0.6854 -0.1248 -0.1314
 4300TIP3    H112906   3.929   2.540   1.145  0.1560  0.7001 -0.4216
 4300TIP3    H212907   4.077   2.534   1.178 -0.2779 -0.2520  1.5212
 4301TIP3   OH212908   2.303   2.901   4.508 -0.0415  0.0747  0.2142
 4301TIP3    H112909   2.355   2.897   4.427  0.3518 -0.8777  0.4950
 4301TIP3    H212910   2.214   2.881   4.480  0.4587 -2.7197  0.2816
 4302TIP3   OH212911   2.105   5.838   4.328  0.1189  0.2005  0.7008
 4302TIP3    H112912   2.064   5.758   4.294 -0.1531  0.4895  0.3454
 4302TIP3    H212913   2.187   5.846   4.278  0.5237 -0.2689  1.2726
 4303TIP3   OH212914   0.351   2.947   0.750 -0.2751 -0.0305 -0.1685
 4303TIP3    H112915   0.268   2.902   0.766 -0.5205  0.4235 -0.1573
 4303TIP3    H212916   0.336   3.037   0.779 -0.5524  0.6817 -2.3647
 4304TIP3   OH212917   1.699   2.510   4.598  0.2173  0.2239 -0.0248
 4304TIP3    H112918   1.676   2.584   4.654 -0.0895  0.3594 -0.3223
 4304TIP3    H212919   1.685   2.543   4.509  0.2687 -0.1299 -0.1648
 4305TIP3   OH212920   2.289   2.001   1.883  0.0629  0.0353  0.1415
 4305TIP3    H112921   2.342   2.008   1.803 -1.0552  1.9371 -0.5040
 4305TIP3    H212922   2.230   1.928   1.865 -0.2322  0.4971 -0.8271
 4306TIP3   OH212923   5.318   2.929   3.225 -0.3043  0.4598  0.3148
 4306TIP3    H112924   5.233   2.963   3.198 -0.9829 -0.6033  1.0675
 4306TIP3    H212925   5.340   2.863   3.160 -0.7823 -0.3494  0.9615
 4307TIP3   OH212926   5.112   1.822   2.925  0.2807 -0.6062 -0.1974
 4307TIP3    H112927   5.017   1.812   2.920  0.1777  0.7445 -1.8857
 4307TIP3    H212928   5.145   1.732   2.921 -0.8963 -1.0492 -0.4245
 4308TIP3   OH212929   5.921   1.511   2.069  0.6885  0.2940 -0.2217
 4308TIP3    H112930   5.999   1.507   2.013  1.8286 -0.8777  1.3442
 4308TIP3    H212931   5.928   1.595   2.114  0.3578  0.7476 -1.0006
 4309TIP3   OH212932   4.945   4.542   4.040  0.4793  0.1380 -0.4861
 4309TIP3    H112933   4.868   4.581   3.999 -0.5818 -1.7932 -0.4826
 4309TIP3    H212934   4.914   4.516   4.127  1.9866  1.9087  0.6505
 4310TIP3   OH212935   4.638   4.111   4.936  0.5913  0.4478 -0.1399
 4310TIP3    H112936   4.641   4.062   5.019 -0.5059 -0.1645 -0.4397
 4310TIP3    H212937   4.646   4.202   4.962 -2.0439  0.4712  0.9196
 4311TIP3   OH212938   1.588   1.806   2.416  0.6348 -0.2056 -0.3034
 4311TIP3    H112939   1.600   1.901   2.417  1.2933 -0.2844 -0.0365
 4311TIP3    H212940   1.676   1.771   2.404  0.8095 -0.8313  2.2052
 4312TIP3   OH212941   0.486   0.087   1.278 -0.3993  0.0724  0.1313
 4312TIP3    H112942   0.527   0.074   1.192 -1.5315 -0.2208 -0.3807
 4312TIP3    H212943   0.426   0.160   1.266 -1.8544 -1.0814  0.1866
 4313TIP3   OH212944   0.489   2.605   4.307  0.1313  0.3114 -0.0899
 4313TIP3    H112945   0.507   2.595   4.214  2.4496  1.1559  0.1890
 4313TIP3    H212946   0.496   2.699   4.323 -0.1917  0.1738  0.9432
 4314TIP3   OH212947   0.706   5.472   4.410  0.6068  0.1937 -0.0597
 4314TIP3    H112948   0.668   5.554   4.439 -0.0039  0.4805 -1.5669
 4314TIP3    H212949   0.666   5.405   4.466  0.6616  0.8598  0.7796
 4315TIP3   OH212950   2.923   5.136   2.740  0.3003  0.2696 -0.2208
 4315TIP3    H112951   2.887   5.196   2.675 -1.0862 -1.1961 -0.8928
 4315TIP3    H212952   2.909   5.049   2.702  1.4958 -0.5285  1.0641
 4316TIP3   OH212953   0.337   4.602   2.638  0.0594  0.5244 -0.3567
 4316TIP3    H112954   0.286   4.616   2.558  0.2039 -0.3456 -0.6050
 4316TIP3    H212955   0.424   4.578   2.607  0.9815  2.9880  0.0361
 4317TIP3   OH212956   1.182   4.026   4.966 -0.8312  0.0940 -0.5631
 4317TIP3    H112957   1.101   4.021   4.915 -1.0438  0.4366 -0.2695
 4317TIP3    H212958   1.167   4.099   5.027 -1.0797 -1.0987  0.8568
 4318TIP3   OH212959   5.804   1.725   2.206 -0.0555 -0.2256  0.1355
 4318TIP3    H112960   5.722   1.684   2.177  0.5986 -1.7138  0.3088
 4318TIP3    H212961   5.777   1.786   2.275 -0.8749 -2.0015  1.4661
 4319TIP3   OH212962   1.079   5.420   1.774 -0.1095 -0.2611  0.2042
 4319TIP3    H112963   1.019   5.491   1.799  0.1223  0.1666 -0.4405
 4319TIP3    H212964   1.126   5.399   1.855 -0.9533 -0.4378  0.6616
 4320TIP3   OH212965   0.307   4.297   4.331  0.1941  0.4767  0.0216
 4320TIP3    H112966   0.298   4.302   4.426 -0.1560 -0.6793  0.0713
 4320TIP3    H212967   0.296   4.203   4.311 -0.1339  0.7508 -1.1901
 4321TIP3   OH212968   2.011   0.689   4.611  0.1030  0.6539  0.1218
 4321TIP3    H112969   1.984   0.617   4.555  1.2208 -0.2741  0.7325
 4321TIP3    H212970   1.937   0.703   4.671 -0.0133 -0.1533  0.1675
 4322TIP3   OH212971   5.751   0.697   1.468  0.3016  0.2878 -0.2936
 4322TIP3    H112972   5.724   0.738   1.385  1.6129  0.0918 -0.8355
 4322TIP3    H212973   5.726   0.760   1.535  0.0520  0.8638 -0.9107
 4323TIP3   OH212974   3.271   0.576   2.638  0.4256  0.6111  0.2870
 4323TIP3    H112975   3.364   0.589   2.623  0.2600  2.1060  0.3879
 4323TIP3    H212976   3.246   0.646   2.697 -0.7078  0.0302  0.5316
 4324TIP3   OH212977   0.734   1.493   0.639  0.5981 -0.2224 -0.6171
 4324TIP3    H112978   0.709   1.421   0.696  0.0192  0.0509 -0.5180
 4324TIP3    H212979   0.815   1.464   0.597  0.6271 -0.7282 -0.2185
 4325TIP3   OH212980   1.754   2.296   3.756  0.0228 -0.3820  0.3140
 4325TIP3    H112981   1.817   2.367   3.770 -0.9601  0.7067 -0.4980
 4325TIP3    H212982   1.794   2.219   3.796  1.5123  0.4436  0.4799
 4326TIP3   OH212983   3.148   1.446   1.679 -0.0128 -0.2713  0.6924
 4326TIP3    H112984   3.066   1.479   1.641  0.0230 -0.6942  0.2356
 4326TIP3    H212985   3.160   1.497   1.759  0.2244  1.0788 -0.1774
 4327TIP3   OH212986   3.119   0.802   4.634  0.5521 -0.0935 -0.5426
 4327TIP3    H112987   3.028   0.774   4.621  1.0332 -1.1990 -1.6923
 4327TIP3    H212988   3.138   0.857   4.558  0.7736  0.3572 -0.1658
 4328TIP3   OH212989   1.839   4.791   0.568  0.3510  0.2275 -0.0376
 4328TIP3    H112990   1.818   4.881   0.544 -1.0491  0.3871  1.6184
 4328TIP3    H212991   1.777   4.738   0.518 -0.4865  0.3635  0.8314
 4329TIP3   OH212992   5.307   5.170   2.349 -0.2427  0.3672  0.5301
 4329TIP3    H112993   5.270   5.133   2.429  3.0069 -2.6929  0.8793
 4329TIP3    H212994   5.367   5.238   2.379  0.9162 -0.7267  0.7794
 4330TIP3   OH212995   1.931   0.200   2.369 -0.0260 -0.3557  0.3578
 4330TIP3    H112996   1.915   0.175   2.460 -0.3481 -0.6519  0.2252
 4330TIP3    H212997   2.026   0.210   2.362  0.0335 -0.7201  0.6275
 4331TIP3   OH212998   5.829   0.246   4.814 -0.3352 -0.0069  0.2617
 4331TIP3    H112999   5.771   0.184   4.769  0.1241 -0.8283  0.7834
 4331TIP3    H213000   5.829   0.324   4.758 -2.9405  0.5131  0.8934
 4332TIP3   OH213001   3.443   3.661   0.244  0.1264 -0.2258 -0.6999
 4332TIP3    H113002   3.359   3.662   0.198 -0.2973  0.3856  0.0577
 4332TIP3    H213003   3.476   3.751   0.236  1.8999 -0.9748 -3.0474
 4333TIP3   OH213004   5.893   0.239   3.845  0.4529  0.0004  0.7899
 4333TIP3    H113005   5.798   0.238   3.832  0.0695 -1.0058  3.3008
 4333TIP3    H213006   5.918   0.330   3.827 -0.6948 -0.0181 -1.3084
 4334TIP3   OH213007   1.751   0.528   3.268 -0.4125  0.1257  0.3877
 4334TIP3    H113008   1.824   0.496   3.321  1.1909  0.7209 -1.3488
 4334TIP3    H213009   1.749   0.470   3.192 -2.1658 -0.2390  0.6662
 4335TIP3   OH213010   3.156   3.901   3.991  0.2873 -0.3412  0.4748
 4335TIP3    H113011   3.213   3.831   3.959 -0.6925 -1.2343  0.6372
 4335TIP3    H213012   3.197   3.981   3.959  1.2863 -0.9937  0.0534
 4336TIP3   OH213013   2.126   4.299   0.223  0.0045 -0.4753 -0.2195
 4336TIP3    H113014   2.032   4.293   0.243 -0.4422 -1.3071 -2.2807
 4336TIP3    H213015   2.154   4.208   0.215  0.3055 -0.2409 -2.3299
 4337TIP3   OH213016   0.954   1.634   1.723 -0.1831 -0.2714 -0.5683
 4337TIP3    H113017   0.915   1.714   1.759 -0.4504 -1.6684  2.6017
 4337TIP3    H213018   0.880   1.574   1.713  0.4290 -1.2190  0.4206
 4338TIP3   OH213019   3.096   5.723   3.074 -0.1830  0.3086  0.2521
 4338TIP3    H113020   3.125   5.650   3.020 -1.3904  0.7959 -1.1354
 4338TIP3    H213021   3.012   5.694   3.110  0.0455  0.4538  0.9239
 4339TIP3   OH213022   5.268   3.568   3.551 -0.2471  0.3693  0.1433
 4339TIP3    H113023   5.261   3.536   3.641  0.6594  0.9391  0.4287
 4339TIP3    H213024   5.189   3.621   3.538 -0.4677  0.1429  0.5322
 4340TIP3   OH213025   4.000   2.096   1.684  0.2726  0.2740  0.3850
 4340TIP3    H113026   4.004   2.060   1.773  0.4732  1.4892  0.8904
 4340TIP3    H213027   3.907   2.113   1.669 -0.0375 -1.8758 -0.4820
 4341TIP3   OH213028   4.829   1.599   4.075 -0.6082 -0.0212  0.5379
 4341TIP3    H113029   4.811   1.655   4.000 -0.4027  2.7152  2.3698
 4341TIP3    H213030   4.917   1.564   4.059 -0.8658 -0.1135 -0.8039
 4342TIP3   OH213031   4.492   0.326   2.274  0.0977 -0.5711  0.4142
 4342TIP3    H113032   4.546   0.248   2.261  1.8840  0.8567 -1.6266
 4342TIP3    H213033   4.546   0.398   2.240 -2.2032  1.2961  0.4324
 4343TIP3   OH213034   4.012   1.773   2.736 -0.0123  0.1240  0.0596
 4343TIP3    H113035   4.037   1.707   2.672 -0.4994 -0.7932  0.7928
 4343TIP3    H213036   4.066   1.849   2.715  1.1452 -0.7778 -0.2920
 4344TIP3   OH213037   2.748   5.471   0.009 -0.2036  0.2202 -0.3322
 4344TIP3    H113038   2.764   5.536   0.078  1.3396 -0.2391 -0.2212
 4344TIP3    H213039   2.653   5.460   0.008 -0.2716  0.1939  1.7680
 4345TIP3   OH213040   4.436   0.997   0.997  0.2165 -0.0579 -0.4060
 4345TIP3    H113041   4.415   1.020   0.906  0.6279  0.1943 -0.4369
 4345TIP3    H213042   4.427   1.078   1.046 -0.2744 -0.2478 -0.1623
 4346TIP3   OH213043   4.648   4.386   1.539 -0.0874  0.5655 -0.1572
 4346TIP3    H113044   4.608   4.473   1.532 -0.6083  0.3497  0.1106
 4346TIP3    H213045   4.735   4.397   1.501 -0.1852  1.1825 -0.2151
 4347TIP3   OH213046   2.571   0.702   4.669  0.3957 -0.5596 -0.0396
 4347TIP3    H113047   2.650   0.742   4.634  0.7140 -2.6045 -1.9037
 4347TIP3    H213048   2.603   0.634   4.729 -0.0099 -0.2682  0.5116
 4348TIP3   OH213049   0.261   0.033   4.706  0.1118 -0.6330  0.0802
 4348TIP3    H113050   0.263   0.014   4.800  0.7375 -2.0269 -0.1822
 4348TIP3    H213051   0.193   0.099   4.696  1.2477  0.8633  1.7241
 4349TIP3   OH213052   5.683   0.754   1.207  0.4558 -0.0588  0.3727
 4349TIP3    H113053   5.692   0.684   1.142 -1.6726 -1.4914  1.5146
 4349TIP3    H213054   5.660   0.832   1.155 -0.3538 -0.9651 -0.6746
 4350TIP3   OH213055   6.115   1.557   1.647  0.0670 -0.4642  0.2567
 4350TIP3    H113056   6.113   1.650   1.669 -0.0773 -0.4773  0.2989
 4350TIP3    H213057   6.170   1.552   1.569  0.0538 -0.3397  0.2388
 4351TIP3   OH213058   3.608   3.672   0.531 -0.2421 -0.3491  0.6245
 4351TIP3    H113059   3.530   3.633   0.571 -0.0523 -0.1898  1.1636
 4351TIP3    H213060   3.597   3.658   0.437 -1.5172  0.7885  0.5896
 4352TIP3   OH213061   5.275   2.805   2.025  0.1946  0.2246 -0.4471
 4352TIP3    H113062   5.197   2.763   1.987  0.4373 -0.5330 -0.1118
 4352TIP3    H213063   5.341   2.798   1.956 -0.0899  1.0672 -0.8175
 4353TIP3   OH213064   1.559   4.586   4.632  0.2090  0.5937 -0.0327
 4353TIP3    H113065   1.568   4.667   4.682 -1.0823 -0.4382  2.0248
 4353TIP3    H213066   1.602   4.520   4.686 -0.7899 -0.4756 -0.5038
 4354TIP3   OH213067   1.597   1.701   0.474 -0.1970 -0.5420 -0.5896
 4354TIP3    H113068   1.553   1.637   0.529 -0.4402  1.1263  1.2448
 4354TIP3    H213069   1.534   1.720   0.404 -0.6999 -1.2076 -0.3235
 4355TIP3   OH213070   1.259   4.710   2.356 -0.2455  0.3500 -0.3185
 4355TIP3    H113071   1.295   4.640   2.301 -1.0359  0.6464 -1.2449
 4355TIP3    H213072   1.174   4.676   2.384  0.3483  0.0034  1.1518
 4356TIP3   OH213073   4.055   0.263   1.434  0.3022  0.2495  0.6120
 4356TIP3    H113074   4.071   0.243   1.342  0.6845  3.8913 -0.2903
 4356TIP3    H213075   4.132   0.228   1.480  1.8636  1.3026 -1.0283
 4357TIP3   OH213076   4.810   4.589   1.960  0.2817 -0.0603  0.4568
 4357TIP3    H113077   4.897   4.614   1.929 -0.7579  1.8478 -1.1132
 4357TIP3    H213078   4.790   4.510   1.909  0.5953  0.2151 -0.1140
 4358TIP3   OH213079   0.652   4.951   3.409  0.4559 -0.4423 -0.0177
 4358TIP3    H113080   0.579   4.927   3.466 -0.2537  0.1398 -0.6491
 4358TIP3    H213081   0.674   5.041   3.435 -0.3751  0.1127 -1.1257
 4359TIP3   OH213082   3.691   5.105   3.788 -0.3434 -0.2674 -0.0989
 4359TIP3    H113083   3.707   5.168   3.717  1.9195  0.9205  1.3512
 4359TIP3    H213084   3.638   5.153   3.851  1.1292  0.1745  0.8667
 4360TIP3   OH213085   5.365   4.141   4.998  0.2257  0.0972 -0.5205
 4360TIP3    H113086   5.280   4.102   5.017  1.0037 -1.0825  0.7875
 4360TIP3    H213087   5.409   4.077   4.943  1.8771 -1.5155  2.4184
 4361TIP3   OH213088   6.172   1.412   4.567 -0.3976 -0.0046  0.1620
 4361TIP3    H113089   6.225   1.425   4.646 -1.4810  0.1727  0.8733
 4361TIP3    H213090   6.109   1.344   4.591 -1.4730  0.8531 -0.1706
 4362TIP3   OH213091   2.631   4.707   2.731 -0.1053  0.3868 -0.2989
 4362TIP3    H113092   2.572   4.699   2.806 -0.7654 -0.2055 -0.8719
 4362TIP3    H213093   2.579   4.750   2.663 -0.8821 -2.6119 -1.7981
 4363TIP3   OH213094   3.588   1.153   5.034  0.0560 -0.1497 -0.2676
 4363TIP3    H113095   3.495   1.148   5.016 -0.0616 -0.4275  0.4009
 4363TIP3    H213096   3.601   1.099   5.112  0.4988  1.2259  0.6521
 4364TIP3   OH213097   4.181   3.098   2.933  0.0933  0.9080 -0.2080
 4364TIP3    H113098   4.149   3.153   2.861  0.2569  0.8163 -0.3537
 4364TIP3    H213099   4.188   3.011   2.895 -1.1956  0.5567  0.3196
 4365TIP3   OH213100   0.698   3.382   3.598  0.5246 -0.1677 -0.3124
 4365TIP3    H113101   0.733   3.346   3.680  1.5820  1.0084 -0.2315
 4365TIP3    H213102   0.732   3.323   3.530 -0.6230 -1.3431  0.0777
 4366TIP3   OH213103   0.948   4.102   4.865 -0.4092  0.0025 -0.4904
 4366TIP3    H113104   0.877   4.083   4.804  0.4166  0.2107 -1.5514
 4366TIP3    H213105   1.003   4.166   4.818 -0.7899  1.6712  1.2405
 4367TIP3   OH213106   5.302   0.978   1.943  0.1725  0.5607  0.6596
 4367TIP3    H113107   5.231   0.988   1.879  1.0565 -1.4573 -0.7341
 4367TIP3    H213108   5.264   1.007   2.026 -2.1972 -0.1699 -0.0877
 4368TIP3   OH213109   5.835   2.001   4.795  0.2528  0.3781 -0.7338
 4368TIP3    H113110   5.909   2.062   4.797  1.3311 -0.8993 -0.2823
 4368TIP3    H213111   5.874   1.916   4.816 -1.4792 -0.1837  0.4029
 4369TIP3   OH213112   0.243   4.747   4.128 -0.1256 -0.3684 -0.5190
 4369TIP3    H113113   0.216   4.660   4.157 -1.4725 -0.1737 -1.1076
 4369TIP3    H213114   0.163   4.798   4.130  0.7090  0.9696  0.1283
 4370TIP3   OH213115   3.846   0.431   2.195  0.0959  0.3773 -0.8509
 4370TIP3    H113116   3.752   0.437   2.207  0.1902 -1.1454  0.9659
 4370TIP3    H213117   3.857   0.376   2.117 -0.5930 -2.5036  0.9390
 4371TIP3   OH213118   6.298   5.238   3.069 -0.3290 -0.5933  0.5076
 4371TIP3    H113119   6.363   5.279   3.013 -0.5618  1.3458  1.5471
 4371TIP3    H213120   6.330   5.254   3.158 -1.7386 -0.3993  1.0139
 4372TIP3   OH213121   3.204   2.385   3.814 -0.0187  0.8481  0.4355
 4372TIP3    H113122   3.140   2.437   3.765 -1.6818 -2.4484 -1.1862
 4372TIP3    H213123   3.152   2.315   3.854  1.8440  1.2866  3.9847
 4373TIP3   OH213124   2.974   2.364   1.517  0.3995  0.3427 -0.0835
 4373TIP3    H113125   3.041   2.320   1.569 -0.3744  1.0767  1.6313
 4373TIP3    H213126   2.944   2.297   1.455  1.5671 -0.4897  0.2141
 4374TIP3   OH213127   1.735   4.779   2.944 -0.6325 -0.1688 -0.5298
 4374TIP3    H113128   1.661   4.730   2.979 -0.5768 -0.3684 -0.6895
 4374TIP3    H213129   1.755   4.736   2.861 -0.5255  0.0663 -0.6276
 4375TIP3   OH213130   5.015   4.832   1.415  0.0612  0.1696  0.1807
 4375TIP3    H113131   5.089   4.771   1.422  0.7643  1.1108  1.2377
 4375TIP3    H213132   4.938   4.775   1.415  0.7723 -0.8539 -1.3503
 4376TIP3   OH213133   4.708   3.521   3.479 -0.0811 -0.2149  0.0960
 4376TIP3    H113134   4.647   3.448   3.469  0.3752 -0.4992 -0.6841
 4376TIP3    H213135   4.789   3.480   3.508 -0.4051  0.2263  1.7272
 4377TIP3   OH213136   0.645   3.927   3.111 -0.0621  0.0087 -0.3296
 4377TIP3    H113137   0.605   3.874   3.180  0.4881 -0.9915 -0.7496
 4377TIP3    H213138   0.702   3.866   3.064 -0.6756  0.5746 -1.8885
 4378TIP3   OH213139   2.791   1.969   1.723 -0.0410  0.1884  0.0012
 4378TIP3    H113140   2.822   2.005   1.806 -0.2372  1.2163 -0.3561
 4378TIP3    H213141   2.870   1.941   1.678  0.2873  1.5779 -0.3424
 4379TIP3   OH213142   1.944   1.496   3.939 -0.0651  0.4885 -0.0878
 4379TIP3    H113143   1.870   1.542   3.978  0.6076 -0.0407  1.9258
 4379TIP3    H213144   1.965   1.546   3.860 -0.5737  2.5038  0.9880
 4380TIP3   OH213145   4.764   1.652   3.630  0.1444  0.3564  0.3339
 4380TIP3    H113146   4.709   1.657   3.552  0.1920  0.4461  0.3058
 4380TIP3    H213147   4.723   1.585   3.684  0.4145 -0.0900 -0.0054
 4381TIP3   OH213148   5.912   5.723   2.401 -0.0255  0.6290  0.0655
 4381TIP3    H113149   5.972   5.658   2.437  2.1152  1.6905 -1.3709
 4381TIP3    H213150   5.926   5.801   2.454 -0.2940  0.8363 -0.1650
 4382TIP3   OH213151   0.767   5.666   4.784  0.2492  0.6328  0.0192
 4382TIP3    H113152   0.856   5.644   4.755 -0.7123 -2.5200 -0.8628
 4382TIP3    H213153   0.781   5.728   4.856  3.2186 -0.5004  0.5713
 4383TIP3   OH213154   0.757   4.162   3.998 -0.4225 -0.3650 -0.5908
 4383TIP3    H113155   0.749   4.067   4.010  0.3931 -0.3773 -0.0579
 4383TIP3    H213156   0.817   4.190   4.067  2.2734  0.0108 -2.8715
 4384TIP3   OH213157   5.978   5.667   3.410  0.1291  0.2455  0.4269
 4384TIP3    H113158   6.072   5.672   3.390  0.2720 -2.1399  0.2072
 4384TIP3    H213159   5.939   5.738   3.359  2.0078  2.8426  2.3075
 4385TIP3   OH213160   5.408   4.930   0.831 -0.1084 -0.1703  0.1247
 4385TIP3    H113161   5.420   4.839   0.856  0.0703  0.0317  0.8118
 4385TIP3    H213162   5.485   4.975   0.867  0.4083  0.0742 -1.2109
 4386TIP3   OH213163   1.362   3.824   0.244 -0.2943  0.2202  0.2263
 4386TIP3    H113164   1.357   3.738   0.284 -1.8120 -0.4228 -1.2393
 4386TIP3    H213165   1.336   3.885   0.313  0.6570 -0.4772  1.2305
 4387TIP3   OH213166   4.791   2.848   1.038  0.0320  0.3325  0.9451
 4387TIP3    H113167   4.713   2.893   1.006 -0.9082 -0.7560  1.6621
 4387TIP3    H213168   4.758   2.776   1.092  1.4952 -1.0442  0.0951
 4388TIP3   OH213169   2.021   1.172   2.982 -0.7140  0.7478  0.5601
 4388TIP3    H113170   1.970   1.253   2.983 -1.9236  0.0173  0.5817
 4388TIP3    H213171   2.086   1.185   2.913 -1.5847  1.3341 -0.1760
 4389TIP3   OH213172   3.890   1.487   3.182 -0.6435  0.1413 -0.1830
 4389TIP3    H113173   3.973   1.535   3.185  0.1315 -1.1409 -0.0501
 4389TIP3    H213174   3.846   1.519   3.103  0.8570 -0.5202 -1.3310
 4390TIP3   OH213175   2.931   4.111   2.622  0.6419 -0.3361 -0.1269
 4390TIP3    H113176   2.871   4.056   2.672  0.8565 -0.1587  0.3274
 4390TIP3    H213177   2.875   4.158   2.560  0.2207  0.3033  0.7146
 4391TIP3   OH213178   5.899   3.299   3.732  0.3021  0.3647  0.0858
 4391TIP3    H113179   5.917   3.340   3.647  1.2745  2.4487  1.2251
 4391TIP3    H213180   5.894   3.372   3.794  2.4130 -1.2142  2.3179
 4392TIP3   OH213181   4.705   3.185   3.426 -0.3512  0.3106 -0.5109
 4392TIP3    H113182   4.738   3.173   3.515 -2.1920 -0.9755  0.0519
 4392TIP3    H213183   4.629   3.243   3.435 -0.1517  0.7258 -1.3534
 4393TIP3   OH213184   1.688   4.882   3.838 -0.1842  0.6130 -0.0433
 4393TIP3    H113185   1.754   4.832   3.789 -1.8551 -1.2517 -0.5580
 4393TIP3    H213186   1.625   4.910   3.771 -0.9630  0.5814  0.6598
 4394TIP3   OH213187   5.513   2.441   3.211  0.6923  0.3936 -0.7474
 4394TIP3    H113188   5.534   2.494   3.288 -0.7142  1.2535 -0.9239
 4394TIP3    H213189   5.568   2.477   3.141  1.8663 -0.2963 -0.2048
 4395TIP3   OH213190   6.077   0.528   1.714 -0.6010 -0.7177  0.0024
 4395TIP3    H113191   6.118   0.557   1.632 -1.8493 -1.8024 -1.0609
 4395TIP3    H213192   6.150   0.508   1.772  0.3265 -0.3733 -1.0098
 4396TIP3   OH213193   4.352   2.924   0.993 -0.5842 -0.5983  0.2121
 4396TIP3    H113194   4.304   3.004   0.968 -0.8612 -0.5200  0.9735
 4396TIP3    H213195   4.333   2.862   0.922  0.0470  0.1723 -0.6394
 4397TIP3   OH213196   5.129   2.102   0.860  0.3420 -0.2153  0.4497
 4397TIP3    H113197   5.165   2.184   0.894  1.2275 -0.4021  0.0041
 4397TIP3    H213198   5.037   2.104   0.885 -0.1877  1.8874 -1.3078
 4398TIP3   OH213199   3.456   4.563   0.061 -0.3095 -0.2221 -0.1185
 4398TIP3    H113200   3.474   4.618   0.137  0.1181 -0.8307  0.2315
 4398TIP3    H213201   3.361   4.562   0.054 -0.3905 -0.7703  0.8728
 4399TIP3   OH213202   4.194   2.287   3.966  0.0665  0.3560  0.3490
 4399TIP3    H113203   4.270   2.274   3.910  1.4746  1.0246  2.0180
 4399TIP3    H213204   4.160   2.373   3.941  0.8593  0.7790  0.6720
 4400TIP3   OH213205   2.188   4.697   3.448 -0.0778 -0.6748  0.5965
 4400TIP3    H113206   2.263   4.666   3.398  0.3230  1.0197  0.0965
 4400TIP3    H213207   2.126   4.727   3.381  0.0771  0.7467  1.0758
 4401TIP3   OH213208   2.737   4.653   4.667 -0.2305  0.0414 -0.2361
 4401TIP3    H113209   2.739   4.725   4.604 -0.0205  0.5714  0.3574
 4401TIP3    H213210   2.808   4.674   4.729 -1.0460  0.0418  0.7179
 4402TIP3   OH213211   2.277   4.912   0.939  0.1971  0.0267  0.3929
 4402TIP3    H113212   2.302   5.002   0.959 -1.5446  0.8897 -0.9614
 4402TIP3    H213213   2.297   4.862   1.018 -0.9414  2.0566  2.0467
 4403TIP3   OH213214   5.210   0.225   1.145  0.1577  0.0308  0.1177
 4403TIP3    H113215   5.277   0.292   1.130 -0.7757  0.8352 -0.5932
 4403TIP3    H213216   5.257   0.154   1.189  1.4373  0.6347 -0.2183
 4404TIP3   OH213217   5.041   2.276   0.022 -0.0599  0.0420  0.0696
 4404TIP3    H113218   4.968   2.215   0.033  0.2803 -0.1353  1.5796
 4404TIP3    H213219   5.119   2.222   0.035  0.2514  0.7005  1.0190
 4405TIP3   OH213220   4.023   0.738   4.657  0.0395 -0.1233  0.0658
 4405TIP3    H113221   3.967   0.678   4.607  2.2051 -1.2660 -1.1361
 4405TIP3    H213222   3.993   0.730   4.747 -1.8291 -0.5317 -0.5583
 4406TIP3   OH213223   4.961   3.937   2.620  0.0436 -0.4547 -0.4430
 4406TIP3    H113224   5.014   3.859   2.635  0.3699 -0.4985 -1.7382
 4406TIP3    H213225   4.972   3.956   2.527 -2.4482 -0.6468 -0.8566
 4407TIP3   OH213226   2.554   0.796   0.804 -0.8262  0.1399 -0.3297
 4407TIP3    H113227   2.514   0.727   0.751  0.8477 -1.9493  0.9449
 4407TIP3    H213228   2.523   0.780   0.893  0.7764  0.0084  0.2486
 4408TIP3   OH213229   4.280   3.197   1.293 -0.4162  0.2158  0.2824
 4408TIP3    H113230   4.246   3.167   1.377 -0.8409 -0.5859 -0.1604
 4408TIP3    H213231   4.371   3.167   1.291 -0.5072 -0.0688  0.3170
 4409TIP3   OH213232   3.373   5.804   1.070 -0.4138 -0.7362 -0.3352
 4409TIP3    H113233   3.395   5.746   1.142 -2.3457 -0.5023  0.4855
 4409TIP3    H213234   3.388   5.751   0.991  3.2412 -0.5109  0.0170
 4410TIP3   OH213235   2.269   2.280   1.915  0.0822  0.0683 -0.3239
 4410TIP3    H113236   2.341   2.331   1.952 -1.7120  1.1418  1.9519
 4410TIP3    H213237   2.274   2.196   1.961 -1.1056  0.7838  1.2089
 4411TIP3   OH213238   3.738   4.288   2.954 -0.1408  0.1018  0.2847
 4411TIP3    H113239   3.643   4.276   2.947  0.1390 -1.7373 -1.2228
 4411TIP3    H213240   3.763   4.236   3.030  0.0721 -2.9601 -1.6972
 4412TIP3   OH213241   3.926   2.750   3.733  0.0253 -0.0364  0.7907
 4412TIP3    H113242   3.945   2.815   3.800  1.8220  1.1151 -0.7472
 4412TIP3    H213243   3.843   2.777   3.695  1.1436  1.9426 -0.3955
 4413TIP3   OH213244   0.854   0.203   0.830  0.4231 -0.1530 -0.1025
 4413TIP3    H113245   0.843   0.127   0.773 -0.5903 -0.2640  0.2078
 4413TIP3    H213246   0.923   0.255   0.790  0.5351 -0.8181 -0.7808
 4414TIP3   OH213247   1.646   4.213   0.848  0.2388  0.3837  0.5074
 4414TIP3    H113248   1.564   4.212   0.799  0.3025  2.3492  0.2561
 4414TIP3    H213249   1.713   4.238   0.784  0.7982  0.2170  1.0118
 4415TIP3   OH213250   2.457   2.111   2.247  0.2326  0.2038 -0.2614
 4415TIP3    H113251   2.379   2.149   2.289 -0.0858 -0.9919  0.2746
 4415TIP3    H213252   2.503   2.186   2.210 -0.4011  1.1050  0.7123
 4416TIP3   OH213253   1.794   3.384   1.431 -0.0016  0.4227 -0.4063
 4416TIP3    H113254   1.867   3.430   1.391  1.6612 -0.1437  1.7544
 4416TIP3    H213255   1.835   3.327   1.497 -2.0728 -2.8141 -1.6761
 4417TIP3   OH213256   2.422   5.697   1.408  0.2486  0.7131 -0.2161
 4417TIP3    H113257   2.419   5.604   1.429  1.1979  0.8282  0.4965
 4417TIP3    H213258   2.336   5.731   1.433 -0.2868 -0.0565 -0.9653
 4418TIP3   OH213259   4.016   2.108   0.183 -0.1348  0.1912  0.0506
 4418TIP3    H113260   3.982   2.042   0.124  1.0314  1.0540 -1.6592
 4418TIP3    H213261   4.108   2.083   0.198 -0.3333  0.1287  1.3150
 4419TIP3   OH213262   5.446   4.256   1.255  0.3251  0.5311  0.2904
 4419TIP3    H113263   5.488   4.282   1.173  1.0142 -0.7562  0.2109
 4419TIP3    H213264   5.497   4.181   1.285 -0.3886  0.5140  1.5088
 4420TIP3   OH213265   1.797   0.433   0.590  0.8061 -0.0637  0.0973
 4420TIP3    H113266   1.760   0.354   0.630 -0.4214 -0.2214 -1.2613
 4420TIP3    H213267   1.862   0.400   0.528  1.5573  0.1054  0.7722
 4421TIP3   OH213268   5.162   3.187   3.163 -0.2971 -0.4759 -0.2132
 4421TIP3    H113269   5.197   3.237   3.237  1.2275 -0.0354 -1.1801
 4421TIP3    H213270   5.069   3.209   3.160  0.2076  1.8201 -0.2180
 4422TIP3   OH213271   5.575   0.294   2.982  0.5708  0.9098  0.3654
 4422TIP3    H113272   5.494   0.323   3.026 -0.3507 -0.4111 -0.3803
 4422TIP3    H213273   5.595   0.210   3.022  1.1955  0.9043  0.0502
 4423TIP3   OH213274   4.987   5.939   0.151  0.6011  0.1449  0.2204
 4423TIP3    H113275   4.910   5.940   0.095  0.9178 -0.0006 -0.2257
 4423TIP3    H213276   5.019   6.029   0.149 -0.7263  0.7103  2.0726
 4424TIP3   OH213277   1.221   5.795   0.764  0.3580  0.0351 -0.9076
 4424TIP3    H113278   1.139   5.747   0.771 -0.0584  0.5669 -1.9481
 4424TIP3    H213279   1.195   5.886   0.756  1.1236  0.4042  0.4388
 4425TIP3   OH213280   2.811   1.091   4.571 -0.5075 -0.5826  0.3124
 4425TIP3    H113281   2.858   1.095   4.488 -0.5303 -0.2582  0.3123
 4425TIP3    H213282   2.726   1.131   4.553 -0.4510 -0.3591  0.5303
 4426TIP3   OH213283   0.284   1.192   4.057 -0.1175 -0.1207 -0.5196
 4426TIP3    H113284   0.341   1.130   4.103  0.4323  0.5278 -0.3001
 4426TIP3    H213285   0.327   1.205   3.972  0.0227  0.3030 -0.3876
 4427TIP3   OH213286   0.604   3.235   2.546  0.5147  0.4830 -0.2790
 4427TIP3    H113287   0.651   3.203   2.622  1.9289 -0.3052 -1.4476
 4427TIP3    H213288   0.514   3.246   2.577  0.5294 -2.0603  0.9048
 4428TIP3   OH213289   4.627   4.999   1.393  0.7962  0.1649  0.0048
 4428TIP3    H113290   4.696   4.975   1.332  1.2550  3.3257 -0.9293
 4428TIP3    H213291   4.546   4.969   1.351  1.2916  0.2570 -1.0488
 4429TIP3   OH213292   3.103   1.165   3.210  0.0756  0.0531  0.2960
 4429TIP3    H113293   3.014   1.194   3.190  0.1736 -0.8848 -1.6465
 4429TIP3    H213294   3.100   1.145   3.304 -1.9793 -0.6860  0.1364
 4430TIP3   OH213295   5.143   1.503   0.511 -0.1971  0.1608 -0.5615
 4430TIP3    H113296   5.092   1.578   0.543 -0.7384 -0.5912  0.3931
 4430TIP3    H213297   5.232   1.519   0.544 -0.1055  0.8063 -1.0967
 4431TIP3   OH213298   5.463   1.824   0.877  0.7796  0.2779 -0.0295
 4431TIP3    H113299   5.453   1.762   0.949  1.2486  1.5205  1.1472
 4431TIP3    H213300   5.373   1.846   0.853  0.6122  0.4158  0.6921
 4432TIP3   OH213301   1.082   4.661   3.362  0.0446  0.1496  0.3094
 4432TIP3    H113302   1.148   4.670   3.431  0.1368  0.7653  0.1439
 4432TIP3    H213303   1.062   4.751   3.337 -0.1115 -0.0701 -0.3515
 4433TIP3   OH213304   0.952   1.743   0.688  0.6399 -0.1640 -0.2090
 4433TIP3    H113305   0.983   1.698   0.766 -0.6541 -0.0278  0.4095
 4433TIP3    H213306   0.858   1.725   0.686  0.5412  0.3991 -1.3607
 4434TIP3   OH213307   3.365   4.161   1.777  0.4489 -0.1778  0.1093
 4434TIP3    H113308   3.389   4.116   1.858 -0.9209 -0.5373  0.3448
 4434TIP3    H213309   3.413   4.244   1.780 -0.0727  0.0976  1.6222
 4435TIP3   OH213310   4.943   3.567   4.355  0.2327 -0.3880 -0.3462
 4435TIP3    H113311   4.920   3.489   4.305 -1.0725 -1.2824  1.5120
 4435TIP3    H213312   5.028   3.594   4.321 -0.2159 -1.4028 -2.4337
 4436TIP3   OH213313   2.062   5.838   2.346 -0.5067 -0.4632  0.1667
 4436TIP3    H113314   2.139   5.862   2.397  0.6387 -0.1059 -1.6820
 4436TIP3    H213315   2.063   5.897   2.271 -2.3299 -0.7615 -0.1391
 4437TIP3   OH213316   5.945   2.687   0.872 -0.3743  0.0440 -0.4135
 4437TIP3    H113317   6.029   2.658   0.906 -1.4972 -2.5965  0.3694
 4437TIP3    H213318   5.961   2.776   0.842  2.7063 -0.3902 -0.4027
 4438TIP3   OH213319   3.531   0.942   4.106 -0.5123  0.3393 -0.6198
 4438TIP3    H113320   3.623   0.922   4.120 -0.6252 -0.5288 -1.0641
 4438TIP3    H213321   3.489   0.856   4.093 -1.3845  0.7150 -0.3948
 4439TIP3   OH213322   5.342   2.235   2.503  0.1689 -0.3794 -0.3180
 4439TIP3    H113323   5.255   2.211   2.533 -0.6359  0.0466 -2.1651
 4439TIP3    H213324   5.367   2.165   2.442  0.4480  0.2623 -0.9575
 4440TIP3   OH213325   3.303   3.552   2.119  0.3659  0.3065  0.2762
 4440TIP3    H113326   3.232   3.564   2.056 -1.0612 -1.5210  1.4334
 4440TIP3    H213327   3.299   3.629   2.176  0.5689  1.1237 -0.7760
 4441TIP3   OH213328   0.895   3.471   2.571  0.6246  0.2018  0.3345
 4441TIP3    H113329   0.814   3.504   2.531  0.8900  0.0665 -0.3314
 4441TIP3    H213330   0.867   3.435   2.655 -0.2951 -1.2235 -0.5244
 4442TIP3   OH213331   2.541   4.695   2.068 -0.2122  0.0912  0.0734
 4442TIP3    H113332   2.614   4.723   2.124  1.4494 -1.6250 -1.1029
 4442TIP3    H213333   2.489   4.775   2.056  1.3345  1.3468  1.1338
 4443TIP3   OH213334   0.435   2.507   1.052 -0.0695 -0.2676 -0.0031
 4443TIP3    H113335   0.423   2.415   1.029 -0.8712  0.0562 -0.9550
 4443TIP3    H213336   0.349   2.535   1.084  0.5551 -0.2256  1.7249
 4444TIP3   OH213337   3.111   5.472   2.460  0.2280  0.3847  0.0960
 4444TIP3    H113338   3.141   5.493   2.548  1.2694 -0.3554 -0.0664
 4444TIP3    H213339   3.150   5.387   2.441 -1.8500 -0.5629 -0.2062
 4445TIP3   OH213340   6.106   5.467   2.422 -0.2251 -0.6338 -0.6687
 4445TIP3    H113341   6.106   5.505   2.510 -0.0372 -0.3117 -0.8055
 4445TIP3    H213342   6.159   5.388   2.430  0.3422 -0.2494 -0.6432
 4446TIP3   OH213343   1.077   4.437   4.528 -0.0224 -0.5613  0.1806
 4446TIP3    H113344   1.146   4.478   4.580  0.2238  0.6783 -1.0717
 4446TIP3    H213345   1.011   4.505   4.517 -0.1455 -0.8425 -0.9719
 4447TIP3   OH213346   0.043   3.640   2.178  0.1623 -0.1047 -0.2397
 4447TIP3    H113347   0.127   3.596   2.184  0.3179  0.1282 -0.6891
 4447TIP3    H213348  -0.022   3.569   2.186  0.3827 -0.2312  0.5632
 4448TIP3   OH213349   1.742   5.523   4.779 -0.1278  0.1052  0.4273
 4448TIP3    H113350   1.805   5.452   4.769 -1.7651 -1.4317  0.4141
 4448TIP3    H213351   1.720   5.523   4.872 -1.1036 -0.3232  0.2162
 4449TIP3   OH213352   4.785   0.091   4.465  0.3328  0.0142 -0.2085
 4449TIP3    H113353   4.853   0.053   4.408  0.3661  0.5569 -0.5351
 4449TIP3    H213354   4.717   0.023   4.469  0.5294 -0.2059 -0.5343
 4450TIP3   OH213355   0.703   3.507   5.133 -0.4387  0.4604  0.2111
 4450TIP3    H113356   0.609   3.510   5.116 -0.2717  0.7276 -0.7120
 4450TIP3    H213357   0.743   3.511   5.046  0.4483  1.2583  0.6454
 4451TIP3   OH213358   1.354   4.355   0.653 -0.9167 -0.2181  0.6475
 4451TIP3    H113359   1.321   4.343   0.743 -0.6367  1.1612  0.9682
 4451TIP3    H213360   1.324   4.278   0.606 -1.1139 -0.9547  1.9187
 4452TIP3   OH213361   3.552   5.576   2.175  0.0315 -0.5646  0.5837
 4452TIP3    H113362   3.504   5.609   2.251  0.6801 -0.0435  0.7832
 4452TIP3    H213363   3.639   5.616   2.182 -0.2410  0.4380 -1.0480
 4453TIP3   OH213364   4.668   3.951   1.780 -0.4360 -0.8387 -0.4442
 4453TIP3    H113365   4.614   4.023   1.750 -1.5869 -1.8501 -0.8919
 4453TIP3    H213366   4.757   3.975   1.755 -0.7062  0.6890 -0.0281
 4454TIP3   OH213367   3.409   0.691   4.416 -0.2704  0.1310 -0.7314
 4454TIP3    H113368   3.469   0.701   4.490  0.0588 -0.0808 -0.9629
 4454TIP3    H213369   3.380   0.600   4.421 -0.2268  0.1093 -0.8797
 4455TIP3   OH213370   0.759   2.889   5.039  1.1486  0.1224 -0.0487
 4455TIP3    H113371   0.804   2.970   5.064  0.2893  0.2445  1.2148
 4455TIP3    H213372   0.679   2.890   5.091  0.0481 -0.4638 -1.6817
 4456TIP3   OH213373   5.809   4.904   1.652 -0.1343 -0.0343 -0.5313
 4456TIP3    H113374   5.840   4.869   1.735 -3.0474 -0.7530  0.3400
 4456TIP3    H213375   5.816   4.831   1.591  0.9357  0.1694 -0.6797
 4457TIP3   OH213376   0.101   0.123   2.105 -0.1251  0.4208 -0.0845
 4457TIP3    H113377   0.184   0.098   2.144  0.2138  1.7748  0.0917
 4457TIP3    H213378   0.103   0.085   2.017 -0.1469 -1.1494  0.5620
 4458TIP3   OH213379   3.246   4.927   4.332 -0.4476  0.5041 -0.4839
 4458TIP3    H113380   3.301   4.968   4.399 -2.9401  1.3708  1.2112
 4458TIP3    H213381   3.242   4.835   4.357  2.0130 -0.0948 -2.0077
 4459TIP3   OH213382   1.083   5.897   1.417 -0.5025  0.1859 -0.0505
 4459TIP3    H113383   1.100   5.843   1.340  1.7046  0.4949  0.1567
 4459TIP3    H213384   1.086   5.987   1.384 -0.7085  0.2842  0.1972
 4460TIP3   OH213385   5.259   3.132   2.431 -0.7283  0.2485  0.4687
 4460TIP3    H113386   5.343   3.092   2.451 -0.5309  0.8977  0.9349
 4460TIP3    H213387   5.213   3.065   2.379  0.2283  0.0587 -0.1557
 4461TIP3   OH213388   5.383   4.582   3.011  0.6005  0.4743 -0.6464
 4461TIP3    H113389   5.325   4.570   3.086 -1.6040  1.6682 -2.0365
 4461TIP3    H213390   5.454   4.638   3.044  0.3156  0.0358  0.7955
 4462TIP3   OH213391   0.211   4.171   1.530 -0.3324  0.6594  0.3849
 4462TIP3    H113392   0.193   4.208   1.617 -0.2011 -0.2334  0.8016
 4462TIP3    H213393   0.131   4.189   1.480 -0.4560  1.0766  0.7245
 4463TIP3   OH213394   3.925   5.238   2.180 -0.1929  0.3881 -0.1087
 4463TIP3    H113395   3.955   5.324   2.150 -1.2618  0.9213  0.2818
 4463TIP3    H213396   3.835   5.253   2.209 -0.6693 -1.0330 -0.7515
 4464TIP3   OH213397   3.080   1.062   1.792 -0.3443 -0.3682 -0.7431
 4464TIP3    H113398   3.051   0.986   1.741 -1.7432  0.1724 -0.7904
 4464TIP3    H213399   3.112   1.025   1.874 -0.8477 -1.0237 -0.8330
 4465TIP3   OH213400   1.149   0.050   3.631 -0.0749  0.1271 -0.5412
 4465TIP3    H113401   1.106   0.044   3.717  1.7015 -1.4043  0.3153
 4465TIP3    H213402   1.146   0.143   3.609 -1.2843  0.4384  0.7869
 4466TIP3   OH213403   5.447   4.840   3.168 -0.0293 -0.0838  0.6753
 4466TIP3    H113404   5.408   4.883   3.244 -0.6897 -2.7434  1.9474
 4466TIP3    H213405   5.529   4.804   3.201 -0.2520 -1.1423  0.1060
 4467TIP3   OH213406   2.750   0.037   3.846 -0.4662 -0.9474 -0.1298
 4467TIP3    H113407   2.805   0.114   3.858 -0.0221 -1.1515 -0.7881
 4467TIP3    H213408   2.676   0.067   3.795 -0.3600 -0.9281 -0.2724
 4468TIP3   OH213409   0.837   0.532   1.725  0.6418  0.0625  0.2416
 4468TIP3    H113410   0.924   0.549   1.762  0.1546 -0.3271  1.6439
 4468TIP3    H213411   0.849   0.453   1.672  1.5750  1.1983 -1.3128
 4469TIP3   OH213412   5.309   5.012   2.986  0.1762  0.2356 -0.5202
 4469TIP3    H113413   5.374   4.955   3.028  0.7626  0.1722 -1.4844
 4469TIP3    H213414   5.225   4.986   3.026  0.8494  1.1574  1.6392
 4470TIP3   OH213415   3.835   2.916   0.158 -0.2684  0.1745 -0.4384
 4470TIP3    H113416   3.753   2.946   0.118 -0.6128 -0.1536 -0.0027
 4470TIP3    H213417   3.890   2.994   0.164 -0.6018  0.4234 -0.6209
 4471TIP3   OH213418   0.196   1.777   1.695 -0.3417 -0.2604 -0.6177
 4471TIP3    H113419   0.205   1.845   1.629 -0.2339  1.2398  0.8777
 4471TIP3    H213420   0.281   1.734   1.698 -0.5612 -0.8279 -1.9223
 4472TIP3   OH213421   4.560   0.614   2.731 -0.5901 -0.2047 -0.0890
 4472TIP3    H113422   4.500   0.617   2.805  1.1255  2.7743  1.3695
 4472TIP3    H213423   4.552   0.524   2.698 -1.8499 -1.5627  3.3588
 4473TIP3   OH213424   5.398   2.467   2.323  0.4454  0.5543  0.2883
 4473TIP3    H113425   5.316   2.517   2.323  1.3579  2.2027  2.5900
 4473TIP3    H213426   5.404   2.432   2.412  1.6925 -0.5131 -0.1962
 4474TIP3   OH213427   3.897   1.351   2.473 -0.2133  0.5116 -0.3195
 4474TIP3    H113428   3.883   1.276   2.415 -1.9711 -0.4033  1.1652
 4474TIP3    H213429   3.839   1.419   2.440  0.0226  0.5750 -0.6027
 4475TIP3   OH213430   0.082   5.657   4.908 -0.0875 -0.3096  0.3148
 4475TIP3    H113431   0.110   5.733   4.959  0.0524 -0.0782 -0.0961
 4475TIP3    H213432  -0.006   5.637   4.941  0.3627 -0.7495  1.2833
 4476TIP3   OH213433   2.899   5.310   0.454 -0.2563 -0.1497 -1.2050
 4476TIP3    H113434   2.928   5.392   0.414 -1.9574  0.8973 -0.3637
 4476TIP3    H213435   2.807   5.302   0.430 -1.2265  0.2467  1.9374
 4477TIP3   OH213436   4.775   4.944   3.523  0.4294 -0.3032  0.0199
 4477TIP3    H113437   4.704   4.880   3.521 -0.4677  0.6261 -2.6699
 4477TIP3    H213438   4.733   5.025   3.553  0.6186 -0.0437 -0.4035
 4478TIP3   OH213439   4.549   1.912   1.251 -0.0037  0.1036  0.0339
 4478TIP3    H113440   4.483   1.968   1.209  0.0793 -0.0858 -0.3595
 4478TIP3    H213441   4.498   1.843   1.293 -0.0456 -0.2703 -0.6123
 4479TIP3   OH213442   6.083   4.022   5.060  0.2998 -0.1066 -0.7229
 4479TIP3    H113443   6.086   4.105   5.012  0.6774  0.3928  0.1504
 4479TIP3    H213444   5.991   4.011   5.082  0.5388  1.4462  1.4343
 4480TIP3   OH213445   0.296   2.594   4.508 -0.6473  0.3575 -0.8711
 4480TIP3    H113446   0.317   2.544   4.587 -1.7548  0.3187 -0.5896
 4480TIP3    H213447   0.372   2.581   4.451  0.1800  0.3845  0.1773
 4481TIP3   OH213448   6.078   2.165   3.563 -0.2829  0.0833 -0.2816
 4481TIP3    H113449   6.169   2.191   3.580  0.5059 -1.2914 -2.1582
 4481TIP3    H213450   6.062   2.093   3.624 -0.1384  0.3559  0.0821
 4482TIP3   OH213451   3.696   0.255   0.938  0.0144  0.5523 -0.4286
 4482TIP3    H113452   3.637   0.244   0.863 -0.3314  0.9478 -0.2246
 4482TIP3    H213453   3.752   0.329   0.913  0.9207 -0.2967 -0.9275
 4483TIP3   OH213454   0.533   0.976   3.413  0.3818  0.3793 -0.4708
 4483TIP3    H113455   0.527   0.883   3.390 -0.6235  0.8618 -2.3552
 4483TIP3    H213456   0.448   0.997   3.451  0.6735  0.5010  0.1264
 4484TIP3   OH213457   4.809   0.091   1.717  0.4692 -0.0658  0.0761
 4484TIP3    H113458   4.895   0.111   1.754  0.2816 -0.5584  0.8020
 4484TIP3    H213459   4.775   0.021   1.773 -0.9321  0.9749  0.5663
 4485TIP3   OH213460   0.733   5.040   1.379 -0.0829  0.0634 -0.1901
 4485TIP3    H113461   0.735   5.132   1.352  1.9843  0.4823  1.2212
 4485TIP3    H213462   0.783   4.995   1.311  0.4897  0.2838  0.0772
 4486TIP3   OH213463   5.318   3.219   0.183 -0.7449  0.0175  0.1823
 4486TIP3    H113464   5.398   3.203   0.233 -1.1697 -0.7955  0.6307
 4486TIP3    H213465   5.247   3.200   0.245 -1.2843 -0.8569 -0.6672
 4487TIP3   OH213466   2.933   1.924   4.840  0.2088  0.0738  0.5319
 4487TIP3    H113467   2.920   1.866   4.916  1.4013  1.1321  1.5859
 4487TIP3    H213468   2.924   1.866   4.764 -0.9402 -1.0388  1.4633
 4488TIP3   OH213469   5.316   4.729   4.495 -0.4877 -0.0641 -0.1040
 4488TIP3    H113470   5.368   4.667   4.444  0.3168 -0.0541  0.6949
 4488TIP3    H213471   5.361   4.813   4.484 -0.4016 -0.0309  0.4975
 4489TIP3   OH213472   6.181   0.139   2.905  0.0497  0.1166 -0.2579
 4489TIP3    H113473   6.125   0.114   2.979  0.5168  0.6792  0.3048
 4489TIP3    H213474   6.162   0.075   2.837 -0.0866 -0.6700  0.5030
 4490TIP3   OH213475   4.809   4.675   1.402 -0.6007 -0.0023  0.1068
 4490TIP3    H113476   4.836   4.586   1.380  0.1305  0.2288  0.0718
 4490TIP3    H213477   4.744   4.663   1.471  1.2776 -0.4650  1.8922
 4491TIP3   OH213478   1.350   4.875   2.078 -0.1843 -0.0176  0.6237
 4491TIP3    H113479   1.337   4.903   1.987  0.0983 -1.7250  0.0247
 4491TIP3    H213480   1.263   4.885   2.118 -0.1046  1.6321  0.4610
 4492TIP3   OH213481   0.622   1.572   2.655  0.2623  0.8688  0.0119
 4492TIP3    H113482   0.701   1.527   2.624  0.9244  1.6052  0.6165
 4492TIP3    H213483   0.629   1.660   2.619 -0.6640  0.7399 -0.5410
 4493TIP3   OH213484   2.089   3.817   4.214 -0.3655 -0.1263  0.1341
 4493TIP3    H113485   2.137   3.899   4.221 -2.1523  0.9413  0.4653
 4493TIP3    H213486   2.092   3.780   4.302  3.0564 -2.0827 -0.6038
 4494TIP3   OH213487   5.000   0.544   4.276  0.0543 -0.0394  0.0901
 4494TIP3    H113488   4.954   0.558   4.193 -0.4307 -0.3074  0.3095
 4494TIP3    H213489   5.035   0.630   4.299 -1.5010  0.4881  0.6054
 4495TIP3   OH213490   6.349   4.167   0.101  0.5386  0.4481 -0.2847
 4495TIP3    H113491   6.257   4.180   0.122  0.5579 -1.1397  1.0172
 4495TIP3    H213492   6.356   4.074   0.079  1.7995  0.5734 -0.4945
 4496TIP3   OH213493   5.925   2.903   0.709 -0.4050 -0.4985  0.1197
 4496TIP3    H113494   5.905   2.997   0.706  0.9508 -0.1567  0.9238
 4496TIP3    H213495   5.846   2.861   0.675 -0.9522  0.9406 -0.4841
 4497TIP3   OH213496   4.380   0.284   1.890 -0.0730 -0.2926 -0.5948
 4497TIP3    H113497   4.350   0.305   1.979  1.4594 -0.5631  0.0212
 4497TIP3    H213498   4.387   0.188   1.890  2.3512 -0.1834 -0.1168
 4498TIP3   OH213499   2.980   5.924   4.650  0.5019 -0.4795  0.7687
 4498TIP3    H113500   2.920   5.887   4.585  0.9159 -1.5256  0.9544
 4498TIP3    H213501   3.050   5.964   4.599  0.4405 -0.6393  0.5591
 4499TIP3   OH213502   4.638   2.948   0.055  0.3555 -0.0546 -0.4222
 4499TIP3    H113503   4.626   3.017   0.120 -1.0991 -0.1817 -0.5321
 4499TIP3    H213504   4.653   2.869   0.107 -0.5782 -0.1167 -0.2422
 4500TIP3   OH213505   5.403   1.936   0.111 -0.1906  0.4149 -0.2452
 4500TIP3    H113506   5.311   1.928   0.136 -0.1582  0.8330  0.0031
 4500TIP3    H213507   5.440   1.849   0.128 -0.9481 -0.3350 -2.0508
 4501TIP3   OH213508   1.602   2.182   4.095 -0.0284 -0.0369  0.6120
 4501TIP3    H113509   1.525   2.145   4.053  0.0479  0.5131 -0.0401
 4501TIP3    H213510   1.569   2.223   4.175 -0.0807 -1.6516  1.4434
 4502TIP3   OH213511   4.329   5.590   0.054 -0.1948 -0.5077  0.9610
 4502TIP3    H113512   4.392   5.588  -0.019 -0.9637  0.3500  0.2380
 4502TIP3    H213513   4.382   5.613   0.130  0.2515  1.1739  0.1934
 4503TIP3   OH213514   2.371   4.122   3.325  0.3482  0.1313  0.1901
 4503TIP3    H113515   2.292   4.070   3.310 -1.1274  1.5750  2.3420
 4503TIP3    H213516   2.433   4.061   3.366 -0.5808 -0.4435  0.7677
 4504TIP3   OH213517   4.420   3.634   2.124  0.2082  0.2490  0.1754
 4504TIP3    H113518   4.334   3.625   2.164  0.5132  0.0587  0.7955
 4504TIP3    H213519   4.402   3.657   2.033 -0.5088 -0.4573  0.1339
 4505TIP3   OH213520   2.861   1.306  -0.020  0.2096  0.3373 -0.2947
 4505TIP3    H113521   2.922   1.354   0.035  0.4810 -0.1045 -0.2046
 4505TIP3    H213522   2.793   1.275   0.040  0.9773 -0.9151 -0.0357
 4506TIP3   OH213523   2.250   4.975   4.019  0.1381  0.1803  0.8301
 4506TIP3    H113524   2.262   5.064   4.051  0.9755  1.3112 -2.3284
 4506TIP3    H213525   2.173   4.980   3.962  1.0613 -0.7483 -0.5496
 4507TIP3   OH213526   6.183   3.600   2.458 -0.0996  0.0625 -0.4632
 4507TIP3    H113527   6.189   3.695   2.445  1.5813  0.2125  1.0682
 4507TIP3    H213528   6.225   3.562   2.381  0.2262  0.5886 -0.5476
 4508TIP3   OH213529   3.399   4.241   3.491  0.0048 -0.3762 -0.1319
 4508TIP3    H113530   3.426   4.161   3.446 -0.1148 -0.0141 -0.8668
 4508TIP3    H213531   3.479   4.276   3.529  0.0389 -0.9023  0.3070
 4509TIP3   OH213532   1.417   4.933   2.431  0.0961 -0.0750 -0.3761
 4509TIP3    H113533   1.466   5.005   2.391 -1.0025  0.4906 -0.7323
 4509TIP3    H213534   1.349   4.912   2.367 -2.4130  1.5759  1.5429
 4510TIP3   OH213535   5.274   4.935   1.825  0.6351 -0.1705 -0.0718
 4510TIP3    H113536   5.268   4.916   1.732  0.1987  0.4778 -0.1849
 4510TIP3    H213537   5.236   5.022   1.834  0.1311 -0.4713  0.8012
 4511TIP3   OH213538   2.975   5.024   3.759 -0.4378  0.9126  0.4666
 4511TIP3    H113539   2.950   4.941   3.800  1.2593  0.7902  1.3147
 4511TIP3    H213540   2.937   5.019   3.671 -1.1479 -0.3455  0.8185
 4512TIP3   OH213541   5.998   3.557   1.601  0.1765 -0.3964 -0.4304
 4512TIP3    H113542   5.977   3.586   1.512  0.5226 -2.4176 -1.2233
 4512TIP3    H213543   6.052   3.479   1.589 -0.9692 -1.5712  1.5392
 4513TIP3   OH213544   4.291   5.250   3.789  0.1214  0.0191 -0.5410
 4513TIP3    H113545   4.384   5.273   3.793  0.0701  0.2392 -0.6221
 4513TIP3    H213546   4.246   5.329   3.818 -0.0520 -0.0062 -0.7431
 4514TIP3   OH213547   1.834   1.317   1.348  0.8682 -0.6278  0.3480
 4514TIP3    H113548   1.840   1.276   1.434 -0.9312 -0.3527  0.6392
 4514TIP3    H213549   1.925   1.332   1.322  1.4418 -0.7312  2.1849
 4515TIP3   OH213550   2.566   3.074   4.850  0.0543  0.2962 -0.2549
 4515TIP3    H113551   2.513   3.113   4.920 -0.0187 -0.9706  0.4228
 4515TIP3    H213552   2.516   2.997   4.821  0.3968  0.4344 -1.2603
 4516TIP3   OH213553   0.997   3.828   4.046  0.5157  0.4013  0.2362
 4516TIP3    H113554   1.003   3.873   3.962 -0.5017 -0.0812 -0.1049
 4516TIP3    H213555   1.081   3.848   4.089  2.3658 -1.7935 -2.0549
 4517TIP3   OH213556   5.707   2.796   4.717 -0.1832 -0.2578  0.5088
 4517TIP3    H113557   5.759   2.715   4.717 -1.6898 -1.2714 -0.7165
 4517TIP3    H213558   5.671   2.802   4.629 -0.8361  1.2935  0.8440
 4518TIP3   OH213559   4.415   4.092   2.649 -0.1959  0.1801 -0.2426
 4518TIP3    H113560   4.465   4.142   2.714 -0.5759  0.0332  0.1642
 4518TIP3    H213561   4.331   4.076   2.690  0.3309 -1.8819  0.1428
 4519TIP3   OH213562   2.997   4.822   2.141 -0.2418 -0.1485  0.8876
 4519TIP3    H113563   3.056   4.810   2.067  0.2011  0.1019  1.1927
 4519TIP3    H213564   2.963   4.734   2.160  0.1134 -0.3094  0.7739
 4520TIP3   OH213565   6.321   5.121   1.894  0.1984 -0.1345 -0.3205
 4520TIP3    H113566   6.270   5.166   1.962  1.6243  1.0542  0.0073
 4520TIP3    H213567   6.256   5.101   1.826 -1.1031 -0.6089  0.9880
 4521TIP3   OH213568   2.995   0.265   3.784 -0.5074  0.0474  0.2376
 4521TIP3    H113569   3.050   0.285   3.859  0.2327  1.1137 -0.5529
 4521TIP3    H213570   3.032   0.317   3.713 -1.2111 -0.8947 -0.8589
 4522TIP3   OH213571   0.521   1.334   4.305  0.0502  0.2281  0.2854
 4522TIP3    H113572   0.536   1.255   4.253  0.0568  0.5932 -0.2754
 4522TIP3    H213573   0.532   1.406   4.243  2.8543  0.8372  1.3564
 4523TIP3   OH213574   3.014   4.969   3.352 -0.0909 -0.1170 -0.1157
 4523TIP3    H113575   2.962   4.931   3.422  2.2515 -0.2392  1.6742
 4523TIP3    H213576   2.998   4.911   3.277  0.4460 -2.4517  1.4611
 4524TIP3   OH213577   1.830   2.109   3.925 -0.3182  0.2435 -0.5545
 4524TIP3    H113578   1.769   2.133   3.995 -0.6678  0.7055 -1.0052
 4524TIP3    H213579   1.899   2.059   3.968 -0.1520  1.1382  0.2459
 4525TIP3   OH213580   1.274   3.956   2.318 -0.4666 -0.1428 -0.0738
 4525TIP3    H113581   1.302   3.894   2.385  0.2611 -0.8016 -0.9497
 4525TIP3    H213582   1.351   4.011   2.303 -1.1468  1.1026  0.7944
 4526TIP3   OH213583   1.737   4.553   0.846 -0.3805  0.0524 -0.4899
 4526TIP3    H113584   1.803   4.598   0.794 -0.4059 -0.9785 -1.4621
 4526TIP3    H213585   1.674   4.521   0.782 -1.5255  0.5027  0.3651
 4527TIP3   OH213586   3.828   2.735   2.327  0.2597 -0.0564 -0.1800
 4527TIP3    H113587   3.733   2.730   2.324  0.0707  2.6101 -0.5404
 4527TIP3    H213588   3.856   2.645   2.346 -2.3531 -0.6814  1.1674
 4528TIP3   OH213589   2.223   4.540   1.544  0.4439  0.2598 -0.2202
 4528TIP3    H113590   2.208   4.464   1.488 -0.6556  1.0538 -1.0575
 4528TIP3    H213591   2.149   4.598   1.525  1.7549  1.9648 -0.3297
 4529TIP3   OH213592   5.309   5.226   0.666 -0.5566  0.2969 -0.8065
 4529TIP3    H113593   5.400   5.198   0.658 -0.3056  0.8758 -0.0896
 4529TIP3    H213594   5.268   5.156   0.717 -0.4840  0.1033 -1.0100
 4530TIP3   OH213595   1.789   1.609   0.263  0.7313 -0.4780  0.5901
 4530TIP3    H113596   1.733   1.623   0.340  1.3343 -0.7766  1.0957
 4530TIP3    H213597   1.756   1.530   0.222 -0.5207  0.4782 -0.3104
 4531TIP3   OH213598   3.767   2.325   5.112 -0.1765  0.1233 -0.0953
 4531TIP3    H113599   3.822   2.268   5.165  0.6475  1.8454  0.9905
 4531TIP3    H213600   3.824   2.355   5.042 -0.0781  0.9612  0.3356
 4532TIP3   OH213601   0.772   5.877   1.603 -0.1707  0.1155 -0.4379
 4532TIP3    H113602   0.694   5.852   1.554 -0.9386 -0.1795  0.8798
 4532TIP3    H213603   0.841   5.821   1.567 -0.6357  0.1184 -1.3705
 4533TIP3   OH213604   2.282   1.778   4.597  0.2442  0.0032 -0.3500
 4533TIP3    H113605   2.200   1.733   4.617  0.7123 -0.7248 -0.0539
 4533TIP3    H213606   2.258   1.840   4.527 -1.3136  2.1958  1.9510
 4534TIP3   OH213607   3.106   4.274   3.768 -0.2442 -0.6662 -0.3958
 4534TIP3    H113608   3.133   4.333   3.839  1.9665 -1.4868 -0.4543
 4534TIP3    H213609   3.097   4.330   3.691  0.8096 -0.2375 -0.2184
 4535TIP3   OH213610   3.241   2.399   1.150  0.0543  0.2449 -0.0595
 4535TIP3    H113611   3.239   2.420   1.057  0.0844 -2.5504 -0.7862
 4535TIP3    H213612   3.158   2.432   1.184 -0.5533  0.1653 -1.3948
 4536TIP3   OH213613   2.552   2.431   1.649  0.1487 -0.1360  0.4590
 4536TIP3    H113614   2.492   2.419   1.576  1.1801  0.1909 -0.4728
 4536TIP3    H213615   2.497   2.461   1.721 -0.7229  0.6936 -0.5192
 4537TIP3   OH213616   0.621   1.903   0.725  0.1700  0.4239 -0.3704
 4537TIP3    H113617   0.577   1.869   0.647 -0.2728  1.3792 -0.5543
 4537TIP3    H213618   0.592   1.846   0.796 -1.1695  0.8684 -0.5378
 4538TIP3   OH213619   1.628   2.066   0.632  0.1638  0.6810 -0.4016
 4538TIP3    H113620   1.587   2.041   0.550  0.4702 -1.1512 -0.0464
 4538TIP3    H213621   1.715   2.097   0.608 -0.4593  2.0938 -0.9193
 4539TIP3   OH213622   3.520   4.356   2.263 -0.0527  0.4398 -0.3388
 4539TIP3    H113623   3.575   4.278   2.253 -0.4686  0.1752 -0.6041
 4539TIP3    H213624   3.503   4.361   2.357 -0.0471  0.1909 -0.3230
 4540TIP3   OH213625   1.077   2.368   0.834 -0.4107  0.2738 -0.0145
 4540TIP3    H113626   1.129   2.447   0.842 -1.0624  0.6048  1.2135
 4540TIP3    H213627   1.049   2.367   0.742 -0.0555  1.2394 -0.1477
 4541TIP3   OH213628   6.198   4.176   2.185  0.4168  0.2634  0.3627
 4541TIP3    H113629   6.189   4.081   2.188  1.2184  0.1589 -0.3227
 4541TIP3    H213630   6.163   4.201   2.099 -1.0276  0.7435  1.0530
 4542TIP3   OH213631   2.478   1.678   5.092  0.3053 -0.1955 -1.0252
 4542TIP3    H113632   2.433   1.674   5.008  0.3582  1.9772 -1.1944
 4542TIP3    H213633   2.520   1.592   5.101 -0.5977 -0.8525 -2.6789
 4543TIP3   OH213634   1.549   4.044   2.210  0.4455 -0.3051 -0.0368
 4543TIP3    H113635   1.615   4.088   2.263 -0.3961 -0.4693  1.1849
 4543TIP3    H213636   1.578   3.953   2.205  0.1827 -0.4362  0.7318
 4544TIP3   OH213637   1.488   1.234   4.782  0.1343  0.1973 -0.2381
 4544TIP3    H113638   1.502   1.278   4.865 -0.9998  1.4355 -0.6742
 4544TIP3    H213639   1.575   1.232   4.741  0.4107  1.0528  0.2795
 4545TIP3   OH213640   4.765   2.388   2.343  0.1727 -0.5327  0.4510
 4545TIP3    H113641   4.732   2.323   2.404 -0.2654  0.5310  1.3905
 4545TIP3    H213642   4.835   2.343   2.296  1.8157 -0.9082  3.0190
 4546TIP3   OH213643   2.775   1.406   0.625 -0.1210  0.0814  0.2364
 4546TIP3    H113644   2.776   1.410   0.529 -0.4454 -0.3813  0.2119
 4546TIP3    H213645   2.732   1.487   0.652  1.4883  1.0337  0.0534
 4547TIP3   OH213646   3.218   4.169   4.220  0.3828 -0.1198  0.2058
 4547TIP3    H113647   3.250   4.079   4.230 -1.6912 -1.0211 -0.8004
 4547TIP3    H213648   3.181   4.190   4.306  0.6940 -0.2909  0.3867
 4548TIP3   OH213649   5.187   5.387   3.439 -0.6429  0.2976 -0.2259
 4548TIP3    H113650   5.278   5.416   3.450  0.1316 -1.3905 -1.7200
 4548TIP3    H213651   5.165   5.345   3.523  0.5909 -0.8141 -0.4171
 4549TIP3   OH213652   2.702   5.065   4.596 -0.3141 -0.0502 -0.6985
 4549TIP3    H113653   2.669   5.148   4.631 -2.0620  0.4390 -3.2516
 4549TIP3    H213654   2.655   4.998   4.644  0.5119  0.4061  0.8218
 4550TIP3   OH213655   2.549   0.594   3.643 -0.6830  0.4663  0.5076
 4550TIP3    H113656   2.497   0.604   3.722  0.7833  1.1017  1.4300
 4550TIP3    H213657   2.545   0.680   3.600 -3.8882 -0.6132 -1.7609
 4551TIP3   OH213658   4.420   4.652   2.137 -0.6494 -0.1826 -0.1912
 4551TIP3    H113659   4.430   4.745   2.161  0.8618 -0.7601  1.6575
 4551TIP3    H213660   4.404   4.654   2.043  1.9462  1.8757 -0.7284
 4552TIP3   OH213661   5.584   5.885   0.610  0.0746  1.1549  0.4070
 4552TIP3    H113662   5.635   5.822   0.559 -0.0352  0.9496  0.5463
 4552TIP3    H213663   5.552   5.948   0.546  0.3594  1.1855  0.2953
 4553TIP3   OH213664   6.018   0.996   1.669  0.0781 -0.1579 -0.3821
 4553TIP3    H113665   6.093   1.055   1.659  2.2177 -2.7754 -0.8028
 4553TIP3    H213666   5.999   0.967   1.580 -0.1664 -1.0011 -0.0574
 4554TIP3   OH213667   4.566   5.840   1.441  0.2032  0.3165  0.7370
 4554TIP3    H113668   4.588   5.911   1.380 -0.4107  0.9658  1.2501
 4554TIP3    H213669   4.631   5.773   1.424  1.4292  1.4133  0.9391
 4555TIP3   OH213670   4.617   5.257   0.793  0.7213  0.2430  0.0960
 4555TIP3    H113671   4.683   5.323   0.772 -0.7527  1.6409 -0.3279
 4555TIP3    H213672   4.582   5.284   0.878 -0.7852  0.7980 -0.6646
 4556TIP3   OH213673   1.514   3.224   1.440 -0.2422 -0.3736 -0.6527
 4556TIP3    H113674   1.566   3.153   1.477  0.6723  0.9152  0.6365
 4556TIP3    H213675   1.579   3.286   1.407 -0.9537  0.8455  0.1575
 4557TIP3   OH213676   1.248   4.390   2.351 -0.2316 -0.4500  0.2380
 4557TIP3    H113677   1.301   4.403   2.272 -1.4727  1.8757 -0.2973
 4557TIP3    H213678   1.162   4.423   2.328 -0.7243  0.0056  2.4927
 4558TIP3   OH213679   4.143   2.636   4.298 -0.3909  0.3837  0.0598
 4558TIP3    H113680   4.125   2.544   4.319 -2.1280  1.2660  3.0494
 4558TIP3    H213681   4.238   2.642   4.297 -0.2441 -1.3101  0.5978
 4559TIP3   OH213682   0.190   4.172   2.550  0.6099  0.3553 -0.4123
 4559TIP3    H113683   0.268   4.205   2.595  0.9642 -0.8291 -0.1270
 4559TIP3    H213684   0.224   4.118   2.478  0.0442  0.8396 -1.0651
 4560TIP3   OH213685   0.217   0.831  -0.023 -0.3191 -0.7459 -0.1259
 4560TIP3    H113686   0.253   0.887   0.046 -1.9607 -0.6892  0.7414
 4560TIP3    H213687   0.251   0.744  -0.004  2.9760 -0.0141 -1.9925
 4561TIP3   OH213688   2.037   2.607   3.372 -0.1101  0.5272 -0.1642
 4561TIP3    H113689   2.055   2.582   3.282  1.1564 -2.4888  0.7872
 4561TIP3    H213690   2.115   2.655   3.400 -0.9391  2.3901 -0.8982
 4562TIP3   OH213691   5.295   2.687   3.059  0.2819 -0.1156  0.1058
 4562TIP3    H113692   5.308   2.638   2.978 -0.0349  1.2628 -0.8200
 4562TIP3    H213693   5.252   2.625   3.118 -1.0488 -0.6739 -1.3689
 4563TIP3   OH213694   5.269   4.233   3.584  0.1215  0.4194  0.2691
 4563TIP3    H113695   5.296   4.236   3.492 -0.1991  2.2717  0.2057
 4563TIP3    H213696   5.256   4.140   3.602  0.4216  0.0059 -1.4856
 4564TIP3   OH213697   5.567   2.324   4.302  0.5025  0.3601  0.3775
 4564TIP3    H113698   5.650   2.282   4.324  1.3758  1.2322 -1.0843
 4564TIP3    H213699   5.530   2.268   4.234  0.6293  0.7886 -0.0462
 4565TIP3   OH213700   5.473   0.390   4.060 -0.0044 -0.0902  0.4151
 4565TIP3    H113701   5.386   0.425   4.081  0.2405  0.8675 -0.0976
 4565TIP3    H213702   5.523   0.466   4.030  0.4092 -0.9393 -1.1861
 4566TIP3   OH213703   2.966   4.034   0.159  0.0277 -0.0360  0.2568
 4566TIP3    H113704   2.887   3.992   0.125  1.0558 -2.5431  0.7588
 4566TIP3    H213705   2.944   4.059   0.248 -0.0619 -1.3097  0.6173
 4567TIP3   OH213706   4.091   0.381   2.965  0.0116  0.2347 -0.0136
 4567TIP3    H113707   4.000   0.363   2.944 -0.2333  0.9991  0.3633
 4567TIP3    H213708   4.090   0.468   3.007  1.0343  0.7340 -0.9707
 4568TIP3   OH213709   5.162   4.979   0.067 -0.0367  0.6670  0.4498
 4568TIP3    H113710   5.204   4.907   0.113  0.2102 -1.0481 -2.2400
 4568TIP3    H213711   5.069   4.956   0.067 -0.0131  0.5746 -0.0438
 4569TIP3   OH213712   2.439   5.453   1.577  0.3927 -0.2425  0.1187
 4569TIP3    H113713   2.437   5.370   1.625 -1.5327  0.4482  1.3448
 4569TIP3    H213714   2.524   5.491   1.600  1.1401 -1.6745 -0.1656
 4570TIP3   OH213715   0.403   1.339   3.418  0.6657  0.0973 -0.0023
 4570TIP3    H113716   0.342   1.393   3.368 -1.5657  0.1685  2.5641
 4570TIP3    H213717   0.371   1.250   3.406 -0.3360  0.1812  1.7472
 4571TIP3   OH213718   5.329   5.620   1.047  0.5958  0.9808 -0.1982
 4571TIP3    H113719   5.423   5.618   1.067  1.2849  1.2599 -3.0341
 4571TIP3    H213720   5.318   5.555   0.978 -1.2510  1.2386 -0.1878
 4572TIP3   OH213721   0.364   2.478   4.740 -0.1277  0.8376  0.3949
 4572TIP3    H113722   0.298   2.442   4.800  0.0043 -0.4922 -0.2253
 4572TIP3    H213723   0.437   2.501   4.797 -0.9573  2.0091  1.0492
 4573TIP3   OH213724   2.571   5.731   2.981  0.3092 -0.5752 -0.4443
 4573TIP3    H113725   2.476   5.714   2.979 -0.0219  1.0012  0.1234
 4573TIP3    H213726   2.577   5.827   2.982  1.9609 -0.6189 -1.8563
 4574TIP3   OH213727   0.749   5.081   0.077  0.1657 -0.2196  0.4527
 4574TIP3    H113728   0.724   5.159   0.126  0.0227  0.7155 -1.0450
 4574TIP3    H213729   0.845   5.078   0.083  0.1420 -0.1628  0.8591
 4575TIP3   OH213730   5.145   3.938   3.079 -0.2169 -0.0037 -0.9204
 4575TIP3    H113731   5.067   3.927   3.133  0.6121  2.9768  1.1014
 4575TIP3    H213732   5.148   4.031   3.058  3.0793  0.1735 -0.3370
 4576TIP3   OH213733   0.211   2.800   4.779 -0.6351 -0.4477  0.1589
 4576TIP3    H113734   0.134   2.746   4.796 -0.8291  0.2711  1.7210
 4576TIP3    H213735   0.201   2.875   4.837  0.7306  0.1737 -0.3693
 4577TIP3   OH213736   2.220   1.185   2.804  0.2242  0.4745  0.5804
 4577TIP3    H113737   2.301   1.149   2.840 -0.3534 -1.3633  0.1216
 4577TIP3    H213738   2.217   1.153   2.714 -0.9603  0.6010  0.5570
 4578TIP3   OH213739   3.071   4.515   4.894 -0.4978 -0.2434  0.0343
 4578TIP3    H113740   3.094   4.424   4.913 -0.1541  0.0760  1.2697
 4578TIP3    H213741   3.005   4.537   4.960 -0.3784  0.4853 -0.0792
 4579TIP3   OH213742   3.802   4.549   0.691 -0.2058  0.4270 -0.0014
 4579TIP3    H113743   3.858   4.613   0.736  0.1038  0.3408 -0.2678
 4579TIP3    H213744   3.850   4.467   0.696 -0.8276  0.0922  0.7785
 4580TIP3   OH213745   4.804   3.965   4.389  0.2061 -0.0450  0.3871
 4580TIP3    H113746   4.803   4.023   4.464  0.1794 -0.5271  0.7655
 4580TIP3    H213747   4.830   4.020   4.315  1.0377  0.2569  0.8957
 4581TIP3   OH213748   5.978   2.245   0.913  0.5951 -0.1125 -0.2245
 4581TIP3    H113749   5.912   2.303   0.873  0.7486  0.9076  0.9401
 4581TIP3    H213750   6.059   2.267   0.868  0.5053  0.0180 -0.3239
 4582TIP3   OH213751   3.255   5.504   0.730 -0.2884 -0.8581  0.3132
 4582TIP3    H113752   3.342   5.531   0.700 -0.1185  0.9277  2.2028
 4582TIP3    H213753   3.246   5.414   0.699  2.2854 -1.1399  0.1576
 4583TIP3   OH213754   0.934   0.896   0.210  0.5934 -0.1611  0.9198
 4583TIP3    H113755   0.871   0.876   0.279  0.5510  0.0473  0.9428
 4583TIP3    H213756   1.009   0.838   0.228 -0.3964 -1.8934 -0.2907
 4584TIP3   OH213757   5.602   4.019   2.308 -0.2452 -0.0612 -0.5013
 4584TIP3    H113758   5.605   3.925   2.323  2.6842 -0.2475 -1.6516
 4584TIP3    H213759   5.514   4.035   2.273 -0.6992 -2.4002 -0.5578
 4585TIP3   OH213760   6.128   4.686   4.098  0.9490 -0.2167  0.1149
 4585TIP3    H113761   6.194   4.746   4.132  2.0923 -2.4610  2.1426
 4585TIP3    H213762   6.172   4.601   4.097 -0.8558 -1.2032 -1.8469
 4586TIP3   OH213763   0.712   1.012   2.837  0.5656 -0.1497  0.0763
 4586TIP3    H113764   0.630   1.010   2.886  1.2138  0.0897  1.2149
 4586TIP3    H213765   0.718   0.925   2.796  0.6862 -0.9018  1.6133
 4587TIP3   OH213766   5.784   0.439   0.102 -0.0666 -0.0608  0.2608
 4587TIP3    H113767   5.736   0.441   0.185  0.8090  1.7097  0.7753
 4587TIP3    H213768   5.876   0.444   0.128  0.3312 -1.4366 -0.7728
 4588TIP3   OH213769   1.660   1.087   3.174 -0.1107 -0.3972 -0.0702
 4588TIP3    H113770   1.670   1.000   3.212  0.2097 -0.6078 -0.6312
 4588TIP3    H213771   1.721   1.142   3.222 -2.0562  0.1017  2.0180
 4589TIP3   OH213772   1.930   1.337   0.048  0.5071  0.4119  0.4689
 4589TIP3    H113773   1.941   1.249   0.012 -2.8463  0.3054 -0.6286
 4589TIP3    H213774   1.998   1.344   0.115  2.8662 -1.8082 -1.4708
 4590TIP3   OH213775   1.204   1.868   1.739 -0.8883 -0.0489 -0.2341
 4590TIP3    H113776   1.129   1.830   1.784  0.3841  0.0493  2.1285
 4590TIP3    H213777   1.222   1.949   1.785 -1.1029  1.4938 -2.6697
 4591TIP3   OH213778   5.272   0.426   1.484 -0.1537 -0.0589 -0.3914
 4591TIP3    H113779   5.247   0.505   1.531 -1.4007  0.1686 -1.3746
 4591TIP3    H213780   5.270   0.451   1.391  2.0278 -0.5421 -0.6378
 4592TIP3   OH213781   4.336   1.346   0.493  0.3326  0.1532 -0.2785
 4592TIP3    H113782   4.361   1.270   0.545 -1.3153 -0.0804  0.2198
 4592TIP3    H213783   4.261   1.316   0.442 -0.2621  1.4000 -0.1636
 4593TIP3   OH213784   1.916   3.090   3.605 -0.2404  0.2811  0.0791
 4593TIP3    H113785   1.842   3.034   3.631  0.4488 -0.2022  1.0731
 4593TIP3    H213786   1.933   3.143   3.682  0.4673  0.3704 -0.1374
 4594TIP3   OH213787   0.750   2.802   1.132  0.5659 -0.2340 -0.2761
 4594TIP3    H113788   0.687   2.875   1.137 -0.8846 -1.5347  1.7382
 4594TIP3    H213789   0.701   2.732   1.088  0.7566 -1.0829  0.8252
 4595TIP3   OH213790   0.758   1.735   4.387  0.1973  0.1542 -0.1022
 4595TIP3    H113791   0.758   1.648   4.346 -0.3843  0.3855 -0.6110
 4595TIP3    H213792   0.804   1.722   4.470 -0.0941 -0.6988 -0.0596
 4596TIP3   OH213793   6.179   4.658   1.690 -0.3318 -0.3187 -0.6226
 4596TIP3    H113794   6.165   4.716   1.615 -0.1239  1.3851  0.6120
 4596TIP3    H213795   6.103   4.673   1.746  0.5771  0.0937  0.5346
 4597TIP3   OH213796   4.782   5.764   1.132  0.1733 -0.2208  0.0785
 4597TIP3    H113797   4.872   5.797   1.136  0.4292 -0.8422 -0.3167
 4597TIP3    H213798   4.764   5.734   1.221  0.2628  0.1341  0.2202
 4598TIP3   OH213799   6.173   5.835   3.956  0.1609 -0.0325 -0.0481
 4598TIP3    H113800   6.236   5.843   4.028  0.6246  0.8321 -0.5269
 4598TIP3    H213801   6.140   5.924   3.943 -2.7146 -0.7584  1.5176
 4599TIP3   OH213802   4.691   0.029   2.973  0.7948  0.5079  0.2310
 4599TIP3    H113803   4.621   0.070   3.024 -1.8342 -0.2516 -2.4774
 4599TIP3    H213804   4.718   0.096   2.911  0.5440 -0.0565 -0.4963
 4600TIP3   OH213805   4.531   1.973   0.445 -0.8022 -0.2566 -0.0725
 4600TIP3    H113806   4.572   1.969   0.359 -0.1248 -4.5949  0.2169
 4600TIP3    H213807   4.604   1.977   0.506 -1.2487  1.6846  0.3897
 4601TIP3   OH213808   4.418   2.337   4.664  0.3968  0.5779 -0.4247
 4601TIP3    H113809   4.463   2.289   4.734 -1.7926 -0.7497  0.1838
 4601TIP3    H213810   4.418   2.275   4.590 -0.3326  0.5772 -0.4311
 4602TIP3   OH213811   5.726   2.805   0.555 -0.1438 -0.3960 -0.3871
 4602TIP3    H113812   5.791   2.778   0.491 -0.1415 -2.8895  0.5618
 4602TIP3    H213813   5.643   2.775   0.518 -0.2034 -1.3524  0.4965
 4603TIP3   OH213814   4.479   0.932   3.428  0.1036  0.1885  0.0912
 4603TIP3    H113815   4.573   0.924   3.443 -0.0373  1.0044  1.6328
 4603TIP3    H213816   4.439   0.894   3.506 -0.7365  3.4172  1.3979
 4604TIP3   OH213817   4.105   0.451   4.908 -0.3144 -0.0730  0.1744
 4604TIP3    H113818   4.103   0.434   5.002 -1.0114  0.8738  0.3536
 4604TIP3    H213819   4.072   0.541   4.900  1.9545  0.7527 -0.7686
 4605TIP3   OH213820   0.786   2.397   2.360  0.3140  0.2273 -0.2560
 4605TIP3    H113821   0.737   2.337   2.303  2.3024 -0.3622 -1.4275
 4605TIP3    H213822   0.793   2.477   2.310  3.2955 -0.7428 -1.5855
 4606TIP3   OH213823   1.019   2.647   0.914  0.3379 -0.1291 -0.2206
 4606TIP3    H113824   0.986   2.558   0.904  0.3866  0.0003 -1.8254
 4606TIP3    H213825   1.114   2.637   0.920  0.3547 -0.1777 -0.5623
 4607TIP3   OH213826   5.766   3.553   3.923  0.2057 -0.1665  0.2532
 4607TIP3    H113827   5.738   3.630   3.972 -0.0811  1.0202 -1.6749
 4607TIP3    H213828   5.862   3.559   3.922  0.1594  0.9140 -0.9350
 4608TIP3   OH213829   2.916   1.697   1.822  0.2103 -0.3969  0.5089
 4608TIP3    H113830   2.952   1.651   1.899 -1.2212 -0.3814  1.2089
 4608TIP3    H213831   2.848   1.754   1.858 -1.8472 -1.8076 -0.9337
 4609TIP3   OH213832   1.388   2.179   2.670 -0.2064  0.1012 -0.5525
 4609TIP3    H113833   1.362   2.263   2.631  0.0971  0.8725  0.8465
 4609TIP3    H213834   1.305   2.133   2.685 -0.6735  1.4864  1.5469
 4610TIP3   OH213835   0.796   5.050   2.936  0.2468  0.3999  0.2158
 4610TIP3    H113836   0.758   5.072   2.852  1.9789  0.9312 -0.4859
 4610TIP3    H213837   0.764   4.962   2.955  1.7120 -0.7570 -2.2151
 4611TIP3   OH213838   2.789   3.752   0.743 -0.3303 -0.1298  0.1165
 4611TIP3    H113839   2.745   3.803   0.812  0.3305  0.0555  0.4030
 4611TIP3    H213840   2.814   3.818   0.678  1.5254  0.0969  1.0064
 4612TIP3   OH213841   0.874   0.599   4.219  0.4744 -0.4144 -0.6063
 4612TIP3    H113842   0.926   0.569   4.294 -0.1381 -1.0269 -0.4146
 4612TIP3    H213843   0.937   0.607   4.148  1.0268 -0.0226 -0.0752
 4613TIP3   OH213844   1.512   2.380   2.299 -0.2951  0.2422 -0.2424
 4613TIP3    H113845   1.445   2.385   2.368 -0.7171  0.1159 -0.6377
 4613TIP3    H213846   1.470   2.331   2.228  0.3223 -0.0890 -0.3833
 4614TIP3   OH213847   0.378   0.353   2.793  0.6519  0.1816  0.6883
 4614TIP3    H113848   0.348   0.404   2.869  1.4258  0.0582  1.0851
 4614TIP3    H213849   0.471   0.339   2.809  1.6239  2.7890 -1.7781
 4615TIP3   OH213850   5.001   3.662   3.007 -0.0220 -0.1954 -0.2823
 4615TIP3    H113851   4.973   3.603   3.077  0.0801  0.7845  0.6022
 4615TIP3    H213852   5.044   3.735   3.052  0.7642  0.0751 -1.4111
 4616TIP3   OH213853   2.660   2.434   0.628  0.2217  0.1476  0.1761
 4616TIP3    H113854   2.623   2.511   0.585 -0.4694  0.1190  0.6873
 4616TIP3    H213855   2.639   2.447   0.721 -0.6075 -1.0274  0.1741
 4617TIP3   OH213856   5.293   5.412   2.571 -0.1706 -0.1846 -0.2463
 4617TIP3    H113857   5.358   5.407   2.641 -0.0957 -1.3345 -0.3852
 4617TIP3    H213858   5.345   5.408   2.491 -0.3412 -0.0432 -0.3626
 4618TIP3   OH213859   0.002   5.779   1.208 -0.5110  0.1751  0.0828
 4618TIP3    H113860   0.034   5.715   1.145  0.1265 -0.6771  1.2484
 4618TIP3    H213861  -0.021   5.727   1.285  0.0748  1.3491  1.0716
 4619TIP3   OH213862   0.068   4.798   2.749 -0.0047 -0.7563  0.3647
 4619TIP3    H113863   0.113   4.730   2.699 -0.7648 -2.1503  1.5354
 4619TIP3    H213864  -0.021   4.766   2.760 -0.8359  1.1298 -0.3417
 4620TIP3   OH213865   1.774   0.253   4.416 -0.2280 -0.4666  0.2788
 4620TIP3    H113866   1.801   0.172   4.460 -0.6031  0.1195  1.6138
 4620TIP3    H213867   1.725   0.302   4.482 -0.7573  0.4740 -0.7761
 4621TIP3   OH213868   0.436   5.526   0.358  0.0988 -0.4755  0.2894
 4621TIP3    H113869   0.405   5.614   0.336 -0.1422 -0.3765  0.9804
 4621TIP3    H213870   0.427   5.476   0.277  0.5703  0.2250 -0.2101
 4622TIP3   OH213871   3.344   3.740   2.303  0.2687  0.0433  0.3597
 4622TIP3    H113872   3.413   3.775   2.246 -0.2946  0.9058  0.1996
 4622TIP3    H213873   3.392   3.706   2.379  1.1723 -2.3787 -1.1525
 4623TIP3   OH213874   4.517   5.592   2.102 -0.3771  0.3758 -0.8157
 4623TIP3    H113875   4.426   5.587   2.131  0.1284 -2.9513  0.6019
 4623TIP3    H213876   4.512   5.610   2.008 -2.5665 -0.9160 -1.0127
 4624TIP3   OH213877   5.897   2.489   1.629 -0.2132  0.2728 -0.1596
 4624TIP3    H113878   5.935   2.489   1.541  1.7604  3.6554  0.5072
 4624TIP3    H213879   5.816   2.538   1.620 -0.8237 -0.7558 -0.3417
 4625TIP3   OH213880   4.630   2.193   2.458  0.4892  0.3337  0.8609
 4625TIP3    H113881   4.605   2.114   2.410 -0.3693  0.9441  0.2766
 4625TIP3    H213882   4.555   2.212   2.514  0.1854  1.3867  0.1317
 4626TIP3   OH213883   2.801   2.030   3.199 -0.1824 -0.4089 -0.4278
 4626TIP3    H113884   2.794   1.996   3.289 -1.3332  1.3351  0.2040
 4626TIP3    H213885   2.894   2.025   3.178  0.0503 -1.2341  0.6990
 4627TIP3   OH213886   2.303   3.742   0.763 -0.4233  0.3933 -0.2171
 4627TIP3    H113887   2.207   3.744   0.765 -0.4534  0.8776  2.7287
 4627TIP3    H213888   2.329   3.831   0.786  0.6803 -0.1308  0.6500
 4628TIP3   OH213889   4.790   1.063   1.232 -0.0098 -0.0169  0.4200
 4628TIP3    H113890   4.837   1.101   1.157 -0.3860  1.6088  0.9574
 4628TIP3    H213891   4.856   1.008   1.275  0.6079  0.0948 -0.3477
 4629TIP3   OH213892   1.230   4.520   0.422 -0.5605  0.4017 -0.2575
 4629TIP3    H113893   1.234   4.495   0.514 -1.2873  0.0235 -0.3234
 4629TIP3    H213894   1.196   4.609   0.423 -0.4340  0.4483 -0.1504
 4630TIP3   OH213895   3.853   4.428   4.260 -0.2517  0.1425 -0.1510
 4630TIP3    H113896   3.759   4.409   4.252 -0.4025  0.8132 -0.0553
 4630TIP3    H213897   3.859   4.489   4.334  0.5137 -1.6463  1.3339
 4631TIP3   OH213898   2.588   3.927   3.065 -0.6517  0.6189 -0.2976
 4631TIP3    H113899   2.504   3.890   3.092 -0.6716  1.3917  0.7666
 4631TIP3    H213900   2.574   3.958   2.976 -0.1781 -3.3279 -1.9748
 4632TIP3   OH213901   0.911   0.329   3.389  0.0491 -0.2570  0.1247
 4632TIP3    H113902   0.911   0.281   3.472 -0.1404 -0.7383 -0.1501
 4632TIP3    H213903   0.858   0.407   3.406  0.2941 -0.1776  0.5528
 4633TIP3   OH213904   0.094   2.925   4.222  0.3348 -0.0884 -0.7284
 4633TIP3    H113905   0.114   2.863   4.291  1.8902  1.7605  0.5858
 4633TIP3    H213906   0.175   2.935   4.173 -0.5293 -0.7724 -2.3793
 4634TIP3   OH213907   1.914   2.645   3.011  0.2224 -0.3878 -0.4916
 4634TIP3    H113908   1.995   2.623   3.058 -0.0970  2.0728  1.4507
 4634TIP3    H213909   1.943   2.690   2.932  0.7845 -0.0753 -0.1152
 4635TIP3   OH213910   2.763   0.896   0.648  0.5609 -0.0890  0.3374
 4635TIP3    H113911   2.696   0.871   0.711 -0.3669  0.5594 -0.3838
 4635TIP3    H213912   2.791   0.983   0.675  1.7581 -0.6815  1.1421
 4636TIP3   OH213913   2.703   2.300   2.986  0.2357  0.0293  0.3101
 4636TIP3    H113914   2.795   2.279   2.999 -0.0036  0.1094  2.5075
 4636TIP3    H213915   2.671   2.232   2.926  1.1117 -1.6966  1.7028
 4637TIP3   OH213916   4.122   1.368   3.659  0.0949  0.4384  0.2681
 4637TIP3    H113917   4.049   1.425   3.682 -0.7747 -0.5447  0.0359
 4637TIP3    H213918   4.164   1.347   3.743 -0.2912  0.4844  0.4745
 4638TIP3   OH213919   1.063   0.939   0.584 -0.3774 -0.4165 -0.4090
 4638TIP3    H113920   1.144   0.980   0.612 -0.5342  0.4962 -1.2174
 4638TIP3    H213921   1.012   1.010   0.546 -2.4387 -0.5393  1.8680
 4639TIP3   OH213922   3.035   3.758   1.120  0.5720  0.5020 -0.1528
 4639TIP3    H113923   3.016   3.793   1.033 -1.5276  0.2052  0.1393
 4639TIP3    H213924   2.998   3.669   1.119  0.8785  0.3478  0.9100
 4640TIP3   OH213925   2.625   0.671   0.217 -0.1761  0.4820  0.1497
 4640TIP3    H113926   2.573   0.608   0.167 -0.9920  0.9905  0.3491
 4640TIP3    H213927   2.666   0.618   0.286 -1.5693  0.3017  0.8681
 4641TIP3   OH213928   5.942   2.139   3.327 -0.4744 -0.6749  0.2343
 4641TIP3    H113929   5.992   2.164   3.404 -0.8540  1.8009 -0.2588
 4641TIP3    H213930   5.992   2.068   3.288  1.4860  0.2578  0.9540
 4642TIP3   OH213931   0.305   2.633   0.679  0.3287 -0.1129  0.9168
 4642TIP3    H113932   0.348   2.552   0.707  0.4237  0.4747  2.6298
 4642TIP3    H213933   0.355   2.662   0.604  1.5843 -0.5844  1.5398
 4643TIP3   OH213934   3.770   0.945   2.900 -0.1501  0.0677 -0.1259
 4643TIP3    H113935   3.744   1.023   2.949 -0.8576 -0.6327  0.6444
 4643TIP3    H213936   3.864   0.954   2.887 -0.0969  0.6621  0.6485
 4644TIP3   OH213937   2.007   2.284   1.955 -1.0787 -0.1844 -0.0303
 4644TIP3    H113938   2.102   2.291   1.945 -1.0240 -0.4761  0.2603
 4644TIP3    H213939   1.989   2.190   1.949 -1.1437 -0.3117  1.5680
 4645TIP3   OH213940   3.850   3.964   4.779 -0.3247  0.8692 -0.0716
 4645TIP3    H113941   3.934   3.983   4.738 -0.6690  0.4996 -0.9675
 4645TIP3    H213942   3.786   4.010   4.724 -0.8883 -0.4557 -0.5643
 4646TIP3   OH213943   5.791   3.722   4.943  0.1516 -0.4521 -0.5354
 4646TIP3    H113944   5.766   3.720   5.035 -1.8356  2.6760 -0.8445
 4646TIP3    H213945   5.881   3.754   4.943 -0.4131  1.2506  0.3294
 4647TIP3   OH213946   2.300   1.895   0.786  0.0196  0.2079  0.1690
 4647TIP3    H113947   2.225   1.910   0.729  0.5856  2.9149  0.0083
 4647TIP3    H213948   2.353   1.829   0.740 -1.5295 -0.7167 -0.3575
 4648TIP3   OH213949   4.400   4.338   3.236 -0.0398  0.0812 -0.3753
 4648TIP3    H113950   4.455   4.413   3.212 -3.0641  2.0413 -1.6676
 4648TIP3    H213951   4.399   4.284   3.157 -1.7442  1.2809 -1.2452
 4649TIP3   OH213952   2.454   5.592   4.803  0.2016  0.3286 -0.1768
 4649TIP3    H113953   2.409   5.509   4.793  0.4313  0.4367 -2.5512
 4649TIP3    H213954   2.386   5.653   4.833 -0.6508 -0.0920 -1.1982
 4650TIP3   OH213955   2.837   3.182   1.423 -0.3016 -0.1895 -0.2130
 4650TIP3    H113956   2.922   3.160   1.460 -1.3066 -2.2088  1.1132
 4650TIP3    H213957   2.812   3.264   1.467 -0.9116 -1.8723  2.9202
 4651TIP3   OH213958   3.041   1.433   4.702  0.1490  0.2966 -0.0323
 4651TIP3    H113959   3.080   1.511   4.662  1.3702 -0.6808 -0.8264
 4651TIP3    H213960   3.058   1.363   4.638 -0.1089 -0.8047  1.0722
 4652TIP3   OH213961   6.250   0.988   3.838  0.6978 -0.1014 -0.3666
 4652TIP3    H113962   6.176   0.932   3.814  0.2959 -0.1999  1.0171
 4652TIP3    H213963   6.234   1.071   3.794  0.0834 -0.3237 -0.5614
 4653TIP3   OH213964   0.432   0.403   4.146 -0.1893  0.3108 -0.3527
 4653TIP3    H113965   0.362   0.429   4.205 -1.1165  1.7989 -2.0426
 4653TIP3    H213966   0.490   0.350   4.201  0.4597  3.7567  2.6933
 4654TIP3   OH213967   2.513   3.446   4.227 -0.0453  0.3980  0.2479
 4654TIP3    H113968   2.541   3.444   4.318  2.1475  0.9252 -0.3534
 4654TIP3    H213969   2.588   3.410   4.178 -0.5271  1.6008 -1.4709
 4655TIP3   OH213970   1.772   0.724   0.574  0.0508  0.1995  0.0813
 4655TIP3    H113971   1.780   0.745   0.481  1.0850 -0.5919 -0.0213
 4655TIP3    H213972   1.813   0.638   0.583  0.8431  0.6975  1.4456
 4656TIP3   OH213973   5.984   5.126   0.095  0.1070 -0.0306 -0.5811
 4656TIP3    H113974   6.061   5.071   0.106  1.7230  2.3599  1.2983
 4656TIP3    H213975   5.923   5.098   0.163  0.8832  0.4015  0.3080
 4657TIP3   OH213976   6.357   0.876   3.082 -0.1124 -0.2846  0.1975
 4657TIP3    H113977   6.270   0.874   3.121 -0.4191 -1.7368 -0.5146
 4657TIP3    H213978   6.342   0.905   2.992  0.3269  0.8085  0.4553
 4658TIP3   OH213979   6.123   5.029   1.725  0.8008 -0.0444  0.7567
 4658TIP3    H113980   6.057   4.969   1.758 -2.1798  2.8656  0.5774
 4658TIP3    H213981   6.100   5.042   1.633  2.5703 -0.0354  0.2727
 4659TIP3   OH213982   0.627   5.604   1.461 -0.5877 -0.4017  0.3068
 4659TIP3    H113983   0.551   5.575   1.512 -0.0789 -0.9373  0.7780
 4659TIP3    H213984   0.701   5.558   1.501 -0.1868 -0.8998 -0.9897
 4660TIP3   OH213985   3.273   1.268   2.835  0.5538  0.3652 -0.5810
 4660TIP3    H113986   3.244   1.359   2.836 -0.5333  0.0484 -1.2860
 4660TIP3    H213987   3.344   1.266   2.771  0.6312  0.7285 -0.5105
 4661TIP3   OH213988   0.337   4.886   0.457  0.3286  0.9972  0.0484
 4661TIP3    H113989   0.276   4.893   0.383  2.9601  2.5443 -2.1792
 4661TIP3    H213990   0.326   4.969   0.504 -1.9784 -0.3403  2.0985
 4662TIP3   OH213991   2.616   2.984   0.964 -0.0881  0.4268  0.3803
 4662TIP3    H113992   2.624   3.022   1.052 -0.1039  0.2885  0.4412
 4662TIP3    H213993   2.525   3.002   0.940 -0.3341 -0.2969  0.7453
 4663TIP3   OH213994   4.216   5.579   2.191 -0.1354  0.3652  0.2060
 4663TIP3    H113995   4.180   5.609   2.274 -0.3829 -1.6685  0.8898
 4663TIP3    H213996   4.142   5.582   2.130 -0.1143  1.2129  0.2059
 4664TIP3   OH213997   5.508   2.587   4.191  0.2740 -0.2205 -0.2320
 4664TIP3    H113998   5.601   2.609   4.185 -0.0179  0.9242 -0.6794
 4664TIP3    H213999   5.507   2.497   4.224  1.5869 -1.0065 -2.1800
 4665TIP3   OH214000   0.383   1.685   1.086  0.6880 -0.1791 -0.7999
 4665TIP3    H114001   0.335   1.612   1.125 -0.4423  1.2372  0.5747
 4665TIP3    H214002   0.458   1.698   1.143 -0.3107  1.1098  0.2877
 4666TIP3   OH214003   0.319   4.785   4.448 -0.5195 -0.5303  0.5181
 4666TIP3    H114004   0.309   4.702   4.401 -1.4516 -0.7934  1.1705
 4666TIP3    H214005   0.357   4.761   4.532 -1.7710 -0.4517  1.1358
 4667TIP3   OH214006   1.190   4.959   0.795  0.3219 -0.2193  0.1938
 4667TIP3    H114007   1.159   4.873   0.766 -1.9011  1.3946 -2.7684
 4667TIP3    H214008   1.120   4.993   0.850 -0.3780  0.9066 -1.3090
 4668TIP3   OH214009   2.697   4.776   2.276 -0.8679  0.4622  0.0971
 4668TIP3    H114010   2.789   4.780   2.301 -0.4343  0.6702 -1.3886
 4668TIP3    H214011   2.649   4.760   2.358  0.4811  0.3434  0.8821
 4669TIP3   OH214012   1.655   3.968   4.629 -0.3470 -0.3479  0.4148
 4669TIP3    H114013   1.694   3.980   4.715  0.3672  4.0358 -0.2970
 4669TIP3    H214014   1.681   3.880   4.603  1.7029 -0.8255  3.5303
 4670TIP3   OH214015   5.220   3.087   3.677  0.0369 -0.3015 -0.2952
 4670TIP3    H114016   5.240   3.029   3.750  0.0800  1.1176  0.8492
 4670TIP3    H214017   5.267   3.168   3.696 -3.6944  1.8670  0.6456
 4671TIP3   OH214018   5.771   1.272   2.914 -0.2584 -0.1631  0.4465
 4671TIP3    H114019   5.849   1.295   2.864 -1.0763 -1.0264 -1.3273
 4671TIP3    H214020   5.763   1.341   2.980  1.9730 -0.0721  0.6948
 4672TIP3   OH214021   5.400   3.625   4.025  0.0975  0.1457  0.1046
 4672TIP3    H114022   5.435   3.627   3.936  0.1039 -0.1398  0.0988
 4672TIP3    H214023   5.358   3.710   4.037 -2.6320 -0.8826 -1.2600
 4673TIP3   OH214024   2.441   4.601   2.883  0.4963 -0.5060 -0.4353
 4673TIP3    H114025   2.371   4.666   2.887  0.7801 -0.2535  2.4212
 4673TIP3    H214026   2.405   4.524   2.927  1.4139 -0.9857 -0.4982
 4674TIP3   OH214027   1.669   0.217   0.764  0.0290 -0.0502 -0.0607
 4674TIP3    H114028   1.759   0.231   0.795 -1.0825  0.1108  3.5997
 4674TIP3    H214029   1.622   0.186   0.841 -3.1846  0.2609 -1.7211
 4675TIP3   OH214030   2.840   1.663   4.302  0.3171  0.1034  0.4626
 4675TIP3    H114031   2.926   1.620   4.307 -0.2124 -1.0430 -0.0445
 4675TIP3    H214032   2.795   1.619   4.230  0.3727  2.6574 -1.2792
 4676TIP3   OH214033   1.744   4.815   2.526 -0.0715  0.1267 -0.0793
 4676TIP3    H114034   1.772   4.817   2.618 -1.5583 -0.8719  0.4273
 4676TIP3    H214035   1.660   4.770   2.528 -0.8359  1.4120 -1.7673
 4677TIP3   OH214036   3.675   2.149   3.185 -0.8231 -0.1437  0.9901
 4677TIP3    H114037   3.640   2.076   3.134  1.0132 -1.1460  1.0622
 4677TIP3    H214038   3.649   2.227   3.137 -1.5055 -0.9225  0.0540
 4678TIP3   OH214039   1.980   4.361   4.801 -0.1692 -0.0177 -0.2536
 4678TIP3    H114040   1.905   4.311   4.835  0.3918 -1.1001 -0.5805
 4678TIP3    H214041   2.054   4.333   4.854  0.3005 -0.1054 -0.9442
 4679TIP3   OH214042   3.782   5.503   2.558 -0.3646  0.5815 -0.4557
 4679TIP3    H114043   3.861   5.492   2.610 -0.4623  0.4741 -0.3289
 4679TIP3    H214044   3.743   5.585   2.590 -0.5360  0.4064 -0.2111
 4680TIP3   OH214045   5.984   0.098   0.668  0.3327 -0.0525 -0.0880
 4680TIP3    H114046   5.950   0.156   0.736  2.7245  0.8929  0.3958
 4680TIP3    H214047   6.053   0.149   0.625  0.0620 -1.2707 -2.0798
 4681TIP3   OH214048   0.772   2.915   3.986  0.7377 -0.5689  0.4551
 4681TIP3    H114049   0.723   2.940   4.064  2.9093 -1.7801  2.3205
 4681TIP3    H214050   0.863   2.931   4.008  1.3565  0.8560 -2.5942
 4682TIP3   OH214051   2.325   1.944   3.164  0.3343 -0.3560 -0.0124
 4682TIP3    H114052   2.352   1.924   3.254  0.5037 -0.1773 -0.0228
 4682TIP3    H214053   2.405   1.972   3.121 -0.0545  1.3187  0.2699
 4683TIP3   OH214054   4.828   0.223   3.987 -0.1729  0.2273 -0.1427
 4683TIP3    H114055   4.776   0.234   3.907  0.3350  0.1224 -0.4924
 4683TIP3    H214056   4.764   0.202   4.054 -0.5029 -0.6925 -0.7284
 4684TIP3   OH214057   4.685   4.408   0.737 -0.1640 -0.2949 -0.0261
 4684TIP3    H114058   4.652   4.447   0.818  0.7143 -1.1213  0.7556
 4684TIP3    H214059   4.746   4.473   0.703 -0.2430 -0.1066  0.1855
 4685TIP3   OH214060   4.373   0.432   0.965  0.0307  0.4743  0.7767
 4685TIP3    H114061   4.386   0.524   0.945 -1.4971  0.6084  0.3349
 4685TIP3    H214062   4.460   0.393   0.954  0.5003  1.6764  0.0252
 4686TIP3   OH214063   1.359   5.323   0.279  0.3077  0.6752  0.2374
 4686TIP3    H114064   1.290   5.365   0.227 -0.5550 -0.1339  0.6990
 4686TIP3    H214065   1.429   5.305   0.217 -1.1079 -1.2026 -0.9014
 4687TIP3   OH214066   3.155   1.852   1.979 -0.0506  0.4741 -0.3075
 4687TIP3    H114067   3.170   1.764   2.011  1.2646  0.4803 -0.8724
 4687TIP3    H214068   3.197   1.855   1.893 -0.8370  1.3859 -0.6866
 4688TIP3   OH214069   5.319   4.414   1.012  0.0822 -0.0635  0.2076
 4688TIP3    H114070   5.262   4.349   0.970  0.3358 -0.4433  0.4366
 4688TIP3    H214071   5.262   4.488   1.031 -0.2859 -0.3468  0.2231
 4689TIP3   OH214072   2.434   4.127   1.792 -1.0122 -0.4540 -0.4707
 4689TIP3    H114073   2.472   4.210   1.822  1.1754 -1.9277  1.0433
 4689TIP3    H214074   2.387   4.151   1.712 -2.0291  2.5605  0.8483
 4690TIP3   OH214075   5.271   3.850   4.124 -0.1615 -0.0528 -0.1914
 4690TIP3    H114076   5.325   3.895   4.189  0.5955 -0.5155 -0.4857
 4690TIP3    H214077   5.207   3.801   4.175 -0.5248  0.7585  0.1553
 4691TIP3   OH214078   4.336   1.878   1.475  0.6385  0.3187  0.6737
 4691TIP3    H114079   4.337   1.793   1.430  2.6707  2.1442 -3.2504
 4691TIP3    H214080   4.258   1.922   1.441  0.7057  0.7708  1.0998
 4692TIP3   OH214081   0.105   2.251   1.112  0.2357 -0.2166 -0.3896
 4692TIP3    H114082   0.031   2.199   1.080  0.7397 -1.3255  0.2161
 4692TIP3    H214083   0.114   2.228   1.204 -0.1137  1.6714  0.1638
 4693TIP3   OH214084   2.495   3.731   1.591  0.2310  0.1565 -0.1323
 4693TIP3    H114085   2.414   3.778   1.572  0.7408  1.1074  0.0130
 4693TIP3    H214086   2.506   3.672   1.516 -0.5872  0.0142 -0.1541
 4694TIP3   OH214087   6.254   2.801   2.831  0.5511  0.6714  0.4977
 4694TIP3    H114088   6.293   2.887   2.813 -0.1010  0.8248 -0.2236
 4694TIP3    H214089   6.196   2.817   2.906  0.5545  0.8246  0.4680
 4695TIP3   OH214090   3.497   5.679   1.345  0.8484  0.8184  0.5583
 4695TIP3    H114091   3.561   5.609   1.358 -0.6687 -0.6851  0.2423
 4695TIP3    H214092   3.431   5.665   1.412  1.3445  3.0494  1.6322
 4696TIP3   OH214093   0.962   2.493   0.421 -0.6332 -0.1131  0.0392
 4696TIP3    H114094   0.998   2.412   0.458  0.2368  0.1620 -0.1873
 4696TIP3    H214095   0.951   2.474   0.328  1.8168  0.7405 -0.5140
 4697TIP3   OH214096   0.636   2.361   1.961  0.0312 -1.1123  0.0828
 4697TIP3    H114097   0.653   2.291   2.023  0.2272 -0.0953  1.2293
 4697TIP3    H214098   0.582   2.424   2.010 -0.2993 -0.5483 -0.9631
 4698TIP3   OH214099   2.147   4.942   1.668  0.0342  0.3859  0.8532
 4698TIP3    H114100   2.163   5.022   1.617 -0.1263  1.0088  1.7541
 4698TIP3    H214101   2.176   4.964   1.757  0.8815 -0.8744  0.9186
 4699TIP3   OH214102   5.822   2.165   0.584 -0.0110  0.2473  0.2028
 4699TIP3    H114103   5.823   2.104   0.510 -0.2919 -0.5049  0.7979
 4699TIP3    H214104   5.731   2.164   0.615  0.1275  0.4519  0.6344
 4700TIP3   OH214105   4.864   5.530   4.763 -0.3520 -0.1036 -0.4735
 4700TIP3    H114106   4.865   5.437   4.742 -0.8220 -0.0630 -0.6844
 4700TIP3    H214107   4.951   5.548   4.799 -0.3415 -0.6731 -0.2162
 4701TIP3   OH214108   1.883   4.976   3.989  0.0707 -0.3306 -0.1618
 4701TIP3    H114109   1.815   4.967   3.922  0.1324 -1.2978 -0.1170
 4701TIP3    H214110   1.920   4.888   3.996  1.2551  0.1576 -0.1076
 4702TIP3   OH214111   0.733   3.346   4.058 -0.3498  0.3459  0.3036
 4702TIP3    H114112   0.806   3.313   4.109  1.1000  1.3821 -1.0162
 4702TIP3    H214113   0.664   3.281   4.070  1.1724 -1.2720  0.6334
 4703TIP3   OH214114   2.096   3.830   4.563  0.0117  0.3836 -0.4359
 4703TIP3    H114115   2.127   3.907   4.516 -0.9454  0.1998 -1.4267
 4703TIP3    H214116   2.060   3.864   4.644  0.3735  0.8771 -0.4780
 4704TIP3   OH214117   4.662   4.156   2.295  0.0933  0.2769  0.1920
 4704TIP3    H114118   4.669   4.175   2.201  0.4162  0.8827  0.3293
 4704TIP3    H214119   4.587   4.098   2.303  0.3086 -0.0977 -0.4895
 4705TIP3   OH214120   2.194   4.042   3.878 -0.5256  0.4363 -0.4606
 4705TIP3    H114121   2.258   4.112   3.873 -0.5116  0.3723 -1.2150
 4705TIP3    H214122   2.181   4.013   3.788  0.1099 -1.1044 -0.0981
 4706TIP3   OH214123   5.984   5.848   2.775  0.0277  0.1755 -0.6052
 4706TIP3    H114124   5.937   5.893   2.704  0.9150  1.0771 -0.6407
 4706TIP3    H214125   5.917   5.793   2.817 -0.3869 -0.8447 -2.4969
 4707TIP3   OH214126   5.701   5.025   2.250  0.2259  0.0165  0.2872
 4707TIP3    H114127   5.739   5.113   2.255  0.6306 -0.1655  0.3694
 4707TIP3    H214128   5.687   5.011   2.156 -0.5463  0.4715  0.3274
 4708TIP3   OH214129   4.557   1.457   0.336  0.7846 -0.1282  0.1836
 4708TIP3    H114130   4.479   1.436   0.388 -0.1687  0.1168 -1.1073
 4708TIP3    H214131   4.559   1.390   0.268  1.8582 -0.2747  0.3368
 4709TIP3   OH214132   3.355   0.640   0.567  0.1718  0.4715 -0.1647
 4709TIP3    H114133   3.332   0.729   0.542 -0.0265  0.5195  0.1736
 4709TIP3    H214134   3.445   0.647   0.598 -0.0058  0.6525  0.3269
 4710TIP3   OH214135   5.955   2.710   3.581  0.3832  0.2504  0.2399
 4710TIP3    H114136   6.027   2.773   3.577  0.9156 -0.3985 -1.4713
 4710TIP3    H214137   5.995   2.627   3.557 -0.9086 -0.1339 -0.7129
 4711TIP3   OH214138   0.407   1.638   2.102  0.1733  0.4608  0.6498
 4711TIP3    H114139   0.346   1.707   2.076  1.0169  0.7933 -0.4911
 4711TIP3    H214140   0.492   1.681   2.107  0.4464 -0.1548  1.5385
 4712TIP3   OH214141   0.240   4.115   4.997  0.1328  0.3354 -0.0070
 4712TIP3    H114142   0.330   4.137   4.974  0.3763 -1.0196 -0.4337
 4712TIP3    H214143   0.248   4.047   5.065 -0.5430 -0.2424 -0.4863
 4713TIP3   OH214144   0.458   0.729   3.279  0.0750  0.7010 -0.2794
 4713TIP3    H114145   0.499   0.688   3.203  2.4228 -1.4996  1.9775
 4713TIP3    H214146   0.379   0.678   3.295  0.4974  0.0400 -0.2632
 4714TIP3   OH214147   5.075   2.743   2.874 -0.4383 -0.1216  0.2585
 4714TIP3    H114148   5.156   2.693   2.864  0.1304  0.5094  1.4756
 4714TIP3    H214149   5.084   2.785   2.960 -1.1642  1.5618 -0.4592
 4715TIP3   OH214150   0.057   3.565   2.650 -0.2990  0.2842 -0.2825
 4715TIP3    H114151   0.004   3.527   2.580 -0.7307 -2.7176  1.4910
 4715TIP3    H214152   0.022   3.654   2.661 -2.6946 -0.4208 -1.4339
 4716TIP3   OH214153   1.172   0.691   0.538 -0.0886  0.2578 -0.4006
 4716TIP3    H114154   1.111   0.765   0.542 -0.8151 -0.2864 -1.0874
 4716TIP3    H214155   1.220   0.694   0.621 -1.9861 -0.0960  0.7559
 4717TIP3   OH214156   3.133   0.586   5.104 -0.0060  0.9364  0.2870
 4717TIP3    H114157   3.166   0.611   5.017  1.3810  0.2992  0.5906
 4717TIP3    H214158   3.212   0.558   5.151 -1.0723 -1.3306  0.8536
 4718TIP3   OH214159   5.004   1.742   0.614  0.2278  0.5194 -0.6842
 4718TIP3    H114160   4.998   1.803   0.541 -1.1938  0.4952 -0.6171
 4718TIP3    H214161   4.916   1.743   0.653  0.4763 -0.7729 -0.0473
 4719TIP3   OH214162   0.746   5.420   1.801 -0.1510  0.3722 -0.7856
 4719TIP3    H114163   0.671   5.474   1.824 -0.6296 -0.5236 -0.1838
 4719TIP3    H214164   0.708   5.346   1.752 -0.0250 -1.3311  1.5054
 4720TIP3   OH214165   6.096   2.317   3.875  0.7518  0.3794 -0.0769
 4720TIP3    H114166   6.038   2.248   3.908  1.6461  0.1273  1.0346
 4720TIP3    H214167   6.165   2.269   3.828  0.8476  0.5827 -0.1442
 4721TIP3   OH214168   4.013   4.586   1.145  0.3396  1.0617 -0.0479
 4721TIP3    H114169   3.955   4.614   1.216 -0.3313  2.1805 -1.0020
 4721TIP3    H214170   3.993   4.494   1.133 -0.8897  1.3022 -0.0040
 4722TIP3   OH214171   0.040   4.606   3.330 -0.3017 -0.3447  0.1604
 4722TIP3    H114172   0.113   4.589   3.269 -0.2938 -0.2689  0.1482
 4722TIP3    H214173   0.021   4.699   3.318 -0.6975 -0.4624 -0.1624
 4723TIP3   OH214174   1.160   0.807   2.190  0.6637 -0.0705  0.2839
 4723TIP3    H114175   1.071   0.838   2.176  1.0242 -0.2444 -3.4499
 4723TIP3    H214176   1.173   0.811   2.285 -3.0166  0.6365  0.8868
 4724TIP3   OH214177   1.405   1.877   3.691 -0.5912  0.8876 -0.0387
 4724TIP3    H114178   1.324   1.892   3.740 -0.8569  0.6866 -0.4080
 4724TIP3    H214179   1.388   1.912   3.604 -0.6522 -0.0632 -0.4269
 4725TIP3   OH214180   1.045   5.036   2.802  0.4897 -0.0772 -0.3061
 4725TIP3    H114181   1.043   4.979   2.725  0.6004 -2.2674  1.2013
 4725TIP3    H214182   0.963   5.018   2.848  0.6440  0.8088  0.3471
 4726TIP3   OH214183   2.993   1.633   2.186  0.4554  0.2620 -0.2409
 4726TIP3    H114184   3.068   1.586   2.150  0.7587 -0.4708  1.2895
 4726TIP3    H214185   2.975   1.590   2.269  0.6906  2.7678  1.2065
 4727TIP3   OH214186   3.299   1.002   2.609  0.3072  0.1571  0.2570
 4727TIP3    H114187   3.278   1.079   2.556  1.2275  0.0890 -0.2213
 4727TIP3    H214188   3.394   1.005   2.619  0.3920 -1.0573 -0.0045
 4728TIP3   OH214189   3.784   1.574   2.308 -0.4964 -0.0165  0.0072
 4728TIP3    H114190   3.817   1.657   2.272 -2.6416  0.0716 -1.9806
 4728TIP3    H214191   3.812   1.508   2.245  0.0209 -0.6574  0.8753
 4729TIP3   OH214192   3.031   2.091   3.651 -0.6192  0.1502 -0.4664
 4729TIP3    H114193   2.999   2.041   3.726 -0.2902  0.8431  0.1566
 4729TIP3    H214194   3.126   2.077   3.652 -0.4538  1.1874  0.0395
 4730TIP3   OH214195   4.344   4.817   4.670  0.2916  0.2390 -0.3652
 4730TIP3    H114196   4.286   4.891   4.648  0.1951 -0.2344 -1.8366
 4730TIP3    H214197   4.402   4.810   4.594  1.1006 -0.4344  0.3032
 4731TIP3   OH214198   4.638   4.834   1.947 -0.3601  0.2921  0.0338
 4731TIP3    H114199   4.657   4.906   2.006  0.7140 -0.0451  0.1156
 4731TIP3    H214200   4.711   4.773   1.958 -1.0729 -0.6493 -0.2866
 4732TIP3   OH214201   2.413   0.305   3.251 -0.9761  0.4304 -0.1130
 4732TIP3    H114202   2.418   0.380   3.310 -0.4567  0.3918 -0.1074
 4732TIP3    H214203   2.500   0.300   3.211 -0.8734 -0.4268  0.1984
 4733TIP3   OH214204   4.855   4.963   3.207  0.1381  0.8357 -0.4612
 4733TIP3    H114205   4.818   4.990   3.122 -1.2056 -1.8087 -0.8347
 4733TIP3    H214206   4.839   5.037   3.264  0.0241  2.2529 -2.2307
 4734TIP3   OH214207   4.085   5.746   1.161 -0.6977 -0.3979 -0.0872
 4734TIP3    H114208   4.015   5.696   1.120  0.1630 -0.8297 -1.0534
 4734TIP3    H214209   4.163   5.727   1.109 -0.1490  1.2035  0.0903
 4735TIP3   OH214210   6.355   2.582   1.887 -0.6339  0.1174  0.4223
 4735TIP3    H114211   6.320   2.495   1.906 -0.3912  0.0783  0.7005
 4735TIP3    H214212   6.294   2.619   1.823 -0.9606 -0.1008  0.6037
 4736TIP3   OH214213   0.965   2.483   0.166  0.1501 -1.0087 -0.0908
 4736TIP3    H114214   0.900   2.541   0.127  0.5342  0.0532  0.7768
 4736TIP3    H214215   1.046   2.502   0.118  1.1138  1.7360  2.2915
 4737TIP3   OH214216   5.979   1.695   4.880 -0.0774  0.0619 -0.0495
 4737TIP3    H114217   5.998   1.756   4.952  2.8666 -1.6931  0.8550
 4737TIP3    H214218   6.050   1.710   4.817  0.5387 -2.1114  0.0544
 4738TIP3   OH214219   1.192   1.168   5.102  0.0727 -0.1304 -0.0751
 4738TIP3    H114220   1.258   1.099   5.096  0.1452 -0.1495  0.8078
 4738TIP3    H214221   1.216   1.217   5.181 -0.8432 -0.0091  0.1357
 4739TIP3   OH214222   6.314   1.327   4.808  0.2472 -0.0878 -0.2187
 4739TIP3    H114223   6.296   1.247   4.859 -0.6993 -0.1275 -0.6099
 4739TIP3    H214224   6.407   1.320   4.786  0.8724  0.2402  2.0458
 4740TIP3   OH214225   5.208   5.918   4.962  0.3070 -0.2549 -0.5005
 4740TIP3    H114226   5.162   5.863   4.898 -1.0872 -0.4758  0.6280
 4740TIP3    H214227   5.194   5.872   5.045  1.3818  0.4518  0.0802
 4741TIP3   OH214228   2.513   5.277   2.831  0.1732 -0.6942  0.1999
 4741TIP3    H114229   2.591   5.271   2.887  0.4571  0.7744 -0.0118
 4741TIP3    H214230   2.544   5.320   2.751 -1.0264  0.7744  0.4890
 4742TIP3   OH214231   5.419   2.300   2.755 -0.2574  0.0202  0.4599
 4742TIP3    H114232   5.511   2.274   2.754 -0.0904  0.5158 -1.5292
 4742TIP3    H214233   5.391   2.295   2.664 -2.2918 -0.3469  1.0369
 4743TIP3   OH214234   5.954   0.291   2.697 -0.2681 -0.7369 -0.4519
 4743TIP3    H114235   6.002   0.316   2.618 -2.4749 -0.6560 -1.8312
 4743TIP3    H214236   5.999   0.212   2.729  1.0865 -0.3532 -1.3496
 4744TIP3   OH214237   0.280   4.539   1.730 -0.6088  0.8030 -0.1706
 4744TIP3    H114238   0.294   4.632   1.712  0.0257  0.6779 -0.3327
 4744TIP3    H214239   0.349   4.514   1.790 -1.9803  0.9094  1.5259
 4745TIP3   OH214240   1.051   1.142   0.208 -0.1483 -0.0443  0.6373
 4745TIP3    H114241   1.137   1.171   0.177 -1.0253  0.3017 -1.6759
 4745TIP3    H214242   1.041   1.055   0.170 -1.6002  0.7202 -0.8632
 4746TIP3   OH214243   2.773   3.038   0.748  0.5140 -0.3475  0.3108
 4746TIP3    H114244   2.854   3.087   0.757  0.6603 -0.7816  1.7565
 4746TIP3    H214245   2.753   3.009   0.838 -0.4298 -1.5174 -0.2428
 4747TIP3   OH214246   3.466   4.758   3.826  0.2085  0.0810 -0.5435
 4747TIP3    H114247   3.505   4.779   3.910  0.8241 -0.0420 -0.7911
 4747TIP3    H214248   3.372   4.761   3.841  0.3110 -0.4876  0.2901
 4748TIP3   OH214249   0.054   3.326   0.806 -0.2313  0.9281  0.0119
 4748TIP3    H114250   0.126   3.321   0.743 -0.3051  1.8668 -0.1572
 4748TIP3    H214251   0.025   3.235   0.816  1.2143  0.4792  0.3682
 4749TIP3   OH214252   5.190   1.533   0.773 -0.6466 -0.0345 -0.2319
 4749TIP3    H114253   5.199   1.628   0.763  0.0092  0.0776  1.2639
 4749TIP3    H214254   5.103   1.521   0.809 -0.4720  0.0565  0.2253
 4750TIP3   OH214255   4.495   3.035   1.590  0.2296  0.5803 -0.8328
 4750TIP3    H114256   4.576   3.066   1.631 -0.7403 -0.0887  1.8240
 4750TIP3    H214257   4.473   3.102   1.525  1.6612  1.9972  0.0820
 4751TIP3   OH214258   0.529   3.730   2.261 -0.6037 -0.2421  0.4375
 4751TIP3    H114259   0.508   3.772   2.345  0.5915  0.6257  0.3308
 4751TIP3    H214260   0.600   3.783   2.225  0.0658 -1.5896 -0.3276
 4752TIP3   OH214261   6.300   4.259   3.871 -0.2984 -0.1785 -0.3278
 4752TIP3    H114262   6.286   4.188   3.808  0.1865 -1.1156  0.5736
 4752TIP3    H214263   6.313   4.214   3.955  0.6933  0.9360  0.1544
 4753TIP3   OH214264   2.627   1.139   3.484 -0.9851  0.3125  0.4628
 4753TIP3    H114265   2.576   1.199   3.538 -1.0433 -2.0894  3.3501
 4753TIP3    H214266   2.563   1.081   3.444 -0.8260  1.1473 -1.1022
 4754TIP3   OH214267   4.320   2.995   5.022  0.4200 -0.2977 -0.4027
 4754TIP3    H114268   4.381   2.960   5.088  0.7712 -1.7893 -1.4570
 4754TIP3    H214269   4.362   2.974   4.939 -1.0396 -0.4169 -1.1343
 4755TIP3   OH214270   5.125   4.299   0.864 -0.0681 -0.4887  0.0700
 4755TIP3    H114271   5.089   4.280   0.778  0.4530  0.1244 -0.2895
 4755TIP3    H214272   5.116   4.217   0.913  1.9163 -1.6261 -1.3413
 4756TIP3   OH214273   1.537   0.964   3.919 -0.0761  0.0254 -0.2156
 4756TIP3    H114274   1.546   0.964   4.015  0.3378 -1.4835 -0.2421
 4756TIP3    H214275   1.472   0.896   3.901 -1.8458  1.8057 -0.8963
 4757TIP3   OH214276   0.863   4.440   2.310  0.1205 -0.2743 -0.0777
 4757TIP3    H114277   0.919   4.507   2.270  0.7962 -0.6416  0.2321
 4757TIP3    H214278   0.897   4.357   2.275 -0.2595 -0.5007  0.0817
 4758TIP3   OH214279   3.902   0.299   1.966  0.5766 -0.1095  0.0152
 4758TIP3    H114280   3.826   0.305   1.908 -0.0028 -0.3124  0.7441
 4758TIP3    H214281   3.948   0.220   1.937 -0.7492 -1.3044  1.0326
 4759TIP3   OH214282   4.840   2.589   3.211 -0.4149 -0.2767  0.4703
 4759TIP3    H114283   4.757   2.582   3.259 -0.7411  0.1916 -0.0053
 4759TIP3    H214284   4.822   2.654   3.142  0.4000 -0.0411  0.4689
 4760TIP3   OH214285   5.154   3.036   2.947  0.7900 -0.2569 -0.0672
 4760TIP3    H114286   5.193   3.106   2.999  0.6406  0.0394 -0.3512
 4760TIP3    H214287   5.067   3.067   2.925 -0.1180 -1.4393  1.6031
 4761TIP3   OH214288   0.934   0.491   0.757 -0.6340 -0.2281 -0.1052
 4761TIP3    H114289   0.929   0.581   0.789 -0.9505 -0.3010  0.0527
 4761TIP3    H214290   1.026   0.477   0.738 -0.5596  0.0716  0.0403
 4762TIP3   OH214291   0.630   4.815   0.384 -0.4534  0.3554 -0.5410
 4762TIP3    H114292   0.660   4.837   0.296 -0.1066  4.2108  0.3519
 4762TIP3    H214293   0.705   4.771   0.425 -0.0556 -0.0201 -1.6444
 4763TIP3   OH214294   0.654   3.756   1.884 -0.1491 -0.2348 -0.3282
 4763TIP3    H114295   0.718   3.728   1.819 -2.2576  0.2293 -2.7527
 4763TIP3    H214296   0.619   3.675   1.921  0.1016 -0.5379 -0.7521
 4764TIP3   OH214297   4.676   4.729   2.584  0.4318  0.1682  0.5547
 4764TIP3    H114298   4.665   4.793   2.513  0.7417 -1.1312 -0.7094
 4764TIP3    H214299   4.756   4.757   2.629  0.7285  0.5061 -0.1706
 4765TIP3   OH214300   2.518   4.364   4.512  0.3420 -0.1312  0.5048
 4765TIP3    H114301   2.506   4.441   4.567  0.2472 -1.5283  2.5563
 4765TIP3    H214302   2.447   4.370   4.447 -1.0495  0.4034  1.9993
 4766TIP3   OH214303   4.463   5.771   4.250  0.6406  0.0716  0.1257
 4766TIP3    H114304   4.543   5.822   4.250  0.3971  0.5266  2.0520
 4766TIP3    H214305   4.447   5.751   4.343 -0.7195 -1.1920 -0.3430
 4767TIP3   OH214306   4.586   4.583   3.771 -0.3790 -0.0692 -0.5782
 4767TIP3    H114307   4.595   4.489   3.786  0.1320  0.4538  3.9908
 4767TIP3    H214308   4.501   4.605   3.810 -0.2808  1.4010 -1.1340
 4768TIP3   OH214309   2.224   4.135   1.039 -0.1531 -0.4183 -0.2454
 4768TIP3    H114310   2.195   4.205   1.098  0.8791  0.6721 -0.9697
 4768TIP3    H214311   2.318   4.152   1.026  0.5591 -3.0222  0.9600
 4769TIP3   OH214312   2.882   4.999   1.063 -0.7591 -0.0106  0.2995
 4769TIP3    H114313   2.834   5.065   1.012 -0.3946 -0.0605 -0.1161
 4769TIP3    H214314   2.814   4.947   1.105 -1.0732 -0.1093 -0.3212
 4770TIP3   OH214315   5.499   1.856   2.853  0.4661 -0.5035 -0.3167
 4770TIP3    H114316   5.577   1.820   2.809 -0.0128 -0.0917 -1.5589
 4770TIP3    H214317   5.431   1.855   2.785 -0.2915  0.2125  0.4153
 4771TIP3   OH214318   0.525   0.213   3.532  0.2548 -0.4820 -0.0014
 4771TIP3    H114319   0.568   0.292   3.500  0.1868 -1.4770 -2.8235
 4771TIP3    H214320   0.445   0.245   3.575  1.1841  1.0385  0.6810
 4772TIP3   OH214321   3.733   1.376   3.378 -0.1369  0.3052 -0.2932
 4772TIP3    H114322   3.686   1.454   3.408  1.3720  0.7906  0.9304
 4772TIP3    H214323   3.774   1.403   3.296 -0.7858  0.3209 -0.6250
 4773TIP3   OH214324   1.388   1.938   3.411 -0.4717 -0.5817 -0.3425
 4773TIP3    H114325   1.389   1.859   3.356 -1.3571 -1.7325  1.2077
 4773TIP3    H214326   1.299   1.972   3.402 -0.1456  0.1503 -0.8595
 4774TIP3   OH214327   1.979   2.501   4.684 -0.6786 -0.3651  0.1907
 4774TIP3    H114328   1.890   2.497   4.648 -0.9198 -2.0290  0.8821
 4774TIP3    H214329   2.023   2.424   4.648  1.8230  2.3803 -3.2958
 4775TIP3   OH214330   0.596   2.646   4.041  0.6804 -0.2932 -0.3058
 4775TIP3    H114331   0.662   2.577   4.042  1.1272  0.1238  0.7016
 4775TIP3    H214332   0.640   2.721   4.001  0.4689 -0.3303 -0.6130
 4776TIP3   OH214333   4.296   4.288   1.048  0.4489  0.2056 -0.1997
 4776TIP3    H114334   4.354   4.228   1.001 -1.7180 -1.9284 -0.3691
 4776TIP3    H214335   4.256   4.342   0.980 -0.3542 -0.7641 -0.5350
 4777TIP3   OH214336   0.370   1.090   1.324  0.0711 -0.1350  0.5028
 4777TIP3    H114337   0.280   1.074   1.295 -0.0433  0.2278  0.6595
 4777TIP3    H214338   0.379   1.185   1.322  0.0745 -0.1057  1.6113
 4778TIP3   OH214339   2.040   2.256   0.252  0.1524  0.1400 -0.7869
 4778TIP3    H114340   2.014   2.164   0.244 -0.2715  0.2855 -1.0731
 4778TIP3    H214341   2.006   2.298   0.173 -1.9432  1.0920  0.5325
 4779TIP3   OH214342   2.670   1.281   3.237  0.1687  0.2785 -0.4037
 4779TIP3    H114343   2.742   1.342   3.249  0.1730  0.1291  0.3609
 4779TIP3    H214344   2.612   1.297   3.312 -0.2149 -0.1200 -0.6097
 4780TIP3   OH214345   4.232   4.509   2.793  0.9147  0.3412 -0.2942
 4780TIP3    H114346   4.312   4.489   2.841  0.5316 -1.1825 -0.2469
 4780TIP3    H214347   4.176   4.433   2.806  0.6413  0.0044 -2.8439
 4781TIP3   OH214348   0.209   2.674   1.123 -0.2817 -0.7001  0.3028
 4781TIP3    H114349   0.195   2.767   1.104 -1.1647 -0.7731  0.5254
 4781TIP3    H214350   0.161   2.628   1.055  1.5804 -1.0394 -0.8429
 4782TIP3   OH214351   3.817   4.154   4.003  0.1432 -0.1013  0.6481
 4782TIP3    H114352   3.796   4.084   4.065  1.1930 -1.4073 -0.4030
 4782TIP3    H214353   3.780   4.124   3.920  0.7357  0.5268  0.1464
 4783TIP3   OH214354   3.835   0.946   4.846  0.1980  0.0123  0.0357
 4783TIP3    H114355   3.775   0.920   4.776  0.2810  0.6315 -0.2686
 4783TIP3    H214356   3.794   1.023   4.885 -0.1920 -0.7224  1.1228
 4784TIP3   OH214357   1.737   0.408   2.647  0.0332 -0.3104 -0.1308
 4784TIP3    H114358   1.756   0.496   2.613  2.1998 -0.6082  0.1215
 4784TIP3    H214359   1.818   0.359   2.631 -0.9080 -2.0935  0.3145
 4785TIP3   OH214360   5.834   4.225   4.825  0.3195 -0.1309 -0.7374
 4785TIP3    H114361   5.909   4.284   4.827 -1.2035  1.9130  1.7958
 4785TIP3    H214362   5.850   4.164   4.898 -0.8573  0.9206  0.4440
 4786TIP3   OH214363   5.808   2.461   3.830  0.2254  0.0141 -0.5763
 4786TIP3    H114364   5.853   2.397   3.775 -1.4990 -1.4038 -0.4629
 4786TIP3    H214365   5.811   2.422   3.918 -1.7654 -0.5187 -0.6914
 4787TIP3   OH214366   2.839   3.595   0.137  0.1507  0.1151  0.2329
 4787TIP3    H114367   2.929   3.570   0.115  0.9932  3.2459 -0.2915
 4787TIP3    H214368   2.837   3.596   0.233  0.1643 -1.4674  0.2732
 4788TIP3   OH214369   0.784   3.401   2.817  0.5107 -0.4318  0.9101
 4788TIP3    H114370   0.787   3.495   2.834 -0.5901 -0.3874  0.9031
 4788TIP3    H214371   0.691   3.378   2.824  0.5594 -1.2214 -0.6861
 4789TIP3   OH214372   0.595   4.212   1.321  0.2001 -0.4081 -0.7488
 4789TIP3    H114373   0.585   4.118   1.308  0.2774 -0.3254 -1.4799
 4789TIP3    H214374   0.634   4.221   1.408 -0.1707 -1.0281 -0.5140
 4790TIP3   OH214375   4.723   0.793   3.268  0.9745 -0.2184 -0.0611
 4790TIP3    H114376   4.817   0.797   3.250  1.2007  0.6045  1.1748
 4790TIP3    H214377   4.717   0.777   3.362 -0.0504  2.8061  0.5169
 4791TIP3   OH214378   2.801   2.365   4.319 -0.2995 -0.0549  0.1184
 4791TIP3    H114379   2.880   2.401   4.359  1.3749 -0.4724 -2.5470
 4791TIP3    H214380   2.730   2.424   4.347  1.0264  0.7244  2.0381
 4792TIP3   OH214381   2.907   4.372   1.285  0.3001 -0.2025  0.2432
 4792TIP3    H114382   2.860   4.453   1.302  1.8158  0.7900 -0.1265
 4792TIP3    H214383   2.996   4.399   1.263  0.6623 -1.9141 -0.6333
 4793TIP3   OH214384   0.348   5.773   1.906  0.0124 -0.0028 -0.1562
 4793TIP3    H114385   0.264   5.725   1.905  0.9854 -1.7932 -0.0111
 4793TIP3    H214386   0.337   5.841   1.840 -1.1474 -0.9523 -0.9905
 4794TIP3   OH214387   4.507   1.082   4.123  0.3015  0.2602  0.6568
 4794TIP3    H114388   4.513   1.024   4.199 -0.8485 -0.0668  0.5116
 4794TIP3    H214389   4.477   1.166   4.158 -0.7910 -0.0532  0.5084
 4795TIP3   OH214390   2.310   1.693   4.062 -0.0105 -0.0219  0.2189
 4795TIP3    H114391   2.263   1.691   4.145  0.9338  0.0394  0.7671
 4795TIP3    H214392   2.328   1.786   4.047 -0.1539 -0.0347 -0.0444
 4796TIP3   OH214393   4.397   1.962   3.590  0.1141 -0.7322  0.1792
 4796TIP3    H114394   4.461   1.890   3.593  0.1512 -0.7769 -1.1060
 4796TIP3    H214395   4.425   2.016   3.516 -1.3361 -0.7573 -0.4250
 4797TIP3   OH214396   6.358   0.437   4.306 -0.3032  0.3934 -0.0732
 4797TIP3    H114397   6.276   0.391   4.325  0.0800 -0.2614  0.0447
 4797TIP3    H214398   6.358   0.447   4.211 -0.4266  0.1993 -0.0945
 4798TIP3   OH214399   6.123   1.885   4.019  0.1071  0.1921  0.0986
 4798TIP3    H114400   6.124   1.810   4.080 -0.9750 -0.3747 -0.5469
 4798TIP3    H214401   6.213   1.890   3.987  0.9004  0.9439  2.2341
 4799TIP3   OH214402   6.212   1.294   3.981  0.7841 -0.3564 -0.1263
 4799TIP3    H114403   6.258   1.285   4.064 -0.3183  0.4416  0.6032
 4799TIP3    H214404   6.141   1.355   3.999  0.3338 -0.3993 -1.5850
 4800TIP3   OH214405   4.934   5.022   4.941  0.0825  0.3418 -0.1875
 4800TIP3    H114406   4.972   5.093   4.890  1.3138  0.2348  0.5398
 4800TIP3    H214407   4.963   4.942   4.897  3.3436  0.1273  1.9406
 4801TIP3   OH214408   5.349   5.789   3.497 -0.2522 -0.3467  0.4273
 4801TIP3    H114409   5.386   5.850   3.562 -1.2648 -0.3313  1.0181
 4801TIP3    H214410   5.273   5.836   3.463  0.2373 -0.3868 -0.7417
 4802TIP3   OH214411   2.343   3.499   2.159 -0.2099 -0.3846 -0.1915
 4802TIP3    H114412   2.350   3.407   2.133 -0.0182 -0.6672  0.8055
 4802TIP3    H214413   2.434   3.528   2.168 -0.2687 -0.0342 -0.7061
 4803TIP3   OH214414   6.042   2.574   0.633  0.0381 -0.4477  0.0722
 4803TIP3    H114415   6.030   2.480   0.621 -0.8166 -0.5638  1.5752
 4803TIP3    H214416   5.996   2.594   0.715  0.7488  1.1665  0.1207
 4804TIP3   OH214417   4.234   4.337   3.922 -0.6097 -0.3588  0.5577
 4804TIP3    H114418   4.240   4.359   3.829  0.1559 -1.8021  0.2373
 4804TIP3    H214419   4.168   4.267   3.925  1.1060 -2.0482  0.7232
 4805TIP3   OH214420   0.105   2.877   0.428  0.5931  0.6980  0.0120
 4805TIP3    H114421   0.111   2.966   0.394  0.2057  0.1981 -1.4383
 4805TIP3    H214422   0.195   2.850   0.440  0.7063  1.7194  1.7109
 4806TIP3   OH214423   4.936   5.101   1.143  0.4482 -0.0262 -0.0927
 4806TIP3    H114424   4.912   5.189   1.171  1.1866 -0.3553  1.7028
 4806TIP3    H214425   4.875   5.044   1.189 -0.1055 -0.4819 -1.3393
 4807TIP3   OH214426   3.397   0.836   1.311 -0.0810 -0.2720  0.0114
 4807TIP3    H114427   3.343   0.845   1.390  0.6373  1.5109  0.3515
 4807TIP3    H214428   3.486   0.825   1.345  0.2234  0.4373 -0.5279
 4808TIP3   OH214429   1.594   4.797   4.784  0.3639 -0.1919  0.2423
 4808TIP3    H114430   1.675   4.847   4.791  0.7425 -0.8125  0.4242
 4808TIP3    H214431   1.552   4.807   4.869  0.1702  0.2537  0.0978
 4809TIP3   OH214432   3.857   5.566   1.163  0.0118  0.0469 -0.1272
 4809TIP3    H114433   3.846   5.512   1.241 -2.0532  0.7209  0.1042
 4809TIP3    H214434   3.854   5.503   1.090 -0.2127 -0.3753  0.2407
 4810TIP3   OH214435   1.855  -0.013   0.250 -0.4222  0.1999 -0.4570
 4810TIP3    H114436   1.918   0.047   0.207 -0.7877  1.3152  0.5036
 4810TIP3    H214437   1.776  -0.007   0.196 -0.2907  0.1893 -0.6526
 4811TIP3   OH214438   2.637   1.669   3.869 -0.7303  0.0585 -0.1272
 4811TIP3    H114439   2.660   1.656   3.961 -0.8886 -0.3646 -0.1427
 4811TIP3    H214440   2.719   1.691   3.826 -0.6524  0.2334  0.1140
 4812TIP3   OH214441   5.408   1.757   1.930 -0.3267 -0.1664  0.2628
 4812TIP3    H114442   5.400   1.661   1.936 -0.1976 -0.2849 -1.1918
 4812TIP3    H214443   5.498   1.772   1.902  0.0987  0.4800  1.8523
 4813TIP3   OH214444   4.284   1.497   2.092  0.2472  0.0623 -0.0454
 4813TIP3    H114445   4.213   1.551   2.057  1.0441  0.7845 -0.6142
 4813TIP3    H214446   4.282   1.417   2.040  1.3497  1.0791 -1.7349
 4814TIP3   OH214447   2.966   0.019   4.593 -0.1727  0.4148 -0.8070
 4814TIP3    H114448   3.057   0.031   4.567  0.0306 -1.7128 -1.3199
 4814TIP3    H214449   2.969   0.002   4.687 -0.1274  1.0993 -0.6841
 4815TIP3   OH214450   6.195   1.275   4.342 -0.0365 -0.2378  0.4123
 4815TIP3    H114451   6.275   1.269   4.290 -0.6258 -0.4929 -0.4942
 4815TIP3    H214452   6.222   1.315   4.424  1.3376 -1.8899  0.8045
 4816TIP3   OH214453   2.668   3.265   3.988  0.9672 -0.0114 -0.7338
 4816TIP3    H114454   2.596   3.231   4.042  1.3286 -0.4286 -0.5134
 4816TIP3    H214455   2.714   3.327   4.045  0.1482  1.0945 -1.2183
 4817TIP3   OH214456   4.553   1.952   3.111 -0.2484  0.7543  0.0313
 4817TIP3    H114457   4.534   1.873   3.060  0.2004 -0.9844  2.4134
 4817TIP3    H214458   4.640   1.980   3.080  1.4567 -2.0886  1.8077
 4818TIP3   OH214459   5.762   1.817   3.645  0.0109  0.1882  0.6925
 4818TIP3    H114460   5.830   1.759   3.612 -1.6345 -1.3775 -0.1219
 4818TIP3    H214461   5.725   1.858   3.567 -1.5664 -0.8519  0.8488
 4819TIP3   OH214462   0.015   3.903   0.936  0.2219 -0.0765 -0.5604
 4819TIP3    H114463  -0.072   3.878   0.905  0.6228  1.8343 -3.5938
 4819TIP3    H214464   0.076   3.855   0.881  1.0831 -0.0007  0.2945
 4820TIP3   OH214465   4.522   1.409   4.728  0.1900 -0.3556 -0.1463
 4820TIP3    H114466   4.536   1.339   4.792  0.3453 -0.2644 -0.0797
 4820TIP3    H214467   4.609   1.440   4.707  0.0924  0.1781  0.2277
 4821TIP3   OH214468   1.581   1.108   1.853  0.4610  0.1330 -0.6681
 4821TIP3    H114469   1.552   1.072   1.769 -2.1944 -0.3782  0.3598
 4821TIP3    H214470   1.576   1.203   1.841 -0.3274  0.0602 -0.9995
 4822TIP3   OH214471   1.335   5.055   0.343  0.0672 -0.3084  0.1014
 4822TIP3    H114472   1.314   5.148   0.336  0.2166 -0.1790  1.2296
 4822TIP3    H214473   1.281   5.023   0.415  1.0917 -0.7606  0.6992
 4823TIP3   OH214474   6.222   3.401   2.155  0.4883  0.5995  0.2521
 4823TIP3    H114475   6.144   3.359   2.191  0.4662  0.6189  0.2272
 4823TIP3    H214476   6.242   3.350   2.077  1.2211 -0.1743  0.9285
 4824TIP3   OH214477   3.291   2.718   2.746  0.1915 -0.1218  0.4841
 4824TIP3    H114478   3.244   2.718   2.829  1.1013  0.8168  1.0111
 4824TIP3    H214479   3.318   2.808   2.733  0.4485 -0.3421 -0.6203
 4825TIP3   OH214480   1.957   0.799   0.994 -0.2540 -0.0630  0.7816
 4825TIP3    H114481   1.912   0.843   0.922  0.6958 -0.2941  0.0192
 4825TIP3    H214482   1.972   0.867   1.059 -0.6193  0.2739  0.5145
 4826TIP3   OH214483   1.857   2.443   1.011 -0.0201 -0.0627  0.2464
 4826TIP3    H114484   1.841   2.350   0.996  0.2503  0.0018 -0.4541
 4826TIP3    H214485   1.776   2.476   1.050 -0.6521 -0.2845 -0.8539
 4827TIP3   OH214486   2.291   5.614   2.928 -0.1860  0.0715  0.2225
 4827TIP3    H114487   2.202   5.645   2.911 -0.2267 -0.4440 -0.5928
 4827TIP3    H214488   2.293   5.526   2.889  0.8162  0.2630 -0.1884
 4828TIP3   OH214489   2.171   0.196   3.931 -0.1948 -0.0597 -0.0803
 4828TIP3    H114490   2.098   0.192   3.869 -0.0834  0.5276 -0.2545
 4828TIP3    H214491   2.134   0.236   4.010 -0.0173  0.4106 -0.2344
 4829TIP3   OH214492   6.241   4.379   3.395 -0.0443  0.2929 -0.1277
 4829TIP3    H114493   6.278   4.468   3.391  2.2436 -0.5827  0.1202
 4829TIP3    H214494   6.309   4.327   3.438 -0.3983 -2.0290 -2.1520
 4830TIP3   OH214495   2.747   1.451   0.341 -0.3589 -0.6453 -0.5179
 4830TIP3    H114496   2.671   1.394   0.327 -0.3434 -0.8442  0.1779
 4830TIP3    H214497   2.710   1.539   0.347 -0.5500 -0.7567 -0.0487
 4831TIP3   OH214498   5.653   4.087   3.562  0.7591  0.0656  0.4404
 4831TIP3    H114499   5.680   4.171   3.599  0.0666  0.7000 -0.4439
 4831TIP3    H214500   5.641   4.030   3.637  0.3367  1.0303  1.1174
 4832TIP3   OH214501   1.457   1.672   0.235  0.4508  0.2249 -0.0175
 4832TIP3    H114502   1.500   1.636   0.157  0.0666 -0.0942 -0.0842
 4832TIP3    H214503   1.425   1.758   0.207  0.7161  0.3035 -0.0778
 4833TIP3   OH214504   3.707   1.066   2.145  0.0511 -0.3051 -0.9580
 4833TIP3    H114505   3.642   1.120   2.189  1.3876  0.2238  0.4689
 4833TIP3    H214506   3.748   1.016   2.216  0.6377 -1.2432 -1.9247
 4834TIP3   OH214507   2.066   4.044   5.082 -0.4618 -0.1419  0.0716
 4834TIP3    H114508   2.124   4.093   5.140 -2.2834  1.2385  0.7914
 4834TIP3    H214509   2.047   4.104   5.010 -1.5895 -0.2952  0.2306
 4835TIP3   OH214510   5.453   3.236   1.187 -0.6919  0.0629  0.4082
 4835TIP3    H114511   5.396   3.275   1.121 -0.9891 -0.2246  0.4902
 4835TIP3    H214512   5.533   3.288   1.184 -1.9463  2.2953  2.2121
 4836TIP3   OH214513   5.209   2.726   3.569  0.3933  0.6428 -0.2315
 4836TIP3    H114514   5.166   2.687   3.493 -0.0105 -0.5215  0.5566
 4836TIP3    H214515   5.295   2.753   3.537  1.3993 -2.4723 -0.5100
 4837TIP3   OH214516   5.736   1.304   4.026 -0.5343  0.3326 -0.1058
 4837TIP3    H114517   5.700   1.381   4.071 -2.1436 -1.9562  2.8791
 4837TIP3    H214518   5.758   1.243   4.097  1.7047 -1.5868 -2.2853
 4838TIP3   OH214519   5.567   5.272   0.380 -0.0100  0.1993 -0.3475
 4838TIP3    H114520   5.473   5.287   0.390  0.0589  0.3147  0.1320
 4838TIP3    H214521   5.578   5.178   0.399 -0.0888  0.0889 -0.8422
 4839TIP3   OH214522   3.090   1.547   4.355  0.0200  0.2038  0.1689
 4839TIP3    H114523   3.155   1.555   4.286 -1.8863  1.2941 -1.6033
 4839TIP3    H214524   3.141   1.538   4.436  2.3374 -1.9186 -1.4018
 4840TIP3   OH214525   0.230   0.734   4.671  0.4626  0.0700  0.1801
 4840TIP3    H114526   0.290   0.722   4.598 -1.5062 -0.7483 -1.3942
 4840TIP3    H214527   0.233   0.651   4.719  0.3006 -0.1275 -0.1463
 4841TIP3   OH214528   4.279   0.671   2.202  0.3979  0.2865  0.0670
 4841TIP3    H114529   4.271   0.764   2.182  1.0044  0.0722 -1.3309
 4841TIP3    H214530   4.198   0.632   2.170  0.5539  0.2081 -0.2395
 4842TIP3   OH214531   3.712   5.577   3.439 -0.5590 -0.0990  0.2272
 4842TIP3    H114532   3.794   5.538   3.411 -0.1201 -0.3867  1.8258
 4842TIP3    H214533   3.733   5.622   3.521 -1.8723  0.2731  0.3885
 4843TIP3   OH214534   3.445   0.670   0.864 -0.1627  0.1695  0.3035
 4843TIP3    H114535   3.501   0.652   0.789  1.7122  0.2871  1.6169
 4843TIP3    H214536   3.428   0.765   0.860 -1.4208 -0.0732 -0.8245
 4844TIP3   OH214537   4.827   3.079   3.676 -0.1502  0.1830  0.4648
 4844TIP3    H114538   4.766   3.020   3.631 -1.1920  0.6407  1.2333
 4844TIP3    H214539   4.885   3.022   3.725  2.1331 -0.4596 -2.6746
 4845TIP3   OH214540   2.161   4.987   1.233 -0.1149 -0.0531  0.0556
 4845TIP3    H114541   2.078   4.955   1.268 -0.8592 -0.0640 -1.6379
 4845TIP3    H214542   2.140   5.019   1.145  1.5328  0.6372 -0.1279
 4846TIP3   OH214543   1.632   4.301   4.360 -0.1473  0.2526  0.2288
 4846TIP3    H114544   1.643   4.206   4.370  1.6078  0.3809 -0.2618
 4846TIP3    H214545   1.554   4.310   4.305 -0.0898 -0.9258 -0.0748
 4847TIP3   OH214546   5.889   3.952   3.824 -0.0504 -0.5085  0.0337
 4847TIP3    H114547   5.934   3.869   3.812 -0.6720 -0.6339 -1.6035
 4847TIP3    H214548   5.932   4.012   3.763 -0.5117  0.0196  0.2179
 4848TIP3   OH214549   0.343   1.578   2.664 -0.1045 -0.1854 -0.1828
 4848TIP3    H114550   0.277   1.520   2.701  0.1988  0.0637  0.7628
 4848TIP3    H214551   0.427   1.540   2.690  0.1052  1.4932  1.8138
 4849TIP3   OH214552   4.370   4.670   3.998 -0.3866  0.0593  0.1433
 4849TIP3    H114553   4.303   4.606   3.973  0.1895  0.0839 -1.5577
 4849TIP3    H214554   4.402   4.638   4.083 -0.6292 -1.5060 -0.3192
 4850TIP3   OH214555   0.858   5.539   1.593  0.6079  0.4878  0.0383
 4850TIP3    H114556   0.858   5.469   1.659  1.2403 -0.1698 -0.6467
 4850TIP3    H214557   0.943   5.581   1.603  0.7290  0.3489 -0.3866
 4851TIP3   OH214558   5.585   3.423   2.313  0.1128  0.4899  0.7537
 4851TIP3    H114559   5.513   3.486   2.321  0.8646  1.8737 -2.0523
 4851TIP3    H214560   5.659   3.475   2.282  1.7611 -1.2377  1.6162
 4852TIP3   OH214561   3.995   5.236   4.593 -0.1676  0.1509 -0.2711
 4852TIP3    H114562   3.973   5.218   4.502 -1.0507 -0.3561  0.0275
 4852TIP3    H214563   3.967   5.326   4.607  0.7056  0.5000 -0.7113
 4853TIP3   OH214564   0.527   4.632   2.390 -0.1272 -0.0573 -0.0694
 4853TIP3    H114565   0.489   4.707   2.345 -0.3782 -0.8860 -1.3034
 4853TIP3    H214566   0.613   4.662   2.418 -0.9287  1.2561  1.1021
 4854TIP3   OH214567   2.093   2.816   5.093 -0.1315  0.0672  0.1699
 4854TIP3    H114568   2.078   2.733   5.049  0.0077  0.1905 -0.1150
 4854TIP3    H214569   2.107   2.793   5.185  0.0895 -0.2386  0.0599
 4855TIP3   OH214570   5.480   1.181   0.185 -0.0031  0.5415  0.2370
 4855TIP3    H114571   5.472   1.093   0.222 -2.1903  1.2242  1.5358
 4855TIP3    H214572   5.407   1.188   0.123 -1.5038  2.2889  2.0853
 4856TIP3   OH214573   0.149   0.644   0.836  0.5299 -0.5341 -0.2898
 4856TIP3    H114574   0.081   0.662   0.900  0.5489 -1.6787  0.0845
 4856TIP3    H214575   0.226   0.691   0.868  0.2827 -0.3482  0.0258
 4857TIP3   OH214576   5.730   2.089   1.362 -0.0932  0.2266 -0.4599
 4857TIP3    H114577   5.641   2.098   1.327 -0.8041 -0.8187  0.9797
 4857TIP3    H214578   5.755   2.177   1.387 -1.0180  0.4441 -0.2502
 4858TIP3   OH214579   5.808   3.340   2.748  0.1957 -0.1840 -0.4076
 4858TIP3    H114580   5.783   3.429   2.723 -0.1638 -0.5201 -1.2682
 4858TIP3    H214581   5.725   3.294   2.758  0.3582 -0.2915  0.5810
 4859TIP3   OH214582   5.175   2.540   1.041 -0.5437  0.1448  0.4505
 4859TIP3    H114583   5.187   2.617   1.097  3.1912  2.5893 -3.1153
 4859TIP3    H214584   5.110   2.568   0.977 -0.6468 -0.4594  0.2918
 4860TIP3   OH214585   0.816   3.347   1.157 -0.2681  0.0808  0.8088
 4860TIP3    H114586   0.741   3.312   1.206 -0.2822 -2.1363 -0.6380
 4860TIP3    H214587   0.776   3.389   1.080 -0.0992  0.3269  0.8566
 4861TIP3   OH214588   0.967   2.872   1.737 -0.3419 -0.0583  0.1869
 4861TIP3    H114589   1.026   2.921   1.679 -1.5356  0.9916 -0.1882
 4861TIP3    H214590   0.920   2.812   1.679 -0.4239 -0.1100  0.3053
 4862TIP3   OH214591   5.821   3.894   1.358 -0.1042  0.2421  0.4406
 4862TIP3    H114592   5.878   3.907   1.434 -0.8086  1.1266  0.8294
 4862TIP3    H214593   5.866   3.939   1.287  0.2353 -0.0320  0.4788
 4863TIP3   OH214594   6.310   3.534   0.143 -0.0176  0.6933  0.5236
 4863TIP3    H114595   6.295   3.440   0.155  0.7754  0.4984  0.1061
 4863TIP3    H214596   6.402   3.540   0.117  0.0990  1.6350  1.0920
 4864TIP3   OH214597   5.988   1.407   4.123 -0.3478  0.2994  0.0543
 4864TIP3    H114598   5.962   1.419   4.215 -0.0061  1.0757  0.0544
 4864TIP3    H214599   5.921   1.349   4.087 -0.4477 -0.0774  0.8115
 4865TIP3   OH214600   5.031   2.723   1.916 -0.5744  0.0155 -0.5491
 4865TIP3    H114601   4.960   2.756   1.860 -0.7018 -0.0270 -0.4148
 4865TIP3    H214602   5.042   2.632   1.889 -2.0082 -0.6306  0.8341
 4866TIP3   OH214603   3.920   1.065   5.118  0.1308  0.0995 -0.4743
 4866TIP3    H114604   3.946   1.115   5.196 -0.0228  0.2523 -0.5204
 4866TIP3    H214605   3.860   0.999   5.151  0.9167 -0.5404 -0.2992
 4867TIP3   OH214606   1.566   4.770   1.166 -0.8843  0.4265  0.0709
 4867TIP3    H114607   1.481   4.783   1.208 -0.8381 -0.6083  0.5228
 4867TIP3    H214608   1.616   4.849   1.187 -1.6237  0.9096  0.0558
 4868TIP3   OH214609   0.428   5.842  -0.003 -0.0291  0.7833  0.4392
 4868TIP3    H114610   0.440   5.930   0.033  1.0236  1.4742 -1.4471
 4868TIP3    H214611   0.509   5.796   0.016  0.5460  1.1630 -0.9918
 4869TIP3   OH214612   3.099   2.701   0.497  0.7896  0.1884  0.1468
 4869TIP3    H114613   3.104   2.752   0.417 -0.3587 -0.3397 -0.2774
 4869TIP3    H214614   3.008   2.707   0.525  0.6145 -1.5510  0.1092
 4870TIP3   OH214615   4.311   1.796   0.459  0.3704  0.0992  0.0809
 4870TIP3    H114616   4.309   1.753   0.544 -2.5996  1.6502  0.9529
 4870TIP3    H214617   4.386   1.855   0.463  0.7420 -0.4352  1.2914
 4871TIP3   OH214618   0.362   1.204   3.776 -0.2866  0.2772  0.0700
 4871TIP3    H114619   0.410   1.125   3.800 -1.6209 -0.2424  1.1743
 4871TIP3    H214620   0.329   1.186   3.689  1.4995  0.6645 -0.7320
 4872TIP3   OH214621   3.604   2.441   3.537 -0.2578  0.3111 -0.1855
 4872TIP3    H114622   3.633   2.499   3.467  0.8339 -0.1170 -0.1144
 4872TIP3    H214623   3.547   2.377   3.494  2.1266 -1.2961 -1.1814
 4873TIP3   OH214624   4.618   0.584   1.120 -0.5834  0.2754 -0.2926
 4873TIP3    H114625   4.558   0.649   1.156 -1.1754 -1.2812  1.6902
 4873TIP3    H214626   4.632   0.522   1.191  1.7399 -0.5778 -1.3882
 4874TIP3   OH214627   3.788   0.926   4.156 -0.0667 -0.6782 -0.2387
 4874TIP3    H114628   3.798   0.883   4.241 -2.8975  0.1883  0.6478
 4874TIP3    H214629   3.839   1.007   4.164 -2.7293  0.9737  1.9728
 4875TIP3   OH214630   3.567   3.553   2.025 -0.2029 -0.1835 -0.1046
 4875TIP3    H114631   3.578   3.508   2.109 -0.2620 -3.2984 -1.6054
 4875TIP3    H214632   3.474   3.543   2.005  0.1375 -1.2067 -1.3380
 4876TIP3   OH214633   0.749   2.943   3.160  0.4319  0.1468  0.5857
 4876TIP3    H114634   0.666   2.978   3.193  1.2127  1.4219  1.2947
 4876TIP3    H214635   0.813   2.967   3.227  1.5080 -0.1303 -0.3190
 4877TIP3   OH214636   6.124   2.941   2.328 -0.4027 -0.4179 -0.3677
 4877TIP3    H114637   6.132   2.861   2.275 -0.6992  0.9467 -2.6135
 4877TIP3    H214638   6.090   3.006   2.267 -1.3769  1.1315  1.7273
 4878TIP3   OH214639   2.000   4.824   0.989  0.2835  0.2534  0.0670
 4878TIP3    H114640   2.007   4.781   1.074  1.4518 -1.1593 -0.7011
 4878TIP3    H214641   2.078   4.879   0.983 -0.3722  1.2515  0.3501
 4879TIP3   OH214642   3.171   3.840   0.175 -0.2928  0.1219  0.4118
 4879TIP3    H114643   3.127   3.914   0.216 -1.9163 -0.3374 -0.4405
 4879TIP3    H214644   3.208   3.875   0.094  1.2714  0.5785  1.2690
 4880TIP3   OH214645   0.666   3.109   2.308  0.5556  0.2622  0.3532
 4880TIP3    H114646   0.581   3.075   2.280  1.1624  0.2582 -1.6016
 4880TIP3    H214647   0.654   3.130   2.401 -1.3604 -0.3870  0.2879
 4881TIP3   OH214648   6.326   4.874   4.160 -0.6990 -0.2459  0.8297
 4881TIP3    H114649   6.270   4.942   4.123  2.0072  0.7137 -2.0035
 4881TIP3    H214650   6.350   4.907   4.247 -0.9389  1.5201  0.2581
 4882TIP3   OH214651   2.323   4.117   0.490 -0.3911  0.2802  0.2122
 4882TIP3    H114652   2.277   4.038   0.520  2.0968 -1.0435  0.8799
 4882TIP3    H214653   2.313   4.179   0.563 -0.1824 -0.4002  0.8383
 4883TIP3   OH214654   2.246   0.366   2.520 -0.3228 -0.4804 -0.3667
 4883TIP3    H114655   2.152   0.370   2.537 -0.1156 -0.0060  0.7520
 4883TIP3    H214656   2.264   0.272   2.509 -1.1368 -0.4924 -2.0625
 4884TIP3   OH214657   2.890   5.977   2.758 -0.4394 -0.4232  0.4433
 4884TIP3    H114658   2.960   6.026   2.802 -0.5203  0.9890 -0.9141
 4884TIP3    H214659   2.936   5.920   2.696 -0.4346 -0.4501  0.4717
 4885TIP3   OH214660   0.233   0.927   0.268 -0.1402  0.1127  0.1656
 4885TIP3    H114661   0.171   0.864   0.304  0.6157 -1.1559 -0.6326
 4885TIP3    H214662   0.300   0.936   0.336  0.6732 -1.3648 -0.3850
 4886TIP3   OH214663   2.217   4.977   0.313 -0.6585 -0.4673 -0.4229
 4886TIP3    H114664   2.136   5.027   0.304 -0.4943 -0.2679 -0.8257
 4886TIP3    H214665   2.191   4.897   0.358 -0.7736  0.3695  1.0653
 4887TIP3   OH214666   1.223   1.972   2.772  0.2376  0.7416  0.6623
 4887TIP3    H114667   1.186   1.898   2.724  0.8626  1.6293 -1.3357
 4887TIP3    H214668   1.154   1.999   2.833 -1.7338  1.1498 -1.5892
 4888TIP3   OH214669   5.707   0.339   2.509  0.1841 -0.1369 -0.4677
 4888TIP3    H114670   5.771   0.394   2.554  0.7490 -0.0062 -1.4035
 4888TIP3    H214671   5.689   0.385   2.427  0.8237 -1.4161 -1.3649
 4889TIP3   OH214672   1.598   3.303   0.779  0.3807  0.1641 -1.0541
 4889TIP3    H114673   1.681   3.338   0.811  0.8091 -0.7126 -1.1642
 4889TIP3    H214674   1.544   3.291   0.857  0.4623  0.4660 -0.9511
 4890TIP3   OH214675   1.758   2.973   4.594  0.2546 -0.4908  0.8175
 4890TIP3    H114676   1.832   2.994   4.651  0.4645 -1.7977  1.0519
 4890TIP3    H214677   1.688   3.032   4.624  0.9492  0.2144  1.1027
 4891TIP3   OH214678   1.717   1.917   2.137 -0.9465  0.6041  0.5033
 4891TIP3    H114679   1.789   1.874   2.184 -0.8094 -1.0190 -1.0764
 4891TIP3    H214680   1.750   1.930   2.049 -2.4947  0.0010 -0.2063
 4892TIP3   OH214681   1.885   5.348   4.416 -0.4482  0.1862  0.1365
 4892TIP3    H114682   1.829   5.301   4.353 -1.1972  1.0319  0.1492
 4892TIP3    H214683   1.843   5.434   4.426  2.0361  1.7074 -1.4975
 4893TIP3   OH214684   5.286   5.922   1.713  0.4524 -0.5042  0.3559
 4893TIP3    H114685   5.358   5.861   1.730 -0.1319 -1.7047 -1.2107
 4893TIP3    H214686   5.311   5.966   1.632 -0.4809 -0.8088 -0.1096
 4894TIP3   OH214687   3.122   3.994   3.544  0.1771  0.0307 -0.5810
 4894TIP3    H114688   3.196   4.012   3.602  1.5535  0.1553 -2.2964
 4894TIP3    H214689   3.075   3.923   3.588  2.4490 -1.4476 -0.3731
 4895TIP3   OH214690   1.893   2.123   2.240  0.1246  0.4799 -0.4361
 4895TIP3    H114691   1.829   2.172   2.189 -0.1421  0.4215 -0.1626
 4895TIP3    H214692   1.882   2.032   2.212  1.0697  0.6458 -1.4209
 4896TIP3   OH214693   1.297   3.087   1.645  0.0559  0.1154  0.0645
 4896TIP3    H114694   1.388   3.100   1.669  0.4803 -0.7623 -0.9843
 4896TIP3    H214695   1.288   2.992   1.632  0.1458  0.4769 -3.9304
 4897TIP3   OH214696   2.376   4.258   3.814 -0.0954  0.6940  0.6069
 4897TIP3    H114697   2.328   4.257   3.731  2.4792  0.1443 -0.9734
 4897TIP3    H214698   2.352   4.342   3.854  1.6490  2.9539 -2.6707
 4898TIP3   OH214699   0.657   4.769   1.481 -0.1015  0.0172  1.0101
 4898TIP3    H114700   0.595   4.805   1.545 -2.4830  0.5779 -1.4407
 4898TIP3    H214701   0.614   4.690   1.447  0.4431  0.4498 -0.8071
 4899TIP3   OH214702   0.890   3.694   2.856 -0.4855 -0.1409  0.4767
 4899TIP3    H114703   0.814   3.700   2.799  0.5790 -1.9822 -1.2408
 4899TIP3    H214704   0.952   3.757   2.819 -0.3205 -0.3088  0.4670
 4900TIP3   OH214705   4.886   3.083   2.895  0.6011  0.6740  0.2962
 4900TIP3    H114706   4.810   3.129   2.930  0.2488  1.2771 -1.1759
 4900TIP3    H214707   4.850   3.001   2.861  0.8783  0.2606  0.9775
 4901TIP3   OH214708   5.039   4.936   3.584  0.1907 -0.3474 -0.0767
 4901TIP3    H114709   5.054   4.849   3.619  0.5500 -0.3730 -0.2926
 4901TIP3    H214710   4.956   4.929   3.537 -0.8842 -0.0363  1.6868
 4902TIP3   OH214711   1.360   3.879   2.009 -0.6961  0.2173  0.4972
 4902TIP3    H114712   1.455   3.893   2.010 -0.8711  1.8804  3.4265
 4902TIP3    H214713   1.351   3.784   2.014  0.7351 -0.0744 -1.1602
 4903TIP3   OH214714   0.857   3.179   0.528  0.2644  0.1826 -0.6394
 4903TIP3    H114715   0.771   3.138   0.540  1.0438 -1.3420 -0.0069
 4903TIP3    H214716   0.874   3.171   0.434  0.1162 -0.3253 -0.6230
 4904TIP3   OH214717   0.924   1.124   0.439 -0.0439 -0.2986 -0.0128
 4904TIP3    H114718   0.988   1.116   0.369 -0.7587 -1.2049 -0.5853
 4904TIP3    H214719   0.840   1.101   0.398 -0.3056 -2.1059  1.4035
 4905TIP3   OH214720   1.182   0.444   0.754 -0.0608 -0.1987  0.2234
 4905TIP3    H114721   1.184   0.350   0.771  0.8552 -0.3839 -0.8100
 4905TIP3    H214722   1.244   0.481   0.817 -2.0702  0.0323  2.1936
 4906TIP3   OH214723   6.200   2.325   0.761 -0.0096 -0.1560  0.0439
 4906TIP3    H114724   6.291   2.335   0.789 -0.4084  1.0806  1.0123
 4906TIP3    H214725   6.196   2.368   0.676  0.6873 -1.8362 -0.8906
 4907TIP3   OH214726   1.810   4.446   4.482 -0.1747  0.3266 -0.3419
 4907TIP3    H114727   1.721   4.421   4.508 -0.9163  2.1020 -1.0014
 4907TIP3    H214728   1.803   4.463   4.388  0.7490  0.9213 -0.3114
 4908TIP3   OH214729   1.899   5.759   5.134 -0.4531 -0.2508 -0.1422
 4908TIP3    H114730   1.890   5.671   5.171  0.8875 -0.7970 -1.0461
 4908TIP3    H214731   1.974   5.797   5.179 -0.5624  0.1460 -0.2907
 4909TIP3   OH214732   3.450   3.539   3.040 -0.7118  0.2603 -0.2870
 4909TIP3    H114733   3.373   3.596   3.051 -0.2847  0.9226 -0.6245
 4909TIP3    H214734   3.429   3.461   3.090 -0.5531  1.4738  1.7751
 4910TIP3   OH214735   4.099   1.622   1.704  0.0412  0.6545  0.0140
 4910TIP3    H114736   4.098   1.527   1.698 -0.2390  0.7297 -1.5609
 4910TIP3    H214737   4.009   1.646   1.727  0.4752  0.4933  2.0603
 4911TIP3   OH214738   6.216   4.456   4.748 -0.4518 -0.1083 -0.2439
 4911TIP3    H114739   6.229   4.525   4.813  1.7831  0.1795 -0.9177
 4911TIP3    H214740   6.193   4.503   4.668 -0.3341 -0.2548 -0.3632
 4912TIP3   OH214741   0.468   2.925   2.406 -0.0743 -0.0211 -0.0887
 4912TIP3    H114742   0.417   2.996   2.368 -0.4074  0.7654  1.7356
 4912TIP3    H214743   0.433   2.846   2.365 -0.7535  0.7437 -1.0209
 4913TIP3   OH214744   1.247   5.320   2.383  0.2737  0.2784  0.2349
 4913TIP3    H114745   1.187   5.383   2.343  2.0035  1.0575 -1.2895
 4913TIP3    H214746   1.255   5.250   2.318 -0.2116 -0.6286  1.1276
 4914TIP3   OH214747   4.424   5.357   3.258 -0.2834 -0.3077  0.0217
 4914TIP3    H114748   4.441   5.425   3.323 -0.9402  0.4633 -0.5807
 4914TIP3    H214749   4.505   5.350   3.208  1.0710 -2.5757  2.3335
 4915TIP3   OH214750   0.180   5.369   4.163 -0.6929  0.0851  0.0461
 4915TIP3    H114751   0.180   5.365   4.067  0.1482  1.4770 -0.0496
 4915TIP3    H214752   0.216   5.285   4.190  0.9618  0.4027 -0.9632
 4916TIP3   OH214753   2.439   3.517   1.736 -0.2711 -0.1739 -0.4075
 4916TIP3    H114754   2.343   3.512   1.735 -0.2185 -1.7322 -0.3403
 4916TIP3    H214755   2.459   3.596   1.687 -1.6457  1.3683  1.3954
 4917TIP3   OH214756   2.512   1.655   4.520 -0.3520 -0.2686 -0.4694
 4917TIP3    H114757   2.574   1.722   4.491  1.4426 -0.4420  2.5056
 4917TIP3    H214758   2.432   1.703   4.541 -0.9255  0.1250 -3.2267
 4918TIP3   OH214759   0.174   2.848   4.474 -0.0624 -0.1135 -0.2453
 4918TIP3    H114760   0.208   2.905   4.543 -0.4712 -0.3995  0.2024
 4918TIP3    H214761   0.228   2.770   4.478  0.3006  0.1149 -0.6542
 4919TIP3   OH214762   2.797   4.886   3.516 -0.3082  0.4185  0.5082
 4919TIP3    H114763   2.794   4.796   3.548  0.2281 -0.0298 -0.6639
 4919TIP3    H214764   2.742   4.886   3.438  1.6442  0.4690 -0.9414
 4920TIP3   OH214765   5.068   5.525   3.215  0.3809  0.2938 -0.1451
 4920TIP3    H114766   5.115   5.509   3.297  0.8594  0.0061 -0.4661
 4920TIP3    H214767   5.001   5.590   3.238  1.5127  1.4101  0.1372
 4921TIP3   OH214768   1.268   3.746   0.663  0.3754 -0.0344 -0.2400
 4921TIP3    H114769   1.352   3.791   0.666 -0.1574  0.9500  2.2263
 4921TIP3    H214770   1.236   3.748   0.753 -2.0022 -0.9719 -0.9739
 4922TIP3   OH214771   2.203   1.407   0.572 -0.4192 -0.0906  0.2629
 4922TIP3    H114772   2.299   1.405   0.579 -0.4632 -0.6447  0.8567
 4922TIP3    H214773   2.185   1.477   0.510  0.2216  2.3758  2.6674
 4923TIP3   OH214774   4.364   4.911   2.902  0.0391 -0.1400 -0.4671
 4923TIP3    H114775   4.286   4.952   2.940  0.9885  1.5321 -0.2744
 4923TIP3    H214776   4.331   4.829   2.865 -1.2820 -0.9767  2.2716
 4924TIP3   OH214777   3.610   0.763   0.025 -0.1859  0.0080 -0.1002
 4924TIP3    H114778   3.522   0.727   0.014 -0.2405 -0.1639  0.8083
 4924TIP3    H214779   3.644   0.718   0.103  0.3417  0.7834  0.1213
 4925TIP3   OH214780   5.109   4.580   0.826 -0.3685 -0.0529 -0.0259
 4925TIP3    H114781   5.140   4.491   0.842 -0.6406 -0.2557 -0.6045
 4925TIP3    H214782   5.018   4.568   0.797 -0.6556  0.4613  0.6296
 4926TIP3   OH214783   5.924   4.999   3.085  0.5284  0.1523 -0.1936
 4926TIP3    H114784   5.996   5.028   3.029  1.2595  0.1716  0.7310
 4926TIP3    H214785   5.937   5.047   3.166  0.6826 -1.3770  0.7161
 4927TIP3   OH214786   5.075   2.012   3.805  0.0457  0.3198  0.0379
 4927TIP3    H114787   5.099   1.973   3.721  0.3538  0.7465 -0.0750
 4927TIP3    H214788   5.158   2.039   3.844  0.1048 -1.4839  1.3038
 4928TIP3   OH214789   4.301   5.813   1.567  0.6325  0.1817 -0.7615
 4928TIP3    H114790   4.378   5.848   1.522  2.1005 -1.7248  0.1028
 4928TIP3    H214791   4.282   5.877   1.636  0.8413  1.1278 -1.5624
 4929TIP3   OH214792   1.572   4.110   0.515 -0.0523  0.1933 -0.1907
 4929TIP3    H114793   1.604   4.087   0.428  0.8394  1.1880 -0.1444
 4929TIP3    H214794   1.633   4.177   0.546  0.0369 -0.6053  1.4633
 4930TIP3   OH214795   4.430   2.951   4.124 -0.4283 -0.2780 -0.4210
 4930TIP3    H114796   4.335   2.947   4.116 -0.4289 -0.3433 -0.3845
 4930TIP3    H214797   4.450   2.904   4.205 -0.1769 -2.4995 -1.6776
 4931TIP3   OH214798   3.944   4.356   4.623  0.0742 -0.0662  0.3690
 4931TIP3    H114799   4.021   4.303   4.599  1.6046  1.9538  0.5891
 4931TIP3    H214800   3.962   4.442   4.587 -2.0410  0.5204  0.6190
 4932TIP3   OH214801   0.920   5.703   3.777 -0.2351  0.5068  0.4800
 4932TIP3    H114802   0.949   5.616   3.802 -0.2570  0.3923  0.1173
 4932TIP3    H214803   0.840   5.718   3.827  0.3354  0.7482  1.3447
 4933TIP3   OH214804   2.526   3.046   0.003 -0.2454 -0.0394 -0.6184
 4933TIP3    H114805   2.531   3.137   0.034 -0.5174  0.0363 -0.7976
 4933TIP3    H214806   2.611   3.009   0.025  0.0884  0.4320 -1.0709
 4934TIP3   OH214807   2.135   5.202   3.728  0.0002  0.7447  0.7326
 4934TIP3    H114808   2.177   5.116   3.733  2.3523  1.8271  0.8454
 4934TIP3    H214809   2.080   5.197   3.649 -0.2840 -0.9912  0.9975
 4935TIP3   OH214810   4.219   5.454   0.998  0.1374  1.0036  0.0378
 4935TIP3    H114811   4.148   5.514   0.974  0.0836  1.0559  0.3159
 4935TIP3    H214812   4.204   5.376   0.946  0.3572  1.3290 -0.5222
 4936TIP3   OH214813   0.391   0.923   4.794  0.0771  0.4268  0.4654
 4936TIP3    H114814   0.450   0.886   4.729  0.6429  0.3568  1.0148
 4936TIP3    H214815   0.309   0.875   4.783  0.7537 -0.9205  1.0725
 4937TIP3   OH214816   6.128   5.919   3.655 -0.1362 -0.6051 -0.1339
 4937TIP3    H114817   6.166   5.873   3.579 -0.6675 -1.4841  0.1156
 4937TIP3    H214818   6.177   5.885   3.730  0.8746  0.7926 -0.1246
 4938TIP3   OH214819   2.222   3.126   2.995 -1.0271 -0.0901 -0.4540
 4938TIP3    H114820   2.212   3.132   3.091 -0.1737 -2.7980 -0.1124
 4938TIP3    H214821   2.311   3.095   2.982 -0.5524  1.7838 -2.2957
 4939TIP3   OH214822   3.464   5.524   1.918  0.5021 -0.2854 -0.2974
 4939TIP3    H114823   3.479   5.440   1.876  2.5005 -0.5681  0.8540
 4939TIP3    H214824   3.462   5.505   2.012 -1.8716  0.5998 -0.1016
 4940TIP3   OH214825   2.399   0.540   2.373  0.0297 -0.4999 -0.5200
 4940TIP3    H114826   2.365   0.469   2.427  1.4447 -0.2890  0.7332
 4940TIP3    H214827   2.458   0.588   2.432  1.0536  0.1867 -2.0484
 4941TIP3   OH214828   0.637   2.709   3.544 -0.4796  0.1492 -0.3660
 4941TIP3    H114829   0.695   2.716   3.619  1.1598 -0.1103 -1.5570
 4941TIP3    H214830   0.609   2.799   3.527  0.6551  0.4734 -0.5801
 4942TIP3   OH214831   1.987   4.041   1.663 -0.1719 -0.4151 -0.5499
 4942TIP3    H114832   2.003   3.951   1.691  0.8204 -0.6057 -1.6617
 4942TIP3    H214833   1.955   4.085   1.742 -0.7747 -1.7520 -0.0133
 4943TIP3   OH214834   5.879   4.486   0.479  0.0307 -0.4650 -0.1548
 4943TIP3    H114835   5.954   4.431   0.457  0.1555  0.2567 -1.6530
 4943TIP3    H214836   5.909   4.539   0.553  1.1078  0.0057 -0.8985
 4944TIP3   OH214837   0.344   5.823   3.684 -0.6159 -0.5803  0.4150
 4944TIP3    H114838   0.350   5.893   3.749  0.2480 -0.8468  0.6325
 4944TIP3    H214839   0.376   5.864   3.603 -0.1544 -0.7029  0.5318
 4945TIP3   OH214840   4.276   2.026   0.154 -0.1574 -0.6162  0.3710
 4945TIP3    H114841   4.280   2.073   0.070 -2.7568  0.7148  0.8758
 4945TIP3    H214842   4.349   1.964   0.151  0.1228 -0.2753 -2.6599
 4946TIP3   OH214843   1.880   4.008   4.309 -0.2417 -0.1052 -0.3430
 4946TIP3    H114844   1.914   4.089   4.346  0.9972 -0.0691 -1.4961
 4946TIP3    H214845   1.945   3.982   4.244 -0.4389 -2.1960  0.2035
 4947TIP3   OH214846   5.752   4.680   2.443  0.0519 -0.1543  0.1238
 4947TIP3    H114847   5.707   4.672   2.359 -1.1774 -0.1761  0.7639
 4947TIP3    H214848   5.726   4.766   2.476 -0.0172 -0.4242  0.7838
 4948TIP3   OH214849   0.252   3.174   1.078  0.1667  0.2295  0.0315
 4948TIP3    H114850   0.223   3.239   1.143 -0.4439 -0.2540  0.2524
 4948TIP3    H214851   0.199   3.097   1.097 -0.5922  0.3332 -1.5575
 4949TIP3   OH214852   5.161   4.689   0.161 -0.1151 -0.0477 -0.5813
 4949TIP3    H114853   5.154   4.595   0.146 -0.3860  0.0902 -1.3612
 4949TIP3    H214854   5.092   4.708   0.225 -0.6161 -0.2479 -1.0548
 4950TIP3   OH214855   1.375   1.738   3.218  0.4744 -0.5567  0.1193
 4950TIP3    H114856   1.353   1.649   3.245  1.3291 -0.9449 -0.4717
 4950TIP3    H214857   1.450   1.729   3.160 -0.1326  0.4476 -0.8732
 4951TIP3   OH214858   3.173   3.946   2.263 -0.0907  0.2357  0.2922
 4951TIP3    H114859   3.172   3.963   2.357  2.4193  0.1108  0.4087
 4951TIP3    H214860   3.241   3.880   2.252  0.4749  1.0973 -1.7426
 4952TIP3   OH214861   5.534   3.147   2.424  0.2934 -0.4454 -1.0636
 4952TIP3    H114862   5.623   3.113   2.414  1.3729  1.8927 -0.1927
 4952TIP3    H214863   5.535   3.230   2.375 -1.4433 -0.4030 -1.0884
 4953TIP3   OH214864   4.944   2.735   0.672  0.0377 -0.1868  0.3253
 4953TIP3    H114865   4.878   2.745   0.604  0.3878  1.4852  0.1800
 4953TIP3    H214866   5.021   2.702   0.626  0.0586  0.2675  0.0239
 4954TIP3   OH214867   4.850   4.460   2.754  0.1222  0.2033  0.5001
 4954TIP3    H114868   4.801   4.379   2.736 -0.5122  0.6886 -0.0182
 4954TIP3    H214869   4.851   4.506   2.670 -4.3154  3.3169  1.7676
 4955TIP3   OH214870   4.827   2.568   1.146 -0.1936 -0.0676 -0.6291
 4955TIP3    H114871   4.889   2.569   1.073  1.4793  0.7337  0.7447
 4955TIP3    H214872   4.881   2.574   1.224 -2.0039  0.8304  0.6394
 4956TIP3   OH214873   3.260   5.141   1.916 -0.0667  0.1033 -0.2534
 4956TIP3    H114874   3.186   5.109   1.864 -0.1437  1.3131 -0.9281
 4956TIP3    H214875   3.221   5.203   1.978  0.1922 -0.4270  0.4649
 4957TIP3   OH214876   5.045   3.411   0.439 -0.7804  0.1262  0.2362
 4957TIP3    H114877   5.063   3.406   0.532  0.0569 -1.1635  0.0288
 4957TIP3    H214878   4.984   3.339   0.422  1.3316 -1.5756 -0.6552
 4958TIP3   OH214879   3.783   3.887   1.902  0.2383 -0.4407  0.2121
 4958TIP3    H114880   3.730   3.883   1.822  1.2999 -0.5867 -0.5148
 4958TIP3    H214881   3.829   3.971   1.896  0.4438 -0.5235  0.5934
 4959TIP3   OH214882   1.989   4.220   2.635  0.0422 -0.1922 -0.0263
 4959TIP3    H114883   2.052   4.201   2.704 -0.9181  0.3928  1.0459
 4959TIP3    H214884   1.967   4.313   2.647 -0.9884 -0.3730 -0.3750
 4960TIP3   OH214885   1.434   0.838   4.499  0.3238 -0.3894 -0.0404
 4960TIP3    H114886   1.516   0.876   4.467  0.9934  0.0829  2.0782
 4960TIP3    H214887   1.462   0.762   4.551 -0.5646 -0.2760  0.6228
 4961TIP3   OH214888   5.825   3.264   4.007 -0.0147 -0.2169 -0.7686
 4961TIP3    H114889   5.730   3.270   4.018  0.1815  1.5774  0.1966
 4961TIP3    H214890   5.837   3.251   3.913 -1.1794  0.8750 -1.0959
 4962TIP3   OH214891   6.005   0.634   1.428 -0.0731 -0.3889 -0.3461
 4962TIP3    H114892   5.913   0.661   1.437  0.2059  0.1745  1.2231
 4962TIP3    H214893   6.001   0.540   1.414 -0.8977 -0.4291  0.0363
 4963TIP3   OH214894   4.026   2.413   4.443  0.2879  0.3078 -0.6928
 4963TIP3    H114895   3.965   2.418   4.370  0.1675 -2.8757 -0.9742
 4963TIP3    H214896   4.098   2.359   4.410  0.2433 -1.2074  1.4592
 4964TIP3   OH214897   0.699   3.596   3.807  0.1992 -0.4845 -0.8221
 4964TIP3    H114898   0.744   3.550   3.736 -0.0537 -1.1018 -0.5906
 4964TIP3    H214899   0.607   3.597   3.780  0.0444 -1.0460 -0.3421
 4965TIP3   OH214900   0.346   1.804   4.303  0.3672  0.1481 -0.2410
 4965TIP3    H114901   0.427   1.779   4.347 -0.0710  0.7558  0.9545
 4965TIP3    H214902   0.287   1.830   4.374 -0.1168  1.9085 -1.2291
 4966TIP3   OH214903   6.267   2.711   2.569 -0.2064 -0.0831 -0.3704
 4966TIP3    H114904   6.268   2.751   2.656 -1.2846  1.2627 -0.9610
 4966TIP3    H214905   6.238   2.780   2.510  0.5296 -0.9621 -1.8319
 4967TIP3   OH214906   5.705   4.539   0.113 -0.4455  0.4148  0.5120
 4967TIP3    H114907   5.626   4.493   0.086 -0.8459  1.5082 -0.2247
 4967TIP3    H214908   5.693   4.629   0.083  0.6802  0.8208  1.1913
 4968TIP3   OH214909   5.898   0.246   0.885 -0.1058 -0.0850  0.4356
 4968TIP3    H114910   5.943   0.323   0.920  0.3629 -0.2815  0.2747
 4968TIP3    H214911   5.810   0.251   0.922 -0.0641  0.4988  0.4731
 4969TIP3   OH214912   1.865   3.688   3.048  0.1389  0.1063 -0.0698
 4969TIP3    H114913   1.784   3.726   3.081  1.1602  1.0051  1.5226
 4969TIP3    H214914   1.912   3.659   3.126  0.7175 -1.7716 -1.0636
 4970TIP3   OH214915   0.584   3.319   3.194  0.1391 -0.1146  0.6523
 4970TIP3    H114916   0.511   3.317   3.257 -0.2294 -0.8650  0.2161
 4970TIP3    H214917   0.581   3.407   3.157 -0.5341 -0.1281  0.6553
 4971TIP3   OH214918   5.091   0.844   2.087 -0.2238 -0.1926  0.0954
 4971TIP3    H114919   5.184   0.825   2.078  0.1348 -0.0381  2.7572
 4971TIP3    H214920   5.066   0.882   2.002  1.7248 -1.6402 -1.2241
 4972TIP3   OH214921   2.406   1.642   1.112  0.2994  0.8315 -0.1626
 4972TIP3    H114922   2.333   1.699   1.136 -0.7636 -0.8867  0.8746
 4972TIP3    H214923   2.458   1.695   1.051 -1.5075  2.2994 -0.5327
 4973TIP3   OH214924   4.015   5.434   2.680  0.0654 -0.0230 -0.4341
 4973TIP3    H114925   3.990   5.368   2.615 -0.0052 -0.9348  0.4791
 4973TIP3    H214926   4.093   5.476   2.644 -1.3969  1.2591 -2.2658
 4974TIP3   OH214927   6.184   3.395   3.123 -0.0474 -0.0410  0.1728
 4974TIP3    H114928   6.135   3.436   3.051 -0.6076 -0.1047  0.5181
 4974TIP3    H214929   6.273   3.429   3.112  0.1431 -0.8756 -1.1932
 4975TIP3   OH214930   2.690   3.409   1.248 -0.3620 -0.3711 -0.2437
 4975TIP3    H114931   2.685   3.426   1.342  1.6824 -0.0034 -0.1579
 4975TIP3    H214932   2.681   3.314   1.240 -0.0594 -0.4549  0.3755
 4976TIP3   OH214933   0.766   2.721   1.575 -0.3996  0.2040  0.2291
 4976TIP3    H114934   0.794   2.713   1.484  1.6977  2.5971  0.5653
 4976TIP3    H214935   0.675   2.751   1.569 -0.5705 -0.4724 -1.0117
 4977TIP3   OH214936   2.029   1.939   1.614 -0.0389  0.6410 -0.3267
 4977TIP3    H114937   2.088   1.919   1.542 -0.4215  0.6122 -0.6307
 4977TIP3    H214938   1.985   1.857   1.634  2.2302 -0.1857  1.9701
 4978TIP3   OH214939   0.567   4.121   2.147 -0.7570  0.1617  0.1070
 4978TIP3    H114940   0.595   4.165   2.067 -1.0070  0.8538  0.3958
 4978TIP3    H214941   0.614   4.037   2.145  0.6298  0.9143  0.1327
 4979TIP3   OH214942   1.631   4.935   2.098 -0.6808  0.5129  0.3965
 4979TIP3    H114943   1.646   5.015   2.048 -1.7690 -0.1077 -0.9817
 4979TIP3    H214944   1.537   4.917   2.088 -0.1884 -1.8587 -0.8328
 4980TIP3   OH214945   2.088   1.336   0.830  0.2304 -0.1317 -0.1608
 4980TIP3    H114946   2.117   1.380   0.750 -1.5972  0.0969 -0.7419
 4980TIP3    H214947   2.128   1.385   0.901  1.0379  0.3054 -0.9046
 4981TIP3   OH214948   3.233   4.613   1.762  0.3030 -0.3845 -0.5244
 4981TIP3    H114949   3.163   4.574   1.814  0.6289  0.4474  0.5953
 4981TIP3    H214950   3.311   4.562   1.785  0.8982  1.2843  1.5637
 4982TIP3   OH214951   5.495   3.801   4.347  0.2095 -0.3771 -0.2090
 4982TIP3    H114952   5.576   3.820   4.393  0.3393  0.6313 -0.8093
 4982TIP3    H214953   5.454   3.887   4.336 -1.4546 -0.9572  0.9935
 4983TIP3   OH214954   0.316   2.346   2.275 -0.4716  0.1099 -0.2478
 4983TIP3    H114955   0.333   2.335   2.369 -0.6147  2.4556  0.1346
 4983TIP3    H214956   0.235   2.298   2.259 -0.9666  0.4584  1.0602
 4984TIP3   OH214957   4.460   5.782   0.535  0.3723 -0.8066 -0.5468
 4984TIP3    H114958   4.454   5.771   0.440  0.3163 -0.0683 -0.6377
 4984TIP3    H214959   4.516   5.710   0.564 -0.8454 -1.9344 -0.9362
 4985TIP3   OH214960   2.080   5.037   2.211  0.0595 -0.3215  0.8230
 4985TIP3    H114961   2.007   4.993   2.255 -1.8659  1.7721 -0.0505
 4985TIP3    H214962   2.105   5.107   2.272 -0.7093  0.8077 -0.1163
 4986TIP3   OH214963   1.123   4.651   3.910 -0.0926  0.3058 -0.3955
 4986TIP3    H114964   1.138   4.724   3.969 -0.1941 -0.0621  0.0968
 4986TIP3    H214965   1.205   4.602   3.910  0.0275  0.4984 -0.8445
 4987TIP3   OH214966   5.161   1.373   1.423  0.2279  0.3314  0.6300
 4987TIP3    H114967   5.171   1.348   1.515 -0.9619  0.9202  0.9290
 4987TIP3    H214968   5.116   1.298   1.383 -0.9339  0.8568  0.9415
 4988TIP3   OH214969   1.146   1.120   4.067  0.1428  0.3561 -0.6691
 4988TIP3    H114970   1.081   1.191   4.069  1.4650  1.6181 -0.6440
 4988TIP3    H214971   1.161   1.103   3.975 -0.8244 -0.5351 -0.6757
 4989TIP3   OH214972   5.723   1.785   1.865 -0.0738 -0.3214 -0.0245
 4989TIP3    H114973   5.682   1.708   1.825 -0.3019 -0.2927  0.1521
 4989TIP3    H214974   5.677   1.860   1.827  1.1415 -0.1957 -1.3374
 4990TIP3   OH214975   1.018   3.694   0.531 -0.3715 -0.1653  0.3313
 4990TIP3    H114976   1.023   3.781   0.493 -1.1497 -0.7041 -1.0733
 4990TIP3    H214977   1.105   3.679   0.568  0.5532  0.2920 -1.5233
 4991TIP3   OH214978   6.026   2.280   1.346 -0.2168 -0.0869  0.3218
 4991TIP3    H114979   6.001   2.208   1.288  1.2198 -0.3168 -0.0326
 4991TIP3    H214980   6.055   2.350   1.287  2.5580 -0.8024  0.7253
 4992TIP3   OH214981   2.540   1.651   2.234 -0.2684  0.0359  0.6605
 4992TIP3    H114982   2.550   1.680   2.325 -0.8017 -1.2542  1.1622
 4992TIP3    H214983   2.618   1.682   2.190 -1.1835  2.9712  0.8982
 4993TIP3   OH214984   0.946   5.803   0.510  0.4209 -0.2124  0.3818
 4993TIP3    H114985   0.991   5.768   0.433  1.0833  1.9881 -0.2934
 4993TIP3    H214986   0.952   5.732   0.575  0.5022 -1.8324 -1.3107
 4994TIP3   OH214987   2.961   4.155   3.383  0.5504  0.1363  0.0105
 4994TIP3    H114988   2.886   4.110   3.343 -1.6152  1.2844  2.5006
 4994TIP3    H214989   3.005   4.088   3.435  0.8171 -0.3619 -0.8371
 4995TIP3   OH214990   4.357   5.221   0.666  0.1259 -0.0546  0.2243
 4995TIP3    H114991   4.444   5.252   0.689 -0.1251 -1.0757  2.8543
 4995TIP3    H214992   4.367   5.127   0.654 -0.4969 -0.0696 -0.2443
 4996TIP3   OH214993   0.713   4.015   4.724 -0.0692 -0.6021  0.0954
 4996TIP3    H114994   0.628   4.031   4.765  0.1657 -1.4391  0.9619
 4996TIP3    H214995   0.694   4.008   4.631 -0.9214 -0.5477  0.2573
 4997TIP3   OH214996   4.907   0.439   3.242  0.4923 -0.0504 -0.8045
 4997TIP3    H114997   4.977   0.474   3.297  1.8867 -3.3067 -0.2431
 4997TIP3    H214998   4.937   0.455   3.152 -0.3194  2.5778 -0.6681
 4998TIP3   OH214999   0.913   0.501   0.319 -0.2223  0.2904  0.3653
 4998TIP3    H115000   0.852   0.482   0.390 -0.2352  2.6217  1.0771
 4998TIP3    H215001   0.999   0.505   0.362  0.1469 -0.8397 -0.2418
 4999TIP3   OH215002   2.547   3.642   1.132  0.7789 -0.1658  0.5566
 4999TIP3    H115003   2.576   3.690   1.055  1.0388 -0.3447  0.5432
 4999TIP3    H215004   2.596   3.682   1.204  0.6499 -0.1009  0.6090
 5000TIP3   OH215005   0.646   3.071   0.380  0.1647  0.5771 -0.1829
 5000TIP3    H115006   0.627   3.117   0.299  2.7671  1.2001 -0.5043
 5000TIP3    H215007   0.684   2.987   0.352  0.3881  0.4770  0.4070
 5001TIP3   OH215008   1.992   2.769   0.526  0.2908  0.0230 -0.0770
 5001TIP3    H115009   2.025   2.714   0.455 -0.2178 -0.4144  0.0241
 5001TIP3    H215010   1.898   2.777   0.510  0.3930  1.1089 -0.2523
 5002TIP3   OH215011   0.654   4.723   0.892 -0.6335 -0.0885  0.3598
 5002TIP3    H115012   0.603   4.802   0.910 -0.3405  0.1703  0.0578
 5002TIP3    H215013   0.724   4.752   0.834 -0.9866 -0.7230 -0.3949
 5003TIP3   OH215014   0.603   1.252   3.638 -0.0933 -0.3306 -0.1575
 5003TIP3    H115015   0.586   1.169   3.594  1.4397 -2.2364  2.5617
 5003TIP3    H215016   0.516   1.290   3.651 -0.7633 -0.9304 -2.3363
 5004TIP3   OH215017   3.273   5.373   3.343 -0.4607 -0.9022 -0.2198
 5004TIP3    H115018   3.324   5.449   3.315 -0.4359 -1.6874 -2.4659
 5004TIP3    H215019   3.327   5.330   3.410  0.5562 -0.2133 -0.5875
 5005TIP3   OH215020   2.589   5.539   3.652  0.2726 -0.4207  0.0123
 5005TIP3    H115021   2.665   5.482   3.645  0.2207 -0.6306  1.0728
 5005TIP3    H215022   2.626   5.626   3.667  0.3275 -0.3014 -0.7671
 5006TIP3   OH215023   2.180   2.642   4.212 -0.3093  0.0453  0.3342
 5006TIP3    H115024   2.116   2.600   4.154  0.0588 -0.4498  0.2760
 5006TIP3    H215025   2.254   2.664   4.155 -1.0331  2.0326  0.0896
 5007TIP3   OH215026   0.484   5.189   1.263  0.1313 -0.4012 -0.1984
 5007TIP3    H115027   0.449   5.238   1.338  3.6308 -0.0227  1.3549
 5007TIP3    H215028   0.480   5.098   1.290  2.2478 -0.2083  0.9773
 5008TIP3   OH215029   2.465   3.589   0.178 -0.5622  0.4060  0.2190
 5008TIP3    H115030   2.513   3.616   0.256 -0.1045  2.1331 -0.6133
 5008TIP3    H215031   2.515   3.516   0.142 -0.6043 -0.1971  1.3394
 5009TIP3   OH215032   3.469   3.667   0.939 -0.3263 -0.8600 -0.2341
 5009TIP3    H115033   3.454   3.756   0.971  1.4719 -1.0226  1.1580
 5009TIP3    H215034   3.393   3.617   0.970 -0.5182 -0.1787  0.4047
 5010TIP3   OH215035   3.882   2.658   0.022  0.2766 -0.6375 -0.7406
 5010TIP3    H115036   3.880   2.597   0.096  1.6732  0.4737  0.2944
 5010TIP3    H215037   3.882   2.745   0.063  3.0357  0.0203 -1.9013
 5011TIP3   OH215038   3.320   1.784   1.762  0.3136  0.0950  0.2633
 5011TIP3    H115039   3.414   1.789   1.743  0.1364  0.2729 -0.6319
 5011TIP3    H215040   3.310   1.701   1.809  1.5241  1.9997  4.3237
 5012TIP3   OH215041   1.334   5.428   2.800  0.5836  0.4311  0.0689
 5012TIP3    H115042   1.252   5.409   2.845  1.1637 -0.8479  0.6370
 5012TIP3    H215043   1.355   5.518   2.825 -0.2087  0.4727  0.6214
 5013TIP3   OH215044   0.380  -0.003   0.317 -0.3541 -0.1672  0.5034
 5013TIP3    H115045   0.340   0.077   0.352 -1.5976 -0.8108  0.5886
 5013TIP3    H215046   0.431  -0.038   0.390  0.7777  0.8864  0.2642
 5014TIP3   OH215047   6.179   2.910   3.558 -0.6329  0.0731  0.3346
 5014TIP3    H115048   6.144   2.994   3.589 -0.8391  0.5474 -1.1163
 5014TIP3    H215049   6.223   2.873   3.635 -0.5132  1.5212  1.0039
 5015TIP3   OH215050   3.406   2.724   3.796  0.0703  0.3382 -0.1994
 5015TIP3    H115051   3.473   2.786   3.822  1.9172 -1.4343 -0.5051
 5015TIP3    H215052   3.453   2.642   3.783 -1.9548 -0.6516 -1.7730
 5016TIP3   OH215053   3.127   3.206   4.002  0.1349 -0.0969  0.3282
 5016TIP3    H115054   3.054   3.146   4.019 -0.6906  0.4408 -1.1788
 5016TIP3    H215055   3.184   3.157   3.942 -2.0322  1.5438 -3.3937
 5017TIP3   OH215056   1.345   5.365   1.202 -0.2799 -0.0863 -0.3543
 5017TIP3    H115057   1.305   5.283   1.232 -0.0479  0.2303  0.8435
 5017TIP3    H215058   1.415   5.382   1.264  0.0464  0.7375 -0.9287
 5018TIP3   OH215059   1.208   3.860   2.793 -0.0565 -0.2169  0.6512
 5018TIP3    H115060   1.247   3.938   2.833 -1.5951 -0.4898  2.7903
 5018TIP3    H215061   1.140   3.895   2.735  0.0302  0.0648  0.7158
 5019TIP3   OH215062   6.073   5.386   4.207 -0.3409  0.5766 -0.2211
 5019TIP3    H115063   6.123   5.447   4.261 -0.8446  0.0584  0.8623
 5019TIP3    H215064   6.128   5.371   4.130  0.8887  0.5038  0.6481
 5020TIP3   OH215065   5.377   2.321   1.478  0.0273  0.1490 -0.6202
 5020TIP3    H115066   5.459   2.343   1.523  0.2308 -0.1241 -0.8584
 5020TIP3    H215067   5.323   2.400   1.486  0.8331  0.8189 -1.6634
 5021TIP3   OH215068   1.357   2.742   4.778  1.0002  0.3155 -0.0764
 5021TIP3    H115069   1.450   2.721   4.777  1.3175  1.5938 -0.8302
 5021TIP3    H215070   1.344   2.795   4.699 -0.4700 -0.2557 -0.2458
 5022TIP3   OH215071   0.490   3.559   4.256 -0.2160  0.0428 -0.5586
 5022TIP3    H115072   0.403   3.575   4.219  0.5949  0.0772 -2.5986
 5022TIP3    H215073   0.551   3.599   4.193  1.2410  2.3817  2.1070
 5023TIP3   OH215074   3.180   5.441   1.267 -0.2572  0.3908  0.4963
 5023TIP3    H115075   3.100   5.405   1.229  0.0727  0.7982 -0.6418
 5023TIP3    H215076   3.149   5.513   1.322 -0.6907  0.4550  0.1803
 5024TIP3   OH215077   3.103   3.577   2.512 -0.0432  0.1381  0.1279
 5024TIP3    H115078   3.083   3.549   2.601 -0.9343 -0.6193 -0.2887
 5024TIP3    H215079   3.078   3.502   2.457  0.5203  0.5748 -0.7591
 5025TIP3   OH215080   5.042   1.293   3.274  0.4209 -0.4729 -0.9630
 5025TIP3    H115081   4.988   1.316   3.351  1.3639  0.1564 -0.4639
 5025TIP3    H215082   4.983   1.245   3.217 -1.0539  1.2397 -0.9986
 5026TIP3   OH215083   4.697   5.323   1.381  0.0993 -0.7104 -0.4636
 5026TIP3    H115084   4.746   5.331   1.299 -0.4879  3.0376 -0.6323
 5026TIP3    H215085   4.747   5.259   1.432  3.1041  0.1780 -2.0181
 5027TIP3   OH215086   2.962   5.833   3.839  0.0532 -0.2807 -0.0405
 5027TIP3    H115087   2.920   5.797   3.761 -0.0126 -0.1208 -0.0809
 5027TIP3    H215088   3.055   5.829   3.820  0.0308 -0.0616 -0.2120
 5028TIP3   OH215089   2.679   5.921   0.054 -0.4692 -0.0010 -0.3050
 5028TIP3    H115090   2.597   5.902   0.099 -0.1247 -0.4852  0.1350
 5028TIP3    H215091   2.697   6.012   0.075 -1.6198  0.5683 -1.5999
 5029TIP3   OH215092   1.746   1.492   1.665  0.2398 -0.3223  0.2935
 5029TIP3    H115093   1.675   1.513   1.605  1.1887 -2.2298 -1.6513
 5029TIP3    H215094   1.703   1.480   1.749 -1.7608 -1.2362 -0.7840
 5030TIP3   OH215095   5.963   2.007   0.740 -0.3147 -0.0223 -0.4985
 5030TIP3    H115096   5.896   1.990   0.806  2.1003 -0.6048  1.9527
 5030TIP3    H215097   5.916   2.052   0.670 -3.1109  0.2328  1.3807
 5031TIP3   OH215098   2.009   5.304   4.928 -0.1779  0.4416  0.2873
 5031TIP3    H115099   2.019   5.323   4.834  0.6850  0.2461  0.3305
 5031TIP3    H215100   2.034   5.212   4.936 -0.4984  0.3864  0.6798
 5032TIP3   OH215101   3.397   1.444   1.581  0.3813 -0.1844  0.2039
 5032TIP3    H115102   3.386   1.522   1.528  0.6198 -0.5810 -0.4376
 5032TIP3    H215103   3.309   1.424   1.613  0.4107  0.6800  0.8653
 5033TIP3   OH215104   3.882   4.634   4.436 -0.1453  0.1372 -0.7396
 5033TIP3    H115105   3.970   4.634   4.475 -0.7403 -0.9074  0.6493
 5033TIP3    H215106   3.823   4.644   4.510 -1.2030  1.4955 -1.7317
 5034TIP3   OH215107   5.606   3.814   0.880  0.5832 -0.0641  0.0495
 5034TIP3    H115108   5.651   3.751   0.937  1.3410  0.5387  0.1492
 5034TIP3    H215109   5.675   3.877   0.856  0.0064  0.3256 -0.6123
 5035TIP3   OH215110   0.383   5.497   1.248  0.6007 -0.3253  0.2696
 5035TIP3    H115111   0.430   5.424   1.208  0.2282 -0.2467 -0.3248
 5035TIP3    H215112   0.344   5.545   1.174  1.4388  0.8977  0.5841
 5036TIP3   OH215113   5.499   0.782   2.174  0.3949  0.6825  0.1196
 5036TIP3    H115114   5.570   0.839   2.143 -0.7947  0.7667 -2.7270
 5036TIP3    H215115   5.520   0.696   2.138 -0.7694  0.6439 -0.5069
 5037TIP3   OH215116   5.740   5.282   2.561  0.2398 -0.9626 -0.3533
 5037TIP3    H115117   5.823   5.282   2.513  0.1398 -1.3424 -0.5319
 5037TIP3    H215118   5.750   5.350   2.627 -0.4540  1.2227 -2.3596
 5038TIP3   OH215119   0.220   5.391   2.140 -0.9544  0.4775 -0.0508
 5038TIP3    H115120   0.177   5.318   2.095  0.1156 -0.1634 -0.0542
 5038TIP3    H215121   0.259   5.351   2.218 -0.3449  1.0480 -0.0594
 5039TIP3   OH215122   2.729   0.361   4.057 -0.2405 -0.6979 -0.3293
 5039TIP3    H115123   2.647   0.311   4.051  0.0404 -1.1205 -0.6773
 5039TIP3    H215124   2.747   0.389   3.968 -0.6388  0.4388 -0.0726
 5040TIP3   OH215125   0.975   0.889   1.024  0.2314 -0.4715  0.2387
 5040TIP3    H115126   1.067   0.907   1.045 -0.1899  1.0853  0.8705
 5040TIP3    H215127   0.925   0.945   1.083 -1.0722  1.0222 -2.1109
 5041TIP3   OH215128   3.314   3.733   1.733 -0.2187 -0.3361 -0.0806
 5041TIP3    H115129   3.330   3.741   1.827  1.0371  0.7479 -0.3469
 5041TIP3    H215130   3.227   3.770   1.720 -0.6173 -0.9818  0.7213
 5042TIP3   OH215131   0.197   5.205   3.581 -0.3799  0.6572  0.0079
 5042TIP3    H115132   0.246   5.213   3.499  0.1256  0.4158  0.2827
 5042TIP3    H215133   0.233   5.127   3.624 -2.0951 -0.4796 -0.5111
 5043TIP3   OH215134   0.084   4.791   0.730  0.4087 -0.2695 -0.0354
 5043TIP3    H115135   0.032   4.829   0.659  0.3666  0.7425  0.5302
 5043TIP3    H215136   0.038   4.710   0.752 -1.1690  0.7698  0.6931
 5044TIP3   OH215137   4.105   2.499   3.845 -0.5360  0.4541  0.5552
 5044TIP3    H115138   4.158   2.560   3.794  0.7241 -0.2651  0.9560
 5044TIP3    H215139   4.040   2.553   3.888 -0.4496  1.3025 -0.3470
 5045TIP3   OH215140   1.399   3.524   0.332  0.5149 -0.2733 -0.2814
 5045TIP3    H115141   1.440   3.500   0.415 -0.0777  3.1743  1.1748
 5045TIP3    H215142   1.470   3.560   0.280  0.2870  1.0240  0.2633
 5046TIP3   OH215143   2.039   2.694   1.606 -0.5591  0.7852  0.2501
 5046TIP3    H115144   1.983   2.770   1.623  0.8146  2.0060 -0.4029
 5046TIP3    H215145   2.055   2.655   1.692 -2.6090  0.2198  0.4185
 5047TIP3   OH215146   4.040   2.782   1.642  0.2051  0.8960  0.4563
 5047TIP3    H115147   4.126   2.797   1.681  0.5607  0.4749 -0.1410
 5047TIP3    H215148   4.043   2.690   1.614 -0.2145  1.0476 -0.1006
 5048TIP3   OH215149   4.499   4.809   0.772  0.2478  0.0335  0.3226
 5048TIP3    H115150   4.439   4.797   0.698  0.3294  0.4033  0.1948
 5048TIP3    H215151   4.441   4.812   0.848  0.0545  0.8586  0.1558
 5049TIP3   OH215152   4.049   2.036   3.952  0.2279 -0.0920 -0.6805
 5049TIP3    H115153   4.122   1.994   3.907  0.3498  0.7887 -1.3296
 5049TIP3    H215154   4.084   2.120   3.982 -0.5638  0.4228 -1.1737
 5050TIP3   OH215155   2.614   1.356   2.047  0.3406  0.0720  0.7504
 5050TIP3    H115156   2.605   1.369   1.953  1.4681 -1.6242  0.3533
 5050TIP3    H215157   2.525   1.340   2.078  0.0211  0.1426 -0.1049
 5051TIP3   OH215158   5.110   3.733   1.531  0.3240  0.1508 -0.1372
 5051TIP3    H115159   5.112   3.643   1.499  0.6681  1.0867 -3.0703
 5051TIP3    H215160   5.017   3.755   1.532  0.3202  0.9284 -3.5252
 5052TIP3   OH215161   2.376   0.725   2.184  0.2965 -0.3710  0.1746
 5052TIP3    H115162   2.442   0.700   2.119  0.3456 -1.5295  0.6461
 5052TIP3    H215163   2.383   0.658   2.252 -1.7605 -0.8679 -0.0394
 5053TIP3   OH215164   4.651   3.310   1.614  0.2890  0.2266  0.2376
 5053TIP3    H115165   4.575   3.362   1.589 -0.6261 -0.5910  1.2441
 5053TIP3    H215166   4.675   3.341   1.701  0.1467 -0.5519  0.5672
 5054TIP3   OH215167   3.237   4.633   0.976 -0.6735 -0.0029  0.4705
 5054TIP3    H115168   3.216   4.645   0.884 -0.1745 -1.8987  0.0564
 5054TIP3    H215169   3.187   4.700   1.022 -1.9198  0.1678 -1.0818
 5055TIP3   OH215170   1.543   4.360   4.798 -0.2152 -0.2755 -0.0493
 5055TIP3    H115171   1.573   4.425   4.861  1.2764 -0.9284 -0.0383
 5055TIP3    H215172   1.577   4.277   4.831 -0.8285 -0.8646 -0.8444
 5056TIP3   OH215173   0.311   2.707   1.909 -0.5011  0.1948 -0.3370
 5056TIP3    H115174   0.325   2.652   1.832 -0.3798 -0.4444  0.1370
 5056TIP3    H215175   0.250   2.657   1.964  0.2153  0.1730  0.4591
 5057TIP3   OH215176   4.918   5.566   3.529  0.2745  0.3550  0.0459
 5057TIP3    H115177   4.999   5.586   3.576 -0.4170  2.4689  0.4608
 5057TIP3    H215178   4.861   5.526   3.595  0.6266 -0.2160  0.0072
 5058TIP3   OH215179   3.621   1.975   1.992 -0.2993  0.3925 -0.2045
 5058TIP3    H115180   3.581   2.051   2.034 -0.9905  0.5558 -1.1431
 5058TIP3    H215181   3.563   1.902   2.012 -0.8532  0.5463 -1.1939
 5059TIP3   OH215182   3.926   3.951   2.301 -0.2271 -0.1554 -0.3846
 5059TIP3    H115183   3.926   3.888   2.373  0.0558 -1.2709 -1.3389
 5059TIP3    H215184   3.949   3.900   2.224  0.6589  1.2404 -1.0844
 5060TIP3   OH215185   1.434   0.309   1.313 -0.4020  0.5195  0.5952
 5060TIP3    H115186   1.483   0.291   1.232  0.9488  1.0993  1.2700
 5060TIP3    H215187   1.342   0.299   1.287  0.0347 -0.2166 -0.7895
 5061TIP3   OH215188   6.283   3.201   3.406  0.0426 -0.4950 -0.5862
 5061TIP3    H115189   6.201   3.174   3.364 -0.3613  0.1746 -0.2457
 5061TIP3    H215190   6.268   3.188   3.499  0.2649 -0.2086 -0.5097
 5062TIP3   OH215191   4.284   0.436   4.034 -0.5756 -0.3210  0.2475
 5062TIP3    H115192   4.246   0.384   4.104  2.6478 -0.9567  1.7035
 5062TIP3    H215193   4.260   0.526   4.055 -0.9610 -0.6554  1.2897
 5063TIP3   OH215194   3.703   5.607   0.356  0.3959 -0.8554 -0.3425
 5063TIP3    H115195   3.733   5.621   0.446  0.9126 -0.6386 -0.5450
 5063TIP3    H215196   3.784   5.597   0.306  0.1121 -3.2686 -0.4310
 5064TIP3   OH215197   4.872   0.049   2.419  0.6434  0.2523  0.4679
 5064TIP3    H115198   4.957   0.084   2.390  1.5018 -1.9216  0.1700
 5064TIP3    H215199   4.841   0.113   2.483  1.5210  2.1346 -0.8970
 5065TIP3   OH215200   1.773   0.683   0.077 -0.1427 -0.1956  0.1985
 5065TIP3    H115201   1.726   0.603   0.101 -0.8034  0.0967 -0.0976
 5065TIP3    H215202   1.733   0.711  -0.006  0.3804  0.1997  0.0721
 5066TIP3   OH215203   3.398   1.927   0.079  0.0019 -0.5154 -0.0149
 5066TIP3    H115204   3.328   1.879   0.035  1.2038 -2.3412 -0.0477
 5066TIP3    H215205   3.400   1.890   0.167  0.7328 -0.2876  0.0708
 5067TIP3   OH215206   6.275   5.396   1.237  0.2888  0.0828  0.2461
 5067TIP3    H115207   6.352   5.339   1.232 -0.1790 -0.5945  0.5012
 5067TIP3    H215208   6.234   5.388   1.150 -0.0640 -0.4007  0.4498
 5068TIP3   OH215209   6.125   3.950   1.820  1.0320  0.6841  0.1831
 5068TIP3    H115210   6.073   3.967   1.899 -0.3390 -0.6700 -0.3719
 5068TIP3    H215211   6.161   4.035   1.796  0.9038  1.2489  1.8677
 5069TIP3   OH215212   1.505   2.911   0.146 -0.5134  0.1794 -0.1432
 5069TIP3    H115213   1.460   2.995   0.152 -1.2185 -0.2534  1.1046
 5069TIP3    H215214   1.598   2.932   0.160 -0.5764  0.8307 -0.6546
 5070TIP3   OH215215   4.360   1.359   0.866 -0.3447 -0.0176  0.2991
 5070TIP3    H115216   4.331   1.283   0.815 -0.0820 -0.3940  0.6969
 5070TIP3    H215217   4.301   1.429   0.841 -2.0764 -0.9322  1.6377
 5071TIP3   OH215218   3.266   1.751   1.241  0.5171 -0.9211  0.0379
 5071TIP3    H115219   3.235   1.661   1.231  1.1506 -1.0108 -1.2854
 5071TIP3    H215220   3.276   1.784   1.152  0.4310  0.4264  0.4975
 5072TIP3   OH215221   4.088   3.448   5.163  0.2285 -0.2187  0.3555
 5072TIP3    H115222   4.117   3.393   5.090  0.0660 -0.6328  0.5975
 5072TIP3    H215223   3.995   3.462   5.147  0.3693  0.3574  0.0568
 5073TIP3   OH215224   0.372   0.030   2.144  0.6012  0.2223 -0.1286
 5073TIP3    H115225   0.444   0.092   2.152  1.6095 -0.8426 -0.6690
 5073TIP3    H215226   0.377  -0.023   2.223  0.0221  0.5142  0.1158
 5074TIP3   OH215227   6.258   3.674   3.603 -0.6801 -0.2083  0.0751
 5074TIP3    H115228   6.267   3.651   3.510 -1.0820 -0.8494  0.1903
 5074TIP3    H215229   6.346   3.697   3.630 -0.3713 -1.0112 -0.2120
 5075TIP3   OH215230   0.740   4.501   3.614  0.2715 -0.3853 -0.0508
 5075TIP3    H115231   0.691   4.443   3.555  0.0133  0.7315 -0.9772
 5075TIP3    H215232   0.773   4.571   3.557  1.7438 -0.3415  0.8008
 5076TIP3   OH215233   1.932   2.008   2.874 -0.0322  0.1657  0.0173
 5076TIP3    H115234   1.844   1.977   2.896  0.1836 -0.1484  0.4465
 5076TIP3    H215235   1.928   2.026   2.780  0.2363 -2.5328 -0.5810
 5077TIP3   OH215236   1.553   4.147   3.841 -0.0946 -0.4601 -0.4035
 5077TIP3    H115237   1.517   4.107   3.920  2.2562 -2.2865 -0.1363
 5077TIP3    H215238   1.518   4.095   3.769 -0.6951 -0.0204 -0.4391
 5078TIP3   OH215239   2.862   2.049   0.815 -0.3385 -0.4620 -0.1214
 5078TIP3    H115240   2.843   1.956   0.813 -0.9583 -0.3724  0.7348
 5078TIP3    H215241   2.899   2.069   0.729 -1.7268 -1.1894 -0.9262
 5079TIP3   OH215242   1.893   3.660   0.260  0.5400  0.2089  0.5166
 5079TIP3    H115243   1.921   3.728   0.199 -1.4309  1.3104  0.7337
 5079TIP3    H215244   1.933   3.580   0.228  1.5921  1.1827 -0.7151
 5080TIP3   OH215245   4.740   4.113   1.018  0.4752  0.1004  0.1452
 5080TIP3    H115246   4.705   4.180   0.960 -1.4543 -0.8639  0.1163
 5080TIP3    H215247   4.677   4.107   1.089  2.0237  0.1965  1.5936
 5081TIP3   OH215248   0.952   0.818   4.636  0.4533  0.1611 -0.1914
 5081TIP3    H115249   1.043   0.841   4.658 -0.0726  3.1741 -0.8337
 5081TIP3    H215250   0.899   0.866   4.700 -0.7513 -0.9902 -0.2812
 5082TIP3   OH215251   1.020   1.933   0.479 -0.3454  0.4395  0.5722
 5082TIP3    H115252   0.987   1.865   0.538 -0.4393  1.9109  2.3363
 5082TIP3    H215253   0.998   2.015   0.523 -0.6872  1.6554 -1.7199
 5083TIP3   OH215254   0.021   5.221   0.490 -0.3044  0.7773  0.6834
 5083TIP3    H115255  -0.030   5.237   0.411 -0.4365  1.2886  0.8647
 5083TIP3    H215256   0.080   5.297   0.496 -0.7274  1.0608  1.4068
 5084TIP3   OH215257   5.074   4.851   3.081  0.0640  0.0856 -0.4945
 5084TIP3    H115258   5.004   4.899   3.127 -0.5781 -0.9144 -0.4067
 5084TIP3    H215259   5.081   4.768   3.128 -0.6722 -1.0094 -2.2384
 5085TIP3   OH215260   6.253   2.218   1.532 -0.3448 -0.3689  0.1950
 5085TIP3    H115261   6.229   2.275   1.606  2.4404  1.2929 -0.0356
 5085TIP3    H215262   6.175   2.216   1.478 -1.8032  0.0391  2.1541
 5086TIP3   OH215263   0.845   4.874   1.169 -0.7924 -0.3272  0.4100
 5086TIP3    H115264   0.926   4.863   1.219 -1.0547 -0.1074  0.8937
 5086TIP3    H215265   0.792   4.797   1.191 -0.7502 -0.4235  0.1690
 5087TIP3   OH215266   0.983   1.173   3.725 -0.2980  0.5413  0.1083
 5087TIP3    H115267   0.951   1.261   3.741 -1.6104  0.2076 -0.5898
 5087TIP3    H215268   1.065   1.186   3.676 -1.9199  1.3826 -2.5642
 5088TIP3   OH215269   0.321   3.253   2.562 -0.2438 -0.0542  0.4980
 5088TIP3    H115270   0.271   3.253   2.643  1.1553  1.1610  1.4188
 5088TIP3    H215271   0.320   3.345   2.533  1.7173  0.0909  0.7540
 5089TIP3   OH215272   1.478   5.737   0.792  0.0925 -0.4592 -0.6770
 5089TIP3    H115273   1.383   5.751   0.794  0.1673 -0.0129 -0.2636
 5089TIP3    H215274   1.494   5.673   0.861  0.4937  1.9638  1.6165
 5090TIP3   OH215275   5.461   0.972   2.382  0.2483  0.6792 -0.2858
 5090TIP3    H115276   5.546   1.001   2.416  0.5126 -0.1609 -0.2098
 5090TIP3    H215277   5.475   0.881   2.357 -0.9777  0.1365  0.9109
 5091TIP3   OH215278   2.935   4.178   0.386  0.3113 -1.0905 -0.3884
 5091TIP3    H115279   2.980   4.153   0.467  3.4482 -0.4383 -1.7751
 5091TIP3    H215280   2.855   4.220   0.416  1.8513  0.1433  2.4848
 5092TIP3   OH215281   0.071   0.214   0.950 -0.4472 -0.6354  0.0142
 5092TIP3    H115282   0.107   0.249   0.869  1.3409  0.5301  1.2408
 5092TIP3    H215283   0.137   0.150   0.979  0.0536  0.5646  1.6340
 5093TIP3   OH215284   3.987   0.615   2.336 -0.1507 -0.0900  0.2695
 5093TIP3    H115285   3.933   0.551   2.290  0.3206 -0.6504  0.4843
 5093TIP3    H215286   4.062   0.565   2.367  0.2690  0.5924  0.3633
 5094TIP3   OH215287   5.211   5.537   2.983 -0.6601 -0.0043 -0.4957
 5094TIP3    H115288   5.270   5.462   2.991 -1.6311 -0.7756 -0.3069
 5094TIP3    H215289   5.161   5.536   3.065 -1.4784  0.1429 -0.9828
 5095TIP3   OH215290   2.276   3.224   0.598  0.1725 -0.1832 -0.1197
 5095TIP3    H115291   2.368   3.236   0.622  0.2249 -1.6012  0.4875
 5095TIP3    H215292   2.232   3.208   0.681 -0.6721  0.6789 -0.3898
 5096TIP3   OH215293   3.094   2.022   3.103 -0.2296  0.7479 -0.0220
 5096TIP3    H115294   3.119   1.995   3.015 -1.3509 -0.2062 -0.0766
 5096TIP3    H215295   3.124   1.952   3.160 -0.9243  0.5701  0.1433
 5097TIP3   OH215296   2.503   2.920   4.277  0.3432 -0.3411 -0.4168
 5097TIP3    H115297   2.515   2.897   4.185  0.0264  0.6343 -0.7121
 5097TIP3    H215298   2.585   2.961   4.303 -0.2582  1.1933 -0.8430
 5098TIP3   OH215299   4.878   2.000   5.009 -0.1687  0.1831  0.0466
 5098TIP3    H115300   4.899   2.050   5.088 -1.3924  0.6864  0.0806
 5098TIP3    H215301   4.915   1.913   5.024  0.9762  0.7257  0.4893
 5099TIP3   OH215302   4.105   5.257   1.698 -0.1606  0.2341 -0.2413
 5099TIP3    H115303   4.046   5.232   1.627 -1.2873 -0.1713  0.8179
 5099TIP3    H215304   4.189   5.274   1.654 -0.7408 -0.3222 -1.6192
 5100TIP3   OH215305   3.416   4.214   0.374  0.4961  0.1254 -0.1244
 5100TIP3    H115306   3.477   4.287   0.382 -0.1401  0.6394  0.1683
 5100TIP3    H215307   3.357   4.240   0.303  1.1639 -0.7801 -1.0436
 5101TIP3   OH215308   0.177   1.955   2.276  0.6995  0.3902  0.5469
 5101TIP3    H115309   0.164   2.019   2.206 -1.7545  0.1211  0.6678
 5101TIP3    H215310   0.117   1.884   2.255  0.1186  0.1652  2.7376
 5102TIP3   OH215311   2.751   0.637   4.126  0.3070 -0.1779 -0.0102
 5102TIP3    H115312   2.659   0.642   4.103 -0.0879 -0.1773  1.5010
 5102TIP3    H215313   2.779   0.550   4.097 -0.7278 -1.0185  1.4262
 5103TIP3   OH215314   1.428   5.027   2.711  0.0759  0.1685 -0.2694
 5103TIP3    H115315   1.374   4.953   2.741 -2.8175  2.3423  0.3786
 5103TIP3    H215316   1.415   5.028   2.616 -0.0759 -0.0403 -0.2528
 5104TIP3   OH215317   3.929   2.927   3.952  0.2208 -0.3595  0.1232
 5104TIP3    H115318   4.002   2.985   3.973  0.9530 -1.9776  2.4895
 5104TIP3    H215319   3.853   2.966   3.995  0.4104 -0.4105  0.5046
 5105TIP3   OH215320   1.224   4.596   0.055 -0.1193 -0.0411 -0.1616
 5105TIP3    H115321   1.134   4.606   0.025 -0.2294  0.8291  0.4065
 5105TIP3    H215322   1.241   4.675   0.106  1.0703 -0.0554 -0.5079
 5106TIP3   OH215323   1.168   0.760   0.283  0.1466 -0.4518 -0.0508
 5106TIP3    H115324   1.156   0.717   0.367  0.9538  0.5007  0.5708
 5106TIP3    H215325   1.261   0.783   0.280  0.2142 -0.8008 -1.3723
 5107TIP3   OH215326   3.855   5.975   4.103  0.1139 -0.0404 -0.0891
 5107TIP3    H115327   3.874   5.911   4.034  0.9326 -1.2196  1.1658
 5107TIP3    H215328   3.830   5.921   4.178 -0.1134  1.1777  0.7326
 5108TIP3   OH215329   5.432   4.547   1.650  0.5347 -0.4968  0.2731
 5108TIP3    H115330   5.470   4.631   1.627 -0.7526  0.0649  0.1103
 5108TIP3    H215331   5.390   4.561   1.735 -1.3561 -0.3892 -0.6221
 5109TIP3   OH215332   0.691   4.749   2.147 -0.2952 -0.0575  0.7177
 5109TIP3    H115333   0.754   4.762   2.076 -1.4210  0.3221 -0.2449
 5109TIP3    H215334   0.657   4.661   2.132 -0.2835 -0.1117  1.0075
 5110TIP3   OH215335   2.663   0.379   3.488 -0.2723 -0.1448  0.0062
 5110TIP3    H115336   2.647   0.308   3.550 -1.4606 -0.4993 -0.6763
 5110TIP3    H215337   2.640   0.459   3.537  0.0383 -0.3113  0.4301
 5111TIP3   OH215338   5.623   1.080   2.779  0.3970 -0.2899 -0.5257
 5111TIP3    H115339   5.693   1.025   2.741  1.7140  0.7621  0.2947
 5111TIP3    H215340   5.670   1.147   2.828 -1.2276 -0.1043  0.8475
 5112TIP3   OH215341   3.863   0.782   4.390  0.5090 -0.1106  0.4472
 5112TIP3    H115342   3.953   0.796   4.419 -0.2670 -1.0438  3.6498
 5112TIP3    H215343   3.841   0.694   4.421 -1.4049 -0.0210 -0.5488
 5113TIP3   OH215344   0.743   2.427   3.932 -0.3687  0.4383  0.3766
 5113TIP3    H115345   0.813   2.363   3.921 -0.3878  0.4897 -0.0623
 5113TIP3    H215346   0.714   2.446   3.843  0.2808  1.7762  0.4228
 5114TIP3   OH215347   2.334   2.234   4.266  0.2332 -0.5372 -0.3458
 5114TIP3    H115348   2.325   2.197   4.179 -0.6284 -0.0581 -0.4673
 5114TIP3    H215349   2.263   2.298   4.273  1.0778  0.3653  0.2313
 5115TIP3   OH215350   5.818   1.153   4.876  0.1737 -0.3630 -0.3456
 5115TIP3    H115351   5.731   1.141   4.913  0.6116 -0.1280  0.8163
 5115TIP3    H215352   5.846   1.239   4.909  1.8134 -1.4858  1.3757
 5116TIP3   OH215353   2.224   4.715   1.121  0.3953 -0.0594 -0.3289
 5116TIP3    H115354   2.171   4.766   1.182 -0.2054  0.1316 -0.9907
 5116TIP3    H215355   2.234   4.629   1.162 -1.1987 -0.3992 -0.5828
 5117TIP3   OH215356   1.099   2.864   2.337  0.9396  0.4178 -0.3405
 5117TIP3    H115357   1.022   2.908   2.300 -0.5581 -1.6446  0.0958
 5117TIP3    H215358   1.118   2.913   2.417 -1.3697 -0.2522  0.7178
 5118TIP3   OH215359   3.529   1.526   0.285 -0.0155 -0.1041  0.2739
 5118TIP3    H115360   3.479   1.601   0.252  0.4193  0.2561  0.4206
 5118TIP3    H215361   3.463   1.467   0.322 -0.4850 -0.3579 -0.9191
 5119TIP3   OH215362   2.682   1.193   0.156  0.1110 -0.3626 -0.4000
 5119TIP3    H115363   2.700   1.176   0.249  1.2427  0.2081 -0.5055
 5119TIP3    H215364   2.604   1.249   0.158  1.4513  1.5804  0.3552
 5120TIP3   OH215365   0.453   4.925   1.322 -0.6815 -0.0767  0.1288
 5120TIP3    H115366   0.535   4.892   1.360 -1.6436 -0.9969  1.5129
 5120TIP3    H215367   0.438   4.869   1.246 -0.0883  0.0187 -0.0647
 5121TIP3   OH215368   5.282   4.873   3.365 -0.2398  0.7156  0.1300
 5121TIP3    H115369   5.313   4.839   3.449 -1.2418 -1.3014 -0.2713
 5121TIP3    H215370   5.249   4.796   3.318  2.2485  1.3330 -3.0370
 5122TIP3   OH215371   2.367   1.673   0.049  0.0559  0.0561 -0.2685
 5122TIP3    H115372   2.411   1.688  -0.035  2.6713  0.7655  1.1120
 5122TIP3    H215373   2.325   1.756   0.069  0.1513  0.1517 -0.4578
 5123TIP3   OH215374   2.764   2.754   1.021  0.0078  0.1241 -0.1231
 5123TIP3    H115375   2.712   2.832   0.999 -1.0743 -0.8143 -1.0260
 5123TIP3    H215376   2.727   2.724   1.104  0.4579  0.5778  0.2513
 5124TIP3   OH215377   3.685   0.631   1.043  0.1628  0.1211 -0.3182
 5124TIP3    H115378   3.653   0.558   1.097  0.5462 -1.1717 -1.7848
 5124TIP3    H215379   3.608   0.662   0.997  0.0563  0.4827  0.0900
 5125TIP3   OH215380   4.020   4.658   1.787  0.1038  0.1653  0.1886
 5125TIP3    H115381   3.967   4.584   1.757 -0.9350 -0.1932  2.6595
 5125TIP3    H215382   4.011   4.724   1.718  0.0948 -1.5369 -1.5106
 5126TIP3   OH215383   5.059   1.431   4.592  0.5328  0.5869 -0.5651
 5126TIP3    H115384   5.102   1.351   4.624 -0.8722 -0.1394 -0.3866
 5126TIP3    H215385   5.080   1.434   4.499  0.9324  0.2317 -0.4887
 5127TIP3   OH215386   1.986   1.634   1.661 -0.3774  0.1034  0.7087
 5127TIP3    H115387   1.901   1.589   1.660  0.5116 -1.7640 -1.4613
 5127TIP3    H215388   2.042   1.579   1.606  1.6965  2.3440  0.4338
 5128TIP3   OH215389   3.004   4.038   4.983  0.6055  0.4776  0.4998
 5128TIP3    H115390   3.077   3.996   5.029  0.8236  0.1078 -0.1696
 5128TIP3    H215391   2.939   3.968   4.972  0.7159  0.4588 -0.0837
 5129TIP3   OH215392   4.270   0.610   4.526 -0.0810  0.4249  0.3173
 5129TIP3    H115393   4.256   0.647   4.613 -1.2603 -3.0234  1.7605
 5129TIP3    H215394   4.203   0.650   4.471 -0.5028  1.2889  1.4343
 5130TIP3   OH215395   0.099   2.814   5.159 -0.3382  0.0110 -0.4373
 5130TIP3    H115396   0.016   2.859   5.176 -0.9005 -0.8417 -0.8646
 5130TIP3    H215397   0.160   2.883   5.134 -0.6057  0.7945  0.9859
 5131TIP3   OH215398   3.897   3.320   2.085 -0.3392 -0.3388 -0.0775
 5131TIP3    H115399   3.836   3.263   2.132  1.1869 -0.9571  1.2749
 5131TIP3    H215400   3.981   3.273   2.089  0.1407  0.2217 -2.3420
 5132TIP3   OH215401   3.124   5.220   3.180 -0.7232  0.4465 -0.0514
 5132TIP3    H115402   3.088   5.152   3.237  1.1808  0.0052  0.6963
 5132TIP3    H215403   3.194   5.260   3.231  1.1093  0.0134 -2.0289
 5133TIP3   OH215404   4.949   5.266   0.572  0.1554 -0.3735  0.1989
 5133TIP3    H115405   4.996   5.184   0.559  0.3074 -0.2051 -0.3649
 5133TIP3    H215406   4.914   5.287   0.485  1.3638  0.9104 -0.0090
 5134TIP3   OH215407   0.855   2.511   4.392 -0.4492 -0.4242  0.1279
 5134TIP3    H115408   0.791   2.460   4.442 -0.5634 -1.3465 -0.9264
 5134TIP3    H215409   0.926   2.449   4.373 -1.2575 -0.6432 -2.4239
 5135TIP3   OH215410   4.812   1.287   1.474 -0.2696 -0.0212  0.3478
 5135TIP3    H115411   4.813   1.315   1.383 -0.8329 -0.3763  0.2287
 5135TIP3    H215412   4.794   1.367   1.524 -2.8991 -0.2633 -0.0572
 5136TIP3   OH215413   4.188   4.080   0.188 -0.0523  0.5275  0.3643
 5136TIP3    H115414   4.181   4.065   0.283 -0.7959  0.1496  0.2524
 5136TIP3    H215415   4.248   4.011   0.158  0.1774  0.6417  0.5552
 5137TIP3   OH215416   3.416   2.331   0.901 -0.4109 -0.1120 -0.6491
 5137TIP3    H115417   3.480   2.280   0.852  0.2817  1.3816 -1.3776
 5137TIP3    H215418   3.464   2.409   0.930 -1.6099  0.5170 -0.2538
 5138TIP3   OH215419   2.173   3.796   1.717 -0.1920  0.4438 -0.4109
 5138TIP3    H115420   2.220   3.847   1.650 -1.0598  1.7776 -0.0436
 5138TIP3    H215421   2.219   3.815   1.798  0.0662 -0.1427 -0.4136
 5139TIP3   OH215422   0.232   1.266   4.719  0.1948 -0.1507 -0.1018
 5139TIP3    H115423   0.236   1.187   4.774 -1.4182 -1.1687 -1.3624
 5139TIP3    H215424   0.257   1.236   4.632 -1.9283  0.3296 -0.9409
 5140TIP3   OH215425   4.069   0.184   1.160 -0.5302  0.2118 -0.0057
 5140TIP3    H115426   4.161   0.189   1.138 -0.8855  0.4227 -1.5421
 5140TIP3    H215427   4.024   0.229   1.089 -1.8475 -0.2129  0.5142
 5141TIP3   OH215428   1.384   1.236   3.367  0.0632  0.5506 -0.3654
 5141TIP3    H115429   1.400   1.312   3.312  1.2985  0.8047  0.3002
 5141TIP3    H215430   1.395   1.268   3.457 -0.1925 -0.2311 -0.0419
 5142TIP3   OH215431   2.666   2.677   5.174  0.6111  0.1052  0.0192
 5142TIP3    H115432   2.582   2.658   5.132 -0.2114  1.0451  1.1358
 5142TIP3    H215433   2.668   2.772   5.182  2.1336  0.1513 -0.6325
 5143TIP3   OH215434   2.718   5.960   3.459  0.1875  0.3798  0.0792
 5143TIP3    H115435   2.726   6.041   3.409  0.8304  0.2662 -0.0141
 5143TIP3    H215436   2.644   5.914   3.419  0.2748  0.5941 -0.3315
 5144TIP3   OH215437   4.398   4.387   1.294 -0.3974 -1.0428  0.4903
 5144TIP3    H115438   4.372   4.478   1.281 -0.6249 -0.9796  1.2782
 5144TIP3    H215439   4.396   4.348   1.207 -2.8762 -0.9651  0.4188
 5145TIP3   OH215440   5.453   4.105   0.820  0.3142 -0.5235  0.5264
 5145TIP3    H115441   5.442   4.022   0.774 -0.0287  0.1285 -0.6106
 5145TIP3    H215442   5.388   4.103   0.890  0.7357 -1.4650  0.9119
 5146TIP3   OH215443   0.110   0.469   1.628  0.4888  0.0105 -0.0757
 5146TIP3    H115444   0.192   0.419   1.630  0.8350  0.5003 -1.0292
 5146TIP3    H215445   0.079   0.460   1.538  0.1286  0.8026 -0.0404
 5147TIP3   OH215446   3.703   0.420   3.575  0.7535  0.2190 -0.4717
 5147TIP3    H115447   3.711   0.511   3.604 -0.0133  0.7368 -1.7823
 5147TIP3    H215448   3.710   0.425   3.479  0.5311 -1.0836 -0.5752
 5148TIP3   OH215449   4.789   1.097   2.694 -0.0100 -0.5300 -0.1257
 5148TIP3    H115450   4.866   1.153   2.693 -0.3915  0.0176 -1.6659
 5148TIP3    H215451   4.823   1.009   2.682  0.5897 -0.6779  2.2534
 5149TIP3   OH215452   0.562   0.356   1.485 -0.0351  0.0348 -0.0866
 5149TIP3    H115453   0.622   0.286   1.458 -0.4193 -0.4977  0.4119
 5149TIP3    H215454   0.554   0.412   1.408  1.6698  0.5292  0.0632
 5150TIP3   OH215455   5.642   3.513   3.328  0.4996  0.4907 -0.0759
 5150TIP3    H115456   5.707   3.554   3.272  2.1488 -0.2039  1.2292
 5150TIP3    H215457   5.567   3.573   3.326  2.3207  2.9798  0.7749
 5151TIP3   OH215458   4.384   0.499   4.924 -0.2201  0.9455 -0.1383
 5151TIP3    H115459   4.297   0.463   4.905 -0.3902  0.3339  1.6473
 5151TIP3    H215460   4.445   0.440   4.879 -0.6994  1.4031 -1.4356
 5152TIP3   OH215461   2.231   1.877   3.589 -0.1611 -0.6044  0.2603
 5152TIP3    H115462   2.159   1.934   3.615  0.8831  0.4368  0.9725
 5152TIP3    H215463   2.271   1.849   3.671  1.6360  0.6901 -0.1256
 5153TIP3   OH215464   2.752   3.897   0.084 -0.2396  0.0140 -0.2900
 5153TIP3    H115465   2.707   3.968   0.130 -1.4363 -0.0071 -1.3891
 5153TIP3    H215466   2.773   3.834   0.153 -0.2795  0.8416  0.5074
 5154TIP3   OH215467   2.752   4.673   4.080 -0.2878  0.4257 -0.8019
 5154TIP3    H115468   2.780   4.582   4.074  0.8920  0.8001 -1.2812
 5154TIP3    H215469   2.687   4.674   4.150  0.7841 -0.5224  0.2441
 5155TIP3   OH215470   4.879   0.590   0.206 -0.2448  0.1723  0.0064
 5155TIP3    H115471   4.889   0.685   0.211  0.1203  0.0887  1.0408
 5155TIP3    H215472   4.885   0.570   0.112 -1.2940  1.2682 -0.3147
 5156TIP3   OH215473   0.842   2.692   2.940  0.4341 -1.2206 -0.0625
 5156TIP3    H115474   0.785   2.684   3.017  0.4407 -0.9144 -0.0244
 5156TIP3    H215475   0.905   2.760   2.964  0.3265 -0.9996 -0.4040
 5157TIP3   OH215476   0.296   5.144   0.628  0.6881 -0.5706 -0.0473
 5157TIP3    H115477   0.367   5.183   0.679  1.8854 -0.0298 -2.0246
 5157TIP3    H215478   0.270   5.213   0.567 -0.2582 -1.3925 -0.5991
 5158TIP3   OH215479   5.054   3.236   1.504 -0.1236 -0.4401 -0.0534
 5158TIP3    H115480   4.977   3.200   1.548  0.9540 -1.1704  1.3330
 5158TIP3    H215481   5.043   3.213   1.412 -0.7726 -1.9505  0.3787
 5159TIP3   OH215482   2.139   2.536   3.109  0.2581  0.7942  0.3188
 5159TIP3    H115483   2.167   2.451   3.142  1.0401  0.9239 -0.0001
 5159TIP3    H215484   2.220   2.581   3.085 -0.0926  1.9175  1.1474
 5160TIP3   OH215485   2.518   4.209   1.059  0.2856 -0.2719  0.0477
 5160TIP3    H115486   2.594   4.208   1.117 -0.0606 -2.2934  0.5537
 5160TIP3    H215487   2.541   4.270   0.990  1.4959  0.7559  1.3010
 5161TIP3   OH215488   0.988   1.343   0.017 -0.3611 -0.3060 -0.5442
 5161TIP3    H115489   0.953   1.266   0.061 -1.0838 -0.2189 -0.9420
 5161TIP3    H215490   1.047   1.383   0.081  0.8660 -1.7690 -0.7291
 5162TIP3   OH215491   3.775   2.240   3.639 -0.2848 -0.1304  0.0202
 5162TIP3    H115492   3.758   2.157   3.683 -0.2436  0.0133  0.3164
 5162TIP3    H215493   3.688   2.275   3.619 -0.2894 -0.4886 -0.5719
 5163TIP3   OH215494   5.563   4.368   2.092 -0.3182 -0.0241  0.6969
 5163TIP3    H115495   5.658   4.374   2.084 -0.4104 -0.1722 -0.6026
 5163TIP3    H215496   5.543   4.277   2.071 -0.9135  0.4658 -1.0217
 5164TIP3   OH215497   0.556   3.940   1.307 -0.1673 -0.2726  1.0083
 5164TIP3    H115498   0.629   3.881   1.324  0.5164  0.6544  1.3962
 5164TIP3    H215499   0.520   3.910   1.224  1.2926 -0.1540  0.2861
 5165TIP3   OH215500   0.418   2.398   0.714 -0.5434 -0.7211  0.6531
 5165TIP3    H115501   0.412   2.339   0.790 -0.2379 -1.0651  0.4184
 5165TIP3    H215502   0.427   2.339   0.639 -0.8178 -0.3821  0.3519
 5166TIP3   OH215503   0.313   0.286   2.511 -0.1413  0.0193 -0.2500
 5166TIP3    H115504   0.359   0.226   2.451  0.5357  0.4117 -0.1378
 5166TIP3    H215505   0.364   0.283   2.592 -1.4549 -1.0583  0.5821
 5167TIP3   OH215506   2.195   3.684   4.939 -0.2360  0.3870 -0.2893
 5167TIP3    H115507   2.247   3.667   4.860 -0.7848 -2.7829 -0.0823
 5167TIP3    H215508   2.260   3.711   5.004  0.8896 -1.1982 -0.6801
 5168TIP3   OH215509   0.358   5.590   1.520 -0.1836 -0.5987 -0.4470
 5168TIP3    H115510   0.365   5.582   1.425 -0.2271  0.2845 -0.5255
 5168TIP3    H215511   0.268   5.563   1.540 -0.4231 -0.0148 -0.7376
 5169TIP3   OH215512   1.103   0.537   1.811  0.0935  0.4375  0.3174
 5169TIP3    H115513   1.133   0.532   1.902  1.5224  0.0257 -0.1562
 5169TIP3    H215514   1.180   0.516   1.759 -0.4814  1.4983 -1.0307
 5170TIP3   OH215515   1.639   2.249   1.964 -0.3651 -0.0363  0.3898
 5170TIP3    H115516   1.558   2.245   1.913  0.7273  1.2013 -1.5512
 5170TIP3    H215517   1.709   2.253   1.899  1.3399 -1.4717  1.9968
 5171TIP3   OH215518   3.096   5.443   3.565  0.5148  0.0928  0.1527
 5171TIP3    H115519   3.145   5.420   3.486 -1.6649  2.0759 -1.9097
 5171TIP3    H215520   3.160   5.435   3.636  2.4339 -2.2501 -1.6672
 5172TIP3   OH215521   1.550   5.334   2.647  0.3308 -0.8764 -0.8493
 5172TIP3    H115522   1.556   5.334   2.551  0.4179 -1.1953 -0.8468
 5172TIP3    H215523   1.467   5.378   2.666  0.4000 -0.6525 -1.0646
 5173TIP3   OH215524   0.200   2.868   1.401 -0.3464  0.0743 -0.4438
 5173TIP3    H115525   0.272   2.915   1.359 -0.6160  1.5951  0.7057
 5173TIP3    H215526   0.123   2.892   1.351 -0.3909  0.3154 -0.2579
 5174TIP3   OH215527   4.551   0.630   1.616 -0.5873  0.0434 -0.0168
 5174TIP3    H115528   4.626   0.681   1.585 -1.0087  0.8577  0.2759
 5174TIP3    H215529   4.579   0.594   1.700 -0.7793  0.9891  0.4716
 5175TIP3   OH215530   5.444   0.892   0.245  0.4981  0.3650 -0.6631
 5175TIP3    H115531   5.449   0.849   0.159 -1.1798 -0.3929 -0.4401
 5175TIP3    H215532   5.473   0.825   0.307  0.7428  0.5716 -0.5528
 5176TIP3   OH215533   4.528   4.492   0.983  0.2264  0.0506 -0.1521
 5176TIP3    H115534   4.590   4.464   1.051 -0.2388 -0.2813  0.1442
 5176TIP3    H215535   4.468   4.551   1.029  1.6145  2.1615 -0.9183
 5177TIP3   OH215536   1.413   2.604   0.575  1.4775  0.4354  0.3312
 5177TIP3    H115537   1.371   2.616   0.489 -0.9225  1.5640  1.5657
 5177TIP3    H215538   1.449   2.690   0.595  2.7619 -0.0385  0.1383
 5178TIP3   OH215539   0.119   1.843   1.315 -0.1723  0.5983 -0.1630
 5178TIP3    H115540   0.181   1.786   1.361  0.3591  0.8988 -0.4922
 5178TIP3    H215541   0.150   1.931   1.333 -1.1171  0.8043  0.5148
 5179TIP3   OH215542   1.211   5.731   1.234  0.5870 -0.3685  0.6235
 5179TIP3    H115543   1.239   5.769   1.151 -0.1732 -0.7794  0.1664
 5179TIP3    H215544   1.274   5.764   1.298  0.8763  0.3700 -0.0248
 5180TIP3   OH215545   5.300   4.837   5.129  0.3297 -0.2607  0.1126
 5180TIP3    H115546   5.205   4.838   5.135  0.3099  1.1619 -0.0028
 5180TIP3    H215547   5.321   4.909   5.069  1.4808 -0.4236  0.2904
 5181TIP3   OH215548   3.760   1.511   4.722 -0.1190  0.4946 -0.6244
 5181TIP3    H115549   3.717   1.563   4.790  1.1200  0.1153  0.5031
 5181TIP3    H215550   3.829   1.464   4.769  0.9993  0.4783 -2.2156
 5182TIP3   OH215551   1.184   3.908   1.711 -0.5291 -0.3329 -0.4248
 5182TIP3    H115552   1.226   3.822   1.707  0.4749  0.0106  1.3952
 5182TIP3    H215553   1.256   3.970   1.707 -0.8789  0.2948  1.7476
 5183TIP3   OH215554   3.164   4.122   1.290 -0.1301  0.1350 -0.9757
 5183TIP3    H115555   3.253   4.092   1.307  0.2806  0.7476 -2.0262
 5183TIP3    H215556   3.157   4.206   1.335 -1.4221 -1.5280  2.3494
 5184TIP3   OH215557   5.241   3.004   1.475  0.7561 -0.1038 -0.1323
 5184TIP3    H115558   5.175   3.033   1.412 -0.6695  0.1648  1.4165
 5184TIP3    H215559   5.277   3.085   1.511 -0.2757 -0.2054  1.2069
 5185TIP3   OH215560   5.355   5.381   4.659 -0.2955 -0.7925 -0.4365
 5185TIP3    H115561   5.385   5.298   4.622  1.2580 -0.2195 -0.5579
 5185TIP3    H215562   5.310   5.425   4.587  1.5654 -0.2473 -1.3123
 5186TIP3   OH215563   5.460   2.002   2.355  0.9168  0.3287  0.2146
 5186TIP3    H115564   5.446   1.960   2.440  2.0667 -0.8418 -0.1404
 5186TIP3    H215565   5.372   2.016   2.322  0.4612 -0.3291  1.0768
 5187TIP3   OH215566   3.342   3.315   3.142  0.3001  0.1881 -0.5239
 5187TIP3    H115567   3.428   3.288   3.175  0.7116  1.3289 -0.5933
 5187TIP3    H215568   3.287   3.319   3.220  0.9203  1.5972 -0.1239
 5188TIP3   OH215569   0.236   2.110   0.578 -0.2003  0.0349  0.2002
 5188TIP3    H115570   0.329   2.108   0.600 -0.3500 -1.4881  0.8431
 5188TIP3    H215571   0.234   2.093   0.483  0.1616 -0.6388  0.3055
 5189TIP3   OH215572   0.694   5.062   2.691 -0.0944  0.0435  0.4882
 5189TIP3    H115573   0.734   5.074   2.605  0.7248  0.5143  0.9139
 5189TIP3    H215574   0.611   5.017   2.674  0.4289 -0.5909 -0.4661
 5190TIP3   OH215575   2.169   0.678   4.059 -0.1152 -0.6559  0.1065
 5190TIP3    H115576   2.166   0.631   4.142 -0.7174 -0.5354  0.1579
 5190TIP3    H215577   2.078   0.703   4.042  0.2441  0.9400  0.3414
 5191TIP3   OH215578   0.039   5.514   2.431  0.5278  0.6100 -0.0467
 5191TIP3    H115579  -0.052   5.532   2.406  0.4718  0.4416  0.0368
 5191TIP3    H215580   0.091   5.568   2.370  0.3766  0.6285 -0.1618
 5192TIP3   OH215581   5.986   0.180   3.469  0.5953  0.3392 -0.0026
 5192TIP3    H115582   5.909   0.147   3.515  1.3895 -2.1347 -0.3017
 5192TIP3    H215583   5.955   0.197   3.380  0.2144  0.1007  0.0817
 5193TIP3   OH215584   3.772   1.683   3.030  0.1554 -0.4457  0.1351
 5193TIP3    H115585   3.853   1.733   3.021  0.2859 -0.6829 -0.0172
 5193TIP3    H215586   3.728   1.692   2.946  0.0539 -0.3701  0.1964
 5194TIP3   OH215587   6.206   5.629   0.573  0.1099  0.4383  0.2605
 5194TIP3    H115588   6.183   5.714   0.610 -0.1498  0.6932 -0.4625
 5194TIP3    H215589   6.265   5.651   0.500  0.1989 -0.0122  0.1972
 5195TIP3   OH215590   1.110   0.611   3.531 -0.2955 -0.5671  0.3754
 5195TIP3    H115591   1.104   0.705   3.513 -1.4538 -0.3941  1.5372
 5195TIP3    H215592   1.162   0.604   3.611 -0.3305 -0.9005  0.3723
 5196TIP3   OH215593   5.649   3.584   2.737 -0.0151 -0.8217 -0.4256
 5196TIP3    H115594   5.584   3.539   2.683  0.7728 -2.0607 -0.3731
 5196TIP3    H215595   5.598   3.621   2.810 -0.9843  0.3039 -1.6278
 5197TIP3   OH215596   1.775   1.044   0.249 -0.1657  0.3458 -0.4413
 5197TIP3    H115597   1.857   1.021   0.205 -0.9480 -1.2837 -1.1573
 5197TIP3    H215598   1.780   1.138   0.262  1.8555  0.2725 -0.3866
 5198TIP3   OH215599   1.376   1.772   4.651 -0.3196 -0.2910 -0.1955
 5198TIP3    H115600   1.404   1.854   4.692  0.3180 -0.6330  0.0814
 5198TIP3    H215601   1.399   1.782   4.559  0.7456 -0.5571  0.0233
 5199TIP3   OH215602   4.540   3.573   2.906  0.2049  0.2918 -0.1339
 5199TIP3    H115603   4.578   3.524   2.980 -0.7985  1.1552  0.9799
 5199TIP3    H215604   4.607   3.639   2.885  0.5051  0.0316 -0.0152
 5200TIP3   OH215605   1.048   4.565   4.166 -0.2621 -0.2811 -0.1720
 5200TIP3    H115606   0.986   4.493   4.180 -0.2019 -0.6094 -1.5068
 5200TIP3    H215607   1.056   4.572   4.071  1.2666  0.1858 -0.0311
 5201TIP3   OH215608   4.487   4.509   2.483  1.0439  0.2593  0.3180
 5201TIP3    H115609   4.538   4.562   2.544 -0.3675  1.9190  0.1274
 5201TIP3    H215610   4.519   4.420   2.496  1.5484  0.7289  2.6651
 5202TIP3   OH215611   0.418   3.614   3.766 -0.6587  0.0098  0.0600
 5202TIP3    H115612   0.347   3.566   3.724  0.2313 -1.0029 -0.3439
 5202TIP3    H215613   0.396   3.613   3.859 -0.7482 -1.0562  0.0396
 5203TIP3   OH215614   5.447   2.112   1.289 -0.3079 -0.4151 -0.1401
 5203TIP3    H115615   5.404   2.177   1.345 -0.9959 -0.6811 -0.3424
 5203TIP3    H215616   5.391   2.107   1.212 -0.5031 -1.5555  0.0605
 5204TIP3   OH215617   2.726   4.037   1.872 -0.1740  0.2080  0.0199
 5204TIP3    H115618   2.695   3.974   1.936  1.5397 -0.1787  0.5226
 5204TIP3    H215619   2.648   4.064   1.824 -1.0145 -2.0497  0.0073
 5205TIP3   OH215620   1.980   5.929   0.138  0.1876 -0.0483  0.6595
 5205TIP3    H115621   1.966   5.878   0.218 -0.4230 -1.2628 -0.1844
 5205TIP3    H215622   1.892   5.959   0.113  0.3846  0.3939  0.4801
 5206TIP3   OH215623   2.089   1.857   2.481 -0.5164 -0.0255  0.4016
 5206TIP3    H115624   2.007   1.907   2.485 -0.0425  0.6882  2.1433
 5206TIP3    H215625   2.083   1.796   2.554  0.3705 -0.1636  0.3644
 5207TIP3   OH215626   0.445   4.247   2.656 -0.4623  0.3747 -0.2173
 5207TIP3    H115627   0.528   4.216   2.692 -0.9048  0.1454  0.6329
 5207TIP3    H215628   0.470   4.312   2.590  0.4165 -0.6057 -0.8659
 5208TIP3   OH215629   0.375   2.066   4.193 -0.3803  0.5889  0.4964
 5208TIP3    H115630   0.440   1.996   4.185  0.1073  1.1348 -0.4774
 5208TIP3    H215631   0.301   2.024   4.236  1.6870  0.6828  4.7056
 5209TIP3   OH215632   0.023   2.624   4.969  0.2215  0.4176  0.1574
 5209TIP3    H115633  -0.061   2.658   4.937  1.0043  1.0134 -1.4034
 5209TIP3    H215634   0.052   2.689   5.034 -0.3839  0.3626  0.4868
 5210TIP3   OH215635   5.791   5.151   4.477 -0.3756  0.1311 -0.2199
 5210TIP3    H115636   5.731   5.209   4.523  0.0638  0.5018 -0.1109
 5210TIP3    H215637   5.735   5.079   4.446 -0.4493 -0.9776  2.2332
 5211TIP3   OH215638   2.413   3.671   4.028  0.1980 -0.0458 -0.0841
 5211TIP3    H115639   2.360   3.684   3.950  1.4109 -1.2243 -1.1743
 5211TIP3    H215640   2.500   3.704   4.004  1.6121 -3.6620 -0.6731
 5212TIP3   OH215641   2.348   0.548   3.409  0.2517 -0.2748  0.1050
 5212TIP3    H115642   2.280   0.579   3.469 -0.4540  1.2916 -1.4148
 5212TIP3    H215643   2.423   0.531   3.465 -0.6830  0.1806  1.5531
 5213TIP3   OH215644   5.105   4.452   0.049 -0.3193  0.4497  0.2025
 5213TIP3    H115645   5.174   4.392   0.019  0.1874  0.7852  0.6881
 5213TIP3    H215646   5.025   4.398   0.048  0.1107 -0.2123  0.5457
 5214TIP3   OH215647   6.178   2.904   3.230  0.1154  0.1614 -0.4206
 5214TIP3    H115648   6.130   2.902   3.313  0.5854  0.0629 -0.1512
 5214TIP3    H215649   6.146   2.984   3.186 -0.3077  0.0878 -0.2548
 5215TIP3   OH215650   1.756   4.295   0.610 -0.0895  0.2744 -1.1376
 5215TIP3    H115651   1.838   4.344   0.601 -0.7777  1.3762 -1.5924
 5215TIP3    H215652   1.688   4.359   0.591 -1.0644 -0.6203 -0.7228
 5216TIP3   OH215653   3.268   1.417   1.105 -0.3905 -0.7311 -0.3998
 5216TIP3    H115654   3.196   1.480   1.094  1.8321  2.0456 -0.2090
 5216TIP3    H215655   3.285   1.385   1.016 -0.5550  0.1367 -0.7546
 5217TIP3   OH215656   4.749   5.755   5.015  0.0180 -0.1464 -0.0392
 5217TIP3    H115657   4.778   5.770   4.925 -0.0601  1.4767  0.1654
 5217TIP3    H215658   4.817   5.795   5.069 -0.6162  0.1405  0.5676
 5218TIP3   OH215659   0.158   0.645   3.139 -0.4310  0.0789 -0.5167
 5218TIP3    H115660   0.128   0.606   3.221  0.6697 -1.1359 -0.6487
 5218TIP3    H215661   0.101   0.720   3.125 -0.6890  0.2540  1.3148
 5219TIP3   OH215662   1.327   1.878   0.083 -0.3338 -0.5289 -0.3270
 5219TIP3    H115663   1.248   1.850   0.129 -1.0109  0.9077 -0.5576
 5219TIP3    H215664   1.314   1.972   0.068  1.4747 -0.2313 -0.2508
 5220TIP3   OH215665   0.835   5.473   5.026 -0.2010  0.4616  0.4469
 5220TIP3    H115666   0.862   5.417   4.953 -0.3146  0.5510  0.3346
 5220TIP3    H215667   0.803   5.413   5.093 -1.1322  0.4246 -0.0043
 5221TIP3   OH215668   1.962   0.049   1.022 -0.2539  0.0205  0.2436
 5221TIP3    H115669   2.006   0.131   1.045 -0.4166  0.0719  0.3762
 5221TIP3    H215670   2.033  -0.012   1.004 -0.0705 -0.4017  2.1757
 5222TIP3   OH215671   2.755   2.272   3.293  0.1919 -0.3747 -0.0465
 5222TIP3    H115672   2.766   2.187   3.249 -1.0307 -1.8109  2.2192
 5222TIP3    H215673   2.809   2.264   3.372 -3.3520 -0.9350  2.5300
 5223TIP3   OH215674   6.217   2.385   3.340  0.7096  0.0735  0.4190
 5223TIP3    H115675   6.130   2.364   3.306  0.7421 -1.0059  0.9713
 5223TIP3    H215676   6.277   2.327   3.293  1.1471  0.8342  0.0181
 5224TIP3   OH215677   2.290   5.939   2.467  0.0671  0.3962 -0.4675
 5224TIP3    H115678   2.368   5.965   2.516 -0.6640  0.1164  0.9201
 5224TIP3    H215679   2.230   6.013   2.476 -0.5259 -0.1393  0.1035
 5225TIP3   OH215680   5.241   4.667   1.442  0.2070 -0.5019 -0.2449
 5225TIP3    H115681   5.325   4.635   1.410 -0.6914 -1.7210 -1.5111
 5225TIP3    H215682   5.187   4.588   1.452 -0.6719  0.2048  0.9228
 5226TIP3   OH215683   4.566   0.869   2.197  0.4006  0.3270  0.1209
 5226TIP3    H115684   4.532   0.823   2.274  1.7207 -0.9601 -0.0326
 5226TIP3    H215685   4.546   0.961   2.214  0.1874  0.0065  1.7451
 5227TIP3   OH215686   4.532   1.924   4.445  0.3531  0.0316  0.5459
 5227TIP3    H115687   4.484   1.843   4.432  0.0970  0.4317 -1.1685
 5227TIP3    H215688   4.621   1.897   4.465 -0.0415 -0.6701  1.4435
 5228TIP3   OH215689   1.867   1.965   1.904  0.3263  0.3626 -0.6888
 5228TIP3    H115690   1.841   1.977   1.812  1.5874 -0.0557 -1.1176
 5228TIP3    H215691   1.935   1.898   1.901 -1.5636 -1.7790  0.8724
 5229TIP3   OH215692   4.557   0.944   4.375 -0.0456  0.0427  0.0845
 5229TIP3    H115693   4.649   0.966   4.365  0.1104 -0.6052  0.0525
 5229TIP3    H215694   4.542   0.941   4.469  0.0055 -0.0257  0.0899
 5230TIP3   OH215695   5.225   1.888   4.923 -0.0400 -0.4081  0.0102
 5230TIP3    H115696   5.189   1.845   4.845  2.7010  0.8190 -2.1029
 5230TIP3    H215697   5.276   1.819   4.966 -0.4456 -0.7534 -0.0591
 5231TIP3   OH215698   0.043   1.154   3.185  0.0467 -0.2503  0.2322
 5231TIP3    H115699   0.051   1.059   3.197  0.8648 -0.2308 -0.1088
 5231TIP3    H215700  -0.041   1.176   3.226 -0.0807 -1.0958  0.4505
 5232TIP3   OH215701   5.605   3.694   1.415  0.1197 -0.2346  0.1358
 5232TIP3    H115702   5.564   3.716   1.499 -0.0178 -2.2611  0.6600
 5232TIP3    H215703   5.677   3.756   1.407 -0.2002  0.3579  1.4951
 5233TIP3   OH215704   4.674   0.305   5.121 -0.3830  0.1361 -1.0751
 5233TIP3    H115705   4.749   0.345   5.078  0.9518 -0.3000  0.7611
 5233TIP3    H215706   4.651   0.230   5.065  1.5618 -0.6603 -0.8682
 5234TIP3   OH215707   3.644   3.882   1.658  0.2672  0.3825 -0.3340
 5234TIP3    H115708   3.580   3.827   1.614 -0.1738  0.2906  0.4086
 5234TIP3    H215709   3.722   3.878   1.602 -0.8303  1.7344 -2.0782
 5235TIP3   OH215710   0.175   3.726   0.808  0.0734  0.2577 -0.0455
 5235TIP3    H115711   0.214   3.671   0.876  0.7932  1.0286  0.1807
 5235TIP3    H215712   0.128   3.664   0.752 -0.6993 -0.3803  1.2410
 5236TIP3   OH215713   2.797   1.782   0.289 -0.1209 -0.1709  0.5348
 5236TIP3    H115714   2.793   1.873   0.259  0.6521 -0.5517 -0.8390
 5236TIP3    H215715   2.706   1.753   0.292 -0.2633 -0.0488 -1.3706
 5237TIP3   OH215716   2.254   1.153   3.896  0.1860 -0.1189  0.5434
 5237TIP3    H115717   2.207   1.173   3.815  1.6702 -1.8967 -0.8307
 5237TIP3    H215718   2.263   1.237   3.940 -1.2865  0.7743 -0.7712
 5238TIP3   OH215719   3.957   1.160   3.192 -0.3803 -0.0062 -0.5792
 5238TIP3    H115720   3.929   1.251   3.183 -2.1309 -0.2719  1.4965
 5238TIP3    H215721   3.882   1.108   3.165  0.3875 -0.8507 -1.1647
 5239TIP3   OH215722   2.335   4.982   4.961 -0.4391 -0.0230  0.0323
 5239TIP3    H115723   2.423   4.981   4.922 -0.1255 -2.1297  0.6561
 5239TIP3    H215724   2.335   5.059   5.018  0.7945  0.3470 -0.4382
 5240TIP3   OH215725   3.179   5.223   4.818  0.2328 -0.3872  0.4512
 5240TIP3    H115726   3.222   5.138   4.813 -2.7921 -2.0428  0.4041
 5240TIP3    H215727   3.156   5.244   4.727  1.6025  0.9016  0.3637
 5241TIP3   OH215728   2.898   3.947   0.572  0.2817 -0.0507 -0.7777
 5241TIP3    H115729   2.926   4.027   0.616 -2.2240 -0.2606  1.4401
 5241TIP3    H215730   2.980   3.901   0.552  1.6471  1.0242  1.8814
 5242TIP3   OH215731   1.482   1.919   1.185  0.5769  0.2007  0.1547
 5242TIP3    H115732   1.498   1.906   1.092  1.2029 -1.4435  0.4583
 5242TIP3    H215733   1.462   2.013   1.193 -1.2342  0.0749 -1.8452
 5243TIP3   OH215734   0.304   2.873   1.662  0.2263  0.0782  0.0387
 5243TIP3    H115735   0.244   2.865   1.588  0.7083  0.2667 -0.3755
 5243TIP3    H215736   0.248   2.868   1.740 -0.1631 -1.3656 -0.3036
 5244TIP3   OH215737   3.000   1.239   1.172 -0.3093 -0.6920 -0.2694
 5244TIP3    H115738   3.023   1.325   1.136 -0.8551 -0.4972 -0.1552
 5244TIP3    H215739   3.083   1.192   1.175 -0.1579 -0.5172 -1.2534
 5245TIP3   OH215740   2.990   3.050   4.411  0.1336 -0.3141  0.3552
 5245TIP3    H115741   3.024   3.001   4.336 -0.1076  0.8456 -0.5493
 5245TIP3    H215742   3.067   3.083   4.456  0.2996  1.1689 -0.9108
 5246TIP3   OH215743   0.046   1.270   3.480  0.0076 -0.2168  0.2829
 5246TIP3    H115744  -0.032   1.234   3.439 -0.4048 -2.0849  2.4803
 5246TIP3    H215745   0.025   1.272   3.574  1.5666  1.9997  0.6812
 5247TIP3   OH215746   3.015   5.830   4.910 -0.3472 -0.1969  0.0998
 5247TIP3    H115747   2.997   5.862   4.822  0.8967  0.9140  0.2317
 5247TIP3    H215748   3.110   5.818   4.913 -0.2889  0.4473  1.5028
 5248TIP3   OH215749   3.418   5.065   4.097 -0.0851  0.5170  0.0243
 5248TIP3    H115750   3.487   5.000   4.110 -0.1728 -0.3547 -3.1829
 5248TIP3    H215751   3.337   5.014   4.098 -0.1934  0.5778 -1.9588
 5249TIP3   OH215752   3.194   2.945   2.873  0.3266  0.1381 -0.4944
 5249TIP3    H115753   3.112   2.920   2.829  0.7790 -0.4057 -1.0528
 5249TIP3    H215754   3.179   3.035   2.901 -0.1416  0.3555 -1.3873
 5250TIP3   OH215755   1.145   0.143   5.100 -0.0622 -0.0104 -0.6678
 5250TIP3    H115756   1.067   0.192   5.127 -0.8769 -1.8152  0.4152
 5250TIP3    H215757   1.112   0.076   5.040  0.5432 -1.0537  0.1158
 5251TIP3   OH215758   5.848   2.609   2.553  0.0416  0.4724  0.2567
 5251TIP3    H115759   5.865   2.701   2.573  0.5601  0.2731  0.7806
 5251TIP3    H215760   5.934   2.567   2.561 -0.2305 -0.0917  0.2375
 5252TIP3   OH215761   2.540   1.156   1.141  0.2874 -0.3524 -0.8314
 5252TIP3    H115762   2.623   1.125   1.106 -0.4534 -0.0652 -3.0230
 5252TIP3    H215763   2.552   1.251   1.152  0.5151 -0.4390 -0.3355
 5253TIP3   OH215764   6.117   5.918   0.605 -0.4354 -0.4337 -0.5823
 5253TIP3    H115765   6.114   6.010   0.577  0.6773  0.1577  1.0631
 5253TIP3    H215766   6.026   5.889   0.601 -0.7513  0.6242 -1.4987
 5254TIP3   OH215767   3.835   4.369   2.125  0.0851  0.2899  0.1586
 5254TIP3    H115768   3.820   4.401   2.214  0.0318  0.4894  0.0778
 5254TIP3    H215769   3.912   4.312   2.132  0.3614  0.6758  0.2453
 5255TIP3   OH215770   2.740   1.260   1.565  0.3186 -0.1971  0.7481
 5255TIP3    H115771   2.771   1.245   1.654 -1.0828 -0.3704  1.2451
 5255TIP3    H215772   2.705   1.349   1.567 -1.0204 -0.6894  0.8098
 5256TIP3   OH215773   2.961   2.003   0.540  0.6301  0.4355 -0.5087
 5256TIP3    H115774   3.047   2.023   0.577  1.6106  1.9035 -3.2663
 5256TIP3    H215775   2.952   2.065   0.467 -2.4112 -0.2587 -0.8407
 5257TIP3   OH215776   3.731   0.418   0.551  0.2701  0.2280 -0.4316
 5257TIP3    H115777   3.784   0.358   0.603  0.4961 -0.0876 -1.0067
 5257TIP3    H215778   3.653   0.367   0.529  0.0536  0.4497 -0.1812
 5258TIP3   OH215779   1.430   0.510   0.464 -0.0315 -0.4062 -0.4710
 5258TIP3    H115780   1.424   0.571   0.537 -0.0897  0.3765 -1.1156
 5258TIP3    H215781   1.496   0.446   0.490 -0.4495 -0.4590  0.4887
 5259TIP3   OH215782   2.570   4.538   1.244  0.1684  0.3350 -0.2113
 5259TIP3    H115783   2.540   4.484   1.317  0.2538 -0.0678 -0.4694
 5259TIP3    H215784   2.582   4.625   1.282  1.1242 -0.0773  0.4759
 5260TIP3   OH215785   4.863   2.156   0.869  0.1629  0.1269  0.4511
 5260TIP3    H115786   4.801   2.103   0.918 -2.9184  0.9427 -2.2007
 5260TIP3    H215787   4.834   2.246   0.883  1.0328  0.5755 -0.4796
 5261TIP3   OH215788   4.791   0.363   4.522 -0.1561  0.0691 -0.3976
 5261TIP3    H115789   4.884   0.376   4.502  0.4410 -1.8519  0.8797
 5261TIP3    H215790   4.776   0.270   4.502 -1.4154 -0.0024  0.8263
 5262TIP3   OH215791   1.154   1.917   4.343 -0.6864 -0.1665 -0.3595
 5262TIP3    H115792   1.066   1.945   4.370  0.0401  0.8106  1.0591
 5262TIP3    H215793   1.145   1.901   4.249 -1.7038  2.8434 -0.8928
 5263TIP3   OH215794   4.096   0.090   3.951  0.1628  0.2465 -0.0226
 5263TIP3    H115795   4.114   0.133   4.034 -0.8855 -0.3613  0.5442
 5263TIP3    H215796   4.051   0.157   3.899 -1.8309 -0.2048  1.0015
 5264TIP3   OH215797   0.374   1.726   0.603 -0.0064 -0.5332 -0.6897
 5264TIP3    H115798   0.298   1.667   0.608 -1.9350  1.7432 -1.3984
 5264TIP3    H215799   0.373   1.773   0.687 -0.2767  0.5130 -1.2677
 5265TIP3   OH215800   0.420   0.927   1.796 -0.1432 -0.2246  0.0087
 5265TIP3    H115801   0.360   0.853   1.791 -0.1136 -0.5412  2.6996
 5265TIP3    H215802   0.507   0.888   1.796 -0.1338 -0.3109  1.8360
 5266TIP3   OH215803   3.211   2.821   3.324  1.0004  0.5424  0.8199
 5266TIP3    H115804   3.128   2.774   3.333  0.5468  1.3073  0.7105
 5266TIP3    H215805   3.186   2.912   3.312  1.8012  0.5951 -0.8073
 5267TIP3   OH215806   1.541   5.781   4.192  0.0901 -0.6513  0.4201
 5267TIP3    H115807   1.490   5.772   4.112 -0.7806 -0.1945  0.9022
 5267TIP3    H215808   1.628   5.748   4.170 -0.2042 -0.7405 -0.6391
 5268TIP3   OH215809   1.838   1.441   3.230  0.1616 -0.0265 -0.3416
 5268TIP3    H115810   1.768   1.377   3.219 -0.3100  0.2478  0.9071
 5268TIP3    H215811   1.799   1.512   3.281  1.3191  0.1470  0.3526
 5269TIP3   OH215812   0.309   0.183   3.059 -0.3163  0.3149  0.3721
 5269TIP3    H115813   0.275   0.132   2.985  2.0488 -1.3285  0.3115
 5269TIP3    H215814   0.290   0.274   3.036  1.2199 -0.0244 -2.8519
 5270TIP3   OH215815   1.550   5.717   1.129  0.4930  0.0045  0.0004
 5270TIP3    H115816   1.515   5.655   1.065 -0.8248  1.6861 -0.9898
 5270TIP3    H215817   1.530   5.803   1.093  2.7152  1.0496  1.0835
 5271TIP3   OH215818   3.254   0.221   1.550 -0.2223  0.3578 -0.3494
 5271TIP3    H115819   3.275   0.303   1.506 -1.0610  1.2317  0.7913
 5271TIP3    H215820   3.159   0.226   1.565 -0.0142  0.0632  1.3551
 5272TIP3   OH215821   3.734   2.943   3.304  0.7607  0.5827 -0.4006
 5272TIP3    H115822   3.642   2.917   3.305  0.3400  1.9772 -0.8621
 5272TIP3    H215823   3.732   3.039   3.306  2.2548  0.6426  2.4165
 5273TIP3   OH215824   0.638   1.819   0.227  0.6362  0.3342 -0.2762
 5273TIP3    H115825   0.616   1.747   0.286 -0.6985 -0.5813 -1.7983
 5273TIP3    H215826   0.725   1.848   0.255  0.4294 -0.6290  1.5390
 5274TIP3   OH215827   3.993   1.343   2.822 -0.0918 -0.6052  0.0423
 5274TIP3    H115828   4.086   1.365   2.812 -0.0439 -0.4011  0.9104
 5274TIP3    H215829   3.947   1.426   2.806 -0.0726 -0.5090  0.4783
 5275TIP3   OH215830   3.554   0.047   5.167 -0.5270 -0.2609  0.1035
 5275TIP3    H115831   3.640   0.013   5.141 -1.2858 -0.9959 -1.5573
 5275TIP3    H215832   3.514  -0.026   5.215 -1.0773 -0.7597 -1.0763
 5276TIP3   OH215833   1.474   5.649   3.259 -0.2109 -0.1284 -0.3435
 5276TIP3    H115834   1.467   5.663   3.353  1.0275 -0.3346 -0.2017
 5276TIP3    H215835   1.432   5.726   3.220 -0.6430  0.0076  0.3706
 5277TIP3   OH215836   4.055   0.870   3.873  0.0934 -0.2956 -0.0072
 5277TIP3    H115837   4.061   0.884   3.778  0.9594  1.4969  0.2594
 5277TIP3    H215838   4.023   0.954   3.907 -0.8038 -1.1147  1.2514
 5278TIP3   OH215839   5.692   2.192   4.595 -0.1293  0.4622  0.4481
 5278TIP3    H115840   5.598   2.176   4.602 -0.0235  0.2819  1.8868
 5278TIP3    H215841   5.732   2.111   4.626  0.4404  1.7220  3.3683
 5279TIP3   OH215842   2.701   0.741   2.804 -0.8136 -0.1240  0.0890
 5279TIP3    H115843   2.774   0.681   2.787 -0.6727 -0.0686  0.4684
 5279TIP3    H215844   2.743   0.818   2.843 -1.1511 -0.4093  1.0461
 5280TIP3   OH215845   2.070   4.701   2.288 -1.1079  0.3291  0.0885
 5280TIP3    H115846   2.062   4.755   2.209  0.8604  1.4525  0.5693
 5280TIP3    H215847   2.008   4.740   2.350 -1.7830  0.2042 -0.4961
 5281TIP3   OH215848   1.988   4.763   1.284 -0.8103 -0.3163  0.0820
 5281TIP3    H115849   1.906   4.715   1.273 -1.3636  0.5970  0.1521
 5281TIP3    H215850   2.008   4.756   1.378 -0.2320 -1.4328 -0.1030
 5282TIP3   OH215851   3.461   1.114   0.152 -0.0084  0.3079 -0.0097
 5282TIP3    H115852   3.397   1.175   0.116 -0.8250 -0.1983  0.5719
 5282TIP3    H215853   3.439   1.106   0.244  0.0849 -0.8682 -0.0690
 5283TIP3   OH215854   3.393   2.801   0.124 -0.3170  0.2079  0.4041
 5283TIP3    H115855   3.438   2.742   0.065 -0.6681 -0.0398  0.3823
 5283TIP3    H215856   3.437   2.885   0.112 -1.1454  0.4629 -1.0817
 5284TIP3   OH215857   2.911   5.833   0.450  0.2458 -0.4930 -0.5039
 5284TIP3    H115858   2.920   5.749   0.495 -3.2961 -0.8182 -0.1345
 5284TIP3    H215859   2.946   5.817   0.363 -2.3193 -3.1900 -1.2207
 5285TIP3   OH215860   2.783   1.963   3.794  0.6988  0.0735  0.7551
 5285TIP3    H115861   2.759   2.043   3.748  2.9770  2.2502  3.0485
 5285TIP3    H215862   2.734   1.966   3.876  0.3604 -1.2234  0.6278
 5286TIP3   OH215863   3.527   1.655   2.661  0.3028 -0.0687 -0.4095
 5286TIP3    H115864   3.591   1.694   2.720  0.2389 -2.0779  1.0863
 5286TIP3    H215865   3.577   1.593   2.607  0.0024  0.1752 -0.9857
 5287TIP3   OH215866   1.440   5.683   1.936 -0.1068 -0.0229  0.1886
 5287TIP3    H115867   1.450   5.743   2.009  0.5833  0.3978 -0.2290
 5287TIP3    H215868   1.347   5.664   1.931  0.0966 -2.4078  3.0073
 5288TIP3   OH215869   4.733   0.756   3.538  0.0572 -0.0033  0.1723
 5288TIP3    H115870   4.665   0.770   3.604  0.2708 -0.1504  0.4243
 5288TIP3    H215871   4.806   0.718   3.587 -0.4541 -1.8911 -0.4622
 5289TIP3   OH215872   2.135   0.297   3.189 -0.5734 -0.1542  1.0585
 5289TIP3    H115873   2.222   0.337   3.194 -1.1423  1.4716 -0.9285
 5289TIP3    H215874   2.144   0.228   3.124 -0.8203  0.1802  0.6663
 5290TIP3   OH215875   3.696   3.376   0.667 -0.4158  0.2926  0.1174
 5290TIP3    H115876   3.720   3.468   0.659 -2.0533  0.8260  0.9953
 5290TIP3    H215877   3.638   3.360   0.592  0.7755 -0.3829 -0.7091
 5291TIP3   OH215878   3.422   0.665   4.132  0.2272 -0.0110 -0.0411
 5291TIP3    H115879   3.413   0.571   4.115 -0.0754  0.1459 -0.8110
 5291TIP3    H215880   3.411   0.674   4.227 -1.1689 -0.5935 -0.1330
 5292TIP3   OH215881   2.666   1.075   4.010  0.3792  0.4428  0.4304
 5292TIP3    H115882   2.598   1.141   4.026  0.9438  1.2888 -0.4718
 5292TIP3    H215883   2.691   1.044   4.097  0.7860  2.1628  0.9778
 5293TIP3   OH215884   5.935   0.098   1.941  0.0977  0.2506 -0.7892
 5293TIP3    H115885   5.860   0.056   1.900 -0.7529  1.2814 -0.3199
 5293TIP3    H215886   6.007   0.085   1.879 -0.7220  0.1640 -1.7355
 5294TIP3   OH215887   4.169   2.794   4.084  0.0662 -0.4826 -0.2285
 5294TIP3    H115888   4.077   2.804   4.056 -0.2004  0.6240  0.9512
 5294TIP3    H215889   4.165   2.733   4.157  0.5285 -1.9002 -1.3534
 5295TIP3   OH215890   5.842   3.563   2.258  0.2778 -0.0615 -0.6873
 5295TIP3    H115891   5.873   3.477   2.228  1.7098  0.0501  0.3808
 5295TIP3    H215892   5.916   3.622   2.242  0.4950  0.3272  1.4170
 5296TIP3   OH215893   5.374   0.403   1.032 -0.0134 -0.2005  0.5508
 5296TIP3    H115894   5.458   0.362   1.012 -0.0516 -0.5499  1.1033
 5296TIP3    H215895   5.383   0.492   0.998 -0.3455 -0.9659 -1.7550
 5297TIP3   OH215896   3.564   4.494   3.871 -0.1010 -0.0606 -0.3739
 5297TIP3    H115897   3.530   4.582   3.854 -2.4557 -0.9143 -0.5153
 5297TIP3    H215898   3.512   4.461   3.944  2.2592 -0.5746  1.1619
 5298TIP3   OH215899   1.102   0.674   1.238  0.1212  0.4356  0.4429
 5298TIP3    H115900   1.084   0.764   1.267  1.9184  0.6991  0.8247
 5298TIP3    H215901   1.104   0.623   1.319  2.0744  0.6191  0.5448
 5299TIP3   OH215902   1.214   5.917   1.030  0.7261 -0.4082 -0.2022
 5299TIP3    H115903   1.247   5.904   0.941  0.9337 -1.4204  0.0103
 5299TIP3    H215904   1.264   5.992   1.063 -0.2629  0.8179 -1.3697
 5300TIP3   OH215905   4.370   5.896   2.916  0.6012  0.4459  0.4933
 5300TIP3    H115906   4.433   5.861   2.979  1.4026 -0.2905 -0.6875
 5300TIP3    H215907   4.424   5.934   2.847 -0.0975 -2.6342 -1.9475
 5301TIP3   OH215908   1.474   5.974   1.866 -0.2340  0.3182  0.1333
 5301TIP3    H115909   1.415   5.899   1.857 -0.2199  0.2749  0.3934
 5301TIP3    H215910   1.415   6.050   1.871 -0.2910  0.2211  0.9753
 5302TIP3   OH215911   1.478   1.756   4.998  0.8902 -0.1948 -0.0225
 5302TIP3    H115912   1.551   1.743   4.938  1.6674 -1.5287  1.1534
 5302TIP3    H215913   1.411   1.695   4.967  0.9310 -0.1956 -0.1090
 5303TIP3   OH215914   1.664   3.438   1.173  0.2801  0.1946 -0.2197
 5303TIP3    H115915   1.667   3.520   1.125  2.4310 -0.3499 -1.1206
 5303TIP3    H215916   1.673   3.464   1.265 -1.3479  1.0736 -0.2767
 5304TIP3   OH215917   4.354   4.081   1.971  0.7403 -0.1618 -0.4686
 5304TIP3    H115918   4.365   4.164   1.923 -0.2375  0.4256  0.2983
 5304TIP3    H215919   4.300   4.028   1.913 -1.8048  1.1355  0.5887
 5305TIP3   OH215920   1.924   5.212   2.631 -0.0060 -0.3816 -0.0136
 5305TIP3    H115921   1.902   5.144   2.695 -1.0932 -0.4401 -0.4263
 5305TIP3    H215922   1.934   5.292   2.683  2.1673 -0.9940  0.5881
 5306TIP3   OH215923   1.051   3.032   4.030 -0.0931  0.4379  0.5051
 5306TIP3    H115924   1.034   3.126   4.019  1.9754  0.7529 -0.3380
 5306TIP3    H215925   1.061   3.021   4.124 -1.7696  0.7584  0.7598
 5307TIP3   OH215926   1.747   1.835   4.845  0.6565 -0.1478  0.0104
 5307TIP3    H115927   1.778   1.749   4.874  0.2494  0.0398  1.0267
 5307TIP3    H215928   1.681   1.814   4.778  0.0851 -0.6583  0.7098
 5308TIP3   OH215929   2.236   2.211   1.596 -0.3497 -0.2973 -0.1351
 5308TIP3    H115930   2.281   2.296   1.591  0.1362 -0.5441 -0.0174
 5308TIP3    H215931   2.288   2.160   1.658  0.4243 -1.3193 -1.5754
 5309TIP3   OH215932   3.970   3.364   3.870 -0.4247 -0.0193 -0.2462
 5309TIP3    H115933   3.978   3.459   3.876 -1.1480  0.0478 -0.2987
 5309TIP3    H215934   4.030   3.339   3.800 -1.3347  0.5663 -1.2524
 5310TIP3   OH215935   0.901   2.020   1.292  0.1087 -0.0956 -0.9798
 5310TIP3    H115936   0.928   1.930   1.272  2.0570  0.6145 -1.7357
 5310TIP3    H215937   0.926   2.071   1.215 -1.0656  1.1116 -0.6117
 5311TIP3   OH215938   6.152   1.229   2.066 -0.7715 -0.3844  0.2840
 5311TIP3    H115939   6.142   1.306   2.010  0.0838 -1.5555 -1.5965
 5311TIP3    H215940   6.241   1.237   2.101 -1.5297  0.6778  2.0818
 5312TIP3   OH215941   2.666   0.879   3.801  0.0239  0.2693 -0.2560
 5312TIP3    H115942   2.734   0.878   3.733  0.9586  0.4061  0.6508
 5312TIP3    H215943   2.693   0.949   3.860 -0.6691  0.0159  0.3638
 5313TIP3   OH215944   0.479   2.576   3.280  0.4037  0.1947 -0.4651
 5313TIP3    H115945   0.435   2.577   3.365  0.3517  0.2756 -0.4931
 5313TIP3    H215946   0.407   2.580   3.216  0.4340 -0.0245 -0.5155
 5314TIP3   OH215947   3.644   0.708   2.071  0.6277  0.6398  0.0233
 5314TIP3    H115948   3.630   0.615   2.054  0.6144  0.7152 -0.4071
 5314TIP3    H215949   3.705   0.736   2.002 -0.8478  1.3674 -1.0471
 5315TIP3   OH215950   6.018   4.053   3.597  0.0683  0.0084 -0.8153
 5315TIP3    H115951   6.039   4.005   3.517  0.2071  2.0771 -2.0947
 5315TIP3    H215952   5.990   4.140   3.566 -0.9935  0.5025  1.3302
 5316TIP3   OH215953   4.149   2.873   4.555 -0.2559 -0.0461 -0.2805
 5316TIP3    H115954   4.119   2.892   4.466  0.5333  0.4258 -0.4503
 5316TIP3    H215955   4.162   2.959   4.595  0.3129 -0.2464 -0.0244
 5317TIP3   OH215956   3.676   0.857   1.644 -0.3216  0.1952 -1.1586
 5317TIP3    H115957   3.652   0.785   1.702  0.6458 -0.1880 -1.2161
 5317TIP3    H215958   3.664   0.936   1.697  0.7986 -0.1685 -0.3369
 5318TIP3   OH215959   0.035   4.503   1.492  0.1180  0.3692 -0.0630
 5318TIP3    H115960   0.002   4.541   1.573 -1.6589  0.4656 -0.7859
 5318TIP3    H215961   0.104   4.562   1.464 -1.1181  1.8849 -0.0293
 5319TIP3   OH215962   4.979   2.474   4.904 -0.4738  0.1930 -0.1705
 5319TIP3    H115963   4.979   2.519   4.820  0.0869 -1.0250 -0.8610
 5319TIP3    H215964   5.071   2.474   4.931 -0.3935 -0.8790 -0.4004
 5320TIP3   OH215965   5.979   4.525   0.147  0.0537  0.2199  0.2519
 5320TIP3    H115966   5.946   4.481   0.069 -0.7172  0.2280  0.5703
 5320TIP3    H215967   5.908   4.582   0.175  1.8556  3.7640 -1.6484
 5321TIP3   OH215968   1.668   2.880   4.163 -0.3022 -0.0068 -0.4248
 5321TIP3    H115969   1.577   2.857   4.185 -0.1935  0.6463  0.7960
 5321TIP3    H215970   1.720   2.842   4.234  0.8834 -3.7850 -3.0533
 5322TIP3   OH215971   1.039   5.332   0.338  0.0697  0.4578 -0.2547
 5322TIP3    H115972   0.953   5.361   0.366 -0.5734 -0.9914 -0.6222
 5322TIP3    H215973   1.094   5.341   0.416 -0.6418  0.5281  0.2465
 5323TIP3   OH215974   1.713   5.217   1.533 -0.0518  0.1268  0.2044
 5323TIP3    H115975   1.765   5.137   1.528  0.9783  0.8481 -1.4374
 5323TIP3    H215976   1.740   5.259   1.615  1.6532  0.2426 -0.3817
 5324TIP3   OH215977   1.118   0.108   1.502  0.2983 -0.2408  0.8618
 5324TIP3    H115978   1.211   0.112   1.523  0.5477  1.5041 -0.3863
 5324TIP3    H215979   1.085   0.196   1.523 -0.3834  0.1635 -1.5886
 5325TIP3   OH215980   3.100   0.791   1.421  0.1172 -0.4047  0.4150
 5325TIP3    H115981   3.098   0.881   1.390  1.2305 -0.7526 -0.7849
 5325TIP3    H215982   3.093   0.738   1.342  1.9750 -1.3330  0.8063
 5326TIP3   OH215983   5.029   1.616   0.289 -0.3884 -0.2582 -0.3607
 5326TIP3    H115984   5.068   1.581   0.369 -0.8659  1.6523  0.7734
 5326TIP3    H215985   4.948   1.658   0.319 -0.4358  0.7461 -1.7968
 5327TIP3   OH215986   2.726   1.760   3.078  0.4014  0.4118  0.1914
 5327TIP3    H115987   2.676   1.695   3.127 -1.4739 -0.0112 -2.0876
 5327TIP3    H215988   2.672   1.838   3.080  0.4811  0.5033 -0.8425
 5328TIP3   OH215989   4.392   3.860   1.651 -0.1515 -0.0626 -0.0921
 5328TIP3    H115990   4.413   3.950   1.626 -1.0700  0.0786 -0.3956
 5328TIP3    H215991   4.368   3.817   1.568  0.2782 -0.5825  0.0505
 5329TIP3   OH215992   4.054   3.136   5.008  0.2464 -0.3003  0.3561
 5329TIP3    H115993   4.133   3.098   5.046  0.6981 -0.0796 -0.3381
 5329TIP3    H215994   4.008   3.062   4.968 -0.2082 -0.5261  1.2622
 5330TIP3   OH215995   4.127   1.202   2.204 -0.0577 -0.0081  0.1516
 5330TIP3    H115996   4.186   1.263   2.247 -0.4510  0.3824  0.1470
 5330TIP3    H215997   4.045   1.250   2.195 -1.1467 -1.3259  2.3193
 5331TIP3   OH215998   5.562   5.435   0.052  0.6081  0.1096  0.1770
 5331TIP3    H115999   5.474   5.428   0.088  0.5656 -0.5958 -0.0487
 5331TIP3    H216000   5.588   5.526   0.069  0.1948  0.0684  1.0573
 5332TIP3   OH216001   5.308   0.391   2.449 -0.0603 -0.5988 -0.2290
 5332TIP3    H116002   5.321   0.303   2.483 -1.5853 -1.1516 -0.9561
 5332TIP3    H216003   5.215   0.409   2.463  0.7629  2.3181  3.0670
 5333TIP3   OH216004   4.658   2.418   3.893 -0.6094 -0.0176  0.3144
 5333TIP3    H116005   4.751   2.415   3.870 -0.6280  0.2765  0.1962
 5333TIP3    H216006   4.656   2.398   3.987 -0.6025 -1.9821 -0.0708
 5334TIP3   OH216007   5.311   0.613   2.819 -0.5643 -0.2650 -0.5102
 5334TIP3    H116008   5.358   0.685   2.777 -0.3698  1.1204  1.8518
 5334TIP3    H216009   5.243   0.656   2.871  0.4762 -1.5584  2.1355
 5335TIP3   OH216010   1.560   5.677   4.653  0.2185  0.1088 -0.2859
 5335TIP3    H116011   1.533   5.765   4.682  0.5444  0.7149 -1.7435
 5335TIP3    H216012   1.634   5.655   4.709  0.1140  0.7552  0.1182
 5336TIP3   OH216013   3.472   5.609   0.564  0.1415  0.4988  0.3662
 5336TIP3    H116014   3.565   5.596   0.585  0.5364  1.1369 -0.8600
 5336TIP3    H216015   3.457   5.550   0.490 -0.2716  0.8278  0.1892
 5337TIP3   OH216016   5.517   2.179   0.220 -0.4582  0.7072 -1.2214
 5337TIP3    H116017   5.611   2.164   0.229 -0.6258  0.0085 -0.5149
 5337TIP3    H216018   5.486   2.104   0.170 -0.6944  0.7421 -1.1279
 5338TIP3   OH216019   2.248   5.432   0.331 -0.4377 -0.0787  0.2800
 5338TIP3    H116020   2.256   5.339   0.313  0.3445 -0.0010  0.2086
 5338TIP3    H216021   2.245   5.474   0.245  1.2977  0.1233  0.2837
 5339TIP3   OH216022   4.854   2.101   0.438  0.3048  0.1275 -0.4364
 5339TIP3    H116023   4.813   2.182   0.470 -1.2218  0.0146 -1.9156
 5339TIP3    H216024   4.881   2.123   0.349  2.8539 -0.0660  0.2285
 5340TIP3   OH216025   1.465   5.320   3.794  0.2917 -0.5760 -0.2126
 5340TIP3    H116026   1.524   5.253   3.759 -0.4540 -1.2758 -0.1462
 5340TIP3    H216027   1.523   5.384   3.835  1.0102 -1.1971 -0.2518
 5341TIP3   OH216028   1.974   2.017   0.121  0.2838  0.5659  0.0417
 5341TIP3    H116029   1.977   2.037   0.028 -0.4565  0.9943  0.0991
 5341TIP3    H216030   1.884   1.987   0.136  0.1648  1.2657  0.7617
 5342TIP3   OH216031   2.672   2.874   2.517  0.2628 -0.1828 -0.1318
 5342TIP3    H116032   2.674   2.918   2.432  1.2687 -0.9090 -0.5071
 5342TIP3    H216033   2.594   2.909   2.560  2.2121  3.7826  0.6137
 5343TIP3   OH216034   5.523   3.637   2.961 -0.3679  0.4566 -0.7513
 5343TIP3    H116035   5.512   3.730   2.980 -0.1052  0.3842 -0.2280
 5343TIP3    H216036   5.457   3.593   3.015  1.5253  0.1175  1.4475
 5344TIP3   OH216037   1.105   3.788   1.415 -0.3491  0.0412  0.2813
 5344TIP3    H116038   1.129   3.775   1.507  0.1222  2.2296  0.5095
 5344TIP3    H216039   1.011   3.773   1.413 -0.5561  1.0341  1.3641
 5345TIP3   OH216040   4.323   5.080   2.475  0.2542 -0.1472  0.4301
 5345TIP3    H116041   4.293   5.088   2.566 -0.0546 -0.4980  0.3609
 5345TIP3    H216042   4.247   5.104   2.422  0.4501  0.1071  0.2644
 5346TIP3   OH216043   2.357   0.919   4.665  0.1074  0.3595 -0.1744
 5346TIP3    H116044   2.316   0.898   4.581 -2.0710  0.7040  0.7185
 5346TIP3    H216045   2.430   0.858   4.672 -1.6313 -1.9728 -0.8843
 5347TIP3   OH216046   3.231   5.486   4.923 -0.1284  0.2278  0.3310
 5347TIP3    H116047   3.153   5.499   4.978 -0.3057  0.3068  0.0662
 5347TIP3    H216048   3.239   5.391   4.915 -0.7570  0.2223 -0.4088
 5348TIP3   OH216049   0.935   4.276   0.947  0.3606 -0.0408 -0.3487
 5348TIP3    H116050   0.909   4.363   0.975 -0.1069 -0.1554 -0.4244
 5348TIP3    H216051   0.969   4.288   0.859  1.3112  0.2318  0.0392
 5349TIP3   OH216052   3.643   4.558   1.052 -0.1982 -0.2461 -0.0197
 5349TIP3    H116053   3.606   4.497   1.115  0.1498 -0.1289  0.3036
 5349TIP3    H216054   3.733   4.528   1.038 -0.1767 -0.0931 -0.2244
 5350TIP3   OH216055   1.019   5.194   4.606  0.1967 -0.5013 -0.0686
 5350TIP3    H116056   1.111   5.215   4.593  0.1972 -0.1338  0.5262
 5350TIP3    H216057   0.974   5.238   4.533  0.5441 -1.1803 -0.7071
 5351TIP3   OH216058   5.855   0.957   2.691 -0.5035  0.2273  0.4110
 5351TIP3    H116059   5.948   0.972   2.679 -0.9248  0.9595 -2.9397
 5351TIP3    H216060   5.841   0.868   2.659 -1.1101  0.5288 -0.1729
 5352TIP3   OH216061   3.671   3.049   1.051  0.1645  0.4505 -0.1355
 5352TIP3    H116062   3.602   3.078   0.991 -0.7053  0.0297  0.6294
 5352TIP3    H216063   3.747   3.103   1.028 -0.2097  0.4506 -1.4527
 5353TIP3   OH216064   5.763   1.900   2.397  0.3573 -0.2388  0.0898
 5353TIP3    H116065   5.688   1.954   2.421  0.4701 -0.7766  1.7917
 5353TIP3    H216066   5.838   1.959   2.402  0.5316 -0.5708  2.3280
 5354TIP3   OH216067   4.772   1.170   2.304  0.2112 -0.1277  0.3408
 5354TIP3    H116068   4.822   1.239   2.261  0.3714 -1.2591 -1.3929
 5354TIP3    H216069   4.837   1.102   2.324 -0.4842 -1.5038 -1.7090
 5355TIP3   OH216070   4.275   0.145   0.208  0.4363  0.1070  0.8769
 5355TIP3    H116071   4.286   0.210   0.277  0.4806  0.9611  0.0829
 5355TIP3    H216072   4.194   0.100   0.230 -0.6233  1.7202  0.4270
 5356TIP3   OH216073   3.226   3.526   0.954 -0.0062 -0.0581  0.0807
 5356TIP3    H116074   3.169   3.468   0.904  1.4301 -1.6104  0.1485
 5356TIP3    H216075   3.264   3.469   1.021 -0.9943  1.6995  2.2500
 5357TIP3   OH216076   5.213   0.799   4.591 -0.3065 -0.4673 -0.5167
 5357TIP3    H116077   5.188   0.883   4.629 -0.1894 -0.7225  0.1275
 5357TIP3    H216078   5.175   0.801   4.503 -0.0602  0.3781 -0.6158
 5358TIP3   OH216079   1.217   1.481   0.117  0.0705 -0.2496  0.5214
 5358TIP3    H116080   1.246   1.394   0.090  0.6245 -1.2048  3.6988
 5358TIP3    H216081   1.297   1.532   0.124 -0.3918  1.2136 -3.0585
 5359TIP3   OH216082   3.310   0.713   1.624 -0.0640  0.2835 -0.0729
 5359TIP3    H116083   3.333   0.805   1.611 -0.5643  0.4957  0.5094
 5359TIP3    H216084   3.222   0.705   1.588  0.0649 -0.0311 -0.3334
 5360TIP3   OH216085   5.617   5.536   1.425 -0.2824 -0.2041 -0.1119
 5360TIP3    H116086   5.600   5.629   1.407 -0.0624 -0.0895  0.2630
 5360TIP3    H216087   5.631   5.532   1.520 -1.4419 -0.7980  0.0513
 5361TIP3   OH216088   0.501   1.788   1.389  0.0742  0.1490 -0.0835
 5361TIP3    H116089   0.535   1.857   1.332  0.3435 -1.6947 -2.2826
 5361TIP3    H216090   0.577   1.755   1.436 -0.0335  1.1834  0.8677
 5362TIP3   OH216091   3.461   5.397   1.219 -0.2859 -0.7249 -0.1289
 5362TIP3    H116092   3.482   5.429   1.131 -0.5659 -1.4269 -0.4559
 5362TIP3    H216093   3.366   5.385   1.219 -0.1000 -2.4818 -0.3489
 5363TIP3   OH216094   2.659   5.316   4.754 -0.1744  0.5514 -0.1087
 5363TIP3    H116095   2.565   5.332   4.753 -0.0985  1.2943  1.3655
 5363TIP3    H216096   2.698   5.403   4.740  0.2719  0.4813  0.6168
 5364TIP3   OH216097   2.182   2.242   0.570 -0.6851 -0.2472  0.2370
 5364TIP3    H116098   2.095   2.252   0.533 -0.4812  1.6468  0.1595
 5364TIP3    H216099   2.206   2.330   0.599 -0.3726 -1.3835  3.8710
 5365TIP3   OH216100   4.349   0.735   3.917 -0.3815 -0.2637  0.8143
 5365TIP3    H116101   4.366   0.746   4.010 -1.9173 -0.7444  1.1809
 5365TIP3    H216102   4.255   0.750   3.908 -0.4133 -1.1126 -0.5197
 5366TIP3   OH216103   1.183   0.473   4.853  0.6902  0.1484 -0.0592
 5366TIP3    H116104   1.092   0.449   4.869  0.1187  2.4317  0.4895
 5366TIP3    H216105   1.216   0.501   4.938  1.2850  1.2060 -0.6144
 5367TIP3   OH216106   5.978   4.976   4.084  0.4573  0.1523  0.4054
 5367TIP3    H116107   5.920   5.046   4.055 -0.0730 -0.3687  0.1817
 5367TIP3    H216108   6.047   5.020   4.135  0.4918  0.8968 -0.2764
 5368TIP3   OH216109   5.313   2.293   0.081 -0.0840  0.1185  0.7087
 5368TIP3    H116110   5.383   2.273   0.143 -0.2214  0.7743  1.0892
 5368TIP3    H216111   5.309   2.389   0.079 -0.2576  0.1020 -0.1220
 5369TIP3   OH216112   3.092   3.458   3.917 -0.6243  0.2374 -0.2211
 5369TIP3    H116113   3.092   3.375   3.966 -0.3230  0.7830  0.7204
 5369TIP3    H216114   3.159   3.445   3.850 -0.2972 -0.1369  0.1693
 5370TIP3   OH216115   5.188   0.765   0.376 -0.2143 -0.2007 -0.2583
 5370TIP3    H116116   5.236   0.684   0.389  1.2357  0.4840 -1.0622
 5370TIP3    H216117   5.155   0.760   0.287  1.8451  1.0191 -1.1474
 5371TIP3   OH216118   4.500   2.075   1.602  0.0349  0.3046  0.2031
 5371TIP3    H116119   4.433   2.143   1.609 -0.3306 -0.0491  0.2018
 5371TIP3    H216120   4.453   1.999   1.565  0.0251 -0.4824  1.7525
 5372TIP3   OH216121   4.155   0.214   4.518  0.3607 -0.1801  0.1143
 5372TIP3    H116122   4.234   0.267   4.529 -0.4259  1.2300 -0.7680
 5372TIP3    H216123   4.114   0.212   4.604  1.1755 -0.6500  0.4998
 5373TIP3   OH216124   2.699   5.689   3.938  0.4962 -0.1365 -0.6196
 5373TIP3    H116125   2.740   5.760   3.988  1.8508 -1.7604  0.6935
 5373TIP3    H216126   2.768   5.659   3.878 -0.0263 -0.4360 -1.0780
 5374TIP3   OH216127   4.621   2.632   3.686 -0.1746  0.1401 -0.1302
 5374TIP3    H116128   4.587   2.611   3.774  1.8771 -2.0236  0.2681
 5374TIP3    H216129   4.634   2.546   3.645 -0.8336  1.1021 -2.5084
 5375TIP3   OH216130   4.812   5.176   0.015 -0.3633  0.0780 -0.2174
 5375TIP3    H116131   4.892   5.225   0.033  0.3749 -1.0629 -0.3133
 5375TIP3    H216132   4.745   5.243   0.006  0.7807  1.1416 -1.2435
 5376TIP3   OH216133   5.180   0.866   2.567 -0.1223 -0.3509  0.4254
 5376TIP3    H116134   5.176   0.804   2.494  2.5406 -0.0615 -0.0618
 5376TIP3    H216135   5.226   0.819   2.636 -0.8201  0.0713  1.1941
 5377TIP3   OH216136   4.381   3.333   1.837 -0.1219 -0.3658 -0.2427
 5377TIP3    H116137   4.414   3.360   1.751  1.8962  1.3915  0.9822
 5377TIP3    H216138   4.292   3.367   1.840  0.3863  1.1330 -1.0038
 5378TIP3   OH216139   0.030   1.517   1.523  0.2221 -0.1650  0.5497
 5378TIP3    H116140   0.089   1.580   1.482 -1.2127 -0.2144 -1.7938
 5378TIP3    H216141   0.076   1.489   1.602  2.4864  1.1414 -0.2028
 5379TIP3   OH216142   2.448   2.428   2.073 -0.1599 -0.3289 -0.3899
 5379TIP3    H116143   2.449   2.458   2.164 -1.0189  1.2128 -0.8457
 5379TIP3    H216144   2.463   2.508   2.021  0.9139 -1.2716 -1.5974
 5380TIP3   OH216145   6.224   3.719   1.122  0.4865 -0.4563 -0.2863
 5380TIP3    H116146   6.273   3.791   1.083  1.6513  0.4180  2.5469
 5380TIP3    H216147   6.275   3.641   1.100  1.4852  0.0917  0.0125
 5381TIP3   OH216148   3.450   4.405   1.685  0.1502  0.3022  0.1127
 5381TIP3    H116149   3.435   4.422   1.593  0.0491  0.9484  0.2449
 5381TIP3    H216150   3.477   4.489   1.722 -0.8619  0.3136  0.8865
 5382TIP3   OH216151   1.086   3.590   4.169 -0.1267 -0.1961 -0.3008
 5382TIP3    H116152   1.175   3.590   4.133  0.2815  0.4361  0.6505
 5382TIP3    H216153   1.035   3.642   4.107  0.6477  1.2186  0.1884
 5383TIP3   OH216154   5.674   3.278   4.885 -0.1647  0.1258  0.3450
 5383TIP3    H116155   5.658   3.333   4.808 -1.0276 -0.7224 -0.0996
 5383TIP3    H216156   5.599   3.219   4.888 -0.0979  0.0701  1.7841
 5384TIP3   OH216157   4.751   1.452   3.301 -0.4733  0.1037 -0.4898
 5384TIP3    H116158   4.726   1.447   3.208 -1.8936 -0.2500 -0.1081
 5384TIP3    H216159   4.679   1.499   3.343  0.4296  0.7755  0.3539
 5385TIP3   OH216160   1.370   2.924   2.514 -0.0716  0.2518  0.2578
 5385TIP3    H116161   1.292   2.979   2.520 -0.6762 -0.6148  0.4612
 5385TIP3    H216162   1.439   2.984   2.485 -0.6559  1.1642  0.7038
 5386TIP3   OH216163   2.689   5.533   1.650 -0.2868  0.0592 -0.3020
 5386TIP3    H116164   2.719   5.618   1.617  3.4262 -1.3345 -1.0004
 5386TIP3    H216165   2.713   5.533   1.743 -0.1655 -0.2746 -0.3325
 5387TIP3   OH216166   0.059   1.718   0.935  0.6564 -0.3974  0.3616
 5387TIP3    H116167   0.070   1.772   0.857 -2.0975 -1.7541 -1.1505
 5387TIP3    H216168   0.147   1.690   0.958  1.6619  0.8005 -1.7333
 5388TIP3   OH216169   0.623   0.457   3.561 -0.4388 -0.1881 -0.7528
 5388TIP3    H116170   0.714   0.471   3.587 -0.4416 -1.5444  0.1057
 5388TIP3    H216171   0.579   0.538   3.585  0.4722  0.3634 -0.8816
 5389TIP3   OH216172   3.378   3.262   2.187 -0.6838 -0.3860  0.1181
 5389TIP3    H116173   3.386   3.198   2.258 -0.3325  1.0431  1.4378
 5389TIP3    H216174   3.289   3.295   2.195 -0.4264  0.2683  0.3435
 5390TIP3   OH216175   1.640   2.554   1.919  0.0247 -0.1339 -0.0068
 5390TIP3    H116176   1.651   2.463   1.894  1.7111  0.4224 -1.5288
 5390TIP3    H216177   1.644   2.603   1.837  0.0288  1.3702  0.8375
 5391TIP3   OH216178   1.488   3.342   4.810  0.0967  0.3193  0.6090
 5391TIP3    H116179   1.489   3.268   4.749  0.6511  0.4096  0.5022
 5391TIP3    H216180   1.400   3.379   4.802 -0.9280 -1.5646  2.1725
 5392TIP3   OH216181   3.090   2.759   2.374 -0.2215 -0.6746  0.1755
 5392TIP3    H116182   3.041   2.699   2.429  0.7708 -3.5770 -1.8620
 5392TIP3    H216183   3.023   2.803   2.321 -0.8813 -1.0382  0.7010
 5393TIP3   OH216184   1.419   2.844   4.236 -0.0201 -0.2626 -0.7909
 5393TIP3    H116185   1.398   2.883   4.321  0.5796  0.5465 -0.9962
 5393TIP3    H216186   1.379   2.757   4.238 -0.3474 -0.0965  0.1624
 5394TIP3   OH216187   6.021   2.715   0.403  0.2612 -0.1174  0.1958
 5394TIP3    H116188   6.061   2.673   0.327  2.0299  1.6516  0.0647
 5394TIP3    H216189   6.044   2.659   0.477  0.9029 -0.4050 -0.2179
 5395TIP3   OH216190   4.921   1.071   1.558 -0.0332 -0.2715 -0.1471
 5395TIP3    H116191   4.951   1.048   1.470  1.8306  2.4834 -0.3482
 5395TIP3    H216192   4.865   1.148   1.546 -0.7521 -0.5785  1.0009
 5396TIP3   OH216193   3.819   5.571   5.096  0.3342 -0.4221 -0.3116
 5396TIP3    H116194   3.795   5.478   5.087  0.5791 -0.3084 -2.3877
 5396TIP3    H216195   3.895   5.582   5.039 -0.6163  1.3859 -1.3050
 5397TIP3   OH216196   5.919   3.376   1.111 -0.3010  0.1403  0.0160
 5397TIP3    H116197   5.998   3.381   1.164 -0.5911 -1.6812  0.6918
 5397TIP3    H216198   5.850   3.352   1.173 -0.7067 -1.7069 -1.0648
 5398TIP3   OH216199   1.876   3.294   2.169  0.0200  0.3610 -0.9037
 5398TIP3    H116200   1.842   3.382   2.184  1.3898  0.5464  1.7904
 5398TIP3    H216201   1.838   3.242   2.240  0.9553 -0.6942 -1.1550
 5399TIP3   OH216202   5.633   2.119   2.786  0.0731 -0.2559 -0.6109
 5399TIP3    H116203   5.624   2.033   2.828  1.1551 -0.1180 -0.0706
 5399TIP3    H216204   5.684   2.101   2.707  0.6858 -0.0628 -0.2701
 5400TIP3   OH216205   0.812   0.096   2.683  0.0077 -0.6818 -0.1242
 5400TIP3    H116206   0.727   0.118   2.721  0.1180 -1.1258  0.3916
 5400TIP3    H216207   0.872   0.099   2.757  0.2394 -1.5069 -0.2734
 5401TIP3   OH216208   1.411   1.076   3.025  0.2205  0.2387  0.0969
 5401TIP3    H116209   1.490   1.092   3.077  0.5322  1.2683 -0.6500
 5401TIP3    H216210   1.360   1.014   3.076  1.1080  0.2474  1.0152
 5402TIP3   OH216211   5.073   5.963   4.047  0.0570  0.1786  0.1996
 5402TIP3    H116212   5.055   5.879   4.090 -1.8469  0.6266  0.3223
 5402TIP3    H216213   5.056   5.947   3.954  0.8179  0.1457  0.0544
 5403TIP3   OH216214   2.590   5.798   2.573 -0.5222 -0.1284 -0.4063
 5403TIP3    H116215   2.623   5.887   2.587 -1.0729  0.1939 -1.0627
 5403TIP3    H216216   2.659   5.755   2.523 -0.0223 -0.2430  0.3659
 5404TIP3   OH216217   1.155   2.704   1.165 -0.2454 -0.3295  0.0712
 5404TIP3    H116218   1.076   2.672   1.122 -0.4198  1.3011 -0.9108
 5404TIP3    H216219   1.131   2.790   1.199  1.1746  0.3204 -0.4952
 5405TIP3   OH216220   6.020   3.478   4.018 -0.0950  0.1000 -0.1444
 5405TIP3    H116221   5.969   3.400   4.040  1.4802 -0.3115  2.4019
 5405TIP3    H216222   6.079   3.450   3.949  0.7624 -1.1554  1.0516
 5406TIP3   OH216223   3.489   4.966   4.508  0.5137 -0.8197 -0.2460
 5406TIP3    H116224   3.460   5.002   4.592  0.2431 -0.3557 -0.5386
 5406TIP3    H216225   3.485   4.871   4.521  0.6271 -0.7551  0.3169
 5407TIP3   OH216226   5.450   0.628   3.750 -0.1641  0.4042 -0.2703
 5407TIP3    H116227   5.448   0.713   3.705  0.2849  1.0235  0.8500
 5407TIP3    H216228   5.535   0.626   3.794 -0.5060 -0.2722  0.3787
 5408TIP3   OH216229   4.858   2.052   0.100  0.5373  0.5294 -0.0295
 5408TIP3    H116230   4.905   1.986   0.049  0.4776 -0.6837  1.4583
 5408TIP3    H216231   4.805   2.003   0.162  1.0724  1.9721  1.6342
 5409TIP3   OH216232   3.387   1.776   3.736 -0.3692  0.2970  0.1307
 5409TIP3    H116233   3.410   1.865   3.762 -1.3809  0.9427 -1.1128
 5409TIP3    H216234   3.300   1.783   3.698 -0.2663 -1.1427 -0.4437
 5410TIP3   OH216235   3.717   0.915   4.579  0.0674 -0.5858 -0.2552
 5410TIP3    H116236   3.622   0.927   4.570  0.3203 -0.1400 -2.9631
 5410TIP3    H216237   3.742   0.864   4.502  2.2155  0.5121 -0.3432
 5411TIP3   OH216238   5.914   4.602   4.895  0.6115  0.3272  0.0065
 5411TIP3    H116239   5.912   4.692   4.927 -0.3868  0.1902  0.3480
 5411TIP3    H216240   5.856   4.553   4.954 -0.2549 -0.1840 -1.2168
 5412TIP3   OH216241   1.652   1.325   0.852 -0.3091  0.0979 -0.3150
 5412TIP3    H116242   1.571   1.278   0.872 -0.7993  0.4747 -1.3407
 5412TIP3    H216243   1.642   1.410   0.896  0.2759 -0.4566  0.9538
 5413TIP3   OH216244   3.028   2.327   4.692 -0.4557 -0.1142  0.3463
 5413TIP3    H116245   3.048   2.261   4.627 -1.1807  0.4053 -0.4292
 5413TIP3    H216246   2.932   2.328   4.696 -0.4297 -0.4889  1.7957
 5414TIP3   OH216247   5.138   3.667   1.185 -0.3593 -0.2804  0.3987
 5414TIP3    H116248   5.204   3.706   1.243 -2.0184  2.8288  0.3645
 5414TIP3    H216249   5.169   3.688   1.097 -1.9501  2.4791  0.3918
 5415TIP3   OH216250   3.128   3.623   1.935  0.2433  0.1756 -0.2378
 5415TIP3    H116251   3.098   3.576   1.857 -0.7087  1.1224 -0.4575
 5415TIP3    H216252   3.051   3.670   1.966  1.6174  3.3338 -1.2551
 5416TIP3   OH216253   1.358   1.368   4.420  0.3251  0.2520 -0.3587
 5416TIP3    H116254   1.324   1.303   4.358  0.1258  1.8487 -2.0381
 5416TIP3    H216255   1.451   1.374   4.400  0.4132  0.2238  0.0373
 5417TIP3   OH216256   2.746   0.001   2.100  0.1610 -0.2658  0.1571
 5417TIP3    H116257   2.651   0.005   2.090  0.0895  0.4904  1.0528
 5417TIP3    H216258   2.778   0.083   2.064  0.4171 -0.2467  0.4232
 5418TIP3   OH216259   4.704   1.181   3.325 -0.0569 -0.5955 -0.0475
 5418TIP3    H116260   4.676   1.168   3.416 -1.8177 -1.9755 -0.7415
 5418TIP3    H216261   4.710   1.276   3.316 -0.2153 -0.4185  1.3884
 5419TIP3   OH216262   1.568   5.194   2.204  0.4355  0.0008  0.1466
 5419TIP3    H116263   1.608   5.203   2.290 -0.6042 -0.7893  0.7255
 5419TIP3    H216264   1.633   5.232   2.144  2.4408 -1.9992  0.9288
 5420TIP3   OH216265   4.513   5.159   3.490  0.2581  0.2783  1.0191
 5420TIP3    H116266   4.585   5.222   3.485 -0.5715  1.2328  0.7656
 5420TIP3    H216267   4.520   5.109   3.408  1.1999 -0.2919  1.4313
 5421TIP3   OH216268   1.979   0.312   0.446 -0.2230 -0.2286 -0.1418
 5421TIP3    H116269   2.063   0.294   0.488  0.7651  0.8881 -1.5317
 5421TIP3    H216270   1.976   0.250   0.373 -1.2305 -1.1335  0.6325
 5422TIP3   OH216271   5.526   4.476   3.545 -0.2971  0.0492 -0.0982
 5422TIP3    H116272   5.436   4.494   3.519 -0.6533  1.6427  1.9732
 5422TIP3    H216273   5.576   4.482   3.463 -1.9300 -0.0413 -1.1484
 5423TIP3   OH216274   6.002   1.331   2.799 -0.5106 -0.1380 -0.6375
 5423TIP3    H116275   6.053   1.345   2.879 -1.6604 -1.4620  0.3859
 5423TIP3    H216276   6.054   1.371   2.730  0.6459  0.8309  0.7274
 5424TIP3   OH216277   4.267   1.458   4.803 -0.3499 -0.2316 -0.1779
 5424TIP3    H116278   4.342   1.430   4.750 -1.6824 -0.8364 -1.8376
 5424TIP3    H216279   4.290   1.431   4.893  1.5151 -0.1368 -0.5801
 5425TIP3   OH216280   0.950   3.104   0.819  0.4470  0.0038  0.3933
 5425TIP3    H116281   0.933   3.010   0.814 -0.5290  0.2432 -1.1424
 5425TIP3    H216282   1.008   3.113   0.895 -0.4367 -1.6872  1.3254
 5426TIP3   OH216283   3.414   0.399   4.269 -0.3959  0.0998 -0.1383
 5426TIP3    H116284   3.429   0.304   4.266 -0.0289  0.1810 -2.0221
 5426TIP3    H216285   3.319   0.409   4.264 -0.3855 -0.1657 -1.0405
 5427TIP3   OH216286   0.331   2.457   2.820 -0.2556  0.2003 -0.6672
 5427TIP3    H116287   0.384   2.511   2.878  1.3999 -0.3681 -1.5968
 5427TIP3    H216288   0.270   2.518   2.779 -1.3684  0.6360  1.5001
 5428TIP3   OH216289   5.677   0.564   1.011  0.2268 -0.8476  0.4681
 5428TIP3    H116290   5.661   0.471   1.028 -0.1972 -0.8808 -0.0792
 5428TIP3    H216291   5.762   0.567   0.968  0.2590 -0.9745  0.5224
 5429TIP3   OH216292   1.965   3.686   2.134  0.1677 -0.0547 -0.7705
 5429TIP3    H116293   1.913   3.653   2.206 -0.5689  0.2640 -1.1516
 5429TIP3    H216294   2.053   3.697   2.171  0.1130 -1.1572 -0.2906
 5430TIP3   OH216295   4.571   3.807   2.541  0.6291 -0.6777 -0.0869
 5430TIP3    H116296   4.491   3.861   2.546  0.5926 -0.7958  0.8718
 5430TIP3    H216297   4.545   3.731   2.489  0.5206 -0.0451 -0.9762
 5431TIP3   OH216298   3.130   0.987   4.380 -0.0723  0.1934 -0.1858
 5431TIP3    H116299   3.071   0.954   4.311 -0.1385 -2.1410  0.8733
 5431TIP3    H216300   3.194   1.040   4.333 -1.8774  1.2339 -1.6229
 5432TIP3   OH216301   5.686   2.398   1.399 -0.5061  0.0860 -0.1438
 5432TIP3    H116302   5.677   2.398   1.494 -0.2815  0.2016 -0.1222
 5432TIP3    H216303   5.762   2.453   1.382 -0.1039 -0.5260 -0.3508
 5433TIP3   OH216304   2.910   4.492   2.199  0.5216  0.5040  0.1013
 5433TIP3    H116305   2.980   4.456   2.254 -0.5456 -1.0538  0.5035
 5433TIP3    H216306   2.890   4.422   2.137  0.5887  1.6451 -1.2416
 5434TIP3   OH216307   2.960   0.285   2.364 -0.5920 -0.5076 -0.0071
 5434TIP3    H116308   2.935   0.196   2.342  0.7314 -0.9211  0.0782
 5434TIP3    H216309   2.928   0.338   2.292 -2.5613 -0.8463  0.5731
 5435TIP3   OH216310   4.209   3.011   3.475 -0.0114  0.8903 -0.1974
 5435TIP3    H116311   4.265   3.028   3.399  0.7910  0.8765  0.3678
 5435TIP3    H216312   4.269   2.974   3.540 -0.5199  1.6325  0.7226
 5436TIP3   OH216313   1.729   5.548   3.434 -0.3817 -0.2519 -0.1459
 5436TIP3    H116314   1.641   5.583   3.446  0.7459  4.0116 -2.3184
 5436TIP3    H216315   1.773   5.565   3.517 -1.0240 -0.4071  0.2286
 5437TIP3   OH216316   5.308   5.460   0.834 -0.5037  0.2615 -0.1057
 5437TIP3    H116317   5.308   5.525   0.763  0.5909 -0.0404 -0.4135
 5437TIP3    H216318   5.308   5.376   0.788 -0.5069  0.0644  0.2601
 5438TIP3   OH216319   2.219   3.703   0.178 -0.2781 -0.1075  0.5598
 5438TIP3    H116320   2.303   3.656   0.174 -1.8346 -3.0898  0.3046
 5438TIP3    H216321   2.187   3.687   0.266  0.2872  2.8642  1.4197
 5439TIP3   OH216322   0.279   3.550   2.796 -0.0231  0.4861 -0.0280
 5439TIP3    H116323   0.250   3.562   2.886 -0.8175  2.6744 -0.5365
 5439TIP3    H216324   0.199   3.547   2.744  0.4627  1.3572 -0.8719
 5440TIP3   OH216325   0.247   1.142   1.892  0.0366  0.6744  0.0249
 5440TIP3    H116326   0.174   1.085   1.870  0.5729 -0.0139 -0.0370
 5440TIP3    H216327   0.325   1.090   1.869  0.5641  0.8707  1.3050
 5441TIP3   OH216328   0.118   1.965   4.235 -0.0777  0.0216 -0.0369
 5441TIP3    H116329   0.123   1.875   4.265 -1.6864  0.5636  2.0819
 5441TIP3    H216330   0.070   1.960   4.152 -0.1348 -1.0500  0.0482
 5442TIP3   OH216331   2.063   4.274   1.505  0.3605  0.1759 -0.6187
 5442TIP3    H116332   2.013   4.342   1.551 -1.6976 -0.6173 -1.5604
 5442TIP3    H216333   2.041   4.193   1.551  1.7071 -0.0707 -0.3684
 5443TIP3   OH216334   5.921   5.978   3.465 -0.2556 -0.4713  0.5192
 5443TIP3    H116335   5.832   5.967   3.499 -0.5014  2.6906  1.1275
 5443TIP3    H216336   5.977   5.969   3.542 -0.2349 -0.2698  0.5277
 5444TIP3   OH216337   3.691   3.988   4.199  0.0638 -0.3739  0.5012
 5444TIP3    H116338   3.609   3.939   4.191 -1.0252  1.6053 -1.4894
 5444TIP3    H216339   3.709   3.990   4.293 -0.8378 -2.8847  0.7965
 5445TIP3   OH216340   0.978   4.355   1.371 -0.9553 -0.1935 -0.3545
 5445TIP3    H116341   1.026   4.280   1.404  0.7930  1.2345  0.4855
 5445TIP3    H216342   0.916   4.377   1.441 -1.1189 -0.5107 -0.3950
 5446TIP3   OH216343   0.584   2.670   2.775 -0.1297 -0.3032 -0.4352
 5446TIP3    H116344   0.662   2.618   2.795 -0.6320 -0.7221  0.5001
 5446TIP3    H216345   0.603   2.757   2.811 -0.1050 -0.4105 -0.1893
 5447TIP3   OH216346   3.805   0.145   4.866 -0.1300 -0.2849  0.5725
 5447TIP3    H116347   3.753   0.087   4.810 -0.3932 -0.6511  1.1866
 5447TIP3    H216348   3.741   0.207   4.902 -0.5053 -1.7969  2.7127
 5448TIP3   OH216349   1.254   5.490   0.516 -0.3616  0.4250  0.0789
 5448TIP3    H116350   1.294   5.436   0.448  0.2733  1.4396 -0.3888
 5448TIP3    H216351   1.295   5.462   0.597  1.2975  1.3688 -0.3770
 5449TIP3   OH216352   5.139   1.398   4.328 -0.1693  0.6298  0.3418
 5449TIP3    H116353   5.198   1.467   4.358 -1.8570  3.3428 -2.1315
 5449TIP3    H216354   5.123   1.418   4.236 -0.6037 -3.2715 -0.6080
 5450TIP3   OH216355   4.479   2.385   4.293 -0.0630  0.8959 -0.2356
 5450TIP3    H116356   4.478   2.329   4.370 -0.8258  0.4601 -0.5536
 5450TIP3    H216357   4.557   2.357   4.244 -1.5120 -1.3835 -1.4385
 5451TIP3   OH216358   0.633   3.910   0.082  0.8085 -0.3115 -0.1536
 5451TIP3    H116359   0.724   3.889   0.060  0.8841 -0.3984  0.2381
 5451TIP3    H216360   0.581   3.864   0.016  1.0024 -1.1675  0.2829
 5452TIP3   OH216361   3.444   5.602   3.272 -0.6173  0.2975 -0.2757
 5452TIP3    H116362   3.526   5.580   3.316  0.1199  0.4208 -1.5643
 5452TIP3    H216363   3.405   5.671   3.327 -0.3723 -0.4574  0.8849
 5453TIP3   OH216364   5.630   0.966   3.276 -0.6419 -0.3981 -0.6446
 5453TIP3    H116365   5.570   1.038   3.294 -0.9292 -0.8396  0.2695
 5453TIP3    H216366   5.605   0.934   3.190  0.0498  1.1253 -1.4601
 5454TIP3   OH216367   3.652   5.099   3.462  0.3331  0.2254 -0.2932
 5454TIP3    H116368   3.626   5.023   3.514 -0.8212 -0.1908 -1.4306
 5454TIP3    H216369   3.747   5.095   3.460  0.4869  0.7649  2.4938
 5455TIP3   OH216370   5.997   1.771   0.493 -0.7214 -0.0697  0.2750
 5455TIP3    H116371   6.027   1.718   0.419 -4.1434 -1.3060 -0.4185
 5455TIP3    H216372   6.030   1.727   0.570 -0.8825 -1.4404 -0.4081
 5456TIP3   OH216373   5.318  -0.017   0.486  0.4298  0.4854  0.5023
 5456TIP3    H116374   5.280  -0.042   0.402  0.1157 -0.1295  0.8171
 5456TIP3    H216375   5.371   0.060   0.467  1.2633 -0.2912 -0.4782
 5457TIP3   OH216376   1.724   1.640   3.365 -0.0126  0.2918 -0.4661
 5457TIP3    H116377   1.649   1.649   3.424  1.3009  0.4847  1.2755
 5457TIP3    H216378   1.752   1.730   3.349 -0.0067  0.2118 -0.9024
 5458TIP3   OH216379   0.777   3.777   4.858 -0.4402 -0.0238 -0.5008
 5458TIP3    H116380   0.753   3.853   4.805 -2.5050 -0.3848 -0.2005
 5458TIP3    H216381   0.852   3.806   4.910 -2.0154  2.3433  0.6602
 5459TIP3   OH216382   3.406   1.613   3.151  0.1515 -0.1891  0.2983
 5459TIP3    H116383   3.476   1.564   3.194  3.0962  0.3055 -3.3751
 5459TIP3    H216384   3.332   1.552   3.147  0.6018 -1.1040  3.4430
 5460TIP3   OH216385   0.837   4.063   5.116 -0.1488 -0.0844 -0.6390
 5460TIP3    H116386   0.896   4.044   5.043  0.9460  0.9186 -0.0456
 5460TIP3    H216387   0.752   4.032   5.086  0.7569 -2.1376 -1.2958
 5461TIP3   OH216388   1.437   1.816   4.366 -0.3114  0.5793  0.0819
 5461TIP3    H116389   1.480   1.801   4.282  1.5951  1.2857  0.8814
 5461TIP3    H216390   1.356   1.862   4.344  1.7242  3.8208 -1.2072
 5462TIP3   OH216391   0.214   4.677   1.416 -0.4390 -0.0244  0.0437
 5462TIP3    H116392   0.187   4.753   1.365  0.0618  0.1385  0.0132
 5462TIP3    H216393   0.308   4.669   1.399 -0.4205 -0.4371  0.3256
 5463TIP3   OH216394   0.702   1.042   0.644  0.4359  0.3847 -0.1748
 5463TIP3    H116395   0.728   1.030   0.553 -0.9868 -1.3001 -0.4107
 5463TIP3    H216396   0.656   0.961   0.667  0.9092  0.6921  2.1028
 5464TIP3   OH216397   4.681   4.391   4.409  0.2277  0.1333  0.1269
 5464TIP3    H116398   4.656   4.483   4.421 -1.2415 -0.0461 -1.1584
 5464TIP3    H216399   4.685   4.355   4.497 -0.9607  1.0200  0.5675
 5465TIP3   OH216400   4.880   3.967   3.213  0.0238  0.3327  0.1851
 5465TIP3    H116401   4.814   3.907   3.247  0.3643  1.6698  3.6646
 5465TIP3    H216402   4.830   4.041   3.178 -0.3851 -1.6346 -3.8971
 5466TIP3   OH216403   1.724   1.123   0.663 -0.0916  0.2893 -0.1883
 5466TIP3    H116404   1.688   1.201   0.704 -1.1235  0.0044 -0.5235
 5466TIP3    H216405   1.818   1.140   0.657 -0.3421  1.6372 -0.5528
 5467TIP3   OH216406   6.317   0.437   3.363 -0.3702 -0.1987 -0.4823
 5467TIP3    H116407   6.272   0.431   3.278 -0.8473 -2.0313 -0.1269
 5467TIP3    H216408   6.386   0.371   3.358  1.0451  1.2172 -0.2526
 5468TIP3   OH216409   0.422   2.250   0.961 -0.7267  0.0582 -0.5671
 5468TIP3    H116410   0.392   2.166   0.994 -1.3212  0.3377 -0.3796
 5468TIP3    H216411   0.517   2.250   0.977  0.6368 -3.1654 -6.1519
 5469TIP3   OH216412   4.532   5.583   0.266  0.5772 -0.8193 -0.0856
 5469TIP3    H116413   4.551   5.518   0.333  0.3651 -0.5205  0.2663
 5469TIP3    H216414   4.594   5.564   0.196  0.9130 -1.0274  0.2666
 5470TIP3   OH216415   4.226   3.080   2.381 -0.8096 -0.2185 -0.3712
 5470TIP3    H116416   4.159   3.013   2.394 -0.5012 -1.4675 -4.0429
 5470TIP3    H216417   4.302   3.032   2.347  0.9660  1.5256  0.8737
 5471TIP3   OH216418   3.099   0.918   3.394  0.0627  0.0052 -0.0652
 5471TIP3    H116419   3.042   0.906   3.318  1.5952  1.0116 -1.4299
 5471TIP3    H216420   3.051   0.979   3.451 -1.5526 -1.5578  0.3277
 5472TIP3   OH216421   2.760   5.698   0.209  0.4437  0.6399  0.2268
 5472TIP3    H116422   2.750   5.782   0.164  0.9249 -0.4952 -2.1806
 5472TIP3    H216423   2.670   5.671   0.229  0.0950  0.5527 -1.3635
 5473TIP3   OH216424   2.190   0.794   1.236  0.1198  0.3473 -0.0618
 5473TIP3    H116425   2.264   0.798   1.296  1.0133  0.7983 -1.1722
 5473TIP3    H216426   2.189   0.879   1.192 -0.3246 -0.0792 -0.9019
 5474TIP3   OH216427   4.675   5.518   3.211 -0.4080 -0.7351 -0.2643
 5474TIP3    H116428   4.725   5.484   3.137  1.5994 -0.9825  1.1322
 5474TIP3    H216429   4.735   5.577   3.255 -1.4287 -0.8724  1.3825
 5475TIP3   OH216430   0.502   1.975   2.194 -0.1332 -0.0916 -0.5244
 5475TIP3    H116431   0.410   1.950   2.205  0.1422 -0.3072  1.8042
 5475TIP3    H216432   0.551   1.895   2.214  0.6015  0.7759  1.3968
 5476TIP3   OH216433   2.842   4.518   0.696  0.2722  0.5593 -0.4381
 5476TIP3    H116434   2.888   4.454   0.750  0.4859  0.4902 -0.7046
 5476TIP3    H216435   2.820   4.588   0.757 -1.0595 -0.3149  0.1441
 5477TIP3   OH216436   5.258   1.461   3.230 -0.1626  0.0521  0.1362
 5477TIP3    H116437   5.181   1.409   3.253 -0.3898  0.3377  0.0158
 5477TIP3    H216438   5.237   1.499   3.145 -0.1895  0.7184  0.4307
 5478TIP3   OH216439   3.294   0.001   4.528 -0.7427  0.1970  0.6659
 5478TIP3    H116440   3.269  -0.057   4.456  2.3985 -0.3025 -0.1811
 5478TIP3    H216441   3.325   0.081   4.486  3.1526 -0.8743  1.1074
 5479TIP3   OH216442   0.129   0.389   5.153  0.0639 -0.4315 -0.0051
 5479TIP3    H116443   0.074   0.466   5.166  1.3336  0.4439  0.3387
 5479TIP3    H216444   0.076   0.316   5.186  0.2393  0.7716  3.3402
 5480TIP3   OH216445   0.817   0.065   2.395 -0.6148 -0.3160  0.3716
 5480TIP3    H116446   0.816  -0.027   2.368 -1.4086 -0.5000  0.9941
 5480TIP3    H216447   0.850   0.062   2.485  0.3861  0.1254  0.0351
 5481TIP3   OH216448   0.595   4.555   4.152 -0.3511  0.1070 -0.0702
 5481TIP3    H116449   0.544   4.475   4.137  0.9907 -1.3925  2.6328
 5481TIP3    H216450   0.686   4.529   4.138  0.0766  1.2376  0.4800
 5482TIP3   OH216451   2.706   2.268   2.078  0.4139  0.3355  0.3300
 5482TIP3    H116452   2.612   2.270   2.057  0.2825 -1.6374  0.5651
 5482TIP3    H216453   2.721   2.348   2.128 -1.4504  0.0574  1.4271
 5483TIP3   OH216454   3.140   3.487   1.374 -0.6616 -0.3693 -0.1463
 5483TIP3    H116455   3.115   3.439   1.295 -1.2827  0.3326 -0.3874
 5483TIP3    H216456   3.198   3.426   1.422 -0.5585 -0.9300 -0.9627
 5484TIP3   OH216457   6.285   2.947   1.577  0.2189 -0.1451 -0.0105
 5484TIP3    H116458   6.335   2.881   1.626  1.7354  1.1605  0.2545
 5484TIP3    H216459   6.221   2.895   1.527  0.8073 -1.7535  0.8107
 5485TIP3   OH216460   6.120   3.711   0.068  0.2944  0.4102  0.6452
 5485TIP3    H116461   6.188   3.647   0.089  0.0958 -0.0248 -0.0166
 5485TIP3    H216462   6.039   3.669   0.096 -0.1314 -0.7180 -2.0268
 5486TIP3   OH216463   1.840   2.131   1.557 -0.2933  0.2606  0.0912
 5486TIP3    H116464   1.903   2.200   1.538  0.1402 -0.6838 -2.2596
 5486TIP3    H216465   1.893   2.054   1.574 -0.7023 -0.6977 -2.5407
 5487TIP3   OH216466   1.353   0.913   1.772 -0.5611  0.2361  0.7100
 5487TIP3    H116467   1.431   0.859   1.775 -1.1297 -0.6780 -0.2932
 5487TIP3    H216468   1.331   0.930   1.864 -0.8993 -2.0317  1.0947
 5488TIP3   OH216469   2.349   5.555   3.574  0.6685 -0.5254  0.0932
 5488TIP3    H116470   2.352   5.651   3.578  1.9688 -0.5369 -0.1104
 5488TIP3    H216471   2.435   5.527   3.605  0.0764 -1.6636  0.7605
 5489TIP3   OH216472   4.634   3.514   5.181  0.0320 -0.3739  0.0263
 5489TIP3    H116473   4.548   3.544   5.153  0.4882 -0.3271 -1.3821
 5489TIP3    H216474   4.693   3.539   5.110  1.1046 -0.9764  0.6743
 5490TIP3   OH216475   5.998   3.509   2.949 -0.0681  0.0395  0.3336
 5490TIP3    H116476   5.952   3.434   2.910 -0.2161  0.5313 -0.4564
 5490TIP3    H216477   6.026   3.562   2.874  0.2416  0.6568  0.8747
 5491TIP3   OH216478   1.154   5.778   3.410  0.1424  0.1744  0.0783
 5491TIP3    H116479   1.103   5.810   3.336 -1.4659  1.1137  1.5095
 5491TIP3    H216480   1.157   5.852   3.471  0.9019 -0.7340  1.2049
 5492TIP3   OH216481   0.158   0.257   3.301 -0.1299  0.2429 -0.2522
 5492TIP3    H116482   0.118   0.176   3.335  0.3483  0.4794  0.9155
 5492TIP3    H216483   0.215   0.227   3.231  1.6270 -0.7342  1.4767
 5493TIP3   OH216484   2.969   3.684   3.967 -0.0282 -0.7064  0.2761
 5493TIP3    H116485   3.031   3.614   3.947  0.9006 -0.9149  3.3664
 5493TIP3    H216486   3.025   3.760   3.984 -0.9186  0.2875 -1.0577
 5494TIP3   OH216487   0.894   0.822   2.192 -0.3001 -0.0573 -0.3632
 5494TIP3    H116488   0.865   0.731   2.206 -0.5401  0.1403  0.5046
 5494TIP3    H216489   0.831   0.875   2.242  0.2032  0.5442 -0.3597
 5495TIP3   OH216490   4.129   4.139   1.706 -0.3402  0.5309  0.2199
 5495TIP3    H116491   4.115   4.054   1.665  0.6148 -0.0357  1.0060
 5495TIP3    H216492   4.147   4.198   1.634 -1.3762  0.1537 -0.3672
 5496TIP3   OH216493   1.844   3.980   2.098 -0.1660 -0.1197 -0.0524
 5496TIP3    H116494   1.845   3.915   2.168 -2.7762  1.0779  1.2569
 5496TIP3    H216495   1.935   4.005   2.086  0.5394 -1.7188  1.6328
 5497TIP3   OH216496   3.967   0.517   4.075 -0.1338 -0.6004  0.1761
 5497TIP3    H116497   3.903   0.577   4.037 -0.8591 -0.7904  1.0442
 5497TIP3    H216498   4.036   0.574   4.109 -0.7206 -0.2524  0.8193
 5498TIP3   OH216499   1.711   1.643   1.956  1.0530 -0.1513 -0.7724
 5498TIP3    H116500   1.692   1.599   2.039  0.7912 -1.2962 -1.4149
 5498TIP3    H216501   1.634   1.697   1.939  1.4037  0.6488  0.0537
 5499TIP3   OH216502   6.125   3.902   0.390  0.2927 -0.2910  0.0421
 5499TIP3    H116503   6.195   3.957   0.353 -0.6058  0.5808 -0.3923
 5499TIP3    H216504   6.172   3.832   0.435  1.4526 -0.2300 -0.9996
 5500TIP3   OH216505   3.276   2.669   3.554 -0.5017 -0.7987 -0.0849
 5500TIP3    H116506   3.277   2.731   3.481 -0.7442  1.2070  1.5274
 5500TIP3    H216507   3.301   2.721   3.630 -1.6703 -2.4716  1.5337
 5501TIP3   OH216508   0.823   3.126   1.767  0.4113 -0.4240  0.2140
 5501TIP3    H116509   0.735   3.129   1.804  0.0798 -0.8966 -0.5018
 5501TIP3    H216510   0.842   3.032   1.759  0.5966 -0.3306 -0.4955
 5502TIP3   OH216511   3.989   2.929   2.764  1.0237 -0.3032 -0.2278
 5502TIP3    H116512   3.986   2.888   2.677 -4.1809 -0.6723 -0.2130
 5502TIP3    H216513   3.950   2.863   2.822 -0.2526  1.7006  1.3296
 5503TIP3   OH216514   1.591   3.173   4.362  0.2544 -0.5455  0.1667
 5503TIP3    H116515   1.625   3.261   4.347 -1.0237  0.2114  1.4333
 5503TIP3    H216516   1.565   3.142   4.275 -1.3823  1.2573 -0.0431
 5504TIP3   OH216517   0.435   4.599   4.971 -0.2423  0.4006 -0.1486
 5504TIP3    H116518   0.500   4.530   4.987 -0.6181 -0.2728 -1.3369
 5504TIP3    H216519   0.487   4.678   4.957  0.4342 -0.2690 -1.8377
 5505TIP3   OH216520   4.848   1.063   4.715 -0.1743 -0.4780  0.3692
 5505TIP3    H116521   4.873   1.085   4.805 -2.1319  0.2099  0.7844
 5505TIP3    H216522   4.757   1.036   4.721 -0.4720 -0.0096 -1.4780
 5506TIP3   OH216523   1.956   3.717   3.452  1.0304  0.2245  0.0327
 5506TIP3    H116524   1.881   3.767   3.420 -0.1192 -1.4336  0.0182
 5506TIP3    H216525   1.950   3.723   3.547 -0.5763 -1.8222  0.1362
 5507TIP3   OH216526   3.148   2.738   4.472  0.3116 -0.0095 -0.5023
 5507TIP3    H116527   3.209   2.767   4.540 -1.5036 -2.5009  2.5081
 5507TIP3    H216528   3.177   2.650   4.450 -1.1451 -0.5755 -0.2834
 5508TIP3   OH216529   3.041   1.162   0.370 -1.5992 -0.0216 -0.0414
 5508TIP3    H116530   3.064   1.108   0.294  0.7253  0.0200  0.5650
 5508TIP3    H216531   3.032   1.251   0.335 -2.0262 -0.2282 -0.4773
 5509TIP3   OH216532   3.102   2.422   0.203  0.0434  0.1619  0.1735
 5509TIP3    H116533   3.166   2.490   0.223  0.4294 -0.3180  0.6046
 5509TIP3    H216534   3.145   2.367   0.138  0.1645 -0.2968  0.6359
 5510TIP3   OH216535   3.130   2.834   5.106  0.3676  0.3743 -0.0547
 5510TIP3    H116536   3.211   2.818   5.057  2.4165  0.1423  3.1168
 5510TIP3    H216537   3.145   2.915   5.153 -2.7259  2.2402 -1.9194
 5511TIP3   OH216538   5.249   4.552   3.523  0.6240 -0.3137 -0.4988
 5511TIP3    H116539   5.258   4.637   3.567 -1.6171  0.0397 -0.5612
 5511TIP3    H216540   5.205   4.573   3.441  0.1336 -1.5103 -0.5592
 5512TIP3   OH216541   0.649   2.519   4.597  0.3478 -0.4598  0.0401
 5512TIP3    H116542   0.649   2.587   4.530  0.8805  0.9895  1.4710
 5512TIP3    H216543   0.603   2.558   4.671  2.4500 -0.8895  1.6394
 5513TIP3   OH216544   2.698   5.357   1.902 -0.2838  0.8051 -0.0764
 5513TIP3    H116545   2.773   5.322   1.949  0.5841  1.9195 -0.5799
 5513TIP3    H216546   2.629   5.292   1.915  1.0768 -0.8086 -0.5470
 5514TIP3   OH216547   1.661   2.722   1.710  0.6968 -0.0079  0.1097
 5514TIP3    H116548   1.723   2.794   1.722  0.5314 -0.1231  1.9586
 5514TIP3    H216549   1.593   2.757   1.652  1.9260  0.4499 -1.1044
 5515TIP3   OH216550   4.854   1.888   3.318  1.1860 -0.1171 -0.2169
 5515TIP3    H116551   4.902   1.807   3.304  0.0804 -0.6689 -0.9154
 5515TIP3    H216552   4.906   1.955   3.274  1.8106 -0.5371 -0.1241
 5516TIP3   OH216553   6.223   0.247   1.144  0.3709 -0.4069 -0.3382
 5516TIP3    H116554   6.292   0.191   1.107  0.9091 -0.4510  0.7142
 5516TIP3    H216555   6.153   0.186   1.169  0.3311 -0.4509 -0.5503
 5517TIP3   OH216556   3.847   2.173   1.132  0.2530 -1.1761  0.6139
 5517TIP3    H116557   3.822   2.247   1.187 -0.5149  0.0926 -1.3230
 5517TIP3    H216558   3.775   2.111   1.139 -0.0755 -0.7909  0.6444
 5518TIP3   OH216559   6.147   4.812   4.458  0.1386  0.0907 -0.0393
 5518TIP3    H116560   6.054   4.803   4.475  0.2377 -0.8495  0.0657
 5518TIP3    H216561   6.184   4.845   4.540 -0.0461  0.1440  0.0237
 5519TIP3   OH216562   1.379   5.959   3.209  0.0002  0.3371  0.0965
 5519TIP3    H116563   1.300   5.916   3.176  0.8008 -1.8038  0.8141
 5519TIP3    H216564   1.346   6.028   3.267 -1.3317  1.1914 -1.5961
 5520TIP3   OH216565   5.690   3.987   1.730 -0.1889 -0.7169 -0.8103
 5520TIP3    H116566   5.785   3.996   1.715 -0.4907  0.9807 -2.1079
 5520TIP3    H216567   5.681   3.985   1.825  1.0375  1.5112 -0.5524
 5521TIP3   OH216568   4.494   5.384   1.007 -0.4027  0.6549  1.2739
 5521TIP3    H116569   4.542   5.466   0.999 -0.7981  0.9352  1.7698
 5521TIP3    H216570   4.407   5.409   1.037 -0.4926  0.0489  1.5378
 5522TIP3   OH216571   4.106   2.808   5.046 -0.5149  0.0747 -0.3880
 5522TIP3    H116572   4.155   2.732   5.077 -0.5804  0.1465 -0.0993
 5522TIP3    H216573   4.170   2.879   5.043 -0.4991  0.0573 -0.4577
 5523TIP3   OH216574   4.436   1.644   0.995 -0.3019 -0.0615 -0.1001
 5523TIP3    H116575   4.446   1.721   0.941 -1.4482 -0.0063 -0.2664
 5523TIP3    H216576   4.411   1.574   0.934  1.4215 -0.7617 -0.0591
 5524TIP3   OH216577   0.305   0.276   1.630 -0.5731  0.1405 -0.6587
 5524TIP3    H116578   0.381   0.288   1.572 -0.0617 -0.5840 -0.1548
 5524TIP3    H216579   0.319   0.191   1.670 -0.1152  1.2528  1.6876
 5525TIP3   OH216580   5.414   3.180   1.658  0.6472 -0.5276 -0.4896
 5525TIP3    H116581   5.337   3.144   1.703  1.2814 -0.2542  0.8774
 5525TIP3    H216582   5.401   3.275   1.663  2.1803 -0.3675  1.9114
 5526TIP3   OH216583   4.635   2.845   1.436  0.2060 -0.6187  0.5698
 5526TIP3    H116584   4.603   2.848   1.346  1.6310  1.9832  0.0510
 5526TIP3    H216585   4.568   2.890   1.488  0.0688 -0.7940  0.5422
 5527TIP3   OH216586   0.819   5.843   1.243  0.8202  0.2878  0.8701
 5527TIP3    H116587   0.731   5.833   1.281  0.5092  0.9536  0.3437
 5527TIP3    H216588   0.843   5.934   1.262  0.4386  0.8008 -0.9743
 5528TIP3   OH216589   2.142   4.750   0.463  0.3029 -0.0103 -0.0309
 5528TIP3    H116590   2.050   4.765   0.442  0.1526  0.1997  0.7295
 5528TIP3    H216591   2.161   4.814   0.531  0.0979 -2.1177  2.1355
 5529TIP3   OH216592   5.181   0.641   3.887  0.4322 -0.1916 -0.2059
 5529TIP3    H116593   5.177   0.545   3.882  1.1462 -0.2232 -0.2414
 5529TIP3    H216594   5.273   0.662   3.875  0.3139  0.4932  0.0356
 5530TIP3   OH216595   3.713   5.441   1.655  0.5578  0.0846  0.0376
 5530TIP3    H116596   3.671   5.370   1.705  1.1135  0.2662  0.7718
 5530TIP3    H216597   3.640   5.494   1.624  0.2330  0.6571  1.6946
 5531TIP3   OH216598   4.283   0.873   3.192 -0.5404 -0.3564 -0.0698
 5531TIP3    H116599   4.252   0.814   3.261  0.1308  0.8174  1.2670
 5531TIP3    H216600   4.361   0.915   3.228 -2.2619  3.1061  0.0159
 5532TIP3   OH216601   0.622   2.962   4.800  0.2917 -0.3381 -0.2811
 5532TIP3    H116602   0.697   2.934   4.853 -1.7449 -0.5882  2.6513
 5532TIP3    H216603   0.561   2.888   4.803 -1.5863  1.1630  0.4637
 5533TIP3   OH216604   4.719   5.852   1.933  0.2800  0.5401  0.7910
 5533TIP3    H116605   4.675   5.887   2.011 -0.5388 -1.1984  1.1418
 5533TIP3    H216606   4.812   5.870   1.949 -0.0212  1.6953  1.3736
 5534TIP3   OH216607   5.708   3.346   0.924  0.6300 -0.0458  0.3329
 5534TIP3    H116608   5.669   3.268   0.884 -0.2976  0.5532  0.0392
 5534TIP3    H216609   5.792   3.315   0.959 -1.2302 -2.1236  3.5512
 5535TIP3   OH216610   6.211   3.757   3.941  0.5431  0.0726  0.1961
 5535TIP3    H116611   6.148   3.739   3.871  0.8186  0.3111 -0.1177
 5535TIP3    H216612   6.291   3.713   3.913  0.1249 -1.4641  1.2892
 5536TIP3   OH216613   5.070   1.577   1.901  0.2248  0.2178  0.2847
 5536TIP3    H116614   4.975   1.565   1.908  0.0829 -0.3225 -1.8701
 5536TIP3    H216615   5.082   1.627   1.821  1.8109 -0.8038 -0.1581
 5537TIP3   OH216616   1.809   5.510   1.264  0.1747  0.0662  0.3300
 5537TIP3    H116617   1.738   5.548   1.315 -0.4307  0.5780 -0.8826
 5537TIP3    H216618   1.877   5.577   1.263  0.3634 -0.1079  0.7906
 5538TIP3   OH216619   2.276   0.369   2.016 -0.0071  0.7271  0.0242
 5538TIP3    H116620   2.369   0.349   2.018 -0.3899 -1.3108 -0.7501
 5538TIP3    H216621   2.246   0.354   2.106  0.5213  2.2002  0.4794
 5539TIP3   OH216622   1.680   5.152   4.616 -0.2508 -0.0826  0.1596
 5539TIP3    H116623   1.628   5.178   4.540  2.5765 -1.0188 -2.3179
 5539TIP3    H216624   1.711   5.064   4.594  1.2710 -0.0850  2.0642
 5540TIP3   OH216625   2.255   5.457   3.339  0.1012  0.9292  0.5123
 5540TIP3    H116626   2.296   5.531   3.295  1.3197  1.4236  2.3856
 5540TIP3    H216627   2.276   5.468   3.431 -1.6339 -0.5352  1.1571
 5541TIP3   OH216628   3.020   5.851   1.608 -0.5179 -0.2722  0.3573
 5541TIP3    H116629   3.055   5.808   1.530  1.3750 -0.1774  1.1143
 5541TIP3    H216630   3.021   5.783   1.675  0.1442  0.2671  0.9090
 5542TIP3   OH216631   1.301   1.313   2.160 -0.0838 -0.6139 -0.6464
 5542TIP3    H116632   1.358   1.256   2.211 -0.2525  0.0598  0.3187
 5542TIP3    H216633   1.228   1.332   2.219 -0.1108  0.4647 -1.0151
 5543TIP3   OH216634   5.210   2.720   5.132 -0.2639 -0.0466  0.1147
 5543TIP3    H116635   5.256   2.803   5.133 -0.6005  0.2587 -2.7140
 5543TIP3    H216636   5.279   2.654   5.124 -0.0263 -0.0527  1.9118
 5544TIP3   OH216637   3.446   5.221   2.901  0.4671 -0.0446 -0.4149
 5544TIP3    H116638   3.357   5.213   2.934  0.1048 -2.0488 -1.7064
 5544TIP3    H216639   3.444   5.298   2.843 -0.4851 -0.2043 -0.6035
 5545TIP3   OH216640   2.361   3.446   2.585  0.7069  0.6500  0.0647
 5545TIP3    H116641   2.314   3.405   2.513 -0.4596  1.4531  0.3368
 5545TIP3    H216642   2.305   3.519   2.611  1.6036  0.9859  1.1095
 5546TIP3   OH216643   6.095   3.401   4.866 -0.9746 -0.2337  0.1121
 5546TIP3    H116644   6.012   3.448   4.855 -0.8406 -0.2762 -1.3724
 5546TIP3    H216645   6.161   3.469   4.869 -0.9493 -0.2434 -0.1511
 5547TIP3   OH216646   2.441   1.528   3.639 -0.6392 -0.5115 -0.2607
 5547TIP3    H116647   2.418   1.613   3.600  1.8947  0.1947 -0.4205
 5547TIP3    H216648   2.478   1.551   3.725 -3.6393 -1.8365  1.5313
 5548TIP3   OH216649   3.728   3.088   0.660 -0.2351 -0.6102  0.5166
 5548TIP3    H116650   3.703   3.181   0.653  0.3445 -0.5218 -0.6583
 5548TIP3    H216651   3.666   3.052   0.723 -0.6703  0.5125  0.7665
 5549TIP3   OH216652   0.827   0.041   1.106 -0.5362 -0.0674  0.2497
 5549TIP3    H116653   0.842   0.117   1.050 -2.4747 -0.7331 -1.2833
 5549TIP3    H216654   0.914   0.018   1.139  0.4509  1.3010 -1.2339
 5550TIP3   OH216655   6.201   3.437   3.799  0.3863 -0.0748 -0.4774
 5550TIP3    H116656   6.274   3.470   3.852 -0.3440  0.7964  0.0220
 5550TIP3    H216657   6.217   3.473   3.712 -0.6421  2.1181  0.1611
 5551TIP3   OH216658   1.675   0.210   4.158  0.3296  0.0957  0.2058
 5551TIP3    H116659   1.719   0.209   4.243  1.3301  1.5455 -0.2637
 5551TIP3    H216660   1.584   0.186   4.178  0.8748 -1.0895  1.4483
 5552TIP3   OH216661   0.689   1.832   4.958 -0.0803  0.9360 -0.5536
 5552TIP3    H116662   0.777   1.856   4.985  0.4693 -0.9955 -0.4384
 5552TIP3    H216663   0.694   1.738   4.940 -1.9919  0.8767 -1.0760
 5553TIP3   OH216664   1.816   0.896   1.764 -0.1605 -0.1227 -0.1158
 5553TIP3    H116665   1.856   0.978   1.794 -1.7770  0.2665  1.1047
 5553TIP3    H216666   1.828   0.898   1.669 -0.0659  1.5036 -0.1111
 5554TIP3   OH216667   4.377   3.339   0.549 -0.1695 -0.2069 -0.3449
 5554TIP3    H116668   4.337   3.311   0.631 -0.7336  2.2278  0.3089
 5554TIP3    H216669   4.326   3.416   0.523  2.2649  1.2951 -1.0181
 5555TIP3   OH216670   2.787   2.820   3.930 -0.5120  0.3221 -0.0107
 5555TIP3    H116671   2.822   2.754   3.991 -0.4705  0.6517  0.3243
 5555TIP3    H216672   2.851   2.823   3.859 -0.1651  0.4909  0.3074
 5556TIP3   OH216673   3.768   0.051   4.359 -0.5104  0.2458 -0.2852
 5556TIP3    H116674   3.715  -0.005   4.303 -0.2310 -1.0138  0.6710
 5556TIP3    H216675   3.854   0.008   4.361 -0.4001  0.5015  0.7643
 5557TIP3   OH216676   3.967   1.025   2.389  0.8054  0.0785 -0.5144
 5557TIP3    H116677   3.953   0.933   2.370 -2.1035  0.5880 -1.3399
 5557TIP3    H216678   4.027   1.055   2.322  1.2866 -1.0688 -0.6128
 5558TIP3   OH216679   0.154   5.608   1.902  0.1177 -0.2753  0.3994
 5558TIP3    H116680   0.111   5.557   1.833 -0.0865  0.3559  0.0534
 5558TIP3    H216681   0.165   5.546   1.974 -0.1059 -0.8147 -0.0226
 5559TIP3   OH216682   0.490   5.248   3.534 -0.2626 -0.3115  0.9208
 5559TIP3    H116683   0.523   5.200   3.609  0.0304  0.8541  1.5726
 5559TIP3    H216684   0.500   5.340   3.559 -1.0507  0.0850 -0.1638
 5560TIP3   OH216685   2.505   2.050   1.237 -0.4467 -0.2782  0.2973
 5560TIP3    H116686   2.584   2.087   1.275 -0.3891 -0.0229 -0.0636
 5560TIP3    H216687   2.530   2.028   1.147 -0.7659 -0.2545  0.2024
 5561TIP3   OH216688   4.318   5.093   0.071 -0.1700  0.7776 -0.2893
 5561TIP3    H116689   4.389   5.062   0.014  0.6171  2.1828 -0.1253
 5561TIP3    H216690   4.238   5.062   0.029  0.4977 -0.3036 -0.8220
 5562TIP3   OH216691   2.121   4.035   2.093  0.6302 -0.5705 -0.6932
 5562TIP3    H116692   2.172   3.992   2.024  0.8573  0.2519 -1.0600
 5562TIP3    H216693   2.110   4.125   2.061  2.1023  0.2868  1.0230
 5563TIP3   OH216694   4.110   4.655   1.466  0.2212 -0.3955 -0.2065
 5563TIP3    H116695   4.035   4.620   1.418  0.0215 -1.9540  1.1540
 5563TIP3    H216696   4.083   4.744   1.489  0.7891  0.8708 -3.8222
 5564TIP3   OH216697   4.320   0.411   2.750 -0.4387  0.2043 -0.0951
 5564TIP3    H116698   4.324   0.358   2.830 -1.1464 -1.3983 -1.0701
 5564TIP3    H216699   4.227   0.423   2.734 -0.3385 -0.3573 -1.1990
 5565TIP3   OH216700   2.266   1.644   3.389  0.4379 -0.6664  0.2505
 5565TIP3    H116701   2.286   1.714   3.450 -0.2530 -2.0697  2.1736
 5565TIP3    H216702   2.201   1.681   3.329  1.3111  0.8051  0.1691
 5566TIP3   OH216703   4.275   2.689   0.822  0.0183  0.2571  0.3271
 5566TIP3    H116704   4.287   2.612   0.767  0.6013 -0.6312  1.6361
 5566TIP3    H216705   4.320   2.759   0.775  1.9710 -0.8447  0.4326
 5567TIP3   OH216706   3.241   3.956   5.137 -0.4983 -0.0834  0.0732
 5567TIP3    H116707   3.307   3.962   5.068 -0.9213  1.7850 -0.2100
 5567TIP3    H216708   3.275   3.889   5.197  1.3774  0.4196 -0.3671
 5568TIP3   OH216709   1.256   4.484   4.316 -0.0866 -0.0835  0.1138
 5568TIP3    H116710   1.189   4.516   4.256  0.1061  1.3117  0.5937
 5568TIP3    H216711   1.209   4.467   4.398  0.0878  0.7363  0.3999
 5569TIP3   OH216712   0.855   3.208   3.461  0.2425  0.4401 -0.4948
 5569TIP3    H116713   0.900   3.268   3.401  0.0362  0.3464 -0.7469
 5569TIP3    H216714   0.897   3.123   3.446 -1.7082 -0.2633 -2.6611
 5570TIP3   OH216715   1.307   2.348   3.476  0.8787 -0.0253 -0.3478
 5570TIP3    H116716   1.367   2.413   3.442  0.5164  0.3463 -0.2823
 5570TIP3    H216717   1.317   2.273   3.417  0.0885  0.6933 -1.4312
 5571TIP3   OH216718   6.350   0.117   3.809  0.0175  0.1148  0.4280
 5571TIP3    H116719   6.255   0.105   3.813 -0.4065  1.3969 -2.8447
 5571TIP3    H216720   6.382   0.043   3.758  0.3984  1.0028 -0.6617
 5572TIP3   OH216721   3.955   4.100   1.900  0.4055 -0.6219 -0.1713
 5572TIP3    H116722   4.028   4.137   1.850  0.4174  0.5098  0.6386
 5572TIP3    H216723   3.978   4.115   1.991 -0.5817 -0.7547  0.1106
 5573TIP3   OH216724   6.126   3.081   0.080  0.0242  0.0472  0.1373
 5573TIP3    H116725   6.196   3.019   0.099  0.8084  0.0434 -2.3651
 5573TIP3    H216726   6.052   3.026   0.052 -0.1275  0.1504  0.3333
 5574TIP3   OH216727   3.589   0.269   4.970 -0.2597 -0.1416  0.5037
 5574TIP3    H116728   3.578   0.201   5.037 -1.6748 -1.9313 -1.4011
 5574TIP3    H216729   3.548   0.347   5.008 -1.4521 -1.2284  1.5633
 5575TIP3   OH216730   3.365   4.086   4.658  0.0892  0.1053 -0.0410
 5575TIP3    H116731   3.338   4.177   4.641 -1.2855 -0.3678 -0.4913
 5575TIP3    H216732   3.289   4.046   4.700  0.8776 -0.7041  0.6503
 5576TIP3   OH216733   2.420   4.594   5.113  0.2082 -0.3332 -0.5463
 5576TIP3    H116734   2.357   4.627   5.050 -0.1190  0.3789  0.1431
 5576TIP3    H216735   2.368   4.545   5.177  0.4574 -0.4976 -0.4649
 5577TIP3   OH216736   1.519   0.805   0.959 -0.7071 -0.0856  0.4886
 5577TIP3    H116737   1.486   0.894   0.972  1.5679  0.5553  2.5870
 5577TIP3    H216738   1.609   0.817   0.928 -0.1977 -1.6355  1.2845
 5578TIP3   OH216739   4.467   1.236   3.133  0.1000  0.3067 -0.5911
 5578TIP3    H116740   4.392   1.178   3.123 -0.2864  0.6752  0.0564
 5578TIP3    H216741   4.534   1.181   3.175 -0.5881  0.5580  0.8866
 5579TIP3   OH216742   1.077   2.349   4.312  0.4716  0.1331  0.1632
 5579TIP3    H116743   1.058   2.359   4.219 -1.3602  1.0757  0.6067
 5579TIP3    H216744   1.167   2.316   4.314  1.7802  3.1048 -1.8861
 5580TIP3   OH216745   2.758   5.557   2.867 -0.0641  0.1687 -0.3444
 5580TIP3    H116746   2.748   5.480   2.923 -0.7466 -1.3386 -2.3809
 5580TIP3    H216747   2.692   5.618   2.897 -0.8086 -0.8348  0.1320
 5581TIP3   OH216748   1.048  -0.001   1.250  0.3978 -0.0970 -0.1923
 5581TIP3    H116749   1.075   0.029   1.336 -0.2403  0.5246 -0.2053
 5581TIP3    H216750   1.129  -0.027   1.207  0.7316 -0.2929  0.5481
 5582TIP3   OH216751   2.997   3.401   0.826  0.3547  0.2853  0.0604
 5582TIP3    H116752   2.934   3.422   0.895  0.3639  1.6695 -0.3219
 5582TIP3    H216753   2.978   3.310   0.803 -2.3073  0.9777 -0.8353
 5583TIP3   OH216754   2.181   0.700   4.833 -0.0528  0.2108 -0.0844
 5583TIP3    H116755   2.129   0.720   4.755  0.0972  1.5139  0.1428
 5583TIP3    H216756   2.182   0.780   4.884  1.6450  0.0417  0.2296
 5584TIP3   OH216757   2.973   0.341   0.416  0.0114  0.0326  0.7226
 5584TIP3    H116758   3.000   0.415   0.471 -0.3488 -0.8277  2.1104
 5584TIP3    H216759   3.002   0.263   0.464 -1.5355 -0.7888  0.3936
 5585TIP3   OH216760   1.188   4.277   4.095 -0.1676  0.1656 -0.0971
 5585TIP3    H116761   1.259   4.214   4.102 -1.2929 -1.0858  0.4801
 5585TIP3    H216762   1.205   4.339   4.166 -0.0730 -0.5828  0.5536
 5586TIP3   OH216763   2.374   1.799   2.885  0.4936  0.3278 -0.1640
 5586TIP3    H116764   2.373   1.811   2.980  1.1668  0.0283 -0.1189
 5586TIP3    H216765   2.348   1.884   2.850 -0.1812  0.3207  0.2932
 5587TIP3   OH216766   6.141   0.968   2.475  0.1967  0.2181  0.5373
 5587TIP3    H116767   6.127   0.978   2.569  2.7213 -1.8542  1.2523
 5587TIP3    H216768   6.111   0.880   2.455  1.4765 -0.0827 -0.1588
 5588TIP3   OH216769   2.476   5.521   4.360  0.6411  0.1853 -0.4013
 5588TIP3    H116770   2.549   5.579   4.337  0.6661  0.3892  0.1671
 5588TIP3    H216771   2.460   5.469   4.281  1.1086  0.4502 -0.6732
 5589TIP3   OH216772   5.807   5.644   1.987 -0.4727  0.2124  0.0550
 5589TIP3    H116773   5.858   5.577   2.033 -2.4768 -1.3025  0.2253
 5589TIP3    H216774   5.819   5.723   2.038 -2.2704 -1.2918  3.1277
 5590TIP3   OH216775   1.389   0.376   1.743  0.0910 -0.5757 -0.6385
 5590TIP3    H116776   1.446   0.316   1.696 -0.2836 -0.2267 -1.5494
 5590TIP3    H216777   1.366   0.443   1.679  0.6439  0.6577  0.3960
 5591TIP3   OH216778   1.842   4.929   2.289 -0.1215 -0.3585  0.5426
 5591TIP3    H116779   1.770   4.980   2.252  0.1899  0.9900  1.7038
 5591TIP3    H216780   1.812   4.904   2.376  0.6088 -0.2005  0.8511
 5592TIP3   OH216781   3.755   4.311   1.869 -0.8541 -0.2945 -0.0221
 5592TIP3    H116782   3.802   4.228   1.864 -1.3586 -0.6323  0.7706
 5592TIP3    H216783   3.778   4.347   1.954 -0.1686  0.6820 -0.5914
 5593TIP3   OH216784   1.960   5.047   3.149  0.2448 -0.1548  0.5781
 5593TIP3    H116785   1.882   5.100   3.128 -0.1945 -0.6305  0.9824
 5593TIP3    H216786   2.024   5.111   3.180  0.5512  0.4413 -1.1425
 5594TIP3   OH216787   4.830   5.251   0.328 -0.5846  0.2745  0.2015
 5594TIP3    H116788   4.792   5.163   0.339 -1.2011  0.2734 -1.6371
 5594TIP3    H216789   4.875   5.248   0.244 -0.5154  1.6958  0.1607
 5595TIP3   OH216790   0.514   2.307   4.140  0.0837  0.2345 -0.2376
 5595TIP3    H116791   0.482   2.223   4.175 -1.6756  0.8575 -0.2529
 5595TIP3    H216792   0.560   2.347   4.214 -0.0593 -0.2389  0.1163
 5596TIP3   OH216793   0.873   1.429   2.325 -0.2922 -0.9702 -0.0058
 5596TIP3    H116794   0.830   1.372   2.390  0.4666 -0.2202  1.1984
 5596TIP3    H216795   0.966   1.412   2.336 -0.1418 -0.6832 -0.7787
 5597TIP3   OH216796   2.120   0.964   4.136  0.6253  0.2372  1.1071
 5597TIP3    H116797   2.058   0.902   4.098  1.6018  0.1563 -0.4281
 5597TIP3    H216798   2.068   1.041   4.156  0.3084  0.9934 -2.1068
 5598TIP3   OH216799   2.174   5.991   1.903  0.3778 -0.8320 -0.3237
 5598TIP3    H116800   2.189   5.921   1.840 -0.3339  1.5373 -3.4144
 5598TIP3    H216801   2.079   5.999   1.908  0.4103 -1.1337  1.3456
 5599TIP3   OH216802   4.599   1.781   2.359  0.9221 -0.6361 -0.1499
 5599TIP3    H116803   4.519   1.733   2.378 -0.8258  2.1595  0.0442
 5599TIP3    H216804   4.639   1.733   2.285 -2.1480 -0.8147 -1.8525
 5600TIP3   OH216805   4.567   0.676   0.499  0.2730 -0.6812 -0.3471
 5600TIP3    H116806   4.622   0.617   0.551 -0.5410  0.4155  1.9045
 5600TIP3    H216807   4.512   0.720   0.564 -1.4885  0.1033 -2.2758
 5601TIP3   OH216808   3.601   3.324   0.943 -0.1190 -0.1879  0.7554
 5601TIP3    H116809   3.684   3.334   0.989  0.0556 -0.8686  0.6072
 5601TIP3    H216810   3.624   3.337   0.851  0.4223 -3.1369  0.3599
 5602TIP3   OH216811   0.353   5.569   3.008 -0.0467 -0.5194  0.0469
 5602TIP3    H116812   0.362   5.481   2.970  0.8500 -0.1727 -0.5825
 5602TIP3    H216813   0.325   5.553   3.098  1.1182 -1.4924  0.2619
 5603TIP3   OH216814   1.135   5.031   3.485  0.0596  0.2257  0.2990
 5603TIP3    H116815   1.124   5.079   3.567  0.8555  0.6742  0.1513
 5603TIP3    H216816   1.203   4.967   3.503  2.3858  2.2414 -0.7827
 5604TIP3   OH216817   5.611   1.781   0.409  0.7284 -0.2575 -0.6584
 5604TIP3    H116818   5.627   1.762   0.502  0.1697  1.7094 -0.1173
 5604TIP3    H216819   5.623   1.876   0.401 -0.4678 -0.1956 -2.3472
 5605TIP3   OH216820   4.265   5.563   2.896  0.2291 -0.8551  0.4370
 5605TIP3    H116821   4.332   5.627   2.919 -1.2015  0.2906  1.5296
 5605TIP3    H216822   4.304   5.513   2.823  1.2111  1.4946 -0.7374
 5606TIP3   OH216823   0.932   2.363   2.987 -0.5199 -0.0370  0.1276
 5606TIP3    H116824   1.005   2.364   2.926  0.1187 -0.0501  0.8834
 5606TIP3    H216825   0.915   2.456   3.005 -1.2455  0.0040 -0.6834
 5607TIP3   OH216826   0.813   0.234   1.349 -0.3002 -0.1741  0.5835
 5607TIP3    H116827   0.792   0.155   1.299 -0.4041  0.4525 -0.3880
 5607TIP3    H216828   0.873   0.282   1.292 -0.1569  0.4015  1.2163
 5608TIP3   OH216829   1.027   3.646   2.416  0.1022 -0.3084  0.0663
 5608TIP3    H116830   0.982   3.575   2.463  0.8472  0.1759  1.5724
 5608TIP3    H216831   1.112   3.653   2.460 -0.0539  1.6766  0.1210
 5609TIP3   OH216832   5.307   5.418   0.170 -0.2901  0.3568  0.4914
 5609TIP3    H116833   5.304   5.407   0.265  0.8172  0.8058  0.5952
 5609TIP3    H216834   5.243   5.488   0.153 -0.2822  0.4798  0.9383
 5610TIP3   OH216835   0.101   5.528   4.644  0.1181  0.2704  0.1123
 5610TIP3    H116836   0.075   5.582   4.719 -0.6291  0.1688 -0.0687
 5610TIP3    H216837   0.019   5.509   4.599  0.7748  3.7180 -3.0917
 5611TIP3   OH216838   3.313   0.295   2.692  0.9435  0.0729  0.3537
 5611TIP3    H116839   3.323   0.390   2.693  0.3090  0.1835 -1.0604
 5611TIP3    H216840   3.395   0.262   2.656  0.1112  0.3153 -1.9126
 5612TIP3   OH216841   5.249   5.792   2.653 -0.0801 -0.3972  0.0030
 5612TIP3    H116842   5.331   5.834   2.625 -0.5890  0.0818 -0.7893
 5612TIP3    H216843   5.254   5.793   2.749  0.2210  0.8918 -0.0054
 5613TIP3   OH216844   3.182   3.134   1.539 -0.1493  0.2519 -0.1605
 5613TIP3    H116845   3.173   3.224   1.570  1.5391  1.0772 -1.8524
 5613TIP3    H216846   3.235   3.091   1.606 -0.4155  0.6919  0.3432
 5614TIP3   OH216847   0.462   1.164   5.117 -0.1377 -0.4445 -0.3398
 5614TIP3    H116848   0.508   1.168   5.201  0.9765 -0.6614 -0.9193
 5614TIP3    H216849   0.370   1.175   5.140  0.2701  0.9571  0.7638
 5615TIP3   OH216850   4.275   2.485   4.874  0.0182  0.0762  0.2705
 5615TIP3    H116851   4.213   2.495   4.802  0.1258 -2.8088 -0.3579
 5615TIP3    H216852   4.353   2.447   4.834  1.4772  1.7249  1.3786
 5616TIP3   OH216853   2.234   0.604   2.882 -0.8435 -0.2569 -0.0981
 5616TIP3    H116854   2.327   0.612   2.903 -0.2826 -1.5160 -1.9207
 5616TIP3    H216855   2.205   0.695   2.872  1.5230  0.3109 -4.6811
 5617TIP3   OH216856   3.833   4.120   5.012 -0.5137  0.0085 -0.3283
 5617TIP3    H116857   3.794   4.070   4.939 -1.0611  1.2954 -0.9417
 5617TIP3    H216858   3.826   4.211   4.985  1.5822  0.3810  0.2242
 5618TIP3   OH216859   5.144   0.252   3.467 -0.4307 -0.5252  0.1737
 5618TIP3    H116860   5.131   0.216   3.379 -3.1529  0.0994  0.2334
 5618TIP3    H216861   5.111   0.184   3.526  0.1125 -0.3938  0.6370
 5619TIP3   OH216862   3.243   3.034   1.030  0.0986 -0.2004 -0.3515
 5619TIP3    H116863   3.200   3.043   1.115  0.3865  0.2215 -0.2430
 5619TIP3    H216864   3.250   2.940   1.016 -1.2813 -0.2776 -0.5953
 5620TIP3   OH216865   2.838   0.962   5.078 -0.1601  0.7974 -0.0928
 5620TIP3    H116866   2.787   1.043   5.088 -0.0394  0.8590  0.0369
 5620TIP3    H216867   2.883   0.973   4.994  0.7256  1.3642  0.4336
 5621TIP3   OH216868   5.812   3.952   3.023 -0.1935 -0.0406 -0.2079
 5621TIP3    H116869   5.881   3.891   3.048 -1.1955 -0.7742  0.8698
 5621TIP3    H216870   5.800   3.938   2.930  1.4203  0.4439 -0.5202
 5622TIP3   OH216871   3.892   5.056   3.528  0.6486  0.2039 -0.2640
 5622TIP3    H116872   3.951   5.089   3.596  1.7167  0.4144 -1.2588
 5622TIP3    H216873   3.885   4.962   3.545  0.9189  0.2541  0.1284
 5623TIP3   OH216874   4.540   0.981   3.136 -0.0001  0.5864  0.0792
 5623TIP3    H116875   4.619   0.970   3.083 -0.7561  0.6541 -1.0851
 5623TIP3    H216876   4.553   0.921   3.210 -0.3925 -2.1689 -1.9110
 5624TIP3   OH216877   5.916   1.458   4.426  0.1450 -0.6963 -0.1627
 5624TIP3    H116878   5.996   1.423   4.464  0.2064  1.3546  1.8092
 5624TIP3    H216879   5.850   1.446   4.495 -0.6333 -0.0892 -0.7786
 5625TIP3   OH216880   5.568   0.631   4.528  0.1179  0.4254 -0.1988
 5625TIP3    H116881   5.476   0.601   4.529  0.7295 -1.6094  0.0948
 5625TIP3    H216882   5.565   0.716   4.484 -2.0476  0.9390  0.8054
 5626TIP3   OH216883   2.855   2.119   1.185  0.0541  0.3081 -0.0655
 5626TIP3    H116884   2.797   2.130   1.261  0.3956  2.5813 -0.0484
 5626TIP3    H216885   2.796   2.113   1.110 -0.2540 -0.0804  0.2069
 5627TIP3   OH216886   3.700   1.332   0.159  0.0226  0.2542  0.1675
 5627TIP3    H116887   3.705   1.270   0.232  0.7808  0.3522  0.2049
 5627TIP3    H216888   3.634   1.396   0.186 -1.7465 -1.2361 -0.4239
 5628TIP3   OH216889   3.454   0.043   2.567 -0.0290 -0.9784 -0.8053
 5628TIP3    H116890   3.444   0.084   2.481 -0.1671 -1.1331 -0.8642
 5628TIP3    H216891   3.548   0.036   2.580 -0.0070 -0.8585 -0.8991
 5629TIP3   OH216892   6.281   0.897   0.358  0.5569  0.3798 -0.2307
 5629TIP3    H116893   6.264   0.885   0.264 -1.9732  0.1685  0.1876
 5629TIP3    H216894   6.317   0.985   0.365  2.2398 -0.1346 -1.5051
 5630TIP3   OH216895   4.067   3.989   4.617  0.0896  0.6783 -0.0038
 5630TIP3    H116896   4.044   3.974   4.525 -0.6425  1.0288  0.1198
 5630TIP3    H216897   4.112   4.074   4.616  0.9905  0.2118 -0.1763
 5631TIP3   OH216898   4.355   4.350   4.160 -0.3269  0.6514  0.1210
 5631TIP3    H116899   4.339   4.349   4.066  0.1913  0.5765  0.0302
 5631TIP3    H216900   4.286   4.405   4.196 -0.5893  0.5924 -0.2910
 5632TIP3   OH216901   0.493   0.690   3.667  0.6940 -0.2333  0.1119
 5632TIP3    H116902   0.407   0.656   3.641  0.5220 -0.4444  0.9098
 5632TIP3    H216903   0.485   0.705   3.761  1.4134  0.1168  0.1241
 5633TIP3   OH216904   3.819   0.863   3.432  0.1493 -0.3773 -0.4601
 5633TIP3    H116905   3.728   0.843   3.453 -0.6350  1.8708 -1.4434
 5633TIP3    H216906   3.867   0.848   3.514 -1.2198 -0.8182  0.2851
 5634TIP3   OH216907   0.492   3.334   2.815  0.6600  0.5700  0.3843
 5634TIP3    H116908   0.457   3.251   2.845 -1.0425  1.2771  0.4415
 5634TIP3    H216909   0.416   3.391   2.805  1.7062  1.9267 -0.3069
 5635TIP3   OH216910   3.256   0.741   0.202 -0.4888  0.4846  0.0105
 5635TIP3    H116911   3.259   0.741   0.107  1.1274  0.2655  0.0267
 5635TIP3    H216912   3.265   0.648   0.226 -0.2126  0.5996  0.3701
 5636TIP3   OH216913   0.482   3.872   2.489 -0.0927  0.1494  0.3848
 5636TIP3    H116914   0.437   3.853   2.572 -0.0911 -1.7710 -0.0133
 5636TIP3    H216915   0.429   3.941   2.449  0.2097  1.5289  2.1877
 5637TIP3   OH216916   0.891   4.048   2.326  0.0538  0.3015  0.3752
 5637TIP3    H116917   0.938   4.106   2.266 -0.7334  0.4529 -0.1079
 5637TIP3    H216918   0.930   3.962   2.313  0.2230  0.4352  0.0027
 5638TIP3   OH216919   3.444   2.346   0.267 -0.0711  0.0452  0.2179
 5638TIP3    H116920   3.378   2.278   0.259 -0.1327 -0.2378  2.5476
 5638TIP3    H216921   3.402   2.425   0.233 -0.8127 -0.5650 -0.3250
 5639TIP3   OH216922   1.699   2.304   3.496 -0.5026 -0.0725  0.3537
 5639TIP3    H116923   1.706   2.311   3.591  1.0257  0.9861  0.1981
 5639TIP3    H216924   1.780   2.260   3.469 -1.6194 -1.7848 -0.3555
 5640TIP3   OH216925   1.034   4.536   0.620  0.3789  0.5109 -0.5330
 5640TIP3    H116926   1.117   4.563   0.660  0.0029  0.3518  0.3634
 5640TIP3    H216927   1.015   4.450   0.658 -0.8480  1.1138  0.2776
 5641TIP3   OH216928   3.661   1.902   1.419 -0.1709  0.0019  0.3713
 5641TIP3    H116929   3.754   1.884   1.436  0.4720  1.0600 -1.6923
 5641TIP3    H216930   3.646   1.987   1.461  0.5246  1.0341 -1.3540
 5642TIP3   OH216931   4.905   3.368   4.156  0.4094  0.1801  0.5539
 5642TIP3    H116932   4.828   3.345   4.105 -0.2752  2.1179  0.6207
 5642TIP3    H216933   4.979   3.351   4.098 -0.1390 -0.6400  0.0837
 5643TIP3   OH216934   3.563   1.554   4.939 -0.6563 -0.5166 -0.1195
 5643TIP3    H116935   3.612   1.480   4.975  2.2641  0.4650 -1.7302
 5643TIP3    H216936   3.579   1.626   5.000 -0.0484 -0.1945 -0.6455
 5644TIP3   OH216937   0.479   3.748   1.577 -0.6847 -0.2166 -0.2306
 5644TIP3    H116938   0.413   3.681   1.558  2.0130 -2.5191 -2.3479
 5644TIP3    H216939   0.562   3.709   1.550  1.4212  3.1167  0.7589
 5645TIP3   OH216940   1.916   4.229   3.189 -0.0565 -0.2100  0.3104
 5645TIP3    H116941   1.939   4.320   3.206  0.6822 -0.6040  1.5570
 5645TIP3    H216942   1.840   4.234   3.131 -0.2465  1.2059  0.6390
 5646TIP3   OH216943   5.172   3.474   3.792  0.1404 -0.6448  1.0254
 5646TIP3    H116944   5.106   3.542   3.804 -0.3065 -0.7191 -0.7448
 5646TIP3    H216945   5.175   3.429   3.876 -1.2725  0.0619  1.4942
 5647TIP3   OH216946   5.214   5.826   2.919  0.0804  0.7020 -0.1200
 5647TIP3    H116947   5.214   5.731   2.932 -1.4595  0.5686 -0.8399
 5647TIP3    H216948   5.197   5.862   3.006  0.1078  0.2993  0.0551
 5648TIP3   OH216949   3.404   2.177   1.243 -0.1923 -0.0272 -0.1399
 5648TIP3    H116950   3.412   2.223   1.327  1.5207 -0.7022  0.0986
 5648TIP3    H216951   3.354   2.236   1.188 -2.1733  0.0600  1.6183
 5649TIP3   OH216952   1.578   0.543   1.433 -0.0535 -0.3903 -0.2799
 5649TIP3    H116953   1.665   0.514   1.460 -0.2689  0.0739  1.0484
 5649TIP3    H216954   1.528   0.463   1.420  0.6589 -0.6628 -1.3725
 5650TIP3   OH216955   1.780   4.392   4.045  0.2866 -0.2671 -0.3120
 5650TIP3    H116956   1.852   4.352   4.094 -0.3264 -0.8698  0.1172
 5650TIP3    H216957   1.772   4.480   4.082  0.9418 -0.1187 -0.5130
 5651TIP3   OH216958   1.924   0.777   4.053 -0.3148 -0.5200 -0.6221
 5651TIP3    H116959   1.846   0.758   4.105 -0.4057  1.6690  0.1240
 5651TIP3    H216960   1.890   0.824   3.976  0.3142  1.7693  0.4171
 5652TIP3   OH216961   3.455   5.451   2.558 -0.2043 -0.3374  0.5440
 5652TIP3    H116962   3.530   5.453   2.618 -0.3885 -0.0957  0.7683
 5652TIP3    H216963   3.383   5.417   2.611 -0.3422 -0.2235  0.4295
 5653TIP3   OH216964   4.216   3.749   2.357 -0.2300  0.4990  0.3622
 5653TIP3    H116965   4.259   3.826   2.394 -1.2936  1.2332  0.1445
 5653TIP3    H216966   4.143   3.732   2.417  0.3951 -0.7718  0.7829
 5654TIP3   OH216967   2.291   4.525   3.655  0.0524  0.2766  0.2072
 5654TIP3    H116968   2.358   4.549   3.720  2.5934 -1.8710 -1.4102
 5654TIP3    H216969   2.265   4.608   3.616  0.1679  1.3877  2.3294
 5655TIP3   OH216970   3.111   4.207   4.460  0.1548 -0.0284  0.0206
 5655TIP3    H116971   3.153   4.257   4.529  0.0839 -0.0585  0.0858
 5655TIP3    H216972   3.078   4.129   4.504 -0.6242  0.3489  0.1108
 5656TIP3   OH216973   0.892   3.823   0.070  0.7058 -0.3383 -0.3955
 5656TIP3    H116974   0.968   3.867   0.109  1.6713 -2.0199 -0.3041
 5656TIP3    H216975   0.890   3.737   0.111 -0.6748 -0.6928 -1.1379
 5657TIP3   OH216976   2.675   5.088   0.038  0.2111  0.2171  0.3952
 5657TIP3    H116977   2.661   5.111  -0.054 -0.9072  1.7491  0.8973
 5657TIP3    H216978   2.659   4.994   0.043 -1.3628  0.3939 -0.7055
 5658TIP3   OH216979   3.961   0.236   2.369 -0.3831  0.0024 -0.1387
 5658TIP3    H116980   3.923   0.261   2.453 -0.8071 -1.0547  0.0063
 5658TIP3    H216981   3.924   0.298   2.307  0.5419  1.2798  0.5652
 5659TIP3   OH216982   4.706   4.403   1.158  0.7338  0.1729 -0.2234
 5659TIP3    H116983   4.801   4.410   1.170  1.1497 -3.3192 -0.6805
 5659TIP3    H216984   4.685   4.313   1.181 -2.2999  0.4643 -1.4036
 5660TIP3   OH216985   4.394   5.263   2.074  0.0043  0.0933 -0.4052
 5660TIP3    H116986   4.435   5.257   1.988 -1.7449 -0.6860 -1.2410
 5660TIP3    H216987   4.359   5.352   2.077  0.3532  0.2309 -0.3512
 5661TIP3   OH216988   4.648   3.471   4.553  0.0573 -0.7417 -0.4453
 5661TIP3    H116989   4.590   3.433   4.620 -0.9971 -0.1751 -1.0136
 5661TIP3    H216990   4.594   3.537   4.510  1.1514 -0.1841 -0.9820
 5662TIP3   OH216991   0.336   1.473   2.946 -0.2053 -0.0936 -0.3291
 5662TIP3    H116992   0.241   1.481   2.954 -0.2881 -1.7479  0.8627
 5662TIP3    H216993   0.352   1.380   2.954  1.5215  0.1596 -0.6341
 5663TIP3   OH216994   3.296   0.982   3.665 -0.0927  0.1128 -0.5325
 5663TIP3    H116995   3.295   0.887   3.657 -0.3731 -0.2429  2.4980
 5663TIP3    H216996   3.353   0.999   3.741 -1.5520  2.2150  0.1749
 5664TIP3   OH216997   4.725   3.766   2.771 -0.4020  0.1098  0.5436
 5664TIP3    H116998   4.680   3.794   2.691 -1.5458 -1.3063  0.6577
 5664TIP3    H216999   4.751   3.848   2.814 -0.6390  0.9006 -0.7794
 5665TIP3   OH217000   2.539   0.300   2.062 -0.1690 -0.2704 -0.2066
 5665TIP3    H117001   2.596   0.264   1.994 -0.3194 -0.8824 -0.0143
 5665TIP3    H217002   2.514   0.225   2.115 -0.4061  0.1354  0.2696
 5666TIP3   OH217003   1.917   0.697   0.302 -0.2718 -0.3410  0.2498
 5666TIP3    H117004   1.862   0.619   0.307  1.7182 -1.8051  0.7399
 5666TIP3    H217005   1.887   0.743   0.223 -0.6399 -2.3141 -0.8208
 5667TIP3   OH217006   4.577   5.482   4.831 -0.1336  0.3766  0.4500
 5667TIP3    H117007   4.564   5.577   4.837  0.7621  0.5684 -0.3804
 5667TIP3    H217008   4.668   5.472   4.802  0.1304 -0.7638  1.5597
 5668TIP3   OH217009   0.869   0.387   2.784  0.0423  0.6729  0.0016
 5668TIP3    H117010   0.873   0.454   2.716 -0.5688  0.5310 -0.1787
 5668TIP3    H217011   0.947   0.333   2.769 -0.1131  0.6144 -0.6202
 5669TIP3   OH217012   5.870   0.016   0.387  0.1277  0.5980 -0.0226
 5669TIP3    H117013   5.879   0.002   0.481  1.4245 -0.7820 -0.3201
 5669TIP3    H217014   5.777  -0.001   0.370 -0.1575  1.0280  1.0180
 5670TIP3   OH217015   5.566   2.821   4.481  0.9218 -0.5013 -0.0817
 5670TIP3    H117016   5.512   2.835   4.403  1.1184  1.6419  0.1109
 5670TIP3    H217017   5.628   2.753   4.455  0.6452 -0.2082 -1.6087
 5671TIP3   OH217018   1.785   2.394   0.393 -0.0828 -0.1674 -0.2532
 5671TIP3    H117019   1.751   2.437   0.314 -0.5920  0.9576  0.5518
 5671TIP3    H217020   1.874   2.366   0.368 -0.5256 -0.5794 -1.4729
 5672TIP3   OH217021   3.032   1.576   2.466 -0.8534  0.1255  0.1045
 5672TIP3    H117022   3.105   1.622   2.507  0.1232 -0.9606 -0.3388
 5672TIP3    H217023   2.968   1.565   2.535  0.3882 -0.8955  1.1421
 5673TIP3   OH217024   4.671   5.507   4.058 -0.2279 -0.3539 -0.3880
 5673TIP3    H117025   4.585   5.517   4.099 -0.3547  0.8151 -0.9251
 5673TIP3    H217026   4.709   5.430   4.102 -1.1253 -0.2743  0.5695
 5674TIP3   OH217027   1.067   5.848   2.921  0.3696 -0.1914  0.0538
 5674TIP3    H117028   1.112   5.811   2.844  1.1740  0.3320  0.2614
 5674TIP3    H217029   1.062   5.942   2.903  0.1939 -0.1212  0.4608
 5675TIP3   OH217030   0.729   3.948   2.521  0.5952 -0.0050 -0.5077
 5675TIP3    H117031   0.647   3.915   2.482  0.6224  0.2616 -0.7907
 5675TIP3    H217032   0.773   3.993   2.450 -0.1991  2.0651  0.2526
 5676TIP3   OH217033   3.671   0.014   3.015  0.3490  0.0906 -0.1182
 5676TIP3    H117034   3.590   0.031   2.967  0.7304  0.2771 -0.7069
 5676TIP3    H217035   3.646   0.023   3.107 -0.6940 -1.6061 -0.1995
 5677TIP3   OH217036   5.175   3.044   5.038 -0.1798 -0.6297 -0.5670
 5677TIP3    H117037   5.195   3.110   4.972 -1.3455  0.3307  0.0202
 5677TIP3    H217038   5.098   2.998   5.004 -1.2660  0.3858  0.4619
 5678TIP3   OH217039   3.389   5.109   1.333 -0.3241  0.1462  0.0455
 5678TIP3    H117040   3.367   5.142   1.246 -1.1442 -0.0473  0.1699
 5678TIP3    H217041   3.484   5.098   1.332 -0.3908 -0.4621 -1.0535
 5679TIP3   OH217042   4.054   4.818   0.670 -0.1045  0.7450 -0.4156
 5679TIP3    H117043   4.025   4.756   0.737  2.5567 -0.9367 -0.7075
 5679TIP3    H217044   4.009   4.789   0.590 -1.6789  1.5046  0.1394
 5680TIP3   OH217045   5.591   3.420   4.092  0.0667 -0.5161 -0.5506
 5680TIP3    H117046   5.502   3.454   4.083 -0.5545 -2.1256 -0.7175
 5680TIP3    H217047   5.640   3.464   4.022 -1.3189 -1.8631 -2.4893
 5681TIP3   OH217048   1.404   2.766   2.753  0.0261 -1.0759 -0.2476
 5681TIP3    H117049   1.499   2.770   2.764 -0.0726 -0.3812  0.3750
 5681TIP3    H217050   1.386   2.824   2.679 -0.4095  3.2064  2.8628
 5682TIP3   OH217051   1.907   1.239   3.830 -0.0640 -0.3657 -0.2769
 5682TIP3    H117052   1.878   1.277   3.747 -1.3945  1.8305  1.0883
 5682TIP3    H217053   1.940   1.314   3.880  1.3790 -1.7491  0.9361
 5683TIP3   OH217054   3.690   3.558   1.065 -0.1358 -0.8429 -0.6453
 5683TIP3    H117055   3.655   3.568   1.154  2.2308  2.4359  0.1054
 5683TIP3    H217056   3.620   3.590   1.008  0.0134  1.8999  0.5313
 5684TIP3   OH217057   0.736   0.812   4.350 -0.2724  0.6323 -0.3515
 5684TIP3    H117058   0.829   0.810   4.372 -0.5764  0.0200  1.0120
 5684TIP3    H217059   0.728   0.752   4.275  0.3160  0.0284  0.0528
 5685TIP3   OH217060   5.850   4.467   0.823 -0.0701 -0.4984 -0.7450
 5685TIP3    H117061   5.764   4.463   0.781  0.7094 -0.0878 -2.4761
 5685TIP3    H217062   5.907   4.415   0.767  1.0531  0.1672 -0.2540
 5686TIP3   OH217063   5.773   2.788   1.946  0.5611 -0.5897 -0.0170
 5686TIP3    H117064   5.852   2.834   1.920  0.1140  1.4153  1.8937
 5686TIP3    H217065   5.788   2.697   1.920  2.8225  0.0260 -1.0619
 5687TIP3   OH217066   4.441   0.877   1.564 -0.2915 -0.6246 -0.1642
 5687TIP3    H117067   4.494   0.927   1.502  0.3973 -0.0803  0.8209
 5687TIP3    H217068   4.484   0.792   1.569  1.4412  0.2515  1.6764
 5688TIP3   OH217069   1.352   3.752   2.505  0.0584  0.4259 -0.4081
 5688TIP3    H117070   1.338   3.773   2.598  0.0077  2.5522 -0.8472
 5688TIP3    H217071   1.435   3.704   2.503  0.9371  1.8572  0.5739
 5689TIP3   OH217072   5.008   2.302   0.627 -0.2629  0.2035  0.1553
 5689TIP3    H117073   4.945   2.257   0.683 -0.6761 -0.0843 -0.5389
 5689TIP3    H217074   4.960   2.376   0.591 -0.3621 -0.2906 -0.7604
 5690TIP3   OH217075   1.330   1.276   1.142  0.4220  0.4876  0.3517
 5690TIP3    H117076   1.365   1.228   1.066  0.9525  0.7720  0.4099
 5690TIP3    H217077   1.407   1.319   1.180  0.1191  0.5378  0.9138
 5691TIP3   OH217078   5.440   4.281   3.972  0.2312 -0.2483 -0.3808
 5691TIP3    H117079   5.375   4.211   3.965  0.5556 -0.8205  1.6117
 5691TIP3    H217080   5.525   4.236   3.970  0.4490  0.0848  0.6745
 5692TIP3   OH217081   3.004   2.171   2.738  0.0796 -0.6384  0.5201
 5692TIP3    H117082   3.043   2.084   2.729  2.8260  0.4824  0.7182
 5692TIP3    H217083   3.003   2.207   2.650 -1.2812 -0.9179  0.4002
 5693TIP3   OH217084   3.679   4.788   2.328  0.4477  0.4690  0.4814
 5693TIP3    H117085   3.614   4.857   2.315  0.1739  0.1156 -0.1040
 5693TIP3    H217086   3.702   4.793   2.421  0.0398  1.0020  0.5557
 5694TIP3   OH217087   1.395   4.371   3.438  0.1461  0.0402  0.2864
 5694TIP3    H117088   1.439   4.289   3.416 -1.4328 -0.3763 -1.6022
 5694TIP3    H217089   1.415   4.385   3.530  2.9002 -0.8881 -0.0858
 5695TIP3   OH217090   3.987   4.973   4.670  0.1064 -0.3165 -0.5821
 5695TIP3    H117091   3.996   5.046   4.609  0.7577 -1.1756 -1.5396
 5695TIP3    H217092   4.065   4.978   4.726  1.9618 -2.1771 -2.7911
 5696TIP3   OH217093   0.325   2.943   2.905  0.0822  0.2111 -0.5518
 5696TIP3    H117094   0.417   2.936   2.880  0.2901 -0.5874  0.3850
 5696TIP3    H217095   0.281   2.877   2.852  0.2638 -0.3253 -0.0453
 5697TIP3   OH217096   4.933   0.352   2.033 -0.3729  0.5926  0.4680
 5697TIP3    H117097   4.846   0.310   2.033 -0.1950  0.2141  0.4705
 5697TIP3    H217098   4.933   0.406   2.112  0.0885 -0.9084  1.5505
 5698TIP3   OH217099   1.056   0.601   4.011 -0.0207  0.3453 -0.5164
 5698TIP3    H117100   1.135   0.612   4.063 -1.6016 -0.2911  2.1859
 5698TIP3    H217101   1.085   0.549   3.935  2.1884  0.3942  0.2114
 5699TIP3   OH217102   4.984   3.621   3.417 -0.5295  0.2385  0.2051
 5699TIP3    H117103   4.966   3.711   3.388  0.6188  0.5155  0.2972
 5699TIP3    H217104   4.967   3.623   3.511 -1.3972  0.1128  0.0568
 5700TIP3   OH217105   6.226   0.868   0.079 -0.4154 -0.0693 -0.2759
 5700TIP3    H117106   6.251   0.939   0.019 -2.8491  0.2867 -0.9764
 5700TIP3    H217107   6.252   0.788   0.034 -0.6592  0.2666 -1.0351
 5701TIP3   OH217108   5.038   2.481   3.041 -0.1623 -0.0804 -0.2636
 5701TIP3    H117109   5.012   2.449   2.955 -0.0206  1.5132 -0.9173
 5701TIP3    H217110   4.962   2.531   3.072 -0.2213 -0.6570  0.5572
 5702TIP3   OH217111   1.397   2.468   1.482 -0.1769 -0.1230 -0.4181
 5702TIP3    H117112   1.320   2.518   1.510  0.5450  0.5486  0.4394
 5702TIP3    H217113   1.400   2.480   1.387  0.1001  1.6953 -0.2238
 5703TIP3   OH217114   0.575   1.403   2.233 -0.1720 -0.0433  0.5445
 5703TIP3    H117115   0.649   1.406   2.294  0.3414  0.9405 -0.1108
 5703TIP3    H217116   0.607   1.350   2.160  0.0084  0.6718  0.1033
 5704TIP3   OH217117   0.828   1.078   1.150  0.0449  0.1434  0.1853
 5704TIP3    H117118   0.819   1.173   1.140 -0.9684  0.0505  0.1114
 5704TIP3    H217119   0.774   1.056   1.225  0.7387 -0.3105  0.5665
 5705TIP3   OH217120   4.233   4.316   0.067 -0.0222 -0.4266 -0.0384
 5705TIP3    H117121   4.196   4.242   0.114 -0.1854 -1.6445 -1.9921
 5705TIP3    H217122   4.320   4.287   0.041 -0.1708 -0.0312 -1.0099
 5706TIP3   OH217123   2.229   2.319   4.744 -0.3538 -0.1503 -0.2912
 5706TIP3    H117124   2.204   2.255   4.678 -0.5963  1.0642 -1.4099
 5706TIP3    H217125   2.165   2.309   4.814 -0.7568 -0.6940 -0.7373
 5707TIP3   OH217126   5.562   5.960   0.059 -0.0688  0.2200 -0.3578
 5707TIP3    H117127   5.614   5.912   0.123 -0.4634  0.6200  0.2661
 5707TIP3    H217128   5.552   5.898  -0.014  0.2391 -0.2950  0.0282
 5708TIP3   OH217129   5.037   5.146   2.902 -0.7345  0.3278 -0.1420
 5708TIP3    H117130   5.054   5.190   2.985  2.2296 -1.3726  0.2870
 5708TIP3    H217131   4.981   5.072   2.926 -0.5863  0.3267  0.2130
 5709TIP3   OH217132   1.752   1.677   4.426 -0.7127 -0.0459 -0.2958
 5709TIP3    H117133   1.718   1.755   4.468 -0.9872 -1.7145  2.8841
 5709TIP3    H217134   1.824   1.648   4.483  0.3950 -1.3188 -2.1907
 5710TIP3   OH217135   5.945   2.881   4.556 -0.2065 -0.9447 -0.2437
 5710TIP3    H117136   5.966   2.957   4.609 -0.0255  0.5671 -2.3501
 5710TIP3    H217137   6.011   2.816   4.579  1.1995  0.4593 -0.2172
 5711TIP3   OH217138   0.791   0.769   5.088 -0.5056 -0.1777 -0.2137
 5711TIP3    H117139   0.852   0.729   5.150  0.6281  3.7227  1.5432
 5711TIP3    H217140   0.726   0.813   5.144 -1.9485 -0.0166 -1.9392
 5712TIP3   OH217141   5.687   5.672   5.100  0.5266  0.3017 -0.8372
 5712TIP3    H117142   5.696   5.710   5.013  1.2819 -0.2807 -1.0279
 5712TIP3    H217143   5.773   5.636   5.119  0.5759  1.0376  0.4553
 5713TIP3   OH217144   5.677   3.823   0.450  0.0508  0.3743 -0.0418
 5713TIP3    H117145   5.752   3.826   0.392 -0.0257  0.0672 -0.1601
 5713TIP3    H217146   5.631   3.743   0.426 -1.3375  1.4693 -1.2328
 5714TIP3   OH217147   4.443   2.635   2.434 -0.4522  0.6813 -0.1977
 5714TIP3    H117148   4.374   2.593   2.486  0.1138  1.8577  1.5776
 5714TIP3    H217149   4.484   2.563   2.387 -1.8266 -0.2604 -0.0335
 5715TIP3   OH217150   4.838   3.591   0.361  0.3408  0.2466 -0.7491
 5715TIP3    H117151   4.759   3.545   0.391  0.0937  1.1774  0.0649
 5715TIP3    H217152   4.910   3.539   0.396  0.0858 -0.1454 -0.7907
 5716TIP3   OH217153   0.530   5.371   5.075  0.6490  0.3850 -0.0532
 5716TIP3    H117154   0.544   5.416   4.992  1.8545 -0.0153 -0.0891
 5716TIP3    H217155   0.592   5.298   5.074 -1.2326 -1.3021  0.0119
 5717TIP3   OH217156   5.196   4.862   1.194  0.0770 -0.8999  0.3004
 5717TIP3    H117157   5.123   4.904   1.240 -0.3981 -1.2240 -0.1469
 5717TIP3    H217158   5.250   4.935   1.163  0.4474 -0.6748  1.4195
 5718TIP3   OH217159   1.275   5.442   1.570  0.5864  0.1176  0.0384
 5718TIP3    H117160   1.207   5.412   1.631  0.5595 -0.6274 -0.3585
 5718TIP3    H217161   1.325   5.364   1.548  2.4759  0.8417  1.3944
 5719TIP3   OH217162   1.388   2.531   1.209  0.6167  0.3822 -0.5774
 5719TIP3    H117163   1.320   2.599   1.201  0.9042  0.9924  1.4716
 5719TIP3    H217164   1.349   2.453   1.170 -1.4904  0.5992  0.9235
 5720TIP3   OH217165   1.071   2.264   3.244  0.3055 -0.2516 -0.7444
 5720TIP3    H117166   1.070   2.305   3.158 -1.6218  0.9107 -0.2425
 5720TIP3    H217167   1.032   2.329   3.302  1.2750 -1.1205  0.9692
 5721TIP3   OH217168   2.697   3.819   1.315 -0.8299  0.5637  0.3335
 5721TIP3    H117169   2.792   3.835   1.315 -0.5439 -0.8795  1.6242
 5721TIP3    H217170   2.669   3.848   1.402 -1.6546  1.2443 -0.1409
 5722TIP3   OH217171   3.331   4.327   0.129 -0.2829 -0.3924 -0.1597
 5722TIP3    H117172   3.241   4.357   0.142 -0.4110  0.1874 -2.1439
 5722TIP3    H217173   3.385   4.403   0.149 -0.3728 -0.0590 -1.1611
 5723TIP3   OH217174   4.977   4.760   0.375  0.0427  0.4279 -0.2188
 5723TIP3    H117175   4.899   4.812   0.358 -0.3559  0.4011  1.3704
 5723TIP3    H217176   4.983   4.755   0.470  0.1943 -2.2255 -0.2715
 5724TIP3   OH217177   5.018   5.346   0.068 -0.8025 -0.1615  0.6193
 5724TIP3    H117178   5.112   5.333   0.061 -0.8739 -0.7088  0.6160
 5724TIP3    H217179   4.997   5.411   0.001 -0.5309 -0.5623  0.1424
 5725TIP3   OH217180   2.991   5.107   4.357  0.0266  0.7208  0.2879
 5725TIP3    H117181   3.070   5.054   4.363  0.1562  0.9670  0.7957
 5725TIP3    H217182   2.975   5.117   4.263 -1.1414 -1.9154  0.1094
 5726TIP3   OH217183   1.047   0.089   0.059  0.6241 -0.2458  0.4996
 5726TIP3    H117184   1.032   0.130  -0.026  1.8713 -0.7707  0.0111
 5726TIP3    H217185   1.139   0.062   0.058  0.1080 -2.1888  1.1802
 5727TIP3   OH217186   0.780   2.131   0.315  0.0006  0.2073  0.4677
 5727TIP3    H117187   0.822   2.050   0.285 -1.3761 -0.7824  1.0857
 5727TIP3    H217188   0.749   2.173   0.234  0.7255  0.1272  0.1414
 5728TIP3   OH217189   5.064   0.199   1.802 -0.2012 -0.1852 -0.3517
 5728TIP3    H117190   5.024   0.285   1.814  0.2713 -0.0769  0.5219
 5728TIP3    H217191   5.156   0.216   1.786 -0.2485 -0.4997 -1.0019
 5729TIP3   OH217192   4.081   1.655   0.376 -0.1815  0.5011  0.4033
 5729TIP3    H117193   4.153   1.717   0.369  0.2224  0.0510  0.5225
 5729TIP3    H217194   4.002   1.709   0.370  0.1576  0.9465 -0.2596
 5730TIP3   OH217195   3.732   3.057   1.396 -0.3249 -0.0926  0.0616
 5730TIP3    H117196   3.815   3.064   1.349  0.0918  0.0189  0.7959
 5730TIP3    H217197   3.673   3.115   1.349  0.3062  0.6310  0.1322
 5731TIP3   OH217198   0.291   5.239   2.369 -0.0969 -0.5160  0.3597
 5731TIP3    H117199   0.360   5.224   2.434 -0.2053 -0.6718  0.4388
 5731TIP3    H217200   0.281   5.155   2.325 -0.1080 -0.4430  0.2237
 5732TIP3   OH217201   5.497   0.434   1.748  0.0760  0.0306  0.4176
 5732TIP3    H117202   5.562   0.427   1.678 -0.1896  2.5899 -0.1898
 5732TIP3    H217203   5.413   0.443   1.703 -0.3506 -0.3579  1.1207
 5733TIP3   OH217204   5.991   1.972   3.749 -0.0155 -0.1637 -0.2126
 5733TIP3    H117205   6.042   1.926   3.815  0.3755 -0.6547 -0.8387
 5733TIP3    H217206   5.902   1.936   3.757 -0.0009 -0.1169  0.1413
 5734TIP3   OH217207   5.976   1.730   3.482  0.1756 -0.1975 -0.1380
 5734TIP3    H117208   5.959   1.769   3.396  1.4270  0.5916 -0.0417
 5734TIP3    H217209   5.935   1.643   3.477 -2.2664  0.8809 -0.5204
 5735TIP3   OH217210   3.851   4.579   1.361 -0.5528 -0.3724  0.0908
 5735TIP3    H117211   3.845   4.485   1.347 -1.4601 -0.5281  1.3811
 5735TIP3    H217212   3.790   4.597   1.433  0.0576  1.1030  0.2805
 5736TIP3   OH217213   5.419   5.696   4.678  0.5682 -0.3586  0.6021
 5736TIP3    H117214   5.495   5.704   4.737 -0.2554  0.3987  1.5882
 5736TIP3    H217215   5.383   5.610   4.697 -1.1796  0.8196  3.1130
 5737TIP3   OH217216   2.597   3.072   2.805  0.2368 -0.2159  0.1806
 5737TIP3    H117217   2.686   3.084   2.773  0.8312 -0.5715  1.6051
 5737TIP3    H217218   2.543   3.066   2.726  1.7338 -1.9521 -0.7824
 5738TIP3   OH217219   5.428   0.321   2.743  0.3576 -0.0163  0.1372
 5738TIP3    H117220   5.377   0.398   2.767 -1.1689 -1.2693  1.1090
 5738TIP3    H217221   5.500   0.320   2.805  0.1080  0.3475  0.4367
 5739TIP3   OH217222   4.542   5.247   1.832  0.8805  0.2113 -0.5126
 5739TIP3    H117223   4.542   5.170   1.776  1.3651  0.4359 -0.8229
 5739TIP3    H217224   4.534   5.321   1.772  1.1481  0.4410 -0.2682
 5740TIP3   OH217225   4.654   4.312   2.547  0.0989  0.0461  0.0831
 5740TIP3    H117226   4.707   4.376   2.499 -1.2817  0.0917 -1.4642
 5740TIP3    H217227   4.651   4.235   2.490 -3.6898  0.9912 -1.3251
 5741TIP3   OH217228   3.849   2.353   2.849  0.1151 -0.0161 -0.0040
 5741TIP3    H117229   3.881   2.272   2.887  1.2445  1.2316  1.8956
 5741TIP3    H217230   3.771   2.328   2.800  0.2933 -2.1859  0.7356
 5742TIP3   OH217231   0.974   4.682   2.898  0.7249  0.2339 -0.6373
 5742TIP3    H117232   0.887   4.704   2.933  0.8102  0.3622 -0.5058
 5742TIP3    H217233   0.976   4.721   2.811  0.8514  0.6939 -0.4313
 5743TIP3   OH217234   3.959   3.810   2.919  0.0273 -0.1015 -0.5406
 5743TIP3    H117235   3.869   3.792   2.947  0.2865 -0.2549  0.2291
 5743TIP3    H217236   3.972   3.903   2.939 -0.3010  0.2044 -1.6565
 5744TIP3   OH217237   1.520   4.434   1.838 -0.1778 -0.1080  0.2492
 5744TIP3    H117238   1.525   4.368   1.770  1.2630 -0.7992  0.9770
 5744TIP3    H217239   1.494   4.386   1.916 -1.8125  0.6754  0.2203
 5745TIP3   OH217240   4.542   4.075   4.679  0.1281 -0.0197 -0.0593
 5745TIP3    H117241   4.580   4.088   4.766  0.4852 -0.5203 -0.1332
 5745TIP3    H217242   4.579   3.992   4.649  0.6778  0.5571 -1.0419
 5746TIP3   OH217243   1.771   4.443   1.965  0.3968  0.3254  0.0773
 5746TIP3    H117244   1.759   4.537   1.977  0.2806  0.7789 -2.8247
 5746TIP3    H217245   1.683   4.410   1.946  0.3828 -0.4635  1.4141
 5747TIP3   OH217246   2.666   5.118   4.194  0.0845 -0.5966  0.2356
 5747TIP3    H117247   2.705   5.123   4.280 -1.5937 -1.8043  1.1312
 5747TIP3    H217248   2.707   5.042   4.153 -0.4919 -1.2013  0.7508
 5748TIP3   OH217249   5.857   5.986   4.595 -0.4229 -0.6331 -0.7285
 5748TIP3    H117250   5.937   5.960   4.550 -1.3277 -2.1774 -1.5410
 5748TIP3    H217251   5.840   5.916   4.658  0.0461  0.7982  1.0523
 5749TIP3   OH217252   3.131   3.848   0.487  0.4074  0.0167 -0.4698
 5749TIP3    H117253   3.218   3.879   0.465  0.1606  0.4048 -0.8985
 5749TIP3    H217254   3.139   3.819   0.578  1.8068 -2.9456 -1.4055
 5750TIP3   OH217255   1.934   0.193   1.972 -0.5803 -0.6055  0.4035
 5750TIP3    H117256   1.976   0.263   2.021  1.5193 -1.5160 -0.0114
 5750TIP3    H217257   1.885   0.238   1.903  1.0150  0.4446 -0.0766
 5751TIP3   OH217258   5.155   4.624   1.090  0.3608  0.0524 -0.5024
 5751TIP3    H117259   5.145   4.669   1.006 -1.5090 -0.0338 -0.3750
 5751TIP3    H217260   5.168   4.694   1.154  0.2589  0.2148 -0.6588
 5752TIP3   OH217261   3.025   0.661   0.005 -0.4435 -0.4957  0.3327
 5752TIP3    H117262   3.049   0.604   0.078 -2.4386 -2.5313 -0.5127
 5752TIP3    H217263   2.995   0.742   0.046  0.2518 -0.8910  1.6659
 5753TIP3   OH217264   1.207   0.496   3.759 -0.0426  0.6196 -0.1232
 5753TIP3    H117265   1.184   0.429   3.694  0.6635  1.1033 -0.8824
 5753TIP3    H217266   1.270   0.452   3.816  2.1164  1.2326 -1.9025
 5754TIP3   OH217267   3.208   0.093   0.741  0.0090  0.0134 -0.2139
 5754TIP3    H117268   3.114   0.087   0.753  0.1088 -0.0838  0.6211
 5754TIP3    H217269   3.232   0.179   0.775  0.1869  0.1458 -0.6687
 5755TIP3   OH217270   4.821   2.102   3.835  0.7389  0.0622 -0.4008
 5755TIP3    H117271   4.828   2.196   3.822  0.8850 -0.0086 -0.8594
 5755TIP3    H217272   4.908   2.068   3.813  1.2908  0.0144  1.6233
 5756TIP3   OH217273   4.158   1.070   4.274  0.4443 -0.3477 -0.5625
 5756TIP3    H117274   4.070   1.108   4.277  0.5840 -0.0120 -0.6852
 5756TIP3    H217275   4.199   1.110   4.198 -0.0571 -2.2019 -1.8866
 5757TIP3   OH217276   1.727   5.538   2.517 -0.2080 -0.1944  0.3204
 5757TIP3    H117277   1.763   5.627   2.515 -0.2856 -0.1684  0.0820
 5757TIP3    H217278   1.761   5.501   2.598 -2.1328  0.8665  1.6772
 5758TIP3   OH217279   1.043   1.706   3.496 -0.0303 -0.2747 -0.5877
 5758TIP3    H117280   0.986   1.691   3.571  1.9058  0.5690  1.1628
 5758TIP3    H217281   1.024   1.796   3.470 -2.0267 -1.1464 -2.3901
 5759TIP3   OH217282   3.149   3.797   0.788 -0.4371  0.6340 -0.0247
 5759TIP3    H117283   3.126   3.704   0.793 -1.8886  0.9219 -0.6103
 5759TIP3    H217284   3.203   3.813   0.865 -0.8926 -0.5094  0.5619
 5760TIP3   OH217285   4.236   2.235   1.953 -0.5695  0.4044  0.2831
 5760TIP3    H117286   4.283   2.282   2.022 -0.8093 -0.2575  0.9087
 5760TIP3    H217287   4.285   2.154   1.942 -1.4473 -0.2081  0.8093
 5761TIP3   OH217288   4.672   1.448   4.236 -0.1985  0.2055  0.1190
 5761TIP3    H117289   4.693   1.366   4.193 -2.2855 -0.5314  0.3892
 5761TIP3    H217290   4.698   1.516   4.174  0.0646 -0.7135 -0.7882
 5762TIP3   OH217291   1.910   2.356   0.034 -0.0179  0.3945  0.0673
 5762TIP3    H117292   1.838   2.321  -0.018  0.6475 -0.7009 -0.1429
 5762TIP3    H217293   1.903   2.451   0.025 -2.0854  0.3806  0.9334
 5763TIP3   OH217294   1.601   1.168   2.662 -0.3324  0.1157 -0.5618
 5763TIP3    H117295   1.640   1.103   2.720 -0.1039 -0.6824 -1.5806
 5763TIP3    H217296   1.560   1.117   2.593  0.9830  1.0511 -2.1151
 5764TIP3   OH217297   5.577   4.976   1.996 -0.2191 -0.0768 -0.0766
 5764TIP3    H117298   5.522   4.901   1.969 -0.5691 -0.1072  0.7101
 5764TIP3    H217299   5.551   5.046   1.936 -1.9556  0.2496  0.9754
 5765TIP3   OH217300   6.042   3.254   0.779 -0.2494 -0.5703  0.0752
 5765TIP3    H117301   6.072   3.203   0.704 -0.6986 -1.1054  0.2560
 5765TIP3    H217302   6.055   3.196   0.854 -0.1786 -0.1838  0.3655
 5766TIP3   OH217303   0.648   2.319   0.126  0.1288 -0.3086 -0.0433
 5766TIP3    H117304   0.655   2.413   0.146 -0.3815 -0.2012 -0.3463
 5766TIP3    H217305   0.613   2.317   0.036 -1.0336 -0.7807  0.3983
 5767TIP3   OH217306   3.066   2.416   4.140  0.1941 -0.7932  0.7064
 5767TIP3    H117307   3.093   2.508   4.143  0.4626 -0.8221 -0.4095
 5767TIP3    H217308   3.129   2.371   4.196  0.5804 -0.4218  0.5775
 5768TIP3   OH217309   1.843   0.591   2.339 -0.1741  0.0291 -0.5130
 5768TIP3    H117310   1.925   0.624   2.374  1.3604 -1.9171 -2.0333
 5768TIP3    H217311   1.775   0.635   2.390  1.8016  1.3567  1.1023
 5769TIP3   OH217312   5.532   5.792   1.700  0.1699  0.0828 -0.1299
 5769TIP3    H117313   5.518   5.778   1.607  1.0296 -1.7371 -0.0362
 5769TIP3    H217314   5.585   5.872   1.705 -0.1525  0.3681 -1.1688
 5770TIP3   OH217315   1.209   3.951   3.272 -0.0182 -0.5361 -0.1808
 5770TIP3    H117316   1.185   3.860   3.253 -0.0930 -0.8731  1.3587
 5770TIP3    H217317   1.287   3.966   3.218  0.0447 -1.5524 -0.4076
 5771TIP3   OH217318   0.365   1.419   1.563 -0.1130 -0.3448 -0.2845
 5771TIP3    H117319   0.364   1.329   1.595 -0.7676 -0.6022 -1.0088
 5771TIP3    H217320   0.401   1.470   1.637  1.3834 -1.3301 -0.2933
 5772TIP3   OH217321   5.679   0.670   0.362  0.4718  0.0789 -0.0737
 5772TIP3    H117322   5.629   0.590   0.343 -1.3463  0.6133  2.0515
 5772TIP3    H217323   5.769   0.640   0.373 -0.1440 -1.6837  0.5416
 5773TIP3   OH217324   2.591   5.261   0.756  0.7846 -0.1984 -0.3073
 5773TIP3    H117325   2.545   5.339   0.726 -0.2608 -0.2298  1.0946
 5773TIP3    H217326   2.678   5.292   0.780  1.1456  0.0855 -1.8989
 5774TIP3   OH217327   1.879   3.699   2.499 -0.4321 -0.3557  0.0461
 5774TIP3    H117328   1.841   3.755   2.566  1.1936 -0.7958  1.4267
 5774TIP3    H217329   1.955   3.747   2.468  0.7051 -1.5014  0.9022
 5775TIP3   OH217330   2.729   2.468   2.279 -0.2846  0.4491  0.5292
 5775TIP3    H117331   2.634   2.465   2.266 -0.2074  2.1113 -0.8875
 5775TIP3    H217332   2.741   2.518   2.360 -0.6358  1.3471  0.0451
 5776TIP3   OH217333   6.006   1.797   1.167 -0.4762  0.4592  0.4037
 5776TIP3    H117334   5.955   1.724   1.131  0.3569  0.6674 -1.3241
 5776TIP3    H217335   6.095   1.763   1.173 -0.2559  1.0431  0.4493
 5777TIP3   OH217336   4.152   4.455   1.946  0.5980  0.1253  0.4651
 5777TIP3    H117337   4.195   4.418   1.868  1.5052 -1.0730  1.5051
 5777TIP3    H217338   4.102   4.529   1.912 -0.7640 -1.6243 -1.5998
 5778TIP3   OH217339   2.026   1.786   3.936 -0.1217 -0.1337 -0.2645
 5778TIP3    H117340   1.958   1.751   3.994  1.2951 -0.2947  1.3606
 5778TIP3    H217341   2.064   1.859   3.985  1.8539 -0.9614 -0.4749
 5779TIP3   OH217342   0.086   2.327   0.508 -0.1443  0.1268 -0.2762
 5779TIP3    H117343   0.083   2.231   0.512  0.9411  0.0765 -0.3941
 5779TIP3    H217344   0.161   2.350   0.563  0.2512  0.8466 -1.1054
 5780TIP3   OH217345   1.007   1.358   4.500 -0.2241  0.1739 -0.1387
 5780TIP3    H117346   1.079   1.377   4.560  0.2602  1.1329 -0.9929
 5780TIP3    H217347   1.021   1.267   4.473 -0.5079 -0.3034  1.2513
 5781TIP3   OH217348   2.996   3.592   0.632 -0.0774  0.2497 -0.1588
 5781TIP3    H117349   2.925   3.642   0.674 -0.6117 -1.4806  1.1353
 5781TIP3    H217350   3.006   3.515   0.688  1.8852 -0.2394 -1.1268
 5782TIP3   OH217351   1.274   3.945   3.582 -0.2638 -0.0896  0.3993
 5782TIP3    H117352   1.297   3.929   3.491 -2.0507 -2.5655  0.2827
 5782TIP3    H217353   1.354   3.927   3.631  0.5710  0.7668 -0.6122
 5783TIP3   OH217354   3.950   2.186   0.629  0.0764  0.4884  0.7338
 5783TIP3    H117355   4.015   2.122   0.601 -0.1205 -0.1005  1.5928
 5783TIP3    H217356   3.970   2.203   0.721 -0.9849  0.2759  1.0158
 5784TIP3   OH217357   3.877   1.812   0.374 -0.1983  0.0626  0.2145
 5784TIP3    H117358   3.829   1.884   0.334 -0.1637 -0.6616 -1.2207
 5784TIP3    H217359   3.809   1.754   0.408 -0.3144 -0.2649 -0.5502
 5785TIP3   OH217360   2.997   0.621   4.369  0.0091 -0.5604 -0.5442
 5785TIP3    H117361   3.005   0.564   4.293  2.9887 -0.1490 -0.6549
 5785TIP3    H217362   3.084   0.659   4.380 -0.5945  0.2403  2.4224
 5786TIP3   OH217363   5.617   0.466   4.315 -0.0216 -0.0861 -0.1477
 5786TIP3    H117364   5.656   0.536   4.367 -0.5109  0.3848 -0.3976
 5786TIP3    H217365   5.537   0.505   4.278  0.4911 -0.2910 -1.5368
 5787TIP3   OH217366   6.110   5.387   2.870 -0.1233 -0.3854 -0.4758
 5787TIP3    H117367   6.189   5.430   2.903 -1.4123  1.1622  0.7826
 5787TIP3    H217368   6.141   5.328   2.801  2.2705 -0.8429  0.8717
 5788TIP3   OH217369   1.290   3.587   1.986 -0.5631 -0.4984  0.3386
 5788TIP3    H117370   1.254   3.570   2.074 -0.2460  2.6795  1.1894
 5788TIP3    H217371   1.214   3.613   1.934 -0.1514  3.0540  1.2758
 5789TIP3   OH217372   3.081   0.548   2.444 -0.3295 -0.1653 -0.2211
 5789TIP3    H117373   3.151   0.528   2.505 -1.3718  0.2408  1.1460
 5789TIP3    H217374   3.031   0.466   2.436 -0.7656  0.0507  0.2493
 5790TIP3   OH217375   1.733   4.382   2.711 -0.5017  0.3199  0.2396
 5790TIP3    H117376   1.712   4.289   2.698  1.1769 -0.1860  0.8937
 5790TIP3    H217377   1.649   4.423   2.730 -1.2953 -1.0347 -0.1770
 5791TIP3   OH217378   3.991   5.487   0.636  0.1197  0.5649 -0.2505
 5791TIP3    H117379   4.037   5.561   0.596  1.8017 -1.6757 -2.7885
 5791TIP3    H217380   4.060   5.435   0.678 -1.1256  0.7088  2.1735
 5792TIP3   OH217381   4.809   4.389   3.361  0.0574  0.1528  0.3838
 5792TIP3    H117382   4.800   4.484   3.360 -1.6502  0.0734 -2.3485
 5792TIP3    H217383   4.883   4.371   3.303  0.9683 -0.1978  1.6151
 5793TIP3   OH217384   1.079   3.919   4.490 -0.4852  0.4102  0.2062
 5793TIP3    H117385   1.154   3.942   4.434 -0.6890  1.3148  0.2950
 5793TIP3    H217386   1.057   4.001   4.535  0.1657 -0.4488  2.2210
 5794TIP3   OH217387   2.847   3.159   2.057 -0.0920  0.0816 -0.6227
 5794TIP3    H117388   2.760   3.191   2.035 -0.1373  0.9454  0.7068
 5794TIP3    H217389   2.897   3.237   2.078  0.6197 -0.5118 -0.0609
 5795TIP3   OH217390   3.379   0.767   3.093  0.9528 -0.3615  0.0084
 5795TIP3    H117391   3.340   0.812   3.168 -0.0076 -1.0128 -0.0799
 5795TIP3    H217392   3.356   0.820   3.018  1.3472 -0.0614  0.0969
 5796TIP3   OH217393   6.034   1.242   1.334 -0.2402 -0.4580 -0.5134
 5796TIP3    H117394   6.056   1.331   1.308 -0.4020 -0.9946 -2.6443
 5796TIP3    H217395   6.112   1.190   1.311 -1.0463 -1.2388 -1.5734
 5797TIP3   OH217396   1.101   2.628   1.794 -0.2304  0.1520  0.2271
 5797TIP3    H117397   1.053   2.693   1.844 -1.7060 -1.7999  1.4613
 5797TIP3    H217398   1.036   2.563   1.768  1.3075 -1.2999 -0.2213
 5798TIP3   OH217399   5.414   2.184   4.113 -0.3087 -0.1259 -0.1864
 5798TIP3    H117400   5.397   2.129   4.036  2.5555  0.1490 -1.1420
 5798TIP3    H217401   5.366   2.265   4.096 -0.7802 -0.5745 -1.0419
 5799TIP3   OH217402   5.896   3.192   2.487 -0.5257 -0.2499 -0.1316
 5799TIP3    H117403   5.884   3.203   2.582  2.0090 -2.0585  0.4963
 5799TIP3    H217404   5.849   3.111   2.467  1.8741 -1.8821  0.3962
 5800TIP3   OH217405   5.684   1.348   0.138 -0.4076 -0.1272  0.2214
 5800TIP3    H117406   5.658   1.263   0.103  3.7646 -1.3925 -0.3869
 5800TIP3    H217407   5.625   1.364   0.211 -0.5258 -4.2703  1.2352
 5801TIP3   OH217408   0.700   1.647   3.449 -0.0812 -0.1303 -0.6699
 5801TIP3    H117409   0.765   1.582   3.423  0.3724  0.0057  0.1027
 5801TIP3    H217410   0.749   1.730   3.452 -0.2647 -0.0382 -0.0183
 5802TIP3   OH217411   6.275   4.894   3.807  1.1189  0.0376  0.1049
 5802TIP3    H117412   6.206   4.958   3.795  0.3880 -1.1610 -3.0093
 5802TIP3    H217413   6.230   4.814   3.833  1.6532 -0.1035  0.6349
 5803TIP3   OH217414   2.580   0.216   2.875  0.1410 -0.0793  0.8458
 5803TIP3    H117415   2.497   0.257   2.849  0.7495  1.0869  0.6866
 5803TIP3    H217416   2.608   0.169   2.797  0.2673  0.5944  0.4797
 5804TIP3   OH217417   3.139   5.449   2.984 -0.2468 -0.0567  0.0458
 5804TIP3    H117418   3.076   5.432   3.053 -1.9475 -0.8344 -1.6050
 5804TIP3    H217419   3.087   5.488   2.913  1.2659  0.0357 -1.0652
 5805TIP3   OH217420   2.316   1.280   4.384 -0.0838  0.0721 -0.6907
 5805TIP3    H117421   2.249   1.295   4.317  1.7339  1.1527 -2.3607
 5805TIP3    H217422   2.348   1.191   4.366 -1.3729 -0.6850  0.4832
 5806TIP3   OH217423   5.787   1.520   2.646  0.3229  0.0970 -0.3525
 5806TIP3    H117424   5.825   1.482   2.566  1.1695  0.1814 -0.0083
 5806TIP3    H217425   5.812   1.458   2.715  1.4215  1.0655  0.1629
 5807TIP3   OH217426   2.174   0.614   2.025  0.1338 -0.0983  0.5201
 5807TIP3    H117427   2.254   0.661   2.049  1.4980 -3.1455  2.6901
 5807TIP3    H217428   2.206   0.526   2.000 -2.4318 -0.8463 -0.4105
 5808TIP3   OH217429   3.531   5.971   3.834  0.3434  0.0848  0.2292
 5808TIP3    H117430   3.559   5.970   3.926  0.7597  0.3855  0.1066
 5808TIP3    H217431   3.551   5.883   3.802  1.7556  0.4791 -0.0344
 5809TIP3   OH217432   5.956   3.460   4.287 -0.0706 -0.0438  0.5784
 5809TIP3    H117433   5.983   3.370   4.270 -0.4048 -0.1622  0.6709
 5809TIP3    H217434   5.967   3.505   4.203 -2.3307 -0.7777 -0.2055
 5810TIP3   OH217435   2.278   3.007   0.186 -0.2969  0.1833 -0.7387
 5810TIP3    H117436   2.358   3.012   0.133  1.1958 -0.0995  1.3844
 5810TIP3    H217437   2.308   2.984   0.273 -2.9588 -2.7218 -0.4192
 5811TIP3   OH217438   4.693   2.969   1.865  0.1261  0.0380 -0.5756
 5811TIP3    H117439   4.599   2.989   1.868  0.1999  0.2984 -0.0341
 5811TIP3    H217440   4.714   2.936   1.952  0.4794 -0.3013 -0.7862
 5812TIP3   OH217441   4.289   1.380   4.486  0.1955 -0.3717  0.2063
 5812TIP3    H117442   4.256   1.306   4.537 -0.7435 -0.0273  0.1157
 5812TIP3    H217443   4.211   1.431   4.465  0.7953  0.4522 -0.0430
 5813TIP3   OH217444   1.900   0.283   4.795 -0.3595 -0.3396  0.1097
 5813TIP3    H117445   1.809   0.311   4.784 -0.4345 -0.0924  1.2164
 5813TIP3    H217446   1.941   0.355   4.843 -0.3085 -1.6449  2.1434
 5814TIP3   OH217447   5.487   0.529   3.472  0.1914 -1.1142 -0.0044
 5814TIP3    H117448   5.546   0.477   3.527 -0.4387 -2.3946 -0.4988
 5814TIP3    H217449   5.466   0.606   3.525  0.9566 -1.4797  0.8490
 5815TIP3   OH217450   1.194   4.585   4.933 -0.2252 -0.1488 -0.1111
 5815TIP3    H117451   1.153   4.600   5.018  0.0423  0.9609 -0.1684
 5815TIP3    H217452   1.227   4.495   4.938  1.1445  0.3955  1.5352
 5816TIP3   OH217453   3.031   1.552   1.122 -0.4960  0.5539 -0.1286
 5816TIP3    H117454   2.976   1.613   1.073  0.3371  2.8409  1.6276
 5816TIP3    H217455   2.981   1.532   1.201  0.0863  0.6306  0.2701
 5817TIP3   OH217456   5.570   3.452   5.127 -0.4295 -0.2534 -0.3493
 5817TIP3    H117457   5.547   3.360   5.133 -0.9110 -0.2129 -1.3767
 5817TIP3    H217458   5.522   3.484   5.050 -0.2989  0.8567  0.0160
 5818TIP3   OH217459   3.693   2.006   0.254 -0.0765  0.6439  0.4153
 5818TIP3    H117460   3.678   2.033   0.163  0.4961 -0.1207  0.0831
 5818TIP3    H217461   3.605   2.001   0.292 -0.3084  1.1607 -0.0301
 5819TIP3   OH217462   6.125   1.672   3.116 -0.0042 -0.6711  0.3087
 5819TIP3    H117463   6.184   1.718   3.175  0.7767 -1.8618  0.4928
 5819TIP3    H217464   6.103   1.591   3.162  0.7277 -1.6839 -1.0303
 5820TIP3   OH217465   4.086   0.983   1.964  0.9551  0.2947  0.0429
 5820TIP3    H117466   4.149   0.942   1.906  3.2380 -0.2734  2.7214
 5820TIP3    H217467   4.100   0.940   2.049 -1.5339  1.7175  1.2898
 5821TIP3   OH217468   3.829   3.837   0.587  0.4072 -0.5334 -0.2695
 5821TIP3    H117469   3.906   3.780   0.579 -0.6698 -1.8452 -2.3727
 5821TIP3    H217470   3.755   3.776   0.588 -0.6570  0.6763  2.0262
 5822TIP3   OH217471   3.448   4.312   4.061  0.3512  0.8399 -0.5475
 5822TIP3    H117472   3.412   4.237   4.013  0.5804 -0.2582  0.9179
 5822TIP3    H217473   3.393   4.319   4.139  1.5278  0.9262  0.3052
 5823TIP3   OH217474   3.917   2.482   0.242  0.0639 -0.4514 -0.0961
 5823TIP3    H117475   3.844   2.425   0.264  0.2721 -0.5577  0.3305
 5823TIP3    H217476   3.991   2.447   0.291 -0.3024  1.5337  2.0685
 5824TIP3   OH217477   4.031   2.479   5.187  0.4866 -0.7414 -0.0888
 5824TIP3    H117478   4.002   2.490   5.096  2.3374 -1.8751 -0.8790
 5824TIP3    H217479   3.956   2.508   5.239 -0.5953  0.0654 -1.9581
 5825TIP3   OH217480   6.255   0.342   0.321 -0.2363 -0.4858 -0.0220
 5825TIP3    H117481   6.293   0.286   0.253 -0.9409  1.5875 -2.2760
 5825TIP3    H217482   6.309   0.421   0.320 -0.3728 -0.3276  1.7664
 5826TIP3   OH217483   2.562   5.867   1.841 -0.0149  0.3992 -0.3165
 5826TIP3    H117484   2.591   5.777   1.824  1.5808  0.5840  1.1074
 5826TIP3    H217485   2.520   5.863   1.927 -0.3765  0.9280 -0.4643
 5827TIP3   OH217486   1.147   0.160   0.790 -0.2643 -0.0641  0.4800
 5827TIP3    H117487   1.210   0.100   0.750  0.3973  0.9275 -0.0194
 5827TIP3    H217488   1.084   0.103   0.835  0.2563 -1.1209 -0.0936
 5828TIP3   OH217489   2.962   4.791   2.401 -0.1361  0.2140  0.2710
 5828TIP3    H117490   2.981   4.841   2.322 -1.0244  0.6686  0.3297
 5828TIP3    H217491   3.042   4.798   2.454 -0.6816  2.7783  0.9019
 5829TIP3   OH217492   3.444   2.475   0.540  0.3317  0.4732 -0.0119
 5829TIP3    H117493   3.405   2.436   0.462 -1.3775  0.1534  0.9682
 5829TIP3    H217494   3.532   2.502   0.511  0.3037 -0.9676 -1.6314
 5830TIP3   OH217495   3.675   3.818   3.932 -0.4914 -0.2073 -0.2137
 5830TIP3    H117496   3.656   3.888   3.994  0.6247  1.1259 -1.3291
 5830TIP3    H217497   3.690   3.862   3.849 -1.2995 -1.9106 -1.3078
 5831TIP3   OH217498   5.988   3.125   3.423  0.2532 -0.2512 -0.2829
 5831TIP3    H117499   5.916   3.163   3.373  1.1277  0.7470 -0.8104
 5831TIP3    H217500   6.004   3.040   3.381  0.0772 -0.0183 -0.8244
 5832TIP3   OH217501   1.537   4.831   4.073 -0.0161  0.3528  0.0502
 5832TIP3    H117502   1.512   4.738   4.067  2.0938 -0.2718 -0.0060
 5832TIP3    H217503   1.584   4.848   3.992  1.1060  0.9472  0.7929
 5833TIP3   OH217504   5.208   3.373   2.338  0.0544 -0.1070  0.4418
 5833TIP3    H117505   5.271   3.435   2.374 -0.6995  0.0121  1.6282
 5833TIP3    H217506   5.245   3.287   2.358  1.0126 -0.0672 -1.0444
 5834TIP3   OH217507   5.767   5.290   1.883 -0.0591  0.1408 -1.0133
 5834TIP3    H117508   5.861   5.284   1.897  0.0708 -0.6446 -2.1050
 5834TIP3    H217509   5.729   5.288   1.971  0.9558  1.0386 -0.5334
 5835TIP3   OH217510   2.748   2.003   3.477  0.2913 -0.0534 -0.2712
 5835TIP3    H117511   2.809   1.945   3.523  0.8131  0.5978 -0.1360
 5835TIP3    H217512   2.705   2.052   3.546 -0.6872 -0.7843 -0.3409
 5836TIP3   OH217513   3.447   1.705   0.766  0.0885 -0.0479 -0.2665
 5836TIP3    H117514   3.407   1.626   0.803 -1.6080  1.1292  0.5475
 5836TIP3    H217515   3.388   1.732   0.697 -0.2285  1.3676  0.5150
 5837TIP3   OH217516   2.178   3.900   3.239  0.3109  0.3863  0.4686
 5837TIP3    H117517   2.227   3.867   3.164 -1.5733 -0.8080 -0.3166
 5837TIP3    H217518   2.185   3.830   3.304 -0.6431 -0.0008  0.1824
 5838TIP3   OH217519   0.374   4.077   3.897  0.3043  0.0576 -0.0274
 5838TIP3    H117520   0.463   4.058   3.867  0.8561 -0.5693  1.8616
 5838TIP3    H217521   0.361   4.169   3.874  1.2291  0.0138 -0.8042
 5839TIP3   OH217522   1.358   5.937   0.358  0.3220  0.5908  0.1035
 5839TIP3    H117523   1.415   5.861   0.358 -0.7675 -0.2553  0.3007
 5839TIP3    H217524   1.312   5.933   0.442 -0.0397  1.2325 -0.0530
 5840TIP3   OH217525   0.493   2.125   0.624 -0.2217 -0.2617 -0.7746
 5840TIP3    H117526   0.491   2.116   0.529  1.6310 -2.2495 -0.6978
 5840TIP3    H217527   0.556   2.059   0.654  0.0145  0.9733  1.7651
 5841TIP3   OH217528   0.179   2.402   4.946 -0.5513  0.0378  0.0432
 5841TIP3    H117529   0.221   2.409   5.031 -0.4513 -0.2053  0.0133
 5841TIP3    H217530   0.114   2.472   4.946  0.7207  1.2513 -0.4171
 5842TIP3   OH217531   3.789   0.915   1.197 -0.3149 -0.4369  0.3862
 5842TIP3    H117532   3.851   0.861   1.150  0.1644  0.2722  0.1829
 5842TIP3    H217533   3.737   0.854   1.249  0.8450 -1.0110  0.9110
 5843TIP3   OH217534   2.201   3.662   2.939 -0.0990  0.0015  0.0284
 5843TIP3    H117535   2.171   3.657   2.848 -2.3894 -0.0263  0.7188
 5843TIP3    H217536   2.180   3.576   2.975  1.7177 -0.3425  0.3742
 5844TIP3   OH217537   1.575   5.076   3.670 -0.4850 -0.8533 -0.1030
 5844TIP3    H117538   1.507   5.095   3.605 -0.3614 -1.0983 -0.3118
 5844TIP3    H217539   1.657   5.082   3.621 -0.2821  0.3698  0.3634
 5845TIP3   OH217540   0.822   3.870   3.660 -0.0031  0.1048  0.5442
 5845TIP3    H117541   0.900   3.883   3.714 -0.8120 -1.6254  2.2563
 5845TIP3    H217542   0.838   3.787   3.615 -0.5330  0.1052  0.3477
 5846TIP3   OH217543   4.823   0.947   4.243 -0.1157  0.2338  0.4320
 5846TIP3    H117544   4.868   1.011   4.188 -1.1664  0.0284 -0.7035
 5846TIP3    H217545   4.838   0.863   4.200 -0.1698 -0.0557  0.9726
 5847TIP3   OH217546   2.634   3.054   3.452  0.1960 -0.5141  0.2835
 5847TIP3    H117547   2.725   3.075   3.429 -0.5171 -0.6508 -3.1155
 5847TIP3    H217548   2.598   3.135   3.486  0.8717  0.3490 -0.9796
 5848TIP3   OH217549   3.030   3.411   2.748  0.5913 -0.2305 -1.0681
 5848TIP3    H117550   2.968   3.482   2.759 -0.5650 -1.0872 -1.7671
 5848TIP3    H217551   3.088   3.417   2.823 -0.1461  0.7937 -0.5612
 5849TIP3   OH217552   1.770   0.339   3.041  0.0838  0.1290 -0.4401
 5849TIP3    H117553   1.696   0.314   2.985 -0.4807 -0.3635  0.5048
 5849TIP3    H217554   1.838   0.275   3.021 -1.0825 -1.8044  1.4046
 5850TIP3   OH217555   5.706   5.071   2.948 -0.0756 -0.2493 -0.3275
 5850TIP3    H117556   5.784   5.053   3.002  0.4683  1.4470 -0.4884
 5850TIP3    H217557   5.657   5.136   2.998 -0.6359 -0.2167 -0.9158
 5851TIP3   OH217558   0.356   3.257   1.466  0.1588 -0.0705 -0.3305
 5851TIP3    H117559   0.372   3.175   1.514  1.0120 -0.4641 -1.2551
 5851TIP3    H217560   0.336   3.229   1.377  1.5303  0.7604 -0.9261
 5852TIP3   OH217561   0.303   0.701   2.841 -0.0601  0.1253 -0.1302
 5852TIP3    H117562   0.210   0.685   2.826  0.2813 -1.1999 -0.8953
 5852TIP3    H217563   0.306   0.739   2.929 -1.2206 -0.8815  0.3727
 5853TIP3   OH217564   0.026   0.172   1.764 -0.5753 -0.1195  0.1558
 5853TIP3    H117565   0.052   0.088   1.802  0.9994  1.1083  1.9957
 5853TIP3    H217566   0.073   0.177   1.681  0.0991 -0.6294  0.5039
 5854TIP3   OH217567   5.094   4.078   1.779 -0.2149  0.2993 -0.1045
 5854TIP3    H117568   5.065   4.065   1.870  0.0423  1.1189  0.1037
 5854TIP3    H217569   5.135   3.996   1.755 -0.6525 -0.0686  0.3873
 5855TIP3   OH217570   0.966   1.872   1.908  0.2075  0.0371  0.4831
 5855TIP3    H117571   0.944   1.888   2.000 -0.2621  0.7041  0.2613
 5855TIP3    H217572   0.945   1.954   1.864  0.0166 -0.4243 -0.3023
 5856TIP3   OH217573   4.853   3.602   2.416  0.3691 -0.2381 -0.3708
 5856TIP3    H117574   4.860   3.590   2.510  1.1422  0.9372 -0.2608
 5856TIP3    H217575   4.759   3.596   2.398  0.0313  1.2561  0.7413
 5857TIP3   OH217576   3.732   3.476   3.131 -0.0399  0.3687  0.1992
 5857TIP3    H117577   3.693   3.394   3.164 -0.1945  0.5055  0.3602
 5857TIP3    H217578   3.814   3.484   3.178 -0.0214  0.3030  0.1790
 5858TIP3   OH217579   0.819   4.161   1.901 -0.3288  0.0244  0.1038
 5858TIP3    H117580   0.840   4.069   1.919  0.6085 -0.2167 -1.9592
 5858TIP3    H217581   0.742   4.158   1.844  0.6769  0.3957 -1.3291
 5859TIP3   OH217582   5.309   0.537   4.557 -0.2791  0.2170 -0.3390
 5859TIP3    H117583   5.278   0.625   4.579  1.3594  0.7907 -0.1316
 5859TIP3    H217584   5.336   0.500   4.641  0.5332  0.1583 -0.6097
 5860TIP3   OH217585   0.614   0.681   2.988 -0.2090  0.3131  0.3723
 5860TIP3    H117586   0.702   0.645   2.983 -0.4825 -0.3035 -0.0696
 5860TIP3    H217587   0.575   0.662   2.903 -0.2203  2.0494 -0.0351
 5861TIP3   OH217588   6.108   5.990   2.970 -0.5022  0.7327  0.2746
 5861TIP3    H117589   6.021   6.025   2.990 -2.2904 -1.9396 -2.1245
 5861TIP3    H217590   6.093   5.922   2.905  3.3069 -0.7158  0.6389
 5862TIP3   OH217591   5.156   1.846   0.199  0.1797 -0.2998  0.2009
 5862TIP3    H117592   5.139   1.754   0.221  2.0423 -1.3281 -2.0990
 5862TIP3    H217593   5.116   1.857   0.112  1.8782  0.3427 -0.5426
 5863TIP3   OH217594   2.112   3.507   1.987  0.4674  0.1494  0.7411
 5863TIP3    H117595   2.051   3.576   2.013 -0.6397 -0.1812 -0.8650
 5863TIP3    H217596   2.135   3.463   2.069 -0.7785  0.8162  1.4742
 5864TIP3   OH217597   2.123   2.126   2.620  0.0797 -0.5123  0.1711
 5864TIP3    H117598   2.052   2.064   2.601 -0.3607  0.3611 -1.2279
 5864TIP3    H217599   2.082   2.193   2.675  0.0326 -0.4271  0.0321
 5865TIP3   OH217600   4.174   5.147   2.222  0.1175  0.2731 -0.3469
 5865TIP3    H117601   4.233   5.180   2.155 -0.5235 -0.9852 -1.5806
 5865TIP3    H217602   4.091   5.191   2.205  0.1946  0.6533  0.2285
 5866TIP3   OH217603   0.895   1.488   4.245 -0.5349 -0.5871  0.1623
 5866TIP3    H117604   0.897   1.416   4.308 -0.4833 -1.3997 -0.7405
 5866TIP3    H217605   0.979   1.533   4.256  0.5023 -2.1580 -0.9202
 5867TIP3   OH217606   6.285   5.310   0.235 -0.0108  0.2311 -0.3985
 5867TIP3    H117607   6.203   5.340   0.197  0.3484  1.5110 -0.2288
 5867TIP3    H217608   6.342   5.294   0.159  0.1143  0.9989 -0.4806
 5868TIP3   OH217609   3.269   1.750   3.472 -0.3738  0.0824 -0.1432
 5868TIP3    H117610   3.302   1.802   3.399  0.3397 -1.2075 -0.7852
 5868TIP3    H217611   3.175   1.740   3.453 -0.2615  0.0471 -0.7167
 5869TIP3   OH217612   4.021   3.222   1.577  0.0263 -0.1481 -0.0375
 5869TIP3    H117613   4.022   3.195   1.668 -0.7410 -1.4958 -0.4021
 5869TIP3    H217614   4.074   3.157   1.532 -1.5664 -0.9118 -0.8945
 5870TIP3   OH217615   2.888   5.641   0.635 -0.0522 -0.3661 -0.2546
 5870TIP3    H117616   2.817   5.703   0.652  0.4938 -0.0260  0.8872
 5870TIP3    H217617   2.852   5.556   0.659 -0.2651 -0.2664 -0.2217
 5871TIP3   OH217618   1.192   0.936   4.692 -0.0002  0.3562 -0.2492
 5871TIP3    H117619   1.258   0.961   4.757  0.8626 -2.1446 -0.0749
 5871TIP3    H217620   1.244   0.911   4.615 -0.9558  1.9048 -1.4573
 5872TIP3   OH217621   4.317   2.377   2.152  0.3375  0.2344 -0.2112
 5872TIP3    H117622   4.244   2.438   2.155 -0.5343 -0.4169 -3.6030
 5872TIP3    H217623   4.393   2.432   2.132 -0.2796  0.4261 -2.2892
 5873TIP3   OH217624   2.315   3.730   2.587  0.0712 -0.1187  0.1129
 5873TIP3    H117625   2.254   3.764   2.521 -0.4684 -0.7208  0.2814
 5873TIP3    H217626   2.387   3.793   2.589  1.4696 -1.4131 -2.9809
 5874TIP3   OH217627   2.454   1.127   1.621  0.1436 -0.0814 -0.2731
 5874TIP3    H117628   2.521   1.132   1.552 -1.8665  0.9772 -2.2605
 5874TIP3    H217629   2.386   1.071   1.585 -1.1363  0.8010  0.6724
 5875TIP3   OH217630   5.445   5.939   2.527  0.1871  0.1745  0.0694
 5875TIP3    H117631   5.445   5.996   2.449  0.4492 -0.3382 -0.3071
 5875TIP3    H217632   5.522   5.884   2.516  0.9529  0.9569  1.3410
 5876TIP3   OH217633   5.179   5.648   0.157 -0.5505  0.0479  0.0949
 5876TIP3    H117634   5.231   5.692   0.090 -0.3043  0.4150  0.5246
 5876TIP3    H217635   5.098   5.698   0.163 -1.0053 -0.5695 -0.6301
 5877TIP3   OH217636   5.557   2.502   0.152 -0.0437 -0.1956 -0.3030
 5877TIP3    H117637   5.518   2.577   0.197  0.4295  1.4889 -2.4831
 5877TIP3    H217638   5.611   2.459   0.218  0.0087  1.6456  0.9255
 5878TIP3   OH217639   5.414   4.539   4.311 -0.2087  0.3971  0.0781
 5878TIP3    H117640   5.343   4.498   4.263 -1.7077  2.7363  0.1415
 5878TIP3    H217641   5.493   4.496   4.279 -1.5895 -2.1632 -0.1094
 5879TIP3   OH217642   4.549   0.114   3.910 -0.2321 -0.3622 -0.2104
 5879TIP3    H117643   4.557   0.022   3.884  1.3223 -0.0117 -1.1164
 5879TIP3    H217644   4.539   0.111   4.005  0.1022 -1.4563 -0.1892
 5880TIP3   OH217645   5.683   3.225   1.590 -0.0599  0.5410 -0.3749
 5880TIP3    H117646   5.593   3.209   1.619 -0.6146  0.3445 -2.0565
 5880TIP3    H217647   5.696   3.319   1.603 -0.3920  0.5143  0.1884
 5881TIP3   OH217648   4.176   1.647   1.444  0.6455  0.0477  0.7268
 5881TIP3    H117649   4.095   1.679   1.404  0.9567  0.3688  0.3380
 5881TIP3    H217650   4.156   1.640   1.537  0.0768 -0.1797  0.5963
 5882TIP3   OH217651   1.478   1.426   0.371  0.2259 -0.1319 -0.5508
 5882TIP3    H117652   1.483   1.498   0.309 -0.0990  0.8813  0.5512
 5882TIP3    H217653   1.561   1.380   0.362  1.1156  1.3466 -0.1573
 5883TIP3   OH217654   6.246   0.908   1.107 -0.1068  0.0794  0.4075
 5883TIP3    H117655   6.238   0.823   1.063 -1.6134  0.0734  0.6380
 5883TIP3    H217656   6.259   0.971   1.036 -0.0044 -0.2293  0.1495
 5884TIP3   OH217657   0.540   3.906   0.754 -0.4444 -0.5943  0.0552
 5884TIP3    H117658   0.611   3.851   0.721 -0.5363 -1.1130  0.6929
 5884TIP3    H217659   0.579   3.993   0.761  0.6849 -1.1629  1.9543
 5885TIP3   OH217660   2.470   3.312   0.107 -0.2604 -0.1088  0.5034
 5885TIP3    H117661   2.480   3.291   0.200 -0.3197  0.5496  0.6697
 5885TIP3    H217662   2.389   3.363   0.103 -0.4388 -0.4311  0.0374
 5886TIP3   OH217663   4.578   2.369   0.334  0.5252 -0.0494  0.3686
 5886TIP3    H117664   4.648   2.379   0.269 -0.3815  1.3917 -0.4342
 5886TIP3    H217665   4.502   2.342   0.282 -0.1464  0.8685  0.8545
 5887TIP3   OH217666   6.244   5.333   2.120  0.1153  0.1281 -0.1594
 5887TIP3    H117667   6.275   5.414   2.081  0.2625 -0.0526 -0.4216
 5887TIP3    H217668   6.255   5.346   2.214 -2.0057  1.3061 -0.0107
 5888TIP3   OH217669   4.033   2.075   3.689  0.5477  0.5956  0.1713
 5888TIP3    H117670   4.057   2.157   3.646  2.1510 -0.1015 -0.3050
 5888TIP3    H217671   4.020   2.100   3.780  0.1229  1.5385 -0.1296
 5889TIP3   OH217672   1.326   1.459   3.929  0.5273 -0.6831 -0.0482
 5889TIP3    H117673   1.404   1.478   3.980 -0.5659  1.4986  0.9243
 5889TIP3    H217674   1.343   1.372   3.891  3.0350 -0.6312  0.7710
 5890TIP3   OH217675   5.206   1.665  -0.028 -0.1649 -0.1800  0.1130
 5890TIP3    H117676   5.201   1.571  -0.010  1.2066 -0.1272  0.9767
 5890TIP3    H217677   5.261   1.699   0.043  1.2489  0.9049 -1.4396
 5891TIP3   OH217678   3.877   0.741   3.687  0.6712  0.1913  0.2656
 5891TIP3    H117679   3.898   0.653   3.717 -0.0650 -0.5687 -1.3344
 5891TIP3    H217680   3.902   0.798   3.760 -0.6878 -1.5076  2.1646
 5892TIP3   OH217681   3.718   4.870   3.191  0.6778  0.2379 -0.3363
 5892TIP3    H117682   3.761   4.857   3.275 -0.8134  1.4942  0.6961
 5892TIP3    H217683   3.771   4.937   3.147  2.2173 -1.3773 -1.0128
 5893TIP3   OH217684   5.255   2.616   4.391 -0.5000 -0.3037 -0.0124
 5893TIP3    H117685   5.199   2.652   4.459  1.4454  0.3525  1.3276
 5893TIP3    H217686   5.326   2.572   4.439  1.2947  0.7492 -1.5439
 5894TIP3   OH217687   5.111   0.106   2.340 -1.1010  0.5942 -0.2126
 5894TIP3    H117688   5.132   0.101   2.247 -0.6435  0.4491 -0.1010
 5894TIP3    H217689   5.192   0.137   2.381 -0.7664 -0.9406  0.3453
 5895TIP3   OH217690   5.821   0.650   2.054  0.0804 -0.0128  0.5444
 5895TIP3    H117691   5.875   0.684   1.983  1.0639 -0.7611  0.9056
 5895TIP3    H217692   5.735   0.635   2.014  0.5543 -0.2169 -0.4299
 5896TIP3   OH217693   0.223   1.253   1.069 -0.0553  0.2510  0.1396
 5896TIP3    H117694   0.155   1.212   1.122  0.1641 -2.2881 -1.3505
 5896TIP3    H217695   0.287   1.285   1.132 -0.9345 -0.5087  1.4658
 5897TIP3   OH217696   0.210   5.720   3.352 -0.4312 -0.0653 -0.7010
 5897TIP3    H117697   0.241   5.632   3.370 -1.7299 -0.0141  2.5301
 5897TIP3    H217698   0.289   5.769   3.328  0.8084 -1.4669  0.3197
 5898TIP3   OH217699   3.146   4.392   2.309 -0.1906  0.1046 -0.0122
 5898TIP3    H117700   3.196   4.464   2.347  0.6362 -0.3563 -0.2072
 5898TIP3    H217701   3.169   4.316   2.363 -0.0081 -0.2850 -0.6311
 5899TIP3   OH217702   4.638   1.655   4.963  0.0674  0.3583 -0.2816
 5899TIP3    H117703   4.695   1.578   4.971 -0.2120  0.1838 -0.0007
 5899TIP3    H217704   4.675   1.718   5.024 -0.9278 -0.2908  1.0192
 5900TIP3   OH217705   4.244   5.371   2.415 -0.5498 -0.8171 -0.2355
 5900TIP3    H117706   4.157   5.333   2.426 -0.1822 -1.5358  0.2723
 5900TIP3    H217707   4.249   5.393   2.322 -1.0525 -1.3229 -0.3875
 5901TIP3   OH217708   4.558   4.246   0.323  0.0487  0.3710 -0.4355
 5901TIP3    H117709   4.560   4.317   0.259  0.8061  1.1092  0.3706
 5901TIP3    H217710   4.607   4.175   0.282  1.5861  1.2660 -0.2167
 5902TIP3   OH217711   4.399   1.595   3.683 -0.1881 -1.0416  0.4245
 5902TIP3    H117712   4.310   1.603   3.718  0.1741  1.1031  0.9696
 5902TIP3    H217713   4.456   1.618   3.757  0.6802  0.7848 -0.7390
 5903TIP3   OH217714   4.790   1.771   3.007 -0.0921 -0.0296 -0.1645
 5903TIP3    H117715   4.700   1.739   3.000  0.5141 -1.8482 -0.3366
 5903TIP3    H217716   4.829   1.717   3.077  0.4109  1.8980  1.1079
 5904TIP3   OH217717   2.534   2.316   0.890 -0.1067  0.3620  0.5317
 5904TIP3    H117718   2.505   2.397   0.848  1.8733  0.4451 -0.7635
 5904TIP3    H217719   2.495   2.246   0.838 -0.0686  0.4719  0.3575
 5905TIP3   OH217720   3.863   0.376   1.568 -0.4627  0.3893 -0.5385
 5905TIP3    H117721   3.911   0.454   1.595 -1.5148  1.2246 -0.9882
 5905TIP3    H217722   3.925   0.327   1.514  0.3949  0.6163  0.2292
 5906TIP3   OH217723   5.772   1.659   4.306  0.5959  0.6837 -0.1492
 5906TIP3    H117724   5.737   1.606   4.234 -1.8065 -1.7299  2.5424
 5906TIP3    H217725   5.824   1.597   4.357  0.7857  1.8835  1.1505
 5907TIP3   OH217726   2.655   4.866   1.187 -0.2275  0.2802 -0.1743
 5907TIP3    H117727   2.715   4.835   1.254 -0.5775 -1.7945 -0.7669
 5907TIP3    H217728   2.575   4.888   1.235  0.3673  1.3068  0.3795
 5908TIP3   OH217729   1.367   3.380   3.998 -0.0042  0.2487 -0.0067
 5908TIP3    H117730   1.361   3.296   3.952  0.0170  1.0006 -1.4413
 5908TIP3    H217731   1.395   3.357   4.087 -2.0258 -1.4339  0.2794
 5909TIP3   OH217732   1.168   5.154   1.279  0.3007  0.3877  0.2299
 5909TIP3    H117733   1.089   5.158   1.225 -0.0085  0.6958  0.6958
 5909TIP3    H217734   1.196   5.063   1.274 -0.2176  0.2242  0.2490
 5910TIP3   OH217735   6.084   5.812   4.823  0.0999  0.2129 -0.1651
 5910TIP3    H117736   6.096   5.799   4.729 -1.5346 -0.2365 -0.3479
 5910TIP3    H217737   5.991   5.793   4.838  0.1460  1.0520  1.4095
 5911TIP3   OH217738   2.500   4.816   0.598 -0.3355 -0.1955 -0.9416
 5911TIP3    H117739   2.547   4.838   0.517  0.6924  2.1570  0.1931
 5911TIP3    H217740   2.567   4.820   0.666 -1.4632 -0.6300  0.2327
 5912TIP3   OH217741   1.607   5.455   3.079 -0.6598  0.2531 -0.1235
 5912TIP3    H117742   1.550   5.508   3.134 -0.4014  0.8628 -0.4386
 5912TIP3    H217743   1.549   5.388   3.042 -0.6184 -0.9607  1.8470
 5913TIP3   OH217744   1.097   1.525   1.519 -0.4734 -0.2286 -0.0520
 5913TIP3    H117745   1.109   1.441   1.564 -3.8470 -1.2381 -0.7508
 5913TIP3    H217746   1.050   1.579   1.583 -0.2597  0.3584 -0.3863
 5914TIP3   OH217747   2.785   2.518   3.180 -0.2067  0.1449 -0.8080
 5914TIP3    H117748   2.760   2.485   3.093 -0.3971 -1.3192 -0.2206
 5914TIP3    H217749   2.792   2.440   3.234 -1.7689  1.1372  0.9379
 5915TIP3   OH217750   2.327   4.706   2.387 -0.6404 -0.0599 -0.4177
 5915TIP3    H117751   2.366   4.649   2.321 -1.0008 -1.1895  0.3154
 5915TIP3    H217752   2.232   4.699   2.373 -0.6943  0.1822 -0.1907
 5916TIP3   OH217753   5.150   1.593   1.130  0.4846  0.1592 -0.3904
 5916TIP3    H117754   5.237   1.634   1.130 -0.6223  2.6954 -0.6263
 5916TIP3    H217755   5.140   1.559   1.219  1.8570 -0.5850 -0.4847
 5917TIP3   OH217756   3.238   5.247   1.507 -0.2428 -0.3835  0.0962
 5917TIP3    H117757   3.152   5.259   1.467 -0.7874  0.2036  1.3929
 5917TIP3    H217758   3.291   5.208   1.438 -2.0341 -2.5376 -0.1854
 5918TIP3   OH217759   4.305   2.291   0.804  0.3714  0.3808  0.1180
 5918TIP3    H117760   4.274   2.352   0.737 -2.4748 -0.1981  0.7782
 5918TIP3    H217761   4.327   2.212   0.755 -0.2345  0.4568 -0.2882
 5919TIP3   OH217762   5.426   0.829   2.762 -0.2627 -0.6247 -0.3042
 5919TIP3    H117763   5.441   0.922   2.748 -0.7786 -0.3254  0.9742
 5919TIP3    H217764   5.511   0.788   2.747  0.0197  0.0850 -0.6524
 5920TIP3   OH217765   5.783   5.183   4.817 -0.8323 -0.0838  0.2288
 5920TIP3    H117766   5.876   5.181   4.796 -0.7165 -0.2846  0.7474
 5920TIP3    H217767   5.745   5.244   4.754 -0.8122 -1.9825 -1.7393
 5921TIP3   OH217768   3.190   4.850   0.374  0.3038 -0.1256  0.4288
 5921TIP3    H117769   3.224   4.822   0.290  1.8290  0.1515  0.9273
 5921TIP3    H217770   3.233   4.934   0.391 -2.3548  1.4346  0.0661
 5922TIP3   OH217771   0.911   1.166   5.102 -0.1621 -0.5490  0.0787
 5922TIP3    H117772   0.877   1.120   5.179  0.0225 -1.5620 -0.4244
 5922TIP3    H217773   1.006   1.156   5.107 -0.1762 -1.0603 -0.5403
 5923TIP3   OH217774   4.614   2.408   3.036 -0.1177 -0.0937  0.3428
 5923TIP3    H117775   4.636   2.492   2.997 -2.3762  0.4977  0.2067
 5923TIP3    H217776   4.585   2.354   2.963 -1.5699  0.0558  0.7684
 5924TIP3   OH217777   2.219   5.394   1.456 -0.2093 -0.0909  0.0165
 5924TIP3    H117778   2.293   5.430   1.505 -0.5999  0.5453  0.1417
 5924TIP3    H217779   2.143   5.441   1.488 -0.8740 -1.6515  0.8156
 5925TIP3   OH217780   3.278   4.436   2.620 -0.5041  0.0577 -0.0112
 5925TIP3    H117781   3.232   4.373   2.676 -1.0915  1.1405  0.7589
 5925TIP3    H217782   3.362   4.394   2.602 -0.4871 -0.5320  1.3039
 5926TIP3   OH217783   5.118   5.759   5.180 -0.1561 -0.3579 -0.1909
 5926TIP3    H117784   5.056   5.686   5.177 -0.5012 -0.0825  0.1121
 5926TIP3    H217785   5.064   5.836   5.164  0.0495 -0.0786  0.4533
 5927TIP3   OH217786   5.284   2.271   0.645  0.2577 -0.0149  0.3660
 5927TIP3    H117787   5.289   2.177   0.666  0.3706  0.4570  2.7551
 5927TIP3    H217788   5.191   2.291   0.650  0.3397  0.2215  1.0875
 5928TIP3   OH217789   6.234   1.835   0.061  0.0796  0.5298 -0.4552
 5928TIP3    H117790   6.312   1.793   0.097 -1.5270 -1.0894  1.3597
 5928TIP3    H217791   6.207   1.777  -0.010 -0.0726  0.5027 -0.3744
 5929TIP3   OH217792   1.745   1.948   3.414  0.2383  0.4173  0.9727
 5929TIP3    H117793   1.710   1.968   3.501  1.7004  2.2127  1.1924
 5929TIP3    H217794   1.796   2.025   3.390  0.4821 -0.3569 -1.1774
 5930TIP3   OH217795   5.895   3.081   1.699 -0.3389 -0.4913  0.1790
 5930TIP3    H117796   5.951   3.158   1.703 -1.1887  0.0864  2.2053
 5930TIP3    H217797   5.812   3.113   1.665  0.4652 -1.3617 -2.8987
 5931TIP3   OH217798   1.572   5.946   3.715  0.4193  0.3307 -0.3128
 5931TIP3    H117799   1.600   5.995   3.638 -0.6657  2.4803  0.5787
 5931TIP3    H217800   1.624   5.982   3.787 -2.0599  2.0354  0.7705
 5932TIP3   OH217801   4.542   1.332   1.945  0.4632  0.3602  0.4179
 5932TIP3    H117802   4.467   1.330   1.885  0.2371  0.3673  0.6976
 5932TIP3    H217803   4.553   1.242   1.974  1.1660  0.1856 -0.3573
 5933TIP3   OH217804   0.314   4.328   0.729 -0.2228  0.2637  0.0597
 5933TIP3    H117805   0.301   4.286   0.814 -0.1723 -0.2427 -0.1796
 5933TIP3    H217806   0.399   4.296   0.699  1.5125  3.2105  1.4248
 5934TIP3   OH217807   4.936   5.371   1.219 -0.3316 -0.4283  0.2753
 5934TIP3    H117808   4.976   5.397   1.302 -0.2506 -1.1382  0.4665
 5934TIP3    H217809   4.989   5.415   1.153  1.6303 -2.3661  0.4591
 5935TIP3   OH217810   3.734   1.935   4.043  0.2355 -0.3631 -0.0642
 5935TIP3    H117811   3.754   1.954   3.951  1.4937  0.5469  0.3649
 5935TIP3    H217812   3.819   1.944   4.088 -0.1430 -1.8832  1.0219
 5936TIP3   OH217813   2.551   0.991   1.894 -0.4258  0.0083 -0.0535
 5936TIP3    H117814   2.464   0.987   1.856 -0.5595 -0.1690  0.2626
 5936TIP3    H217815   2.536   1.022   1.984 -0.2443 -0.7797  0.2506
 5937TIP3   OH217816   0.586   3.527   2.008  0.0871 -0.6627  0.2931
 5937TIP3    H117817   0.570   3.513   2.102 -1.7033 -0.9539 -0.0139
 5937TIP3    H217818   0.628   3.446   1.979 -0.2784 -0.9934  0.6610
 5938TIP3   OH217819   2.467   3.204   4.152 -0.2159  0.4301  0.0704
 5938TIP3    H117820   2.455   3.125   4.205  0.5730  0.7675  0.7924
 5938TIP3    H217821   2.450   3.276   4.213 -0.9942  0.8206 -0.5979
 5939TIP3   OH217822   3.862   2.235   2.461 -0.4852  0.5796 -0.3408
 5939TIP3    H117823   3.841   2.143   2.443  0.1844  0.5032 -0.7385
 5939TIP3    H217824   3.881   2.237   2.555 -1.9881  0.6011 -0.0113
 5940TIP3   OH217825   1.741   0.469   0.260  0.1222  0.2802  0.1478
 5940TIP3    H117826   1.802   0.405   0.224  1.7969 -0.2892  3.5331
 5940TIP3    H217827   1.669   0.416   0.295 -0.1371  0.5486  0.0221
 5941TIP3   OH217828   0.217   1.423   0.355  0.3977  0.5294 -0.1760
 5941TIP3    H117829   0.177   1.474   0.426 -0.6817 -1.4406  0.7004
 5941TIP3    H217830   0.309   1.417   0.378  0.4481  1.6209 -0.0322
 5942TIP3   OH217831   5.915   2.646   3.300 -0.0328 -0.3008 -0.4469
 5942TIP3    H117832   5.994   2.634   3.353  1.1877  1.5307 -1.7214
 5942TIP3    H217833   5.907   2.565   3.249  1.1890 -0.4193 -0.4715
 5943TIP3   OH217834   4.937   0.537   1.433 -0.1685 -0.1366  0.2041
 5943TIP3    H117835   4.893   0.490   1.504 -1.8287 -0.1157 -0.7716
 5943TIP3    H217836   4.979   0.611   1.477  1.7793 -1.9595  1.6441
 5944TIP3   OH217837   3.878   2.763   4.672 -0.7269 -0.0756 -0.2524
 5944TIP3    H117838   3.789   2.729   4.683 -0.4103 -0.8461 -0.0518
 5944TIP3    H217839   3.886   2.779   4.578 -1.4074  0.9331 -0.1571
 5945TIP3   OH217840   2.020   0.980   4.724 -0.0075 -0.0304  0.0750
 5945TIP3    H117841   2.073   0.986   4.804 -0.2386  0.2580  0.2066
 5945TIP3    H217842   2.081   1.000   4.653  0.1148  0.0730  0.2096
 5946TIP3   OH217843   4.777   1.695   2.155  0.2544  0.0918 -0.1824
 5946TIP3    H117844   4.713   1.636   2.114 -0.2179 -0.5941  1.4250
 5946TIP3    H217845   4.844   1.708   2.088 -0.6002 -0.7395 -1.2482
 5947TIP3   OH217846   1.620   0.084   0.041 -0.2941 -0.3268  0.7450
 5947TIP3    H117847   1.536   0.037   0.046 -2.2609  2.8053  0.1924
 5947TIP3    H217848   1.641   0.085  -0.052  0.5643 -1.3570  0.9132
 5948TIP3   OH217849   0.046   3.807   4.132 -0.4550 -0.1504  0.3070
 5948TIP3    H117850   0.003   3.806   4.218 -0.7582  0.4124  0.1655
 5948TIP3    H217851  -0.024   3.787   4.070 -0.1227 -1.1144  0.2307
 5949TIP3   OH217852   4.437   3.677   1.170  0.8117  0.1879  0.5356
 5949TIP3    H117853   4.379   3.601   1.166  0.5752  0.3089  1.3413
 5949TIP3    H217854   4.409   3.734   1.099  0.9179 -0.4267 -0.0026
 5950TIP3   OH217855   4.269   5.980   1.199  0.1784  0.2567  0.2146
 5950TIP3    H117856   4.276   5.886   1.187 -2.5475  0.1489 -1.6533
 5950TIP3    H217857   4.336   6.017   1.142 -1.5182 -0.6272 -2.5852
 5951TIP3   OH217858   1.509   4.538   1.018  0.1707  0.2866  0.5587
 5951TIP3    H117859   1.576   4.545   0.950  0.7006  0.3923  1.0822
 5951TIP3    H217860   1.520   4.617   1.071 -0.6351  0.5065  0.4242
 5952TIP3   OH217861   1.191   3.158   0.949  0.5177  0.5292  0.2674
 5952TIP3    H117862   1.253   3.230   0.933 -0.9230  1.8725  0.5284
 5952TIP3    H217863   1.198   3.140   1.042  3.7500 -2.4814 -0.3258
 5953TIP3   OH217864   4.446   3.973   0.467 -0.2329  0.3803  0.1368
 5953TIP3    H117865   4.496   3.891   0.473  2.2063  1.8136  0.2743
 5953TIP3    H217866   4.492   4.034   0.524 -2.4644  1.6858  0.6582
 5954TIP3   OH217867   4.081   1.141   0.744  0.2607 -0.4278 -0.1311
 5954TIP3    H117868   4.173   1.167   0.741 -0.3319  1.7885 -2.2808
 5954TIP3    H217869   4.072   1.075   0.675  0.3007 -1.0267  0.4226
 5955TIP3   OH217870   3.320   5.864   4.416  0.8148 -0.1873  0.4146
 5955TIP3    H117871   3.269   5.892   4.341  1.4176  0.2368  0.1525
 5955TIP3    H217872   3.296   5.925   4.486  1.0256  0.0730  0.2631
 5956TIP3   OH217873   4.992   3.918   1.249  0.4177  0.1126  0.4394
 5956TIP3    H117874   5.046   3.842   1.230  0.6055  0.5731 -0.9900
 5956TIP3    H217875   4.903   3.890   1.228  0.4423  0.1771  0.2476
 5957TIP3   OH217876   1.304   3.230   3.417 -0.3490 -0.2337  0.1749
 5957TIP3    H117877   1.271   3.294   3.479  0.1395  0.7584 -0.5649
 5957TIP3    H217878   1.302   3.147   3.465 -1.3257  0.2550  1.0261
 5958TIP3   OH217879   3.572   3.338   3.299  0.1552 -0.1535  0.8977
 5958TIP3    H117880   3.629   3.277   3.345 -0.1751  0.1488  1.7305
 5958TIP3    H217881   3.569   3.415   3.355 -0.5323  0.0884  0.5411
 5959TIP3   OH217882   5.000   4.397   4.830 -0.2557  0.4247 -0.4640
 5959TIP3    H117883   4.933   4.333   4.852 -1.1674  1.4024 -0.2610
 5959TIP3    H217884   5.083   4.350   4.836 -0.9269 -0.8540 -0.8400
 5960TIP3   OH217885   3.997   3.014   4.309 -0.1208  0.2899  0.2601
 5960TIP3    H117886   4.077   3.063   4.292  0.8948 -1.7483 -1.2261
 5960TIP3    H217887   3.941   3.076   4.356  1.2035  2.6935 -1.1253
 5961TIP3   OH217888   0.246   4.411   4.595  0.6354 -0.5541 -0.4956
 5961TIP3    H117889   0.166   4.457   4.617  0.7018 -1.0822  0.9271
 5961TIP3    H217890   0.313   4.479   4.587  0.2063 -0.1839 -1.0015
 5962TIP3   OH217891   2.714   5.785   3.680  0.5955  0.0393 -0.0450
 5962TIP3    H117892   2.633   5.799   3.728  1.2165  0.0229  1.0488
 5962TIP3    H217893   2.726   5.865   3.629 -0.4541 -0.2454 -0.7699
 5963TIP3   OH217894   2.864   3.620   2.790  0.1786  0.3524  0.4111
 5963TIP3    H117895   2.774   3.609   2.756 -0.4910  2.4077  1.3807
 5963TIP3    H217896   2.855   3.683   2.861  2.4001  0.4470  0.6564
 5964TIP3   OH217897   1.943   3.202   5.115  0.2384 -0.3022 -0.0719
 5964TIP3    H117898   1.849   3.191   5.132  0.1530 -0.8941 -0.8836
 5964TIP3    H217899   1.951   3.291   5.082  0.2937  0.5772  2.1297
 5965TIP3   OH217900   0.026   1.012   4.477  0.2523 -0.3623  0.7106
 5965TIP3    H117901   0.007   1.022   4.571  1.8413 -0.8724  1.1169
 5965TIP3    H217902   0.023   0.917   4.462  1.2947 -0.3736  0.5428
 5966TIP3   OH217903   0.324   2.160   0.053 -0.8067 -0.2314  0.2276
 5966TIP3    H117904   0.251   2.219   0.033 -0.6527  0.0472  0.4813
 5966TIP3    H217905   0.393   2.186  -0.008 -0.3527  0.5885  1.0542
 5967TIP3   OH217906   2.799   4.323   3.016  0.1340  0.1643 -0.4834
 5967TIP3    H117907   2.773   4.373   3.093 -0.9541  0.7008 -1.1578
 5967TIP3    H217908   2.892   4.342   3.004  0.8494 -1.5231  1.8301
 5968TIP3   OH217909   3.639   4.427   3.342  0.2440 -0.0780  0.3962
 5968TIP3    H117910   3.697   4.456   3.271 -1.8927  0.7726 -1.1070
 5968TIP3    H217911   3.682   4.350   3.378  1.7062 -0.1969 -1.4387
 5969TIP3   OH217912   4.266   0.086   3.656 -0.7281  0.0088  0.3485
 5969TIP3    H117913   4.254   0.171   3.615 -1.6859 -0.2197  0.1138
 5969TIP3    H217914   4.216   0.091   3.738 -1.0839 -0.4275  0.1674
 5970TIP3   OH217915   4.148   5.314   4.811 -0.7186  0.0117 -0.3038
 5970TIP3    H117916   4.208   5.317   4.737  1.3926 -1.6798  1.1972
 5970TIP3    H217917   4.074   5.262   4.781 -0.3424  0.1454 -1.4877
 5971TIP3   OH217918   2.014   4.104   2.397  0.3766  0.1815 -0.3297
 5971TIP3    H117919   2.094   4.150   2.371  0.0847  1.7397  1.3320
 5971TIP3    H217920   1.981   4.154   2.472 -1.4906 -1.1570 -0.1960
 5972TIP3   OH217921   1.295   2.809   5.030 -0.5212  0.1159 -0.3338
 5972TIP3    H117922   1.202   2.786   5.028 -0.2029 -1.1897 -0.5502
 5972TIP3    H217923   1.327   2.789   4.942 -0.3046  1.8192 -0.6788
 5973TIP3   OH217924   5.729   1.054   2.438  0.4504  0.2526  0.1645
 5973TIP3    H117925   5.759   1.039   2.527  0.1618 -1.2411  0.0309
 5973TIP3    H217926   5.782   0.995   2.384  0.7046  1.2164 -0.6849
 5974TIP3   OH217927   1.316   1.919   0.449  0.6014  0.3477  0.5845
 5974TIP3    H117928   1.387   1.957   0.397  0.7388  0.3687  0.7833
 5974TIP3    H217929   1.237   1.938   0.399  0.9809 -2.3288 -1.2082
 5975TIP3   OH217930   6.226   2.690   0.992  0.0617 -0.0487 -0.3872
 5975TIP3    H117931   6.317   2.680   0.964  0.2881  1.2937 -0.2116
 5975TIP3    H217932   6.219   2.781   1.021 -0.6672 -0.8128  2.1108
 5976TIP3   OH217933   1.298   2.433   5.128 -0.0825 -0.0325 -0.1687
 5976TIP3    H117934   1.250   2.468   5.053  0.9118  0.0347 -0.7916
 5976TIP3    H217935   1.303   2.506   5.189 -1.0441 -0.1352  0.0532
 5977TIP3   OH217936   4.714   0.255   3.312  0.2907  0.0102  0.1224
 5977TIP3    H117937   4.794   0.307   3.311  0.6204 -0.4842  0.0933
 5977TIP3    H217938   4.680   0.264   3.401  0.8879 -0.5305  0.4127
 5978TIP3   OH217939   5.327   1.067   3.836 -0.6983 -0.5310  0.3162
 5978TIP3    H117940   5.359   1.003   3.899  0.8915  0.8156  0.9636
 5978TIP3    H217941   5.334   1.023   3.751  1.2847 -0.9397  0.6382
 5979TIP3   OH217942   3.576   3.704   3.617  0.1975 -0.1633 -0.1070
 5979TIP3    H117943   3.510   3.638   3.640 -0.4964  0.3583 -0.5469
 5979TIP3    H217944   3.644   3.654   3.572  0.3493 -0.7844  0.7841
 5980TIP3   OH217945   4.352   0.745   2.927  0.1953  0.5077  0.1031
 5980TIP3    H117946   4.275   0.761   2.872  0.4274  4.1391  0.6399
 5980TIP3    H217947   4.330   0.783   3.012  1.5775 -0.9111  1.1659
 5981TIP3   OH217948   1.132   1.508   3.310  0.2186 -0.6290  0.5320
 5981TIP3    H117949   1.087   1.553   3.238 -2.5781 -0.7845  2.0687
 5981TIP3    H217950   1.144   1.574   3.377  1.7796 -0.7706  0.4449
 5982TIP3   OH217951   4.425   1.066   2.876  0.9334  0.0550  0.9445
 5982TIP3    H117952   4.446   1.008   2.949  2.8482 -0.2952  0.1919
 5982TIP3    H217953   4.351   1.118   2.907 -0.7805 -2.6292  1.7081
 5983TIP3   OH217954   3.972   4.376   2.843 -0.3126  0.1923  0.0373
 5983TIP3    H117955   3.949   4.468   2.855 -2.0119 -0.2451  0.4563
 5983TIP3    H217956   3.892   4.329   2.865  0.3170 -1.3530 -0.8272
 5984TIP3   OH217957   4.906   2.723   1.403  0.4862 -0.5965 -0.4134
 5984TIP3    H117958   4.955   2.791   1.449  2.8262 -1.1481 -1.9177
 5984TIP3    H217959   4.815   2.737   1.429  1.1754  1.6797  1.0554
 5985TIP3   OH217960   2.827   1.740   0.778 -0.8509  0.8493  0.4950
 5985TIP3    H117961   2.909   1.718   0.736 -0.4188  2.5063  0.4191
 5985TIP3    H217962   2.761   1.732   0.709 -0.1978  3.2164 -0.4873
 5986TIP3   OH217963   0.347   4.709   0.809 -0.1970 -0.4942  0.1925
 5986TIP3    H117964   0.390   4.794   0.818 -0.1790 -0.3168 -1.2790
 5986TIP3    H217965   0.257   4.730   0.787 -0.2509 -0.8642  0.0529
 5987TIP3   OH217966   1.977   3.773   0.032  0.5651  0.1148 -0.4641
 5987TIP3    H117967   2.041   3.701   0.031  0.2501 -0.1694 -0.4849
 5987TIP3    H217968   1.950   3.782  -0.059 -0.7547 -0.9816 -0.2168
 5988TIP3   OH217969   2.980   0.456   4.632  0.2576  0.5072 -0.3387
 5988TIP3    H117970   2.986   0.514   4.556  0.4895 -0.7815 -1.3458
 5988TIP3    H217971   2.937   0.377   4.598  0.9737 -0.3580  0.7002
 5989TIP3   OH217972   0.294   0.942   2.571 -0.9129  0.1633 -0.5611
 5989TIP3    H117973   0.346   1.020   2.550 -2.0595  1.9816  2.6577
 5989TIP3    H217974   0.358   0.878   2.602 -0.2475  1.1401  0.1461
 5990TIP3   OH217975   2.819   5.378   1.009  0.7075  0.5842  0.4229
 5990TIP3    H117976   2.907   5.340   1.013  0.3435 -0.4999 -0.8988
 5990TIP3    H217977   2.833   5.466   0.973  1.1930  0.0687 -0.7231
 5991TIP3   OH217978   5.535   5.255   3.748  0.3576 -0.2716 -0.0983
 5991TIP3    H117979   5.627   5.273   3.770  0.3131 -1.0689  0.7791
 5991TIP3    H217980   5.536   5.166   3.712  0.0480  0.0593 -0.9671
 5992TIP3   OH217981   5.946   1.280   0.196  0.0417  0.2445  0.3334
 5992TIP3    H117982   5.984   1.353   0.149  0.0211  0.5095  0.7226
 5992TIP3    H217983   5.852   1.298   0.198 -0.4945 -1.5080 -2.5831
 5993TIP3   OH217984   4.891   1.176   3.099  0.2912  0.2011 -0.2473
 5993TIP3    H117985   4.796   1.179   3.108  0.3911 -0.2161  1.1856
 5993TIP3    H217986   4.911   1.083   3.086  0.7160 -0.2964  3.0484
 5994TIP3   OH217987   4.390   4.995   0.516  0.0690  0.0103  0.1464
 5994TIP3    H117988   4.482   5.017   0.534  0.5082 -0.3124 -1.5122
 5994TIP3    H217989   4.387   4.900   0.524 -0.2346  0.0534  0.5943
 5995TIP3   OH217990   4.400   3.994   5.126 -0.0757 -0.1008 -0.0705
 5995TIP3    H117991   4.387   3.976   5.033  0.1500  0.6208 -0.2499
 5995TIP3    H217992   4.413   3.908   5.166 -0.1115 -0.4094 -0.7138
 5996TIP3   OH217993   2.177   2.665   0.904 -0.0633 -0.3474  0.5425
 5996TIP3    H117994   2.196   2.726   0.975  2.1051  2.3803 -2.0975
 5996TIP3    H217995   2.081   2.663   0.898 -0.2784  3.7319  0.1928
 5997TIP3   OH217996   5.054   5.120   1.851 -0.2111  0.4867  0.5050
 5997TIP3    H117997   5.086   5.152   1.935  0.2144  0.3497  0.3990
 5997TIP3    H217998   4.962   5.098   1.867 -0.8009  2.6211  0.3367
 5998TIP3   OH217999   0.088   3.602   3.842  0.1769 -0.0257 -0.2274
 5998TIP3    H118000   0.149   3.664   3.802  1.3083 -0.9979 -0.0632
 5998TIP3    H218001   0.143   3.548   3.899 -1.2891  0.9738  2.2848
 5999TIP3   OH218002   3.411   2.743   3.064  0.0194 -0.0671 -0.2253
 5999TIP3    H118003   3.402   2.664   3.117 -0.9306 -1.1282 -1.8750
 5999TIP3    H218004   3.484   2.725   3.005  1.6716  1.4655  1.2371
 6000TIP3   OH218005   3.125   4.637   3.296  0.4084 -0.2140 -0.7210
 6000TIP3    H118006   3.216   4.664   3.292  0.3070  0.0682 -1.2653
 6000TIP3    H218007   3.128   4.541   3.289  0.7741 -0.3920  1.3173
 6001TIP3   OH218008   5.288   5.418   3.805 -0.6960  0.0094  0.1434
 6001TIP3    H118009   5.229   5.344   3.793  0.0366 -0.2877 -1.9998
 6001TIP3    H218010   5.376   5.379   3.807 -0.3247  0.7594 -0.6636
 6002TIP3   OH218011   5.539   3.581   0.408 -0.6618  0.1867 -0.5260
 6002TIP3    H118012   5.490   3.555   0.330  0.5015 -1.8397 -0.6360
 6002TIP3    H218013   5.479   3.567   0.480 -1.1345  0.3442 -0.8843
 6003TIP3   OH218014   1.488   4.317   4.099  0.0115  0.0447 -0.1093
 6003TIP3    H118015   1.576   4.345   4.072 -0.6909  0.4176 -2.1583
 6003TIP3    H218016   1.493   4.222   4.101 -0.0480 -0.0342 -2.2207
 6004TIP3   OH218017   3.499   3.628   1.563 -0.0659  0.0184 -0.1160
 6004TIP3    H118018   3.413   3.652   1.596 -0.5258 -1.2662 -0.3595
 6004TIP3    H218019   3.538   3.575   1.632  0.5987  0.6999  0.0495
 6005TIP3   OH218020   4.231   3.597   0.460 -0.1372 -0.1610  0.6642
 6005TIP3    H118021   4.207   3.569   0.372  0.5179  0.1103  0.3934
 6005TIP3    H218022   4.171   3.669   0.480  0.6544  0.7494 -0.1483
 6006TIP3   OH218023   6.114   3.936   4.135 -0.2130 -0.2612  0.1974
 6006TIP3    H118024   6.028   3.975   4.120  0.7321  2.2739  1.0255
 6006TIP3    H218025   6.136   3.894   4.052 -2.3358 -1.2139  0.0609
 6007TIP3   OH218026   4.798   2.476   1.740 -0.3373  0.1560 -0.2677
 6007TIP3    H118027   4.822   2.419   1.667  0.8614  1.9155 -1.3297
 6007TIP3    H218028   4.818   2.565   1.709 -2.4476  1.2223  1.1759
 6008TIP3   OH218029   0.151   1.783   2.975 -0.2863 -0.2734 -0.5798
 6008TIP3    H118030   0.200   1.849   2.926 -2.7496  0.6888 -1.9044
 6008TIP3    H218031   0.093   1.743   2.910 -3.6873  1.0353  1.4335
 6009TIP3   OH218032   4.063   0.195   4.783  0.3431 -0.1931  0.3339
 6009TIP3    H118033   4.081   0.284   4.814 -0.9129 -0.3478  1.6017
 6009TIP3    H218034   3.986   0.168   4.832 -0.6111 -1.1993 -1.6162
 6010TIP3   OH218035   2.754   0.959   1.519 -0.0641  0.7551 -0.1167
 6010TIP3    H118036   2.748   1.050   1.550 -0.7796  0.8773 -0.6005
 6010TIP3    H218037   2.823   0.920   1.574  0.7936  1.7890 -0.4104
 6011TIP3   OH218038   0.619   1.319   2.876  0.3165  0.3503  0.2241
 6011TIP3    H118039   0.611   1.224   2.870  0.6219  0.3532 -0.3411
 6011TIP3    H218040   0.572   1.352   2.799  0.0370  0.6623  0.5286
 6012TIP3   OH218041   5.623   1.812   4.767 -0.1145 -0.3383  0.1204
 6012TIP3    H118042   5.688   1.882   4.776 -0.0023 -0.2300 -1.3994
 6012TIP3    H218043   5.561   1.844   4.702  0.5300 -2.0590 -1.4334
 6013TIP3   OH218044   2.968   5.361   1.748 -0.5675  0.4815 -0.3929
 6013TIP3    H118045   2.896   5.387   1.806 -0.0806  1.7238 -0.3308
 6013TIP3    H218046   2.958   5.266   1.740 -1.2067  0.4045  0.9789
 6014TIP3   OH218047   3.140   2.703   3.042 -0.5619 -0.0016  0.1782
 6014TIP3    H118048   3.215   2.691   3.100 -0.4754 -4.0529 -0.5174
 6014TIP3    H218049   3.150   2.793   3.009  1.8107  0.9093  2.9574
 6015TIP3   OH218050   1.026   4.097   1.142 -0.2191 -0.5012 -0.1284
 6015TIP3    H118051   0.961   4.146   1.194  0.3554 -0.2742  0.3858
 6015TIP3    H218052   1.032   4.144   1.059  0.4213  0.3890  0.4080
 6016TIP3   OH218053   3.729   5.559   0.672 -0.1112 -0.2382  0.5058
 6016TIP3    H118054   3.808   5.506   0.662  0.7920  1.3048 -1.1242
 6016TIP3    H218055   3.695   5.536   0.759  1.4945 -1.7384  0.7873
 6017TIP3   OH218056   4.353   3.977   2.413  0.2317  0.0139 -0.6845
 6017TIP3    H118057   4.384   4.030   2.487 -1.7512  1.7923 -1.0217
 6017TIP3    H218058   4.333   4.041   2.345 -3.0114 -1.0092 -0.8503
 6018TIP3   OH218059   4.971   3.709   0.836  0.2864  0.0435 -0.1798
 6018TIP3    H118060   4.901   3.755   0.883  0.0576 -0.2348 -0.2408
 6018TIP3    H218061   4.953   3.725   0.744  0.0994 -0.3174 -0.2071
 6019TIP3   OH218062   0.044   3.378   2.364  0.0565  0.4360  0.4694
 6019TIP3    H118063  -0.004   3.306   2.405 -1.0930  1.3283  0.7598
 6019TIP3    H218064   0.015   3.377   2.273 -0.3514  0.8216  0.5883
 6020TIP3   OH218065   5.478   2.809   1.864 -0.2446 -0.1170  0.2965
 6020TIP3    H118066   5.562   2.814   1.911  0.3963 -0.3876 -0.8018
 6020TIP3    H218067   5.487   2.871   1.792 -0.8493 -0.4271 -0.0507
 6021TIP3   OH218068   1.152   0.406   0.459  0.3343  0.2876 -0.1216
 6021TIP3    H118069   1.237   0.435   0.426  0.0398 -0.4157 -1.5975
 6021TIP3    H218070   1.154   0.425   0.553  1.9853  0.5762 -0.1951
 6022TIP3   OH218071   5.817   0.746   5.120 -0.3258  0.2671  0.1731
 6022TIP3    H118072   5.894   0.803   5.123  0.4501 -0.7905  1.2281
 6022TIP3    H218073   5.764   0.782   5.049  0.5252  1.7951  0.2570
 6023TIP3   OH218074   5.362   5.693   0.679  0.2018 -0.0866 -0.3722
 6023TIP3    H118075   5.456   5.702   0.699  0.0602 -0.2231  0.3752
 6023TIP3    H218076   5.330   5.783   0.675 -0.1905 -0.0514  2.1420
 6024TIP3   OH218077   5.011   4.156   3.395 -0.2125  0.8162 -0.7450
 6024TIP3    H118078   5.043   4.192   3.312  1.6940  2.2397  0.4987
 6024TIP3    H218079   5.046   4.067   3.397  2.5485  1.8036 -0.1566
 6025TIP3   OH218080   5.237   0.138   2.829 -0.1361  0.1280  0.1380
 6025TIP3    H118081   5.253   0.105   2.918 -1.8714 -0.3766  0.3074
 6025TIP3    H218082   5.312   0.193   2.810  1.4767 -1.6503  0.9830
 6026TIP3   OH218083   3.548   5.014   1.699 -0.1964 -0.8271 -0.3482
 6026TIP3    H118084   3.523   4.951   1.767 -2.1291  1.2774  1.0475
 6026TIP3    H218085   3.476   5.010   1.636 -0.2904 -0.0990 -0.2920
 6027TIP3   OH218086   1.940   5.877   3.738 -0.0284 -0.0371 -0.2708
 6027TIP3    H118087   1.893   5.938   3.682 -0.0188  0.6023  0.4144
 6027TIP3    H218088   1.921   5.905   3.827 -0.8058 -1.6159  0.0999
 6028TIP3   OH218089   5.641   5.157   0.107 -0.4783 -0.3013 -0.1655
 6028TIP3    H118090   5.677   5.069   0.118  0.9474  0.2132 -0.4948
 6028TIP3    H218091   5.550   5.150   0.136  0.2573 -1.3334  2.0704
 6029TIP3   OH218092   4.513   3.144   2.673 -0.1545  0.0394 -0.7643
 6029TIP3    H118093   4.529   3.069   2.617  1.6744  0.7521 -1.2438
 6029TIP3    H218094   4.494   3.106   2.759  0.4595 -0.9643 -1.0595
 6030TIP3   OH218095   0.934   4.891   3.696  0.4760  0.0617 -0.0744
 6030TIP3    H118096   1.028   4.883   3.710  0.5308  0.2320 -0.3220
 6030TIP3    H218097   0.894   4.860   3.777  0.7313 -0.5162 -0.1644
 6031TIP3   OH218098   5.700   2.200   3.955  0.2619 -0.0451  0.0617
 6031TIP3    H118099   5.782   2.159   3.984  1.2757  0.4309 -1.9741
 6031TIP3    H218100   5.645   2.126   3.928  0.3028 -0.3150  0.6890
 6032TIP3   OH218101   5.201   0.999   4.149  0.0967 -0.0596 -0.1715
 6032TIP3    H118102   5.194   1.030   4.059  1.3932  0.5316 -0.0984
 6032TIP3    H218103   5.250   1.068   4.194 -0.8817 -0.1446  1.0937
 6033TIP3   OH218104   4.426   3.931   0.178  0.0854 -0.4453 -0.4439
 6033TIP3    H118105   4.441   3.920   0.272 -1.3901 -0.4102 -0.1939
 6033TIP3    H218106   4.459   4.019   0.159 -1.8289  0.5553  0.5653
 6034TIP3   OH218107   6.131   1.286   5.157 -0.4341  0.5991  0.0743
 6034TIP3    H118108   6.119   1.192   5.169  3.6448 -0.0035  0.9235
 6034TIP3    H218109   6.172   1.295   5.072 -0.0270  1.5142  0.3523
 6035TIP3   OH218110   1.832   1.705   4.144  0.1203  0.0910  0.0052
 6035TIP3    H118111   1.775   1.680   4.216 -0.2551  0.0344 -0.3071
 6035TIP3    H218112   1.902   1.756   4.185 -0.4099  0.5737  0.3349
 6036TIP3   OH218113   1.691   5.924   5.107 -0.4466 -0.5726  0.0725
 6036TIP3    H118114   1.764   5.862   5.112 -0.1710 -0.2609 -0.0100
 6036TIP3    H218115   1.705   5.970   5.024 -0.5054 -0.2270  0.2511
 6037TIP3   OH218116   3.971   1.568   0.150 -0.2415  0.0181  0.1680
 6037TIP3    H118117   3.941   1.477   0.150 -1.9177  0.5204  1.2817
 6037TIP3    H218118   4.021   1.577   0.232  0.1320  0.0432 -0.0603
 6038TIP3   OH218119   1.478   0.827   3.238  0.8935  0.0344 -0.0564
 6038TIP3    H118120   1.472   0.759   3.305 -0.2355  0.7301  0.5813
 6038TIP3    H218121   1.564   0.815   3.199  1.7002 -0.2196  1.7054
 6039TIP3   OH218122   1.279   4.973   1.841 -0.2090 -0.4097  0.0541
 6039TIP3    H118123   1.271   4.902   1.778  0.0686  0.0155 -0.4660
 6039TIP3    H218124   1.196   5.021   1.834 -0.0546 -0.1771 -0.2236
 6040TIP3   OH218125   1.316   4.805   2.823  0.1142 -0.2761 -0.3563
 6040TIP3    H118126   1.264   4.850   2.890  0.9403  1.3888 -0.7846
 6040TIP3    H218127   1.392   4.771   2.870 -1.0868 -2.4185  0.2059
 6041TIP3   OH218128   5.005   3.825   2.367  0.9342  0.5233  0.1517
 6041TIP3    H118129   4.941   3.881   2.322  0.6837  0.7773  0.8244
 6041TIP3    H218130   4.958   3.744   2.383  1.6816 -0.4248 -1.9962
 6042TIP3   OH218131   5.430   1.827   3.474  0.3098  0.1009  0.1132
 6042TIP3    H118132   5.440   1.755   3.412  1.1159 -0.9836  1.4359
 6042TIP3    H218133   5.517   1.866   3.479 -0.2054  1.4407 -0.8648
 6043TIP3   OH218134   5.111   0.807   4.329  0.1975  0.3558 -0.5847
 6043TIP3    H118135   5.057   0.870   4.377  0.4843  1.2354 -1.3683
 6043TIP3    H218136   5.147   0.858   4.256  2.3100 -0.1230  0.0722
 6044TIP3   OH218137   5.439   2.982   0.610  0.0241 -0.6504 -0.3125
 6044TIP3    H118138   5.455   2.888   0.605 -3.1149 -1.2334 -1.9635
 6044TIP3    H218139   5.359   2.990   0.660 -0.7043  0.9599 -1.6346
 6045TIP3   OH218140   1.521   0.608   3.426  0.3850 -0.2456 -0.0639
 6045TIP3    H118141   1.497   0.535   3.483  2.4301 -1.0701 -0.1634
 6045TIP3    H218142   1.609   0.586   3.395  0.8050  1.9715 -0.6074
 6046TIP3   OH218143   0.642   2.050   1.498 -0.1701 -0.1064  0.4334
 6046TIP3    H118144   0.618   2.124   1.554  0.1091  0.1114  0.2718
 6046TIP3    H218145   0.711   2.085   1.442  0.2575 -0.6129  0.6408
 6047TIP3   OH218146   5.530   5.037   4.949  0.7355  0.0999  0.0768
 6047TIP3    H118147   5.473   5.114   4.952  0.2745 -0.1908 -0.8699
 6047TIP3    H218148   5.527   5.009   4.858  0.7689 -1.1390  0.4479
 6048TIP3   OH218149   3.195   0.069   0.470 -0.2581  0.0930 -0.6657
 6048TIP3    H118150   3.221   0.087   0.560 -1.5992 -2.0690  0.2218
 6048TIP3    H218151   3.125   0.004   0.477 -1.7754  1.3040 -3.1915
 6049TIP3   OH218152   2.244   5.318   5.087 -0.0156  0.2543 -0.7667
 6049TIP3    H118153   2.226   5.405   5.124  0.9590 -0.1367  0.7079
 6049TIP3    H218154   2.159   5.288   5.056 -1.3911 -0.1378  2.9035
 6050TIP3   OH218155   0.796   1.543   3.994 -0.1626 -0.0720 -0.3265
 6050TIP3    H118156   0.867   1.571   3.935 -0.4329 -0.2689 -0.7484
 6050TIP3    H218157   0.839   1.532   4.079 -0.0092  1.4470 -0.1787
 6051TIP3   OH218158   2.008   5.462   2.717 -0.1313  0.3856 -0.4519
 6051TIP3    H118159   2.088   5.431   2.759 -0.1247 -1.1975 -1.5807
 6051TIP3    H218160   2.031   5.549   2.683  0.5184  0.7446  0.8216
 6052TIP3   OH218161   4.276   4.100   4.305 -0.0787 -0.0184 -0.0906
 6052TIP3    H118162   4.191   4.132   4.276  0.3122 -0.8298 -2.3533
 6052TIP3    H218163   4.331   4.179   4.306 -0.4397  0.2422 -0.3151
 6053TIP3   OH218164   1.287   4.332   4.922 -0.3628  0.1783 -0.1162
 6053TIP3    H118165   1.339   4.262   4.961 -2.5192 -1.2098  0.4083
 6053TIP3    H218166   1.305   4.326   4.828  2.5045  1.5748  0.2162
 6054TIP3   OH218167   2.220   4.681   4.244 -0.2376  0.3225 -0.1190
 6054TIP3    H118168   2.282   4.753   4.236 -0.4261  0.6489  1.0992
 6054TIP3    H218169   2.274   4.605   4.267  0.0803 -0.1944 -2.3576
 6055TIP3   OH218170   2.964   3.306   4.267 -0.0814 -0.3284 -0.3071
 6055TIP3    H118171   3.007   3.252   4.199  0.9636 -0.4430  0.4204
 6055TIP3    H218172   2.963   3.250   4.344 -1.0275 -0.0977 -0.1383
 6056TIP3   OH218173   3.244   0.680   4.858 -0.0882 -0.5795 -0.2513
 6056TIP3    H118174   3.322   0.726   4.824  0.2162 -2.2620 -2.0108
 6056TIP3    H218175   3.177   0.694   4.791 -0.8751 -0.3758  0.5573
 6057TIP3   OH218176   0.621   4.951   3.722 -0.6042 -0.0725  0.1539
 6057TIP3    H118177   0.713   4.959   3.696 -0.6383 -0.4790 -0.1094
 6057TIP3    H218178   0.606   4.856   3.726 -0.9455 -0.0070  0.4282
 6058TIP3   OH218179   6.143   3.170   3.687  0.0883  0.3174 -0.5379
 6058TIP3    H118180   6.156   3.263   3.709 -0.2527  0.0469  0.9407
 6058TIP3    H218181   6.049   3.157   3.699  0.4590 -0.7710  1.7484
 6059TIP3   OH218182   3.003   3.252   0.018 -0.3632 -0.2223 -0.3763
 6059TIP3    H118183   3.009   3.290   0.105 -0.8033 -1.5314  0.2584
 6059TIP3    H218184   2.909   3.238   0.004 -0.1684 -2.6601  0.1936
 6060TIP3   OH218185   2.324   3.917   1.920 -0.0734  0.3816 -0.0466
 6060TIP3    H118186   2.408   3.891   1.957  0.5913  2.5581  0.1360
 6060TIP3    H218187   2.344   3.996   1.870 -1.5948 -0.4455 -2.1125
 6061TIP3   OH218188   2.126   1.755   5.114 -0.1798 -0.6801 -0.2950
 6061TIP3    H118189   2.066   1.824   5.140 -0.7669  0.4943 -4.1593
 6061TIP3    H218190   2.208   1.800   5.096  0.0360 -1.3005 -0.9298
 6062TIP3   OH218191   2.135   5.380   4.522  0.1814  0.2114  0.5785
 6062TIP3    H118192   2.059   5.353   4.470  0.8585  0.6758 -0.6981
 6062TIP3    H218193   2.101   5.445   4.583 -0.3471  0.9286 -0.4477
 6063TIP3   OH218194   0.418   2.374   1.358 -0.3397 -0.3952 -0.2731
 6063TIP3    H118195   0.503   2.407   1.389 -0.2013  0.0702 -1.0842
 6063TIP3    H218196   0.360   2.450   1.362  0.4266  0.5691 -3.8236
 6064TIP3   OH218197   5.618   2.666   3.810  0.6856  0.3953 -0.2800
 6064TIP3    H118198   5.691   2.610   3.834  0.6744  0.1507 -0.7970
 6064TIP3    H218199   5.637   2.694   3.720  0.1134  0.2708 -0.4468
 6065TIP3   OH218200   2.438   1.864   3.411 -0.7340 -0.5722  0.6151
 6065TIP3    H118201   2.358   1.884   3.460  0.3456  1.1392  1.8110
 6065TIP3    H218202   2.509   1.904   3.463  0.7924 -1.1637 -0.9022
 6066TIP3   OH218203   6.319   2.391   0.280  0.5338 -0.2657  0.1707
 6066TIP3    H118204   6.360   2.374   0.364  2.0459 -0.5040 -0.5762
 6066TIP3    H218205   6.303   2.304   0.243 -0.1450 -0.1624  0.2077
 6067TIP3   OH218206   3.806   4.557   3.631 -0.1768  0.7619  0.2361
 6067TIP3    H118207   3.822   4.495   3.701 -3.1317  0.0681  0.4321
 6067TIP3    H218208   3.784   4.503   3.555  2.8797  1.4955 -1.3209
 6068TIP3   OH218209   2.862   4.746   0.833 -0.1488 -0.0280 -0.5026
 6068TIP3    H118210   2.766   4.746   0.824 -0.1715 -0.9427 -0.2804
 6068TIP3    H218211   2.881   4.832   0.871 -1.0274 -0.4198  0.9018
 6069TIP3   OH218212   3.316   2.589   0.267 -0.2040  0.1425 -0.5232
 6069TIP3    H118213   3.323   2.664   0.207  0.8007  0.1453 -0.4167
 6069TIP3    H218214   3.307   2.629   0.354 -0.2062  0.1389 -0.5218
 6070TIP3   OH218215   5.412   4.938   2.236 -0.0973 -0.1629  0.0906
 6070TIP3    H118216   5.492   4.955   2.186  1.8340 -1.4431  2.5102
 6070TIP3    H218217   5.381   5.025   2.262 -0.0658  0.4034 -1.6477
 6071TIP3   OH218218   5.995   5.570   2.191 -0.3479  0.5562  0.5336
 6071TIP3    H118219   5.956   5.629   2.256 -0.0298 -0.1915  1.4159
 6071TIP3    H218220   6.041   5.504   2.242  1.3534  0.8951 -0.4555
 6072TIP3   OH218221   3.441   5.796   2.318 -0.0728 -0.3866 -0.3997
 6072TIP3    H118222   3.498   5.868   2.342  0.3960 -1.5479  2.2772
 6072TIP3    H218223   3.434   5.802   2.223  2.1461  1.5065 -0.5272
 6073TIP3   OH218224   3.999   2.723   0.335 -0.1173  0.5474 -0.3289
 6073TIP3    H118225   3.997   2.668   0.258 -1.1137  0.5022 -0.2842
 6073TIP3    H218226   3.943   2.798   0.313  0.3379  0.9979  0.0068
 6074TIP3   OH218227   0.971   5.002   4.953  0.2528 -0.7372  0.1846
 6074TIP3    H118228   0.978   5.009   4.858  1.4248 -2.4412  0.0951
 6074TIP3    H218229   1.053   5.039   4.986 -0.0476 -0.3642  0.5247
 6075TIP3   OH218230   4.467   4.389   3.508  0.3813  0.1879  0.0752
 6075TIP3    H118231   4.428   4.341   3.435 -1.7363 -0.4162  1.4876
 6075TIP3    H218232   4.485   4.476   3.474  1.8500 -0.7934 -1.8286
 6076TIP3   OH218233   3.332   3.635   4.080 -0.2452 -0.0559 -0.2736
 6076TIP3    H118234   3.330   3.642   3.985  1.0097 -2.7763 -0.6141
 6076TIP3    H218235   3.375   3.551   4.096  0.6833  0.8796  2.7234
 6077TIP3   OH218236   4.775   2.744   1.727  0.0910  0.0100  0.3386
 6077TIP3    H118237   4.847   2.791   1.685 -0.9967  0.8746 -0.6105
 6077TIP3    H218238   4.722   2.812   1.768  0.5790 -0.7366  2.3370
 6078TIP3   OH218239   0.019   5.335   0.757  0.7230  0.1550 -0.0876
 6078TIP3    H118240   0.033   5.418   0.711 -1.0883 -0.5909 -2.1347
 6078TIP3    H218241   0.029   5.268   0.690  0.3363 -1.1692  1.1364
 6079TIP3   OH218242   5.001   0.532   3.002 -0.1771  0.5285  0.1410
 6079TIP3    H118243   4.957   0.597   2.948  1.2633 -0.2824 -2.1541
 6079TIP3    H218244   5.065   0.582   3.053  1.3137  0.9400 -2.0177
 6080TIP3   OH218245   2.264   0.962   1.497 -0.2990  0.0563 -0.1256
 6080TIP3    H118246   2.253   1.021   1.422  0.4937 -0.6417 -0.8258
 6080TIP3    H218247   2.314   0.888   1.461 -0.4790 -0.6045  0.9452
 6081TIP3   OH218248   1.206   2.352   2.938  0.2144 -0.3793 -0.2859
 6081TIP3    H118249   1.259   2.419   2.896  1.9731 -2.6279 -1.9712
 6081TIP3    H218250   1.268   2.302   2.991 -1.0082 -0.7933  0.8211
 6082TIP3   OH218251   3.243   2.457   4.468  0.2098  0.3951  0.0456
 6082TIP3    H118252   3.162   2.421   4.503  0.1218  0.6493  0.1005
 6082TIP3    H218253   3.284   2.383   4.423  1.8316 -0.8294  3.2327
 6083TIP3   OH218254   1.630   0.564   4.471 -0.5059 -0.4523 -0.0697
 6083TIP3    H118255   1.580   0.505   4.415 -1.6299 -0.6413  1.0726
 6083TIP3    H218256   1.609   0.536   4.560  0.8857  0.1063  0.4684
 6084TIP3   OH218257   2.277   2.458   1.717  0.1379  0.0980 -0.1892
 6084TIP3    H118258   2.229   2.394   1.771 -0.3582  0.7258  0.1232
 6084TIP3    H218259   2.256   2.543   1.756  1.3759  0.4027 -0.1658
 6085TIP3   OH218260   5.052   0.386   3.907  0.1531  0.1751 -0.0973
 6085TIP3    H118261   5.110   0.317   3.874  0.4779  0.4010 -0.0017
 6085TIP3    H218262   4.964   0.351   3.894  0.2466  0.4568 -1.6658
 6086TIP3   OH218263   4.140   1.696   4.538  0.3029  0.1290  0.2799
 6086TIP3    H118264   4.202   1.665   4.473  3.1966 -1.3509  3.4183
 6086TIP3    H218265   4.079   1.624   4.551  2.0167 -1.1393  1.7382
 6087TIP3   OH218266   2.123   3.127   2.154  0.1152  0.2280  0.2819
 6087TIP3    H118267   2.075   3.208   2.168 -1.1376  0.4109 -3.8352
 6087TIP3    H218268   2.056   3.060   2.148  0.5750 -0.0859 -2.1041
 6088TIP3   OH218269   6.369   0.487   3.688  0.4191  0.1621 -0.4556
 6088TIP3    H118270   6.353   0.448   3.774 -1.4427  1.3808 -0.1915
 6088TIP3    H218271   6.298   0.455   3.633  1.5775 -0.5856 -1.5804
 6089TIP3   OH218272   3.265   0.216   3.956  0.1024 -0.2208  0.5019
 6089TIP3    H118273   3.217   0.141   3.991  0.0421 -0.8973 -0.9656
 6089TIP3    H218274   3.357   0.195   3.970  0.1937 -1.5281 -1.6201
 6090TIP3   OH218275   2.931   4.341   0.908 -0.0967 -0.5179  0.1365
 6090TIP3    H118276   2.872   4.380   0.972  1.6857 -0.3663  1.7321
 6090TIP3    H218277   2.995   4.293   0.959  1.8351  0.2063 -1.4653
 6091TIP3   OH218278   4.078   4.948   0.004 -0.0956  0.2349  0.0729
 6091TIP3    H118279   4.023   4.971  -0.071  0.5325  1.2354 -0.1075
 6091TIP3    H218280   4.017   4.940   0.077 -0.4609  1.6976 -0.0414
 6092TIP3   OH218281   3.415   4.407   3.178 -0.4612  0.1802 -0.0447
 6092TIP3    H118282   3.340   4.412   3.238 -1.0338  0.6999 -0.7745
 6092TIP3    H218283   3.491   4.398   3.235 -0.8907  1.6922  0.8252
 6093TIP3   OH218284   0.864   1.430   3.364 -0.2136 -0.4839 -0.3724
 6093TIP3    H118285   0.955   1.456   3.350  0.0840 -1.4681 -0.2964
 6093TIP3    H218286   0.845   1.369   3.293 -0.5010 -1.0442  0.1800
 6094TIP3   OH218287   1.482   4.708   0.479  0.6433  0.2333  0.2611
 6094TIP3    H118288   1.557   4.724   0.422  0.8284  1.0566  0.7130
 6094TIP3    H218289   1.411   4.760   0.440  0.2475 -0.6702 -0.2584
 6095TIP3   OH218290   3.930   1.236   4.241 -0.5562 -0.2152 -0.3225
 6095TIP3    H118291   3.917   1.328   4.217 -0.3540 -0.2645 -0.6320
 6095TIP3    H218292   3.860   1.217   4.303  0.2676  0.5649  0.8816
 6096TIP3   OH218293   6.274   2.138   2.996  0.1541 -0.0295 -0.0151
 6096TIP3    H118294   6.304   2.073   2.932  1.5456  0.2661  0.2868
 6096TIP3    H218295   6.337   2.210   2.987 -0.8171  0.8819  0.2946
 6097TIP3   OH218296   3.521   1.745   4.100  0.4813 -0.0013 -0.5890
 6097TIP3    H118297   3.588   1.812   4.106  0.3885 -0.0305  2.8463
 6097TIP3    H218298   3.443   1.791   4.070  0.6982  1.2132  0.6411
 6098TIP3   OH218299   5.143   2.822   1.128 -0.6050 -0.0708 -0.1912
 6098TIP3    H118300   5.088   2.879   1.182 -0.0790  0.3091 -0.0434
 6098TIP3    H218301   5.232   2.852   1.145 -0.3563 -0.6153 -0.4980
 6099TIP3   OH218302   3.453   1.236   3.398  0.1895  0.5952  0.1177
 6099TIP3    H118303   3.483   1.250   3.488  2.2781 -0.8995 -0.2847
 6099TIP3    H218304   3.531   1.212   3.350 -0.8358  1.6544 -2.2135
 6100TIP3   OH218305   3.942   5.416   3.305  0.0739  0.5132  0.3129
 6100TIP3    H118306   3.948   5.485   3.238  0.8790  0.1858  0.0372
 6100TIP3    H218307   4.017   5.359   3.287 -0.2024 -0.0604  0.9614
 6101TIP3   OH218308   3.233   1.586   4.572 -0.5649 -0.4437  0.1441
 6101TIP3    H118309   3.232   1.673   4.611 -1.4321 -1.0475  1.5121
 6101TIP3    H218310   3.311   1.544   4.607 -1.4542 -1.0594  1.4570
 6102TIP3   OH218311   2.739   0.798   1.980  0.3758 -0.1751  0.2721
 6102TIP3    H118312   2.742   0.816   2.074  0.6775 -0.9768  0.4292
 6102TIP3    H218313   2.675   0.860   1.945  0.2556  0.1242  1.0076
 6103TIP3   OH218314   3.445   4.044   1.191 -0.7763  0.7058 -0.1994
 6103TIP3    H118315   3.449   4.020   1.283  1.6436 -0.0776 -0.4388
 6103TIP3    H218316   3.500   4.122   1.183  0.6941 -0.3644 -1.2263
 6104TIP3   OH218317   5.074   4.355   2.838  0.2500 -0.2666  0.4146
 6104TIP3    H118318   5.008   4.412   2.799  0.6712 -0.7165 -1.0291
 6104TIP3    H218319   5.070   4.373   2.931  0.2629  2.0307  0.0237
 6105TIP3   OH218320   5.961   0.295   1.604  0.2587  0.1808 -0.3337
 6105TIP3    H118321   5.960   0.375   1.655 -1.5778  0.9993 -1.5498
 6105TIP3    H218322   5.869   0.274   1.590  0.7055 -1.1670 -1.5207
 6106TIP3   OH218323   3.322   4.973   3.381 -0.4142  0.1757 -0.1196
 6106TIP3    H118324   3.380   4.921   3.437 -1.8199  1.9673  3.2950
 6106TIP3    H218325   3.234   4.945   3.406 -1.1200  0.6580 -1.9188
 6107TIP3   OH218326   5.229   3.422   1.610  0.6255 -0.3683  0.1385
 6107TIP3    H118327   5.254   3.441   1.519 -0.9073  0.4650 -0.1358
 6107TIP3    H218328   5.155   3.362   1.603  0.2599 -0.0088  0.8174
 6108TIP3   OH218329   6.020   4.690   2.546  0.1535 -0.6117 -0.0352
 6108TIP3    H118330   6.040   4.717   2.635  1.3113 -0.4026 -0.3354
 6108TIP3    H218331   5.937   4.644   2.552 -1.5300  2.2814  0.6256
 6109TIP3   OH218332   3.148   5.309   0.555 -0.6361  0.0514  0.3502
 6109TIP3    H118333   3.217   5.299   0.490  0.7410 -0.2080  1.8009
 6109TIP3    H218334   3.067   5.290   0.507  0.4388 -1.3877 -0.9999
 6110TIP3   OH218335   5.626   4.449   4.187 -0.1067  0.2150 -0.1657
 6110TIP3    H118336   5.691   4.465   4.118  1.6214  0.5131  1.4440
 6110TIP3    H218337   5.623   4.354   4.196 -0.5046  0.1635 -0.7732
 6111TIP3   OH218338   2.445   2.034   1.656 -0.1270  0.1424  0.4746
 6111TIP3    H118339   2.421   2.016   1.566 -1.8996  1.8738  0.5388
 6111TIP3    H218340   2.541   2.039   1.655 -0.1706  2.7817 -1.9098
 6112TIP3   OH218341   0.495   3.301   0.225 -0.1935  0.0492 -0.4444
 6112TIP3    H118342   0.548   3.376   0.199 -1.2414  0.9188 -0.1194
 6112TIP3    H218343   0.479   3.253   0.143 -0.6622  0.9387 -0.8867
 6113TIP3   OH218344   4.595   3.940   2.061  0.7411  0.2555 -0.3823
 6113TIP3    H118345   4.512   3.987   2.066  1.0445  0.6928  0.7474
 6113TIP3    H218346   4.608   3.924   1.968  0.0877  1.4319 -0.6908
 6114TIP3   OH218347   1.971   1.272   2.148 -0.4017  0.0706 -0.1630
 6114TIP3    H118348   2.030   1.232   2.212 -0.9963  0.9527  0.9833
 6114TIP3    H218349   2.029   1.305   2.079  0.4053  0.4866  0.6917
 6115TIP3   OH218350   5.541   3.212   4.282 -0.1344  0.0756  0.2466
 6115TIP3    H118351   5.452   3.234   4.310 -0.4226 -0.3590 -0.3001
 6115TIP3    H218352   5.567   3.286   4.227 -0.2372  0.1136  0.2487
 6116TIP3   OH218353   1.899   1.147   3.364  0.0646  0.1146 -0.3191
 6116TIP3    H118354   1.878   1.057   3.390  0.2186  0.2846  0.4003
 6116TIP3    H218355   1.985   1.141   3.322 -0.3870 -0.2296 -1.2346
 6117TIP3   OH218356   0.149   0.893   5.138 -0.0676  0.0592  0.7016
 6117TIP3    H118357   0.170   0.837   5.063 -0.8942  0.1398  0.3997
 6117TIP3    H218358   0.123   0.832   5.207  1.6387 -0.0823  1.2734
 6118TIP3   OH218359   0.003   4.508   3.696 -0.1651 -0.0280  0.3437
 6118TIP3    H118360  -0.003   4.455   3.775 -2.2655 -0.9499 -0.3688
 6118TIP3    H218361   0.019   4.444   3.626 -0.4280  0.5274 -0.2320
 6119TIP3   OH218362   1.646   4.444   0.203 -0.1280  0.0515 -0.2469
 6119TIP3    H118363   1.699   4.365   0.213 -0.1126 -0.0579 -1.0514
 6119TIP3    H218364   1.684   4.488   0.126  0.9531  1.7304  1.1847
 6120TIP3   OH218365   1.894   1.415   5.095  0.1944  0.0269 -0.0991
 6120TIP3    H118366   1.926   1.406   5.006  0.4623  1.4136 -0.1691
 6120TIP3    H218367   1.970   1.396   5.150 -0.2454 -1.9545 -0.0944
 6121TIP3   OH218368   2.142   2.152   3.446 -0.0193  0.4585  0.4710
 6121TIP3    H118369   2.183   2.238   3.453  2.1069 -0.4397  0.1585
 6121TIP3    H218370   2.163   2.109   3.530 -0.5466  0.0520  0.3977
 6122TIP3   OH218371   5.806   2.965   1.019 -0.2669 -0.0145  0.0987
 6122TIP3    H118372   5.756   2.914   0.956 -0.2801  0.0406  0.0642
 6122TIP3    H218373   5.786   2.926   1.104  0.9534 -1.0780 -0.0786
 6123TIP3   OH218374   6.198   5.387   0.971  0.6671  0.1946 -0.2490
 6123TIP3    H118375   6.172   5.477   0.951 -1.3886 -0.5569 -1.3577
 6123TIP3    H218376   6.257   5.363   0.900  0.8805  0.5299 -0.1862
 6124TIP3   OH218377   5.767   2.872   1.263 -0.4655  0.0235 -0.2954
 6124TIP3    H118378   5.736   2.925   1.337  1.5893 -0.2665  0.8739
 6124TIP3    H218379   5.724   2.788   1.274 -1.1658  0.3875 -0.1857
 6125TIP3   OH218380   0.547   5.295   0.689  0.1575 -0.1229 -0.6308
 6125TIP3    H118381   0.592   5.369   0.649  0.0069 -0.0373 -0.6408
 6125TIP3    H218382   0.511   5.329   0.771  0.8047 -0.4004 -0.2269
 6126TIP3   OH218383   0.319   0.293   0.169 -0.2311  0.7482  0.5005
 6126TIP3    H118384   0.395   0.292   0.228  0.4897  0.7306 -0.3952
 6126TIP3    H218385   0.243   0.292   0.227  0.3909  3.4725  1.5288
 6127TIP3   OH218386   1.486   2.081   4.681 -0.1200  0.3035  0.0794
 6127TIP3    H118387   1.542   2.159   4.680  1.5702 -0.8706  0.2552
 6127TIP3    H218388   1.403   2.112   4.719  0.8099  1.8184  0.9933
 6128TIP3   OH218389   0.707   4.803   2.986 -0.0746  0.6489 -0.2521
 6128TIP3    H118390   0.649   4.773   3.056  1.3524  2.1771  1.6980
 6128TIP3    H218391   0.667   4.769   2.905 -0.8311 -2.7947  1.3676
 6129TIP3   OH218392   0.945   2.741   0.535 -0.0479 -0.2841 -0.5406
 6129TIP3    H118393   0.937   2.647   0.519  1.5300 -0.2358 -1.9091
 6129TIP3    H218394   0.900   2.782   0.461  0.8986  0.0023 -0.9728
 6130TIP3   OH218395   6.096   0.034   3.748 -0.6735 -0.6273  0.8204
 6130TIP3    H118396   6.079  -0.010   3.665 -0.5192  1.2141 -0.2539
 6130TIP3    H218397   6.016   0.083   3.767  0.1509  0.9456  0.4173
 6131TIP3   OH218398   5.899   4.082   0.398  0.4498 -0.3452  0.3713
 6131TIP3    H118399   5.965   4.014   0.382  0.5897 -0.3424  0.9192
 6131TIP3    H218400   5.863   4.100   0.312  2.4669  1.0018 -0.2763
 6132TIP3   OH218401   5.464   1.955   1.506 -0.0806 -0.3109  0.2570
 6132TIP3    H118402   5.496   1.867   1.486 -1.7582 -1.0319  0.6293
 6132TIP3    H218403   5.469   2.001   1.422 -1.4348 -1.5109 -0.5378
 6133TIP3   OH218404   3.123   0.050   3.321  0.2378 -0.0533  0.0139
 6133TIP3    H118405   3.050   0.096   3.363  0.0893 -0.3021  0.0266
 6133TIP3    H218406   3.092   0.030   3.233 -0.8447 -2.7873  0.9360
 6134TIP3   OH218407   2.913   2.544   4.526 -0.0593  0.8093  0.2616
 6134TIP3    H118408   2.966   2.576   4.599  1.4224  1.4836 -1.0647
 6134TIP3    H218409   2.840   2.605   4.521  0.3376  1.3166  0.5769
 6135TIP3   OH218410   2.607   4.075   3.507  0.1299  0.2141  0.3551
 6135TIP3    H118411   2.657   4.031   3.438  1.2449  2.0088 -0.0633
 6135TIP3    H218412   2.645   4.043   3.589 -1.4005 -2.1606  0.2288
 6136TIP3   OH218413   4.774   2.825   3.407  0.3976 -0.2053 -0.2582
 6136TIP3    H118414   4.750   2.843   3.316  0.1313  1.4251  0.0962
 6136TIP3    H218415   4.715   2.882   3.458  2.9892  1.7441  0.7649
 6137TIP3   OH218416   0.056   5.946   2.721  0.5392 -0.1423  0.0727
 6137TIP3    H118417   0.019   5.860   2.739 -1.5274  0.8666  1.0700
 6137TIP3    H218418   0.149   5.939   2.742  0.6770 -2.4124 -1.0446
 6138TIP3   OH218419   4.094   4.126   0.916  0.5824 -0.3354  0.2666
 6138TIP3    H118420   4.115   4.187   0.987 -0.9742  1.2686 -0.6033
 6138TIP3    H218421   4.178   4.112   0.872  1.0639  0.7698  0.7825
 6139TIP3   OH218422   3.701   5.812   3.266  0.3444  0.4570 -0.8721
 6139TIP3    H118423   3.775   5.762   3.231 -0.6471 -0.5831 -1.5392
 6139TIP3    H218424   3.657   5.751   3.325 -1.1670  0.3227 -2.0768
 6140TIP3   OH218425   1.290   4.503   4.677  0.7383  0.2979  0.2178
 6140TIP3    H118426   1.277   4.536   4.766  0.8399  0.4800  0.1653
 6140TIP3    H218427   1.384   4.516   4.660  1.6050 -3.1584  1.4751
 6141TIP3   OH218428   3.581   4.158   1.550  0.2169 -0.4862  0.2703
 6141TIP3    H118429   3.508   4.109   1.512  1.4734 -2.0539 -0.2583
 6141TIP3    H218430   3.590   4.124   1.638 -0.7113  0.9106  0.9374
 6142TIP3   OH218431   2.335   2.969   0.832 -0.0345 -0.4363 -0.3758
 6142TIP3    H118432   2.302   2.970   0.922  0.8425 -3.0010  0.0354
 6142TIP3    H218433   2.257   2.953   0.778 -0.5518  1.0504 -0.1312
 6143TIP3   OH218434   5.274   3.873   2.433 -0.6098  0.0354  0.1410
 6143TIP3    H118435   5.313   3.924   2.362  0.3172  0.0246  0.6299
 6143TIP3    H218436   5.180   3.872   2.413 -0.5172  1.0770 -0.4090
 6144TIP3   OH218437   4.215   2.300   1.062 -0.2507  0.0350  0.0882
 6144TIP3    H118438   4.246   2.334   0.978 -1.5408 -0.7304 -0.7311
 6144TIP3    H218439   4.151   2.364   1.092 -1.3250 -0.7007 -0.5579
 6145TIP3   OH218440   1.017   5.599   0.739 -0.4009  0.7045  0.3507
 6145TIP3    H118441   1.061   5.526   0.694 -0.4160  1.4079 -0.8330
 6145TIP3    H218442   0.934   5.562   0.770  1.0806 -0.7687  2.9808
 6146TIP3   OH218443   2.062   0.165   3.466 -0.3720  0.0985  0.0667
 6146TIP3    H118444   2.051   0.070   3.463 -0.9423  0.1633  0.0980
 6146TIP3    H218445   2.097   0.188   3.380  1.6719 -0.3690  0.7172
 6147TIP3   OH218446   0.201   3.273   4.151  0.0507 -0.1991 -0.1188
 6147TIP3    H118447   0.273   3.299   4.209 -0.3765  1.1605 -0.1523
 6147TIP3    H218448   0.126   3.262   4.210  0.5042 -2.8145  0.0867
 6148TIP3   OH218449   3.915   2.437   4.200 -0.2922  0.4747  0.6590
 6148TIP3    H118450   3.857   2.501   4.160  2.5831  1.3475 -2.4965
 6148TIP3    H218451   3.917   2.364   4.139  0.2635 -0.5259  1.8169
 6149TIP3   OH218452   5.297  -0.011   4.204  0.7342  0.9204  0.0500
 6149TIP3    H118453   5.239   0.065   4.200  1.1972  1.2385 -0.9240
 6149TIP3    H218454   5.324  -0.025   4.113  2.4783  0.9917  0.5395
 6150TIP3   OH218455   4.769   3.424   2.999 -0.3602  0.1679 -0.0637
 6150TIP3    H118456   4.843   3.418   3.060 -0.2692  1.3478 -0.0319
 6150TIP3    H218457   4.802   3.476   2.926 -0.8563 -0.1580 -0.5250
 6151TIP3   OH218458   0.889   1.536   4.845 -0.2167  0.2272 -0.1360
 6151TIP3    H118459   0.847   1.511   4.927  0.0174 -1.1766 -0.4174
 6151TIP3    H218460   0.977   1.498   4.851 -0.4842 -0.6188 -1.3913
 6152TIP3   OH218461   2.823   5.901   4.077  0.1595  0.3191 -0.0144
 6152TIP3    H118462   2.883   5.903   4.002  2.2517  0.8290  1.5766
 6152TIP3    H218463   2.810   5.993   4.100 -0.0493  0.1495  0.5671
 6153TIP3   OH218464   0.304   3.962   0.871 -0.5887 -0.5213 -0.0434
 6153TIP3    H118465   0.382   3.967   0.815 -0.3615  0.5839  0.3322
 6153TIP3    H218466   0.251   3.893   0.833 -0.4829  0.2608 -1.6956
 6154TIP3   OH218467   3.001   3.112   0.886 -0.0804 -0.3057 -0.0809
 6154TIP3    H118468   3.054   3.038   0.916 -0.8917 -0.7592  0.2406
 6154TIP3    H218469   3.064   3.168   0.838  0.9059 -0.3156  1.1555
 6155TIP3   OH218470   5.682   0.948   2.069 -0.3737 -0.1516  0.0226
 6155TIP3    H118471   5.649   1.038   2.072  0.4542  0.1606 -0.0654
 6155TIP3    H218472   5.732   0.943   1.988 -1.7192 -1.1723 -0.7941
 6156TIP3   OH218473   6.233   0.646   4.729  0.8478  0.6947  0.1273
 6156TIP3    H118474   6.308   0.587   4.742  0.6878  0.9755  2.8781
 6156TIP3    H218475   6.157   0.592   4.748  0.4890  1.0685 -0.2282
 6157TIP3   OH218476   3.727   2.896   2.619 -0.0557  0.4713 -0.4719
 6157TIP3    H118477   3.652   2.900   2.678  0.8471 -4.7747  1.5967
 6157TIP3    H218478   3.794   2.949   2.662 -1.5094  2.6679 -0.7525
 6158TIP3   OH218479   4.929   3.378   3.610 -0.6718  0.4131 -0.0486
 6158TIP3    H118480   4.936   3.290   3.572 -0.6325 -0.2548  1.4351
 6158TIP3    H218481   5.019   3.411   3.610 -0.2535 -0.6198  1.7727
 6159TIP3   OH218482   2.068   2.139   1.377  0.1214 -0.4861  0.0287
 6159TIP3    H118483   2.125   2.143   1.454 -0.8235  0.0493  0.7213
 6159TIP3    H218484   2.044   2.230   1.360 -0.4257 -0.6935 -0.3396
 6160TIP3   OH218485   0.662   2.471   1.536  0.0103 -0.0066 -0.2658
 6160TIP3    H118486   0.660   2.486   1.441  1.0400 -0.9461 -0.4573
 6160TIP3    H218487   0.721   2.540   1.569  0.7727 -0.5325 -0.5023
 6161TIP3   OH218488   2.287   0.961   0.446 -0.0687 -0.1777 -0.1908
 6161TIP3    H118489   2.205   0.926   0.480 -0.7761 -0.5813 -2.1903
 6161TIP3    H218490   2.289   0.935   0.354  1.9714  0.4379 -0.3848
 6162TIP3   OH218491   2.394   2.920   3.524  1.0204  0.2574 -0.4280
 6162TIP3    H118492   2.473   2.966   3.497  0.1430  0.9065 -1.9835
 6162TIP3    H218493   2.328   2.988   3.535  0.3171 -0.3988 -0.4755
 6163TIP3   OH218494   0.630   1.977   4.347 -0.4509 -0.7733 -0.8424
 6163TIP3    H118495   0.679   1.895   4.355  2.1734  0.5537 -2.1485
 6163TIP3    H218496   0.570   1.976   4.421  2.1077 -2.1907  1.3863
 6164TIP3   OH218497   3.143   0.474   3.301 -0.8510 -0.1484  0.0597
 6164TIP3    H118498   3.103   0.403   3.250 -0.8026  0.4720 -0.8526
 6164TIP3    H218499   3.068   0.523   3.336 -0.8821 -0.2632  0.1574
 6165TIP3   OH218500   5.004   5.776   1.517  0.0893  0.2458 -0.6506
 6165TIP3    H118501   4.960   5.860   1.529  0.2458  0.2919 -0.3858
 6165TIP3    H218502   5.023   5.747   1.606  0.9205  0.3981 -0.7748
 6166TIP3   OH218503   5.527   4.981   3.737 -0.3700 -0.2632  0.1081
 6166TIP3    H118504   5.493   4.955   3.651 -0.0300 -0.5161  0.0457
 6166TIP3    H218505   5.620   4.958   3.734 -0.8621 -2.7885  1.4825
 6167TIP3   OH218506   2.390   5.630   2.672  0.1151 -0.0229 -0.1114
 6167TIP3    H118507   2.448   5.692   2.628  0.6551 -0.7552 -0.4672
 6167TIP3    H218508   2.425   5.623   2.761  0.4046 -0.2415 -0.2397
 6168TIP3   OH218509   3.567   0.335   2.292 -0.0514 -0.1543  0.4340
 6168TIP3    H118510   3.628   0.310   2.361  0.3262  0.3872  0.3020
 6168TIP3    H218511   3.516   0.256   2.275  0.4497 -0.5421  0.7170
 6169TIP3   OH218512   0.162   1.527   1.946 -0.4012  0.6251 -0.5902
 6169TIP3    H118513   0.141   1.550   2.037  1.0055  0.1959 -0.1328
 6169TIP3    H218514   0.218   1.598   1.915 -0.1619  0.3395 -0.8213
 6170TIP3   OH218515   0.889   4.801   4.206 -1.0166 -0.3535  0.1646
 6170TIP3    H118516   0.871   4.819   4.299 -1.1401 -2.6074  0.6505
 6170TIP3    H218517   0.949   4.727   4.208 -1.9416 -1.1968 -1.5543
 6171TIP3   OH218518   3.848   4.121   1.415  0.4728  0.2880 -0.2209
 6171TIP3    H118519   3.757   4.125   1.447  0.9767  0.2426  1.2797
 6171TIP3    H218520   3.839   4.111   1.321 -1.0980 -0.0766 -0.0675
 6172TIP3   OH218521   5.159   5.703   4.081 -0.1316 -0.1630  0.3438
 6172TIP3    H118522   5.228   5.698   4.015 -0.1043  3.2604 -0.1082
 6172TIP3    H218523   5.191   5.652   4.155  1.9560 -0.3112 -0.6172
 6173TIP3   OH218524   5.840   2.348   4.417  0.0314 -0.0661 -0.0112
 6173TIP3    H118525   5.903   2.281   4.391  0.3609 -0.0832  0.8036
 6173TIP3    H218526   5.783   2.305   4.480  0.2470  0.4210  0.5208
 6174TIP3   OH218527   1.287   1.557   1.804 -0.1900  0.2904  0.5731
 6174TIP3    H118528   1.343   1.630   1.780  0.1035 -0.3059 -0.6744
 6174TIP3    H218529   1.221   1.553   1.734 -0.6422 -0.1854  1.0101
 6175TIP3   OH218530   5.421   1.714   1.143  0.5190 -0.1558  0.0874
 6175TIP3    H118531   5.364   1.765   1.201  0.3010  1.2894 -1.3214
 6175TIP3    H218532   5.507   1.718   1.184 -0.2991 -2.4060  2.2760
 6176TIP3   OH218533   6.325   0.713   3.377  0.0684 -0.0306  0.6547
 6176TIP3    H118534   6.317   0.620   3.396 -0.1531 -0.6097 -2.0124
 6176TIP3    H218535   6.252   0.733   3.319  1.9202  1.0130 -1.4607
 6177TIP3   OH218536   2.225   1.453   1.027  1.1601 -0.5786  0.5565
 6177TIP3    H118537   2.188   1.531   0.984  2.1736 -0.8139 -0.7901
 6177TIP3    H218538   2.314   1.479   1.051  0.6652 -0.4937  2.4876
 6178TIP3   OH218539   0.244   3.881   2.755  0.2893 -0.1606  0.7795
 6178TIP3    H118540   0.154   3.856   2.737  0.1816 -1.3040  2.6173
 6178TIP3    H218541   0.237   3.961   2.807  0.1874 -1.4215  2.7846
 6179TIP3   OH218542   1.130   3.064   2.549 -0.7324 -0.0636  0.2059
 6179TIP3    H118543   1.116   3.096   2.460 -0.0696 -1.6005 -0.4973
 6179TIP3    H218544   1.091   3.130   2.605 -0.0085  1.5962 -1.1599
 6180TIP3   OH218545   1.162   2.916   0.226  0.5241  0.0598 -0.5138
 6180TIP3    H118546   1.115   2.887   0.148 -0.2725  0.8217 -0.3359
 6180TIP3    H218547   1.175   3.010   0.213 -1.1285  0.5580  0.9887
 6181TIP3   OH218548   2.343   4.318   1.288 -0.0348 -0.6472 -0.2298
 6181TIP3    H118549   2.385   4.293   1.205  0.8935  1.1549 -0.3456
 6181TIP3    H218550   2.416   4.332   1.348 -0.7077 -2.1900  1.0125
 6182TIP3   OH218551   2.985   1.368   3.687 -0.0984  0.1199 -0.3187
 6182TIP3    H118552   2.893   1.344   3.701  0.1499 -0.2872  0.6668
 6182TIP3    H218553   3.032   1.285   3.691  0.3362  0.3451 -0.6947
 6183TIP3   OH218554   6.041   5.366   3.451 -0.1296  0.5144 -0.1073
 6183TIP3    H118555   6.025   5.461   3.447 -0.6412  0.5467  1.6610
 6183TIP3    H218556   6.045   5.338   3.360  0.3073  2.2797 -0.6719
 6184TIP3   OH218557   1.078   4.476   3.083 -0.7972 -0.1991  0.1779
 6184TIP3    H118558   1.098   4.390   3.046 -0.2744  0.3222 -0.7591
 6184TIP3    H218559   1.034   4.524   3.013  2.5946  1.7657 -0.8473
 6185TIP3   OH218560   4.565   3.380   0.877 -0.3644 -0.4662 -0.6153
 6185TIP3    H118561   4.504   3.312   0.903 -0.7545  1.0054  2.9694
 6185TIP3    H218562   4.580   3.431   0.957  1.9006  2.0976 -2.4520
 6186TIP3   OH218563   3.416   3.262   1.921 -0.0143  0.5187 -0.0190
 6186TIP3    H118564   3.423   3.282   2.014  1.3047 -0.2731  0.0863
 6186TIP3    H218565   3.365   3.181   1.918  1.1201 -0.2365  0.1589
 6187TIP3   OH218566   1.510   0.904   2.334 -0.2728 -0.2396  0.5468
 6187TIP3    H118567   1.453   0.979   2.351  0.8638  1.0709 -0.9914
 6187TIP3    H218568   1.547   0.922   2.247  0.6792 -2.1855  0.5011
 6188TIP3   OH218569   5.612   5.587   1.069 -0.3181 -0.2232  0.2161
 6188TIP3    H118570   5.607   5.605   0.975 -0.9029  0.6539  0.3940
 6188TIP3    H218571   5.694   5.539   1.080  0.8535  1.4839 -0.4815
 6189TIP3   OH218572   3.847   2.707   5.102  0.2981 -0.4324 -0.5705
 6189TIP3    H118573   3.838   2.674   5.192 -0.3187 -0.8580 -0.7791
 6189TIP3    H218574   3.915   2.774   5.108 -0.7090  0.5487  0.4995
 6190TIP3   OH218575   6.296   3.268   0.259  0.8291  0.5362 -0.2302
 6190TIP3    H118576   6.243   3.318   0.321  2.2003  1.0241  0.5895
 6190TIP3    H218577   6.242   3.191   0.238  0.4255  0.1929  1.7992
 6191TIP3   OH218578   0.915   1.999   4.450 -0.2830 -0.6742 -0.0641
 6191TIP3    H118579   0.867   1.964   4.525  0.8066  0.2209  1.1056
 6191TIP3    H218580   0.899   2.093   4.454  1.5723 -0.3444  0.4077
 6192TIP3   OH218581   4.414   5.538   3.468 -0.0780 -0.1098 -0.2735
 6192TIP3    H118582   4.443   5.617   3.513  2.0925 -1.3684  0.6614
 6192TIP3    H218583   4.382   5.481   3.538  0.2038 -0.8046 -0.7004
 6193TIP3   OH218584   4.823   1.844   4.220  0.2027 -0.5028  0.2823
 6193TIP3    H118585   4.849   1.913   4.160 -1.0652  0.1290  0.4354
 6193TIP3    H218586   4.833   1.763   4.170 -0.5173 -0.0140 -0.6869
 6194TIP3   OH218587   4.980   2.214   2.264  0.2077 -0.3783 -0.5318
 6194TIP3    H118588   4.957   2.197   2.173 -0.0103  0.6087 -0.6692
 6194TIP3    H218589   5.042   2.286   2.260  0.9884 -0.9932  0.0488
 6195TIP3   OH218590   3.379   3.368   1.487 -0.1276  0.2933  0.0612
 6195TIP3    H118591   3.430   3.332   1.414 -1.6892  0.8641 -1.3826
 6195TIP3    H218592   3.415   3.456   1.500 -0.9945  0.8904 -1.2977
 6196TIP3   OH218593   1.225   2.146   4.720 -0.1295 -0.1117  0.0731
 6196TIP3    H118594   1.160   2.084   4.750 -1.4889  1.8433  1.4262
 6196TIP3    H218595   1.176   2.208   4.665  1.0756  0.0416 -0.8853
 6197TIP3   OH218596   3.326   0.877   1.062  0.4273 -0.0746  0.1900
 6197TIP3    H118597   3.357   0.966   1.046  0.1228  0.1792  0.9192
 6197TIP3    H218598   3.356   0.857   1.151 -1.4240  0.1837  0.9203
 6198TIP3   OH218599   4.838   5.287   3.667  0.8458 -0.1852  0.2464
 6198TIP3    H118600   4.813   5.354   3.732  2.1908 -0.4696  1.0942
 6198TIP3    H218601   4.933   5.282   3.673  1.1914  0.7364 -2.7319
 6199TIP3   OH218602   5.278   3.371   2.024 -0.2165  0.3615 -0.4571
 6199TIP3    H118603   5.269   3.277   2.038  2.1249 -0.4209 -3.2481
 6199TIP3    H218604   5.215   3.411   2.085  0.8720 -2.8087  3.0928
 6200TIP3   OH218605   3.406   1.461   0.582  0.5171  0.5174  0.6432
 6200TIP3    H118606   3.370   1.423   0.501 -0.0829  0.7685  0.7863
 6200TIP3    H218607   3.332   1.506   0.622  1.4814  2.9666 -0.1633
 6201TIP3   OH218608   2.824   4.281   1.542  0.1226 -0.9259  0.6442
 6201TIP3    H118609   2.821   4.190   1.571 -0.9295 -0.5674  1.7611
 6201TIP3    H218610   2.897   4.285   1.480  0.0861 -2.5476  0.4752
 6202TIP3   OH218611   3.290   5.141   0.996  0.0439  0.1191  0.4957
 6202TIP3    H118612   3.261   5.116   0.908 -1.0427 -0.5114  1.0199
 6202TIP3    H218613   3.377   5.103   1.004 -0.2808 -0.7313  0.0757
 6203TIP3   OH218614   5.829   1.780   0.854 -0.8932  0.1587  0.0673
 6203TIP3    H118615   5.832   1.730   0.935 -0.5306  0.2132  0.0869
 6203TIP3    H218616   5.915   1.768   0.815 -0.0750  2.3395  1.0261
 6204TIP3   OH218617   4.914   1.305   1.903 -0.4627  0.2282  0.0849
 6204TIP3    H118618   4.866   1.387   1.893 -0.3448  0.2622 -0.2292
 6204TIP3    H218619   4.853   1.246   1.946 -0.6776  0.3687 -0.0278
 6205TIP3   OH218620   4.315   1.280   2.419 -0.0385 -0.2334  0.0552
 6205TIP3    H118621   4.396   1.240   2.386  2.0193  0.9513  3.2170
 6205TIP3    H218622   4.280   1.215   2.479 -2.8127 -1.6588 -2.8219
 6206TIP3   OH218623   3.557   4.129   0.143 -0.6373  0.0577  0.0848
 6206TIP3    H118624   3.488   4.183   0.182 -2.0645 -2.3099  1.0144
 6206TIP3    H218625   3.637   4.182   0.153 -2.0548  2.3679  0.0662
 6207TIP3   OH218626   4.040   5.414   1.433  0.2004  0.0446 -0.2734
 6207TIP3    H118627   4.106   5.412   1.364  0.4674  0.1836 -0.0280
 6207TIP3    H218628   4.050   5.501   1.473 -0.0606  0.0270 -0.1691
 6208TIP3   OH218629   5.232   0.618   1.671 -0.3344 -0.2504 -0.0599
 6208TIP3    H118630   5.190   0.563   1.737 -0.8428  0.9945  0.7059
 6208TIP3    H218631   5.300   0.665   1.719 -1.6349  1.7380 -0.0381
 6209TIP3   OH218632   2.442   5.385   0.017 -0.2516  0.0086  0.3148
 6209TIP3    H118633   2.427   5.291   0.027 -1.5794  0.2106  0.4061
 6209TIP3    H218634   2.418   5.422   0.102 -1.4338  0.5936 -0.2411
 6210TIP3   OH218635   2.971   1.922   4.327  0.0053  0.3932 -0.4113
 6210TIP3    H118636   2.920   1.842   4.340  0.0119  0.4905  0.2503
 6210TIP3    H218637   2.909   1.993   4.340  0.0238  0.5003 -0.8964
 6211TIP3   OH218638   5.290   1.172   3.295  0.0973 -0.1866 -0.0039
 6211TIP3    H118639   5.348   1.244   3.271  0.5148 -0.7192 -0.5927
 6211TIP3    H218640   5.204   1.200   3.263 -0.1491  0.9126  1.4642
 6212TIP3   OH218641   1.808   5.013   2.792  0.3450 -0.3833 -0.4853
 6212TIP3    H118642   1.726   5.056   2.816  1.3585  0.7495  1.2241
 6212TIP3    H218643   1.826   4.954   2.865  1.1881 -0.3891 -0.6848
 6213TIP3   OH218644   3.500   3.279   0.010 -0.3885  0.2650  0.1148
 6213TIP3    H118645   3.463   3.331   0.081 -0.0985  0.7469 -0.0887
 6213TIP3    H218646   3.425   3.252  -0.041 -0.7299 -1.0625  1.2470
 6214TIP3   OH218647   3.468   4.694   2.560  0.7022  0.3517  0.0548
 6214TIP3    H118648   3.509   4.779   2.572  1.1590 -0.0269  1.4956
 6214TIP3    H218649   3.376   4.709   2.580  0.7944  0.5094  0.3813
 6215TIP3   OH218650   4.939   5.515   1.976  0.1297 -0.1065  0.1360
 6215TIP3    H118651   4.986   5.542   2.055 -1.3162  0.9677  0.6604
 6215TIP3    H218652   4.870   5.457   2.008 -0.4211  0.2782 -0.3316
 6216TIP3   OH218653   6.237   5.347   3.979  0.4276 -0.0011 -0.4923
 6216TIP3    H118654   6.189   5.313   3.903 -0.1790 -2.1307  0.7702
 6216TIP3    H218655   6.325   5.313   3.969  0.6348  0.6035 -0.7669
 6217TIP3   OH218656   5.638   5.931   2.938 -0.2095 -0.2293  0.2773
 6217TIP3    H118657   5.732   5.938   2.923 -0.4604  1.1316 -0.8878
 6217TIP3    H218658   5.607   6.022   2.943 -1.3577 -0.6498  1.4091
 6218TIP3   OH218659   0.768   0.687   4.824  0.1365  0.6196 -0.0624
 6218TIP3    H118660   0.743   0.756   4.885  1.1689  0.3096  0.7484
 6218TIP3    H218661   0.856   0.711   4.796  0.6454 -0.5177  0.4950
 6219TIP3   OH218662   2.770   1.987   4.642  0.2813  0.1626  0.7389
 6219TIP3    H118663   2.731   2.074   4.654  1.8051  0.8238  1.0169
 6219TIP3    H218664   2.848   1.987   4.697 -0.1287 -1.7030  1.4059
 6220TIP3   OH218665   6.112   2.716   4.859 -0.1874  0.1142  0.6575
 6220TIP3    H118666   6.029   2.756   4.886 -0.8355  0.6545 -1.9059
 6220TIP3    H218667   6.165   2.790   4.828 -0.6053 -0.6559 -2.1674
 6221TIP3   OH218668   2.437   4.833   3.692  0.2766 -0.8024  0.0109
 6221TIP3    H118669   2.506   4.877   3.742  1.1311 -0.9337 -1.0240
 6221TIP3    H218670   2.446   4.741   3.714  0.4843 -0.8283 -0.1778
 6222TIP3   OH218671   3.701   4.896   2.905 -0.4779 -0.2023 -0.2221
 6222TIP3    H118672   3.677   4.856   2.822  1.0265 -0.8721 -0.3719
 6222TIP3    H218673   3.795   4.914   2.897 -0.5166  0.6531  0.9549
 6223TIP3   OH218674   1.967   5.462   0.318  0.1736  0.0123 -0.7085
 6223TIP3    H118675   1.924   5.470   0.232 -0.1600 -1.3683 -0.6877
 6223TIP3    H218676   2.040   5.524   0.313 -0.0920  0.2765 -1.8290
 6224TIP3   OH218677   4.446   3.768   4.833 -0.1241  0.1636  0.4212
 6224TIP3    H118678   4.364   3.805   4.867 -0.5529 -1.3787  1.1601
 6224TIP3    H218679   4.456   3.685   4.881  1.2981 -0.1961 -0.4584
 6225TIP3   OH218680   0.495   2.865   2.003 -0.3336  0.4020 -0.2962
 6225TIP3    H118681   0.412   2.823   1.980  0.0518 -0.2403 -0.5477
 6225TIP3    H218682   0.478   2.958   1.991 -0.0227  0.1567 -3.9031
 6226TIP3   OH218683   3.407   0.200   1.815 -0.8776  0.1214  0.5647
 6226TIP3    H118684   3.363   0.129   1.767  1.4463 -0.5101 -0.8107
 6226TIP3    H218685   3.337   0.261   1.837 -2.8127 -2.0542  0.8453
 6227TIP3   OH218686   0.133   4.879   1.703  0.0559 -0.0174 -0.7860
 6227TIP3    H118687   0.102   4.818   1.770 -0.1693  1.2840  0.3230
 6227TIP3    H218688   0.071   4.952   1.705  1.2405  1.0249 -0.9333
 6228TIP3   OH218689   2.652   4.371   4.146  0.7665 -0.8511 -0.2466
 6228TIP3    H118690   2.665   4.338   4.057  0.4354  1.8225 -1.4078
 6228TIP3    H218691   2.739   4.400   4.174  0.3692  1.4338 -1.1560
 6229TIP3   OH218692   0.397   5.493   2.484 -0.0214 -0.2724  0.4393
 6229TIP3    H118693   0.362   5.462   2.401 -0.1822  2.7119 -0.7439
 6229TIP3    H218694   0.472   5.436   2.502  0.7440 -0.3204 -2.3990
 6230TIP3   OH218695   1.377   3.976   4.799 -0.3908  0.0904 -0.4421
 6230TIP3    H118696   1.320   3.997   4.874  0.0431 -0.0063 -0.0814
 6230TIP3    H218697   1.340   3.896   4.762  1.1034 -1.5781  1.4772
 6231TIP3   OH218698   2.676   0.171   1.325 -0.0298  0.4153  0.1263
 6231TIP3    H118699   2.608   0.109   1.350  0.4510 -0.0957  0.1744
 6231TIP3    H218700   2.741   0.118   1.278  1.7129  0.3473  2.4694
 6232TIP3   OH218701   2.218   1.873   1.063 -0.2813 -0.0030 -0.7722
 6232TIP3    H118702   2.264   1.895   0.982  1.4909 -0.3178  0.1132
 6232TIP3    H218703   2.237   1.946   1.122  1.5926 -1.5178  0.5815
 6233TIP3   OH218704   6.300   2.135   3.832 -0.0910  0.0670  0.2210
 6233TIP3    H118705   6.340   2.048   3.823  0.8763  0.5778 -0.6434
 6233TIP3    H218706   6.349   2.177   3.903  1.0036  0.7109 -0.8705
 6234TIP3   OH218707   4.566   1.491   1.366  0.3984  0.7567 -0.6504
 6234TIP3    H118708   4.515   1.420   1.328 -1.3782  1.2049  0.7676
 6234TIP3    H218709   4.535   1.570   1.320  0.7123  0.8829 -0.6482
 6235TIP3   OH218710   2.958   5.161   4.081 -0.9812  0.1918 -0.3178
 6235TIP3    H118711   2.985   5.201   3.998 -0.7071  0.4562 -0.1045
 6235TIP3    H218712   2.900   5.090   4.056  0.9809 -1.3080 -0.9110
 6236TIP3   OH218713   5.294   0.887   1.165  0.0251  0.1726  0.0464
 6236TIP3    H118714   5.302   0.977   1.196  0.6131  0.1002  0.1242
 6236TIP3    H218715   5.234   0.892   1.091 -0.9271  0.4316  0.8262
 6237TIP3   OH218716   5.522   2.161   0.926 -1.3418 -0.2047 -0.0069
 6237TIP3    H118717   5.522   2.212   1.007 -0.1973  0.0143 -0.1253
 6237TIP3    H218718   5.577   2.085   0.945  0.7310  0.9216 -1.1851
 6238TIP3   OH218719   0.617   2.552   1.246  0.3732  0.5268 -0.0528
 6238TIP3    H118720   0.698   2.519   1.208  1.6206  2.0061  1.1937
 6238TIP3    H218721   0.554   2.548   1.174  0.9897 -2.3991 -0.5492
 6239TIP3   OH218722   3.569   4.284   1.113  0.6779 -0.5242 -0.0616
 6239TIP3    H118723   3.614   4.317   1.036  0.4396  1.8646  0.7269
 6239TIP3    H218724   3.477   4.308   1.100  0.5915 -0.3094  0.8115
 6240TIP3   OH218725   5.510   0.599   2.496  0.3517 -0.1715 -0.0752
 6240TIP3    H118726   5.438   0.539   2.479 -0.6110 -0.0585  2.9097
 6240TIP3    H218727   5.550   0.566   2.577  1.3961  1.7345  0.2535
 6241TIP3   OH218728   6.073   3.649   2.086  0.1840 -0.0948  0.0882
 6241TIP3    H118729   6.039   3.649   1.997 -1.1782 -0.2171  0.5830
 6241TIP3    H218730   6.128   3.571   2.090  1.9126  0.9925 -1.2115
 6242TIP3   OH218731   1.736   4.462   3.765 -0.0470 -0.1812 -0.1134
 6242TIP3    H118732   1.824   4.492   3.741 -0.9818  2.3819 -0.6000
 6242TIP3    H218733   1.749   4.414   3.848  1.8253 -0.1549 -0.3438
 6243TIP3   OH218734   4.838   2.876   4.628  0.1237  0.2918  0.4638
 6243TIP3    H118735   4.767   2.907   4.572  0.0608 -0.2187  0.2549
 6243TIP3    H218736   4.802   2.879   4.716 -0.4968 -0.8557  0.2743
 6244TIP3   OH218737   1.689   5.147   0.730 -0.0239  0.3312 -0.6186
 6244TIP3    H118738   1.727   5.095   0.801  1.4114  2.8251  0.5566
 6244TIP3    H218739   1.594   5.142   0.746  0.0319 -1.9567 -0.6577
 6245TIP3   OH218740   0.845   2.444   4.783  0.3133  0.7388 -0.2725
 6245TIP3    H118741   0.775   2.460   4.720  0.4417  2.5812 -0.0000
 6245TIP3    H218742   0.909   2.391   4.736  0.1144  1.5716 -1.5104
 6246TIP3   OH218743   5.991   5.658   0.186 -0.3584 -0.4497  0.1257
 6246TIP3    H118744   6.068   5.674   0.240  0.8287  1.6959 -2.0033
 6246TIP3    H218745   5.919   5.698   0.234  0.4910  0.5817  0.5770
 6247TIP3   OH218746   4.424   4.650   1.867 -0.2402  0.2815  0.0533
 6247TIP3    H118747   4.366   4.674   1.795 -1.5308 -1.2715  0.5271
 6247TIP3    H218748   4.498   4.710   1.859 -0.5924  0.4811 -2.2520
 6248TIP3   OH218749   4.934   1.280   0.094 -0.3509 -0.3446 -0.0814
 6248TIP3    H118750   4.941   1.207   0.032 -2.5389  0.0223 -0.8506
 6248TIP3    H218751   4.932   1.238   0.180  1.9717 -0.9122 -0.2318
 6249TIP3   OH218752   6.306   1.162   0.343 -0.0112  0.3397  0.4468
 6249TIP3    H118753   6.312   1.206   0.258 -0.4108  0.3881  0.4450
 6249TIP3    H218754   6.285   1.232   0.404 -1.1950  0.0707  0.3644
 6250TIP3   OH218755   4.123   5.831   3.895  0.0837 -0.2566 -0.0376
 6250TIP3    H118756   4.067   5.887   3.841  1.3874  1.5317  0.3782
 6250TIP3    H218757   4.168   5.775   3.832  0.9894  1.2550 -0.8077
 6251TIP3   OH218758   5.202   3.166   0.476 -0.2109 -0.0623  0.4161
 6251TIP3    H118759   5.237   3.244   0.518 -1.6195  0.3129  0.9807
 6251TIP3    H218760   5.141   3.130   0.541  2.8937 -3.6650  1.7056
 6252TIP3   OH218761   3.413   2.324   1.845 -0.1238  0.0926 -0.4325
 6252TIP3    H118762   3.454   2.372   1.917 -0.4475 -0.6387  0.2534
 6252TIP3    H218763   3.323   2.309   1.875 -0.3317 -0.0063 -1.0933
 6253TIP3   OH218764   2.547   3.932   5.005  0.4028  0.4034 -0.0239
 6253TIP3    H118765   2.567   3.897   4.919  2.0570 -2.1614  1.2864
 6253TIP3    H218766   2.462   3.895   5.027  0.7645 -0.3775  0.1063
 6254TIP3   OH218767   5.626   4.387   0.472  0.1168 -0.1445 -0.0651
 6254TIP3    H118768   5.666   4.313   0.425  0.4844  0.8706 -1.4200
 6254TIP3    H218769   5.701   4.439   0.502 -0.1454 -0.0785  0.4827
 6255TIP3   OH218770   3.012   3.756   1.693 -0.5247 -0.6428  0.0817
 6255TIP3    H118771   2.925   3.716   1.700 -0.7071 -0.2709 -0.0026
 6255TIP3    H218772   3.017   3.815   1.768  0.6783 -2.5460  1.5789
 6256TIP3   OH218773   0.391   2.301   4.516  0.6368 -0.0828 -0.1235
 6256TIP3    H118774   0.477   2.344   4.512 -0.6618  2.7742  0.2225
 6256TIP3    H218775   0.357   2.324   4.602 -1.8756  1.8699 -1.5254
 6257TIP3   OH218776   1.298   3.227   1.256 -0.0420 -0.0719  0.0524
 6257TIP3    H118777   1.270   3.316   1.235 -0.1597 -0.2025 -0.3659
 6257TIP3    H218778   1.355   3.236   1.332 -2.1400  0.0858  1.6923
 6258TIP3   OH218779   5.622   0.927   4.628 -0.2181  0.0072 -0.1910
 6258TIP3    H118780   5.696   0.871   4.605 -0.6545 -0.7233  0.1778
 6258TIP3    H218781   5.613   0.986   4.552  0.3622 -0.2814 -0.4946
 6259TIP3   OH218782   4.904   5.591   0.240 -0.0073 -0.2798 -0.1832
 6259TIP3    H118783   4.874   5.622   0.154 -1.1649  0.6261  0.5166
 6259TIP3    H218784   4.951   5.510   0.221 -0.1708 -0.0538 -1.6799
 6260TIP3   OH218785   0.877   3.173   4.834 -0.6178  0.3181  0.9574
 6260TIP3    H118786   0.967   3.205   4.828 -1.6444  3.8301  1.9085
 6260TIP3    H218787   0.864   3.153   4.927 -1.0078  0.4686  0.9384
 6261TIP3   OH218788   4.060   4.242   4.185  0.0169 -0.4923 -0.0316
 6261TIP3    H118789   3.990   4.307   4.193  1.0098  0.5187  0.9000
 6261TIP3    H218790   4.070   4.229   4.091 -1.7930 -1.1107 -0.1702
 6262TIP3   OH218791   2.953   3.949   1.274 -0.1620 -0.1831 -0.1549
 6262TIP3    H118792   3.022   4.015   1.276 -0.1146 -0.2019 -0.8318
 6262TIP3    H218793   2.994   3.873   1.232 -0.0691 -0.8194  1.0582
 6263TIP3   OH218794   5.112   5.190   4.267  0.2911 -0.0995  0.2047
 6263TIP3    H118795   5.103   5.161   4.357 -1.2786  0.0646  0.1270
 6263TIP3    H218796   5.023   5.193   4.233  0.6861  1.4333 -0.8544
 6264TIP3   OH218797   0.769   0.352   3.157 -0.2382  0.3211 -0.1701
 6264TIP3    H118798   0.830   0.340   3.230  0.2472 -0.0597 -0.6332
 6264TIP3    H218799   0.801   0.432   3.114 -0.3615  0.3933 -0.1277
 6265TIP3   OH218800   3.279   5.709   0.105 -0.1262  0.2934  0.0599
 6265TIP3    H118801   3.331   5.783   0.075 -1.1783  1.2764  0.6084
 6265TIP3    H218802   3.343   5.644   0.134  0.8501  0.2726 -2.0279
 6266TIP3   OH218803   3.239   3.254   4.560 -0.0421 -0.5291  0.5707
 6266TIP3    H118804   3.253   3.177   4.506 -0.0816  0.4357 -0.8665
 6266TIP3    H218805   3.262   3.328   4.504 -2.1909  0.6408  1.1056
 6267TIP3   OH218806   5.600   4.684   2.213 -0.4926 -0.4745  0.1577
 6267TIP3    H118807   5.590   4.761   2.157 -2.5790 -1.5500 -1.0409
 6267TIP3    H218808   5.622   4.613   2.152  0.8201 -0.9978  1.1784
 6268TIP3   OH218809   6.107   3.132   0.542 -0.2079  0.2329 -0.3339
 6268TIP3    H118810   6.146   3.167   0.462 -1.4852  0.7118 -0.7693
 6268TIP3    H218811   6.047   3.064   0.512 -0.2968  0.0422  0.2607
 6269TIP3   OH218812   2.354   0.284   3.741  0.0397  0.3400 -0.4834
 6269TIP3    H118813   2.288   0.283   3.810 -0.0788 -0.4081 -0.5916
 6269TIP3    H218814   2.342   0.367   3.697 -0.3903  0.4958 -0.0822
 6270TIP3   OH218815   5.705   4.751   0.690  0.2040  0.2294  0.7285
 6270TIP3    H118816   5.705   4.845   0.675  2.3580 -0.0741 -1.6971
 6270TIP3    H218817   5.612   4.726   0.687 -0.4608  2.2921  2.0841
 6271TIP3   OH218818   2.503   4.837   4.292 -0.8412  0.1813 -0.1368
 6271TIP3    H118819   2.496   4.834   4.388  0.2447  2.3624  0.0698
 6271TIP3    H218820   2.444   4.908   4.266 -1.9694 -1.1129 -1.2304
 6272TIP3   OH218821   4.931   4.815   4.719  0.1194 -0.7244  0.1373
 6272TIP3    H118822   4.898   4.842   4.634 -3.0941 -0.5463  1.2810
 6272TIP3    H218823   4.902   4.724   4.728  0.8768 -0.9126  0.8554
 6273TIP3   OH218824   4.091   1.521   2.585  0.3635 -0.5547 -0.0045
 6273TIP3    H118825   4.153   1.455   2.617  0.2977 -0.8309 -0.4356
 6273TIP3    H218826   4.014   1.470   2.560  0.3986 -0.3403 -0.5607
 6274TIP3   OH218827   5.602   5.190   3.399  0.0350 -0.0593 -0.0211
 6274TIP3    H118828   5.580   5.283   3.396  1.3160  0.2741  0.1990
 6274TIP3    H218829   5.695   5.187   3.374 -0.0019 -1.2793 -0.0466
 6275TIP3   OH218830   2.261   4.202   2.465  0.0093 -0.0761  0.3129
 6275TIP3    H118831   2.344   4.220   2.510  0.2461  0.9101 -0.4849
 6275TIP3    H218832   2.235   4.286   2.428 -1.0141 -0.5227 -0.0145
 6276TIP3   OH218833   3.099   5.380   0.913  0.2860 -0.2187  0.3437
 6276TIP3    H118834   3.155   5.438   0.862  0.9117 -0.1519  1.0864
 6276TIP3    H218835   3.160   5.335   0.972 -0.5996  0.9238  2.2065
 6277TIP3   OH218836   0.374   4.879   3.490  0.1550  0.0265 -0.0295
 6277TIP3    H118837   0.311   4.860   3.421 -0.0017  0.8323 -0.1174
 6277TIP3    H218838   0.322   4.881   3.570  0.2596 -0.4334  0.0535
 6278TIP3   OH218839   1.990   5.147   0.289  0.5166  0.2717 -0.6384
 6278TIP3    H118840   1.992   5.242   0.305  0.0471  0.4361 -1.5255
 6278TIP3    H218841   1.937   5.113   0.361  1.5946  0.5359  0.3186
 6279TIP3   OH218842   2.265   3.018   4.749 -1.0119  0.4252 -0.3009
 6279TIP3    H118843   2.198   3.084   4.736 -1.0168  0.0458 -2.7109
 6279TIP3    H218844   2.270   2.972   4.665 -0.1763 -1.8503  0.8960
 6280TIP3   OH218845   0.181   2.082   0.304 -0.7114 -0.0462  0.4556
 6280TIP3    H118846   0.114   2.138   0.265  0.3973  2.5266  1.9922
 6280TIP3    H218847   0.232   2.049   0.230 -1.2740  1.1672 -0.5002
 6281TIP3   OH218848   3.972   4.903   2.860 -0.0918  0.2839 -0.0876
 6281TIP3    H118849   4.021   4.894   2.943  1.2521  1.7487 -0.6751
 6281TIP3    H218850   4.036   4.878   2.793 -0.0678  2.3595 -0.8889
 6282TIP3   OH218851   2.215   4.247   4.931  0.0032 -0.1988  0.1772
 6282TIP3    H118852   2.233   4.176   4.869  1.5617 -0.7644  1.2108
 6282TIP3    H218853   2.289   4.308   4.919 -1.7631  1.8186 -1.3581
 6283TIP3   OH218854   0.946   1.355   0.563  0.5103  0.3600  0.4380
 6283TIP3    H118855   1.041   1.359   0.580  0.1835 -1.7309  3.6482
 6283TIP3    H218856   0.935   1.276   0.509  0.5313  0.1515  0.7378
 6284TIP3   OH218857   4.287   6.000   3.369 -0.0124 -0.2615 -0.3076
 6284TIP3    H118858   4.358   5.936   3.369 -0.8486 -1.2150 -1.6221
 6284TIP3    H218859   4.236   5.980   3.447  1.3852  0.7617  0.9537
 6285TIP3   OH218860   5.078   4.907   2.561 -0.0610 -0.0457 -0.1693
 6285TIP3    H118861   5.129   4.938   2.485 -1.0114  0.9770 -0.4131
 6285TIP3    H218862   5.124   4.945   2.637  1.1325 -1.4066 -0.1646
 6286TIP3   OH218863   5.846   5.750   1.135  0.3456  0.0255 -0.5364
 6286TIP3    H118864   5.891   5.697   1.202 -2.4814 -0.4845  1.1341
 6286TIP3    H218865   5.854   5.698   1.055 -0.2424 -1.7878  0.5032
 6287TIP3   OH218866   2.945   5.571   4.956 -0.6659 -0.3780 -0.0700
 6287TIP3    H118867   2.970   5.655   4.919  1.4929 -1.8466 -2.2660
 6287TIP3    H218868   2.861   5.551   4.915 -0.9442  0.4414  0.0775
 6288TIP3   OH218869   1.805   3.931   0.946 -0.3456 -0.3538  0.3156
 6288TIP3    H118870   1.897   3.924   0.921 -0.7756 -3.0680 -0.9064
 6288TIP3    H218871   1.761   3.965   0.868 -0.3946  1.3096  1.0201
 6289TIP3   OH218872   3.311   2.346   2.304 -0.3327  0.0177 -0.8017
 6289TIP3    H118873   3.286   2.416   2.364  0.8475  0.1505 -0.4369
 6289TIP3    H218874   3.397   2.318   2.335 -0.9877 -1.9541 -0.6210
 6290TIP3   OH218875   4.760   0.354   2.413 -0.0628  0.2774  0.0916
 6290TIP3    H118876   4.753   0.412   2.336  0.9890  3.2341  2.0371
 6290TIP3    H218877   4.684   0.376   2.466 -0.3295 -1.1239  0.3223
 6291TIP3   OH218878   4.571   2.938   4.473 -0.2934 -0.3291 -0.1673
 6291TIP3    H118879   4.610   3.016   4.434  0.6340 -1.2127 -1.0914
 6291TIP3    H218880   4.489   2.968   4.511  0.5809  1.3130  0.5228
 6292TIP3   OH218881   6.162   0.758   0.550  0.2431  0.1686 -0.1557
 6292TIP3    H118882   6.216   0.688   0.586 -0.0310  0.5347  0.9994
 6292TIP3    H218883   6.217   0.797   0.482  1.2819  0.2591  0.7060
 6293TIP3   OH218884   5.536   1.148   4.908  0.2297 -0.0543  0.3347
 6293TIP3    H118885   5.506   1.192   4.829  2.2862  0.1083 -0.4195
 6293TIP3    H218886   5.509   1.057   4.897  0.5534 -0.0433 -0.5879
 6294TIP3   OH218887   2.657   0.796   4.344 -0.5771 -0.4047  0.4430
 6294TIP3    H118888   2.681   0.885   4.319 -1.0764 -0.1761  0.7861
 6294TIP3    H218889   2.663   0.746   4.262  0.0628 -0.1413  0.3225
 6295TIP3   OH218890   0.139   4.712   4.724  0.2225 -0.2829  0.5860
 6295TIP3    H118891   0.137   4.790   4.780  0.5325 -0.4924  0.8946
 6295TIP3    H218892   0.231   4.703   4.699  1.0554 -2.8509  3.8626
 6296TIP3   OH218893   3.353   5.264   2.349 -0.0022 -0.2130 -0.4120
 6296TIP3    H118894   3.415   5.298   2.413 -0.3012  1.0217 -0.7456
 6296TIP3    H218895   3.405   5.247   2.271  0.4824 -2.3439  0.3198
 6297TIP3   OH218896   1.273   2.808   1.641 -0.0215 -1.2496  0.4247
 6297TIP3    H118897   1.237   2.759   1.567  3.1544 -2.1802 -0.6580
 6297TIP3    H218898   1.276   2.744   1.712 -1.0178 -0.9714  0.7419
 6298TIP3   OH218899   1.884   2.177   3.346  0.0741 -0.1278  0.4019
 6298TIP3    H118900   1.971   2.188   3.383  0.2613 -2.9635  1.0410
 6298TIP3    H218901   1.895   2.195   3.252  1.6258 -1.4480  0.2846
 6299TIP3   OH218902   3.386   0.477   0.312  0.7664  0.2810 -0.1764
 6299TIP3    H118903   3.378   0.498   0.405  1.2363 -0.8906  0.1574
 6299TIP3    H218904   3.474   0.440   0.304 -0.0731 -1.7751 -0.6152
 6300TIP3   OH218905   5.312   0.394   3.113 -0.2892  0.0325  0.0961
 6300TIP3    H118906   5.277   0.482   3.128  1.4797  0.9134 -0.6080
 6300TIP3    H218907   5.238   0.336   3.127 -1.8538  1.7199 -0.7031
 6301TIP3   OH218908   1.748   5.597   4.451  0.3277  0.2692  0.5907
 6301TIP3    H118909   1.802   5.644   4.514  0.8063  1.5259 -0.6869
 6301TIP3    H218910   1.662   5.592   4.492  0.7280  0.6801  1.5129
 6302TIP3   OH218911   4.729   5.930   4.206 -0.4410  0.4347 -0.1195
 6302TIP3    H118912   4.713   5.988   4.131  0.4896 -0.5266 -1.1072
 6302TIP3    H218913   4.786   5.861   4.171  1.8832  1.1275  1.9776
 6303TIP3   OH218914   5.889   1.256   3.417 -0.0088  0.4003  0.5397
 6303TIP3    H118915   5.796   1.273   3.403 -0.2872 -0.7594  0.8665
 6303TIP3    H218916   5.896   1.160   3.415  1.1857  0.4791  0.4586
 6304TIP3   OH218917   0.437   5.977   2.481 -0.1535  0.5508 -0.1726
 6304TIP3    H118918   0.400   5.896   2.515  2.4919 -0.8186 -0.2772
 6304TIP3    H218919   0.456   5.958   2.389 -0.4722  1.6628 -0.4820
 6305TIP3   OH218920   5.444   5.387   1.212  0.1805 -0.3946  0.3546
 6305TIP3    H118921   5.474   5.449   1.278  1.0727 -1.2618  0.8002
 6305TIP3    H218922   5.428   5.440   1.134  2.5408  0.2097  0.2120
 6306TIP3   OH218923   0.460   4.965   2.926  0.3635 -0.0594  0.0857
 6306TIP3    H118924   0.509   4.892   2.965  0.1367 -0.6517 -0.7055
 6306TIP3    H218925   0.465   5.035   2.992  1.1935 -0.5369  0.5549
 6307TIP3   OH218926   5.432   5.196   1.906  0.4946 -0.3502  0.3880
 6307TIP3    H118927   5.353   5.235   1.943  0.7108 -0.9138  1.4816
 6307TIP3    H218928   5.420   5.202   1.811 -0.9859 -0.6667  0.5382
 6308TIP3   OH218929   5.084   2.524   1.354 -0.1870  0.2889  0.0350
 6308TIP3    H118930   5.009   2.578   1.379 -2.0989 -1.2568 -1.9451
 6308TIP3    H218931   5.065   2.437   1.390  0.9209 -0.0052 -0.0361
 6309TIP3   OH218932   2.730   0.444   0.697  0.1256  0.5171  0.0861
 6309TIP3    H118933   2.673   0.381   0.742  1.0929 -0.1516  0.4089
 6309TIP3    H218934   2.685   0.528   0.706 -0.6033  0.0748  0.6911
 6310TIP3   OH218935   1.300   1.979   2.268  0.1197 -0.3501 -0.6244
 6310TIP3    H118936   1.381   2.020   2.239  1.4753 -2.7678 -0.5121
 6310TIP3    H218937   1.232   2.018   2.213  1.4518  1.1013 -1.3200
 6311TIP3   OH218938   4.837   1.378   1.189 -0.5316  0.3764 -0.2013
 6311TIP3    H118939   4.912   1.332   1.153  0.4852  1.7252  0.1215
 6311TIP3    H218940   4.764   1.355   1.130 -0.0939 -1.6273 -0.0217
 6312TIP3   OH218941   5.176   1.843   0.811 -0.1524  0.0365  0.2421
 6312TIP3    H118942   5.096   1.806   0.775 -1.9345  1.5642  2.3656
 6312TIP3    H218943   5.155   1.935   0.827  1.6314  0.2149  1.8944
 6313TIP3   OH218944   1.052   2.718   4.209 -0.3836 -0.1642  0.0024
 6313TIP3    H118945   1.019   2.661   4.279 -2.3773 -0.1695 -0.8665
 6313TIP3    H218946   1.031   2.807   4.238  1.2367  0.0561  0.6019
 6314TIP3   OH218947   4.276   1.224   1.685 -0.1439  0.2393 -0.2060
 6314TIP3    H118948   4.268   1.130   1.703 -1.9388  0.2448 -0.7169
 6314TIP3    H218949   4.326   1.229   1.604  0.0840 -0.2589 -0.1009
 6315TIP3   OH218950   3.577   1.420   1.778  0.0376 -0.3832 -0.5519
 6315TIP3    H118951   3.493   1.414   1.734  0.0597 -1.2842 -0.4955
 6315TIP3    H218952   3.641   1.390   1.712  0.2846  0.0328 -0.5067
 6316TIP3   OH218953   1.813   4.456   2.441  0.9752 -0.2283 -0.5277
 6316TIP3    H118954   1.904   4.482   2.458  0.3256  0.9889  1.3821
 6316TIP3    H218955   1.780   4.426   2.526 -1.0831  1.6306 -0.5914
 6317TIP3   OH218956   5.720   4.915   0.178 -0.6893  0.0101 -0.1049
 6317TIP3    H118957   5.795   4.870   0.140  0.1948  0.5603  0.9291
 6317TIP3    H218958   5.696   4.862   0.255 -0.4326  0.6044  0.3948
 6318TIP3   OH218959   1.962   3.508   3.249 -0.5504 -0.2172  0.0692
 6318TIP3    H118960   1.895   3.450   3.284  1.0493 -1.3743  1.3466
 6318TIP3    H218961   1.985   3.470   3.164 -0.7431 -0.4358  0.1133
 6319TIP3   OH218962   0.513   1.104   4.581 -0.6896  0.1919 -0.0078
 6319TIP3    H118963   0.449   1.139   4.520  0.3787 -0.2934 -1.4610
 6319TIP3    H218964   0.512   1.010   4.566  1.2273  0.2753 -0.9966
 6320TIP3   OH218965   2.271   2.397   1.149 -0.0667  0.1986  0.4002
 6320TIP3    H118966   2.355   2.438   1.126 -0.1219  0.1506  0.1048
 6320TIP3    H218967   2.285   2.304   1.135  0.7866 -0.1847  3.3005
 6321TIP3   OH218968   2.656   0.045   3.089 -0.0747 -0.0411  0.4454
 6321TIP3    H118969   2.651   0.107   3.016 -2.1390 -1.7881 -1.0486
 6321TIP3    H218970   2.567   0.038   3.121  0.5432 -0.4513  2.1790
 6322TIP3   OH218971   5.360   2.825   2.820 -0.0071  0.2632 -0.6815
 6322TIP3    H118972   5.283   2.837   2.876  0.7828 -2.3086  1.1460
 6322TIP3    H218973   5.423   2.890   2.852 -0.5052  0.6120 -0.3935
 6323TIP3   OH218974   2.565   1.648   3.298 -0.4298  0.0598  0.1640
 6323TIP3    H118975   2.522   1.733   3.308 -0.1512  0.0665  1.4276
 6323TIP3    H218976   2.496   1.584   3.317  0.0035  0.0673  1.9377
 6324TIP3   OH218977   5.778   2.629   4.411  0.4234 -0.5276 -0.3596
 6324TIP3    H118978   5.768   2.534   4.402 -0.5429 -0.5842  0.9329
 6324TIP3    H218979   5.862   2.640   4.456  0.0320 -0.8559  0.4812
 6325TIP3   OH218980   4.122   1.144   0.113  0.2321  0.6034 -0.5657
 6325TIP3    H118981   4.075   1.069   0.149 -0.1891  1.2462  0.2584
 6325TIP3    H218982   4.073   1.168   0.034  0.0342  0.3676 -0.5156
 6326TIP3   OH218983   0.371   2.638   3.550  0.0054  0.4193  0.0744
 6326TIP3    H118984   0.448   2.693   3.536  2.3409 -2.0082  2.3627
 6326TIP3    H218985   0.331   2.674   3.630  1.2791 -0.7605  1.3121
 6327TIP3   OH218986   6.190   2.892   1.885 -0.4476 -0.5906  0.0126
 6327TIP3    H118987   6.105   2.898   1.842 -0.7512 -0.6191  0.5946
 6327TIP3    H218988   6.172   2.846   1.967 -0.1579  0.8544  0.9138
 6328TIP3   OH218989   4.991   0.268   5.026  0.0968  0.4127 -0.1979
 6328TIP3    H118990   5.086   0.277   5.036  0.0749  0.3283  0.0770
 6328TIP3    H218991   4.980   0.235   4.937  0.2364  2.0828 -0.8661
 6329TIP3   OH218992   1.164   1.710   1.318  0.1371  0.0487 -0.3334
 6329TIP3    H118993   1.150   1.650   1.391 -1.1465  1.8239  0.9680
 6329TIP3    H218994   1.193   1.791   1.359 -2.5797  1.7490 -1.5338
 6330TIP3   OH218995   2.778   3.942   2.804  0.4389 -0.3585 -0.5218
 6330TIP3    H118996   2.685   3.966   2.794  0.4618  0.9985  1.7725
 6330TIP3    H218997   2.783   3.906   2.893  2.0675 -0.7288 -0.7480
 6331TIP3   OH218998   2.928   2.340   0.564  0.0153 -0.2445  0.9220
 6331TIP3    H118999   2.841   2.370   0.588 -0.3009 -0.0247 -0.4594
 6331TIP3    H219000   2.987   2.387   0.623 -0.6225  1.4507  0.2439
 6332TIP3   OH219001   2.256   0.974   1.785  0.0984 -0.2977 -0.1165
 6332TIP3    H119002   2.189   1.042   1.779 -0.0219 -0.4656 -0.7201
 6332TIP3    H219003   2.271   0.946   1.694  0.2185 -1.0114  0.1152
 6333TIP3   OH219004   0.084   2.545   0.076  0.2700 -0.5598  0.0796
 6333TIP3    H119005   0.038   2.510   0.152 -1.8327 -0.4957 -1.1095
 6333TIP3    H219006   0.177   2.540   0.101 -0.2569 -1.9319  2.0381
 6334TIP3   OH219007   5.297   1.862   3.141 -0.3666  0.0108 -0.3294
 6334TIP3    H119008   5.274   1.879   3.049 -0.8156  2.9053  0.2112
 6334TIP3    H219009   5.392   1.877   3.144 -0.3195 -0.2856 -0.3658
 6335TIP3   OH219010   0.379   0.802   0.916  0.2604  0.4264 -0.1539
 6335TIP3    H119011   0.470   0.820   0.942  1.3575 -0.7617 -2.8622
 6335TIP3    H219012   0.339   0.889   0.908  0.2824  0.9505  3.4397
 6336TIP3   OH219013   2.290   5.805   4.839  0.8926  0.3559 -0.5856
 6336TIP3    H119014   2.297   5.883   4.894 -0.8749 -0.3329  0.7170
 6336TIP3    H219015   2.245   5.835   4.760 -0.2060  0.6168  0.1076
 6337TIP3   OH219016   1.870   3.080   0.755 -0.0786  0.3056 -0.0889
 6337TIP3    H119017   1.822   3.143   0.809  0.2882 -0.1308  0.7476
 6337TIP3    H219018   1.805   3.049   0.692 -0.9944 -0.4777  1.1987
 6338TIP3   OH219019   1.794   1.787   0.947  0.0699  0.1648  0.1109
 6338TIP3    H119020   1.848   1.833   1.012 -2.5770 -0.8437  3.3358
 6338TIP3    H219021   1.730   1.853   0.919 -0.8592 -0.2214  1.2113
 6339TIP3   OH219022   5.649   3.114   4.593 -0.4327  0.2985  0.6901
 6339TIP3    H119023   5.649   3.078   4.681 -0.8231 -1.1430  0.1460
 6339TIP3    H219024   5.636   3.037   4.536  0.0310  1.1553 -0.6246
 6340TIP3   OH219025   4.654   2.847   0.520 -0.0491 -0.3374 -0.0835
 6340TIP3    H119026   4.688   2.934   0.501  0.8647 -0.6993 -0.1400
 6340TIP3    H219027   4.717   2.787   0.482 -0.8760 -1.0341 -0.3895
 6341TIP3   OH219028   3.349   0.506   1.049  0.2933  0.3400 -0.4038
 6341TIP3    H119029   3.373   0.577   0.989 -1.1556  2.3400  1.2218
 6341TIP3    H219030   3.429   0.489   1.100  0.1388  2.3182  0.5763
 6342TIP3   OH219031   1.717   3.842   1.513  0.6466  0.1578 -0.8483
 6342TIP3    H119032   1.795   3.787   1.521  0.5676  0.3576  2.9352
 6342TIP3    H219033   1.645   3.781   1.504  1.0190 -0.0817 -2.5252
 6343TIP3   OH219034   2.388   1.901   2.436 -0.3217 -0.2803 -0.9268
 6343TIP3    H119035   2.303   1.903   2.478  0.2105  0.4187  0.1676
 6343TIP3    H219036   2.401   1.989   2.402  0.4894  0.0092  0.0599
 6344TIP3   OH219037   2.287   0.547   4.634 -0.1447  0.0482 -0.0202
 6344TIP3    H119038   2.345   0.618   4.604  1.4536 -0.8335  0.8401
 6344TIP3    H219039   2.256   0.577   4.719  0.2942 -0.1326  0.2090
 6345TIP3   OH219040   3.636   5.093   2.364 -0.1132 -0.0767 -0.3580
 6345TIP3    H119041   3.698   5.166   2.357 -0.0241 -0.2056 -1.0027
 6345TIP3    H219042   3.577   5.104   2.289 -0.0507 -0.7055 -0.5112
 6346TIP3   OH219043   1.993   0.510   4.962 -0.8227  0.0383  0.1259
 6346TIP3    H119044   2.045   0.512   5.043 -2.1031  1.0759  0.9518
 6346TIP3    H219045   2.046   0.559   4.898  1.0254 -2.2598 -0.2516
 6347TIP3   OH219046   5.961   2.972   0.366 -0.1218 -0.4980 -0.3541
 6347TIP3    H119047   5.984   2.881   0.388  0.0366 -0.8097 -1.7076
 6347TIP3    H219048   5.889   2.964   0.304 -0.6890  0.3398  0.1905
 6348TIP3   OH219049   2.710   2.649   1.513  0.8728  0.5282 -0.2179
 6348TIP3    H119050   2.758   2.698   1.580 -2.0170  2.4500  0.6810
 6348TIP3    H219051   2.654   2.589   1.563  0.8769 -0.2270 -1.0947
 6349TIP3   OH219052   3.402   2.753   4.188 -0.1905 -0.0662 -0.1868
 6349TIP3    H119053   3.487   2.730   4.226 -0.9634 -0.0919  1.6475
 6349TIP3    H219054   3.373   2.673   4.144  0.3503 -0.3249 -0.0772
 6350TIP3   OH219055   1.160   5.509   0.115 -0.4101 -0.0065 -0.0127
 6350TIP3    H119056   1.075   5.489   0.153  1.2212 -1.9188  2.9788
 6350TIP3    H219057   1.188   5.428   0.073  1.2208 -0.4510  1.8175
 6351TIP3   OH219058   3.892   2.764   4.398 -0.6237  0.2386  0.2237
 6351TIP3    H119059   3.961   2.698   4.391 -2.5114 -1.6292 -2.4577
 6351TIP3    H219060   3.933   2.845   4.369  0.9770 -0.3577  0.7349
 6352TIP3   OH219061   0.252   2.033   2.550 -0.5228  0.3717  0.4548
 6352TIP3    H119062   0.255   2.129   2.559 -0.2272  0.5476 -1.2997
 6352TIP3    H219063   0.230   2.018   2.459 -1.6110 -1.2656  0.9453
 6353TIP3   OH219064   3.647   4.557   2.714  0.5783  0.7418  0.0470
 6353TIP3    H119065   3.582   4.583   2.648  0.0304  0.0146  0.2867
 6353TIP3    H219066   3.601   4.566   2.798  1.1981  1.4401  0.3158
 6354TIP3   OH219067   1.768   3.011   0.214 -0.0358 -0.0091  0.0429
 6354TIP3    H119068   1.781   3.056   0.297 -0.0576  0.5009 -0.2306
 6354TIP3    H219069   1.851   2.967   0.197  0.2371  0.5477 -0.0681
 6355TIP3   OH219070   1.694   2.260   4.627 -0.4320 -0.2586 -0.7340
 6355TIP3    H119071   1.681   2.355   4.621 -1.3454 -0.1369  1.9432
 6355TIP3    H219072   1.782   2.251   4.665  0.4993 -0.6017 -2.8501
 6356TIP3   OH219073   2.010   2.990   2.828  0.0404 -0.1673  0.7255
 6356TIP3    H119074   2.095   3.029   2.851 -0.0436  1.3430 -1.2225
 6356TIP3    H219075   2.033   2.909   2.783  0.3533 -0.6181  1.6565
 6357TIP3   OH219076   0.659   5.283   0.223  0.1847 -0.1990  0.7241
 6357TIP3    H119077   0.715   5.338   0.168  0.4711 -1.1871 -0.0132
 6357TIP3    H219078   0.640   5.336   0.300  1.5570  0.4257  0.6581
 6358TIP3   OH219079   0.111   0.232   4.022  0.2259 -0.3684  0.4330
 6358TIP3    H119080   0.043   0.294   4.046  1.8455  0.9577  1.9021
 6358TIP3    H219081   0.080   0.191   3.941 -1.7389  0.9987  0.4359
 6359TIP3   OH219082   6.038   4.830   2.316 -0.1155 -0.5936 -0.1795
 6359TIP3    H119083   6.023   4.795   2.404 -0.4018 -1.3916 -0.5353
 6359TIP3    H219084   6.003   4.763   2.257  0.2538 -0.1606 -0.9088
 6360TIP3   OH219085   4.769   1.535   1.850 -0.1464  0.0996 -0.1977
 6360TIP3    H119086   4.731   1.564   1.767  0.2458  1.1841 -0.0187
 6360TIP3    H219087   4.700   1.482   1.890 -0.2519 -0.6215 -1.3032
 6361TIP3   OH219088   0.061   4.543   2.197 -0.1290  0.2191  0.5061
 6361TIP3    H119089   0.010   4.570   2.121 -1.0160  1.6210  1.5556
 6361TIP3    H219090   0.144   4.512   2.160 -0.2556  1.5497 -1.0039
 6362TIP3   OH219091   3.879   5.765   3.004 -0.6136  0.0068 -0.0019
 6362TIP3    H119092   3.955   5.777   2.947 -0.1481 -0.9679  0.3772
 6362TIP3    H219093   3.865   5.851   3.044  2.0884 -0.3578  2.0842
 6363TIP3   OH219094   4.929   2.009   4.745  0.4045  0.1699 -0.2510
 6363TIP3    H119095   4.911   2.013   4.839  0.7348  1.3716 -0.2170
 6363TIP3    H219096   4.981   1.930   4.733  0.1136 -0.1491  0.5283
 6364TIP3   OH219097   1.543   3.123   2.467 -0.1008 -0.9913  0.0182
 6364TIP3    H119098   1.509   3.193   2.411 -2.5314 -0.1150  2.4045
 6364TIP3    H219099   1.633   3.111   2.437 -0.9771 -0.0965 -3.5319
 6365TIP3   OH219100   0.090   4.751   5.078 -0.0205 -0.1590  0.6014
 6365TIP3    H119101   0.109   4.722   5.168  0.8074  2.0276  1.2031
 6365TIP3    H219102   0.007   4.708   5.056  0.9146 -2.5988  1.4868
 6366TIP3   OH219103   3.379   3.091   3.497  0.5520 -0.0722 -0.3157
 6366TIP3    H119104   3.446   3.148   3.536  2.3247 -0.8149 -2.1057
 6366TIP3    H219105   3.394   3.096   3.403 -2.9680  0.8983 -0.9763
 6367TIP3   OH219106   5.634   0.967   1.032 -0.0447 -0.4320  0.8083
 6367TIP3    H119107   5.599   1.056   1.035  0.3677 -0.2579  0.5057
 6367TIP3    H219108   5.589   0.926   0.958  0.6302 -0.1053  0.2145
 6368TIP3   OH219109   1.457   3.556   2.221 -0.2846 -0.4379 -0.2933
 6368TIP3    H119110   1.411   3.629   2.263  1.3619  0.1203  0.6485
 6368TIP3    H219111   1.435   3.480   2.274 -0.2904 -0.2183  0.0226
 6369TIP3   OH219112   0.170   3.130   0.333 -0.3089  0.0594 -0.0004
 6369TIP3    H119113   0.111   3.197   0.297  0.0266  0.6569  0.5295
 6369TIP3    H219114   0.233   3.180   0.385  0.5798 -0.5841 -0.4410
 6370TIP3   OH219115   3.832   5.281   1.126 -0.6630 -0.3388 -0.0212
 6370TIP3    H119116   3.807   5.228   1.202  0.2661 -1.8552 -0.7246
 6370TIP3    H219117   3.914   5.242   1.096  0.4617  1.9687 -0.1716
 6371TIP3   OH219118   4.805   5.140   1.568  0.0945 -0.2020  0.1394
 6371TIP3    H119119   4.744   5.068   1.551 -0.0151  0.2741 -1.6330
 6371TIP3    H219120   4.892   5.101   1.558  0.0369 -0.1789 -0.4852
 6372TIP3   OH219121   1.658   3.837   3.146  0.1698 -0.4197  0.2613
 6372TIP3    H119122   1.736   3.889   3.166 -0.0631  0.3423 -0.7740
 6372TIP3    H219123   1.590   3.901   3.128 -0.7528 -1.0820  1.2844
 6373TIP3   OH219124   0.451   3.455   5.064  0.3760 -0.2011  0.1450
 6373TIP3    H119125   0.424   3.451   4.972 -0.1048  0.0391  0.2739
 6373TIP3    H219126   0.395   3.391   5.109 -1.8370  2.1019  0.8555
 6374TIP3   OH219127   2.350   2.988   0.456 -0.3770 -0.3241 -0.2148
 6374TIP3    H119128   2.273   3.023   0.500 -0.1002 -0.2985  0.2570
 6374TIP3    H219129   2.418   2.987   0.523 -0.0988 -0.8064 -0.4972
 6375TIP3   OH219130   5.209   0.165   3.835  0.1456  0.5135  0.6137
 6375TIP3    H119131   5.256   0.104   3.892  2.1052 -0.6664 -2.0471
 6375TIP3    H219132   5.277   0.226   3.805 -0.7032  0.8092 -0.7808
 6376TIP3   OH219133   3.780   3.773   3.292  0.0764 -0.4204  0.4782
 6376TIP3    H119134   3.869   3.738   3.286  0.6015  0.9392  0.0264
 6376TIP3    H219135   3.745   3.763   3.203  1.3026  2.8442 -0.4924
 6377TIP3   OH219136   1.772   3.183   3.251 -0.3825  0.1473  0.3539
 6377TIP3    H119137   1.720   3.119   3.300  1.1365 -0.0804  1.7282
 6377TIP3    H219138   1.767   3.263   3.303 -0.4547  0.5234 -0.2200
 6378TIP3   OH219139   4.333   5.322   1.542 -0.2794  0.0037 -0.3364
 6378TIP3    H119140   4.319   5.370   1.461 -2.0306  0.5784  0.2645
 6378TIP3    H219141   4.410   5.363   1.582 -1.2962  1.8589 -0.1885
 6379TIP3   OH219142   1.176   2.331   3.715  0.6292 -0.1399 -0.2890
 6379TIP3    H119143   1.219   2.331   3.630  0.9728 -1.1012 -0.1248
 6379TIP3    H219144   1.202   2.249   3.755 -1.6586 -0.9765 -0.3422
 6380TIP3   OH219145   6.187   1.647   4.425 -0.7364 -0.3375 -0.1714
 6380TIP3    H119146   6.166   1.654   4.332 -1.3166  0.2554  0.0037
 6380TIP3    H219147   6.178   1.554   4.444 -1.3129 -0.3628 -0.5424
 6381TIP3   OH219148   3.861   4.417   3.876 -0.0375 -0.1093 -0.2316
 6381TIP3    H119149   3.796   4.366   3.923  0.0312 -0.9424 -1.0159
 6381TIP3    H219150   3.851   4.506   3.910 -0.8853 -0.4265  0.3804
 6382TIP3   OH219151   2.505   0.905   0.205  0.1026  0.2440 -0.0800
 6382TIP3    H119152   2.563   0.968   0.249 -0.0826  0.6378 -0.3933
 6382TIP3    H219153   2.545   0.820   0.222 -0.7275  0.2127  2.0827
 6383TIP3   OH219154   3.036   2.546   3.631  0.1104 -0.2495 -0.3717
 6383TIP3    H119155   2.981   2.616   3.665 -1.2909 -1.0379 -0.9228
 6383TIP3    H219156   3.116   2.589   3.603  0.1081  0.8246  1.1662
 6384TIP3   OH219157   5.130   4.667   2.852 -0.6821 -0.1940  0.1233
 6384TIP3    H119158   5.140   4.748   2.902 -1.6055 -0.2572  0.4327
 6384TIP3    H219159   5.218   4.632   2.846 -0.5779 -0.3949  2.0681
 6385TIP3   OH219160   5.329   0.355   3.687  0.0974  0.5330  0.2890
 6385TIP3    H119161   5.354   0.447   3.692  0.5474  0.4284 -0.0471
 6385TIP3    H219162   5.283   0.347   3.604  0.2117  0.4163  0.2371
 6386TIP3   OH219163   2.374   5.087   4.265 -0.3849 -0.4286  0.1825
 6386TIP3    H119164   2.456   5.135   4.280 -1.2398  1.2043 -0.0648
 6386TIP3    H219165   2.338   5.074   4.353  0.2715 -1.4457  0.3177
 6387TIP3   OH219166   1.232   0.265   1.960 -0.5981 -0.0171 -0.3495
 6387TIP3    H119167   1.269   0.326   1.896 -0.4317 -1.9989 -2.2431
 6387TIP3    H219168   1.309   0.222   1.999 -0.7592 -0.0780 -0.0950
 6388TIP3   OH219169   1.999   3.759   0.770  0.1232 -0.3846  0.3823
 6388TIP3    H119170   2.031   3.794   0.854 -0.8387  0.0878  0.5684
 6388TIP3    H219171   1.961   3.835   0.726 -1.8839 -1.1263  0.7292
 6389TIP3   OH219172   0.511   5.974   4.437  0.1536  0.2593 -0.5586
 6389TIP3    H119173   0.487   5.970   4.344  1.0119  1.2530 -0.8429
 6389TIP3    H219174   0.607   5.969   4.437  0.2141  1.1137  0.2048
 6390TIP3   OH219175   5.863   4.234   1.351  0.1674  0.5220 -0.3830
 6390TIP3    H119176   5.838   4.187   1.271 -1.3556  1.5077 -0.5291
 6390TIP3    H219177   5.904   4.168   1.406 -1.0961 -0.7890 -0.9438
 6391TIP3   OH219178   1.407   0.674   4.135  0.0084 -0.2848 -0.0914
 6391TIP3    H119179   1.378   0.723   4.058 -0.8881 -0.1427  0.3105
 6391TIP3    H219180   1.466   0.607   4.101 -0.8442 -0.6094 -0.9739
 6392TIP3   OH219181   2.797   0.985   2.897  0.5773 -0.2200 -0.6855
 6392TIP3    H119182   2.873   1.038   2.874 -0.4590  1.6224 -0.0508
 6392TIP3    H219183   2.758   1.029   2.973 -2.2170  0.0961 -2.1571
 6393TIP3   OH219184   1.719   1.195   2.238 -0.4892  0.1887  0.6953
 6393TIP3    H119185   1.795   1.209   2.182 -1.1775  1.1470 -0.0326
 6393TIP3    H219186   1.751   1.138   2.308  1.0584  1.1063  0.7785
 6394TIP3   OH219187   4.474   0.940   5.126  0.7253 -0.2468  1.1692
 6394TIP3    H119188   4.492   1.027   5.164  1.1954  0.5891 -0.8331
 6394TIP3    H219189   4.381   0.926   5.143 -0.4930  2.6232 -2.0042
 6395TIP3   OH219190   1.046   1.943   4.775 -0.3675 -0.0430 -0.0653
 6395TIP3    H119191   1.041   1.880   4.704  2.9604  0.8775 -1.3280
 6395TIP3    H219192   1.119   1.914   4.829 -0.7880  1.0259  1.1584
 6396TIP3   OH219193   3.560   5.264   0.144 -0.1201  1.0340  0.2806
 6396TIP3    H119194   3.521   5.186   0.105 -0.0962  0.3241  1.6212
 6396TIP3    H219195   3.553   5.331   0.076  3.2752 -1.0105 -2.4777
 6397TIP3   OH219196   3.948   3.557   2.770  0.0487 -0.1326  0.1072
 6397TIP3    H119197   3.969   3.650   2.783  0.2678 -0.2969  0.9636
 6397TIP3    H219198   3.854   3.552   2.789  0.0844 -0.1284  0.2850
 6398TIP3   OH219199   2.097   5.316   0.558 -0.0328 -0.1897  0.7362
 6398TIP3    H119200   2.076   5.372   0.483  0.3479  1.1179  1.5658
 6398TIP3    H219201   2.183   5.280   0.538 -0.6187 -1.1545 -0.1657
 6399TIP3   OH219202   6.277   3.020   4.008  0.0313 -0.0710  0.0176
 6399TIP3    H119203   6.341   3.068   3.956 -0.1640  1.2799  0.9817
 6399TIP3    H219204   6.329   2.975   4.074  0.1058 -0.0817 -0.0479
 6400TIP3   OH219205   5.539   1.926   4.114 -0.5702  0.3147 -0.4132
 6400TIP3    H119206   5.619   1.934   4.166  0.8938  1.2179 -2.6327
 6400TIP3    H219207   5.497   2.012   4.122 -0.9248  0.0965  0.1223
 6401TIP3   OH219208   3.582   1.573   3.510 -0.1235  0.3248  0.3915
 6401TIP3    H119209   3.592   1.630   3.434 -0.4650  0.1770  0.2340
 6401TIP3    H219210   3.580   1.632   3.585  2.3402  0.3654  0.5012
 6402TIP3   OH219211   5.667   5.736   4.425 -0.6090  0.8116 -0.7876
 6402TIP3    H119212   5.671   5.719   4.520  1.5418  0.9828 -0.8056
 6402TIP3    H219213   5.632   5.824   4.419 -0.2381  1.0195 -0.1032
 6403TIP3   OH219214   3.714   1.533   4.065 -0.1363  0.7748 -0.7249
 6403TIP3    H119215   3.760   1.580   4.134 -0.6836  1.0258 -0.5292
 6403TIP3    H219216   3.627   1.572   4.063 -0.1557  0.7188 -1.5019
 6404TIP3   OH219217   4.836   0.028   1.424 -0.0921  0.1349  0.7121
 6404TIP3    H119218   4.807   0.062   1.508 -1.1442  0.0651  0.3813
 6404TIP3    H219219   4.932   0.034   1.428 -0.1809  1.4683  1.3544
 6405TIP3   OH219220   1.009   0.185   4.739 -0.1252  0.4708 -0.1325
 6405TIP3    H119221   0.928   0.184   4.789 -0.0690  0.7318 -0.0360
 6405TIP3    H219222   0.996   0.253   4.673  0.3912  1.2127  0.5136
 6406TIP3   OH219223   0.535   1.635   0.412  0.2832  0.0020 -0.1161
 6406TIP3    H119224   0.614   1.601   0.454  0.4104 -0.6895 -0.8759
 6406TIP3    H219225   0.477   1.659   0.484  1.4781  1.2663  0.4686
 6407TIP3   OH219226   5.293   2.892   0.349  0.0822 -0.4684 -0.0671
 6407TIP3    H119227   5.294   2.976   0.395  0.7631  0.2809 -1.4034
 6407TIP3    H219228   5.232   2.906   0.276  2.3948 -0.1363 -2.0344
 6408TIP3   OH219229   2.586   2.200   0.519  0.2009 -0.6333  0.2695
 6408TIP3    H119230   2.603   2.279   0.569  2.0547 -1.2494  0.6890
 6408TIP3    H219231   2.493   2.204   0.497  0.2281  1.5461  0.4281
 6409TIP3   OH219232   0.924   1.892   1.570  0.5277 -0.4791 -0.6074
 6409TIP3    H119233   1.020   1.889   1.571  0.7209  2.6732  0.4321
 6409TIP3    H219234   0.902   1.947   1.495 -0.4102 -0.2538 -0.1827
 6410TIP3   OH219235   5.090   4.035   0.619 -0.0333 -0.1384  0.2430
 6410TIP3    H119236   5.011   4.071   0.579  0.3301 -0.3192 -0.6643
 6410TIP3    H219237   5.059   3.988   0.697 -0.9054 -0.7860 -0.4797
 6411TIP3   OH219238   6.005   0.789   1.876 -0.8596  0.0376  0.4341
 6411TIP3    H119239   6.040   0.851   1.940  2.0470  0.0783 -1.0197
 6411TIP3    H219240   6.001   0.839   1.794 -1.2213 -0.8951 -0.1360
 6412TIP3   OH219241   1.611   3.397   2.679  0.2661  0.7624 -0.2523
 6412TIP3    H119242   1.631   3.304   2.687  0.2817  0.6445 -1.4696
 6412TIP3    H219243   1.676   3.441   2.735 -1.1438 -0.0425  2.1376
 6413TIP3   OH219244   0.519   2.879   4.416 -0.2212 -0.6839 -0.5861
 6413TIP3    H119245   0.605   2.839   4.423  0.1756  0.0795 -1.0282
 6413TIP3    H219246   0.533   2.960   4.368 -0.5512  1.2873  2.3665
 6414TIP3   OH219247   2.234   5.797   1.714  0.3014  0.1414  0.2533
 6414TIP3    H119248   2.224   5.735   1.787  2.8162 -0.9281 -0.1846
 6414TIP3    H219249   2.202   5.750   1.638 -1.8712  1.0813  0.5136
 6415TIP3   OH219250   5.191   4.881   2.083 -0.1516  0.4691 -0.6917
 6415TIP3    H119251   5.214   4.904   1.993 -1.5260  1.5672 -0.7907
 6415TIP3    H219252   5.269   4.905   2.134  0.8165 -0.6010 -1.6196
 6416TIP3   OH219253   0.132   2.060   2.033  0.2421 -0.8194 -0.1693
 6416TIP3    H119254   0.038   2.060   2.016  0.0129  0.1769  0.9695
 6416TIP3    H219255   0.169   2.122   1.969  0.0355 -0.6904 -0.1620
 6417TIP3   OH219256   4.360   2.850   3.638 -0.4395  0.1922 -0.0857
 6417TIP3    H119257   4.396   2.811   3.558 -1.1316 -0.6563  0.0104
 6417TIP3    H219258   4.324   2.777   3.687  0.5896  0.6090  1.3540
 6418TIP3   OH219259   1.473   3.094   2.786  0.1965 -0.0049  0.0533
 6418TIP3    H119260   1.538   3.056   2.845  1.8182  1.0326 -1.0238
 6418TIP3    H219261   1.513   3.089   2.699 -1.6869 -0.4869 -0.8357
 6419TIP3   OH219262   2.350   2.529   3.687 -0.0078 -0.2657  0.0275
 6419TIP3    H119263   2.317   2.551   3.775  1.4596  0.6792  0.3919
 6419TIP3    H219264   2.386   2.611   3.655 -0.7461 -0.5473 -1.5969
 6420TIP3   OH219265   0.817   5.946   4.338  0.2050 -0.4987  0.0786
 6420TIP3    H119266   0.893   5.992   4.303  0.4580 -0.9551  0.0184
 6420TIP3    H219267   0.836   5.937   4.432 -0.5551  0.8885  0.3974
 6421TIP3   OH219268   5.873   5.647   3.698 -0.2313  0.3070  0.4424
 6421TIP3    H119269   5.907   5.709   3.762  1.6187  1.9014 -1.8871
 6421TIP3    H219270   5.912   5.675   3.615 -2.5928 -1.5348 -1.4410
 6422TIP3   OH219271   4.427   5.298   0.215  0.5158  0.1020  0.4390
 6422TIP3    H119272   4.362   5.321   0.281 -0.0739  2.1484 -0.7675
 6422TIP3    H219273   4.387   5.226   0.166  0.1046 -0.0883  1.0341
 6423TIP3   OH219274   3.085   0.142   2.602  0.5252 -0.3595  0.0738
 6423TIP3    H119275   3.166   0.194   2.611 -0.4690  1.7335 -2.0819
 6423TIP3    H219276   3.036   0.185   2.532 -3.6277  0.0137  2.8387
 6424TIP3   OH219277   0.750   5.990   2.338 -0.5353  0.1630 -0.2510
 6424TIP3    H119278   0.695   5.949   2.405 -1.5853  2.0948  0.1692
 6424TIP3    H219279   0.715   5.957   2.255 -0.9860 -0.2263  0.0892
 6425TIP3   OH219280   4.985   4.667   3.564 -0.0121  0.0356  0.2539
 6425TIP3    H119281   4.940   4.655   3.648 -0.4464 -0.0831  0.0063
 6425TIP3    H219282   5.003   4.578   3.533 -2.1053 -0.0218 -0.9775
 6426TIP3   OH219283   2.740   2.798   3.517 -0.2139  0.0237 -0.4259
 6426TIP3    H119284   2.704   2.886   3.510  1.5388  0.7966 -0.1670
 6426TIP3    H219285   2.687   2.755   3.584 -1.1318  0.8424 -0.6134
 6427TIP3   OH219286   1.804   3.143   2.404  0.3902 -0.2137 -0.9912
 6427TIP3    H119287   1.878   3.086   2.382  1.8083  1.1174  0.1296
 6427TIP3    H219288   1.810   3.155   2.498 -1.7152 -0.6115 -0.7481
 6428TIP3   OH219289   3.143   3.333   1.773 -0.3485 -0.2010 -0.2001
 6428TIP3    H119290   3.223   3.361   1.818  0.9358 -1.4838 -1.5547
 6428TIP3    H219291   3.128   3.245   1.805 -0.4690 -0.4387 -0.9014
 6429TIP3   OH219292   0.470   1.915   0.438  0.8770 -0.3923 -0.3473
 6429TIP3    H119293   0.429   1.835   0.471  0.8486  0.6531  2.4260
 6429TIP3    H219294   0.522   1.886   0.363  0.0704 -2.8226 -0.0667
 6430TIP3   OH219295   4.828   3.247   1.225  0.8253 -0.0875  0.1163
 6430TIP3    H119296   4.835   3.325   1.281  0.1483  0.3551 -0.3979
 6430TIP3    H219297   4.843   3.279   1.137 -1.7034 -0.0726 -0.3877
 6431TIP3   OH219298   1.981   5.932   3.238 -0.0436 -0.8388  0.5024
 6431TIP3    H119299   1.897   5.972   3.217 -0.3946 -0.5553  2.2361
 6431TIP3    H219300   2.047   5.996   3.211 -0.2734 -1.5047 -1.8494
 6432TIP3   OH219301   2.027   4.841   2.027 -0.1340  0.1126  0.4212
 6432TIP3    H119302   2.060   4.926   2.057  2.1668 -0.2247 -0.9368
 6432TIP3    H219303   1.942   4.832   2.071  0.4427  2.1975  2.1618
 6433TIP3   OH219304   0.615   5.752   3.042  0.8119 -0.0847  0.2292
 6433TIP3    H119305   0.595   5.837   3.081 -0.0099 -0.3512  0.4254
 6433TIP3    H219306   0.529   5.716   3.019  0.8956 -1.8467  2.2791
 6434TIP3   OH219307   2.309   2.532   3.968  0.1327 -0.7572  0.8094
 6434TIP3    H119308   2.398   2.528   4.003 -0.3212 -0.9104  1.9949
 6434TIP3    H219309   2.256   2.485   4.033 -0.9537  0.1689  0.6118
 6435TIP3   OH219310   0.438   5.111   0.061  0.3942  0.5213 -0.1831
 6435TIP3    H119311   0.524   5.083   0.093  1.0030  0.0299 -2.0825
 6435TIP3    H219312   0.457   5.187   0.006 -0.6973  1.8028  1.1373
 6436TIP3   OH219313   5.539   5.147   2.712  0.2384 -0.0698  0.5940
 6436TIP3    H119314   5.603   5.139   2.782  0.4898 -0.8946  0.2852
 6436TIP3    H219315   5.573   5.090   2.642  0.2209  1.0694 -0.3668
 6437TIP3   OH219316   4.581   0.977   4.683 -0.5245 -0.0917 -0.2136
 6437TIP3    H119317   4.515   1.024   4.733 -2.0484 -0.7084 -1.5519
 6437TIP3    H219318   4.592   0.894   4.730  1.1474  0.9541  1.3662
 6438TIP3   OH219319   2.984   3.464   1.614 -0.3696  0.3968  0.5614
 6438TIP3    H119320   3.032   3.489   1.536 -1.3367 -1.3418 -0.6441
 6438TIP3    H219321   3.047   3.416   1.668 -0.6027 -1.7104 -0.9220
 6439TIP3   OH219322   1.751   1.328   0.269 -0.2433 -0.5065  0.3947
 6439TIP3    H119323   1.821   1.347   0.332  0.6651  2.8872 -1.3813
 6439TIP3    H219324   1.798   1.311   0.187 -1.4972 -0.8297 -0.2711
 6440TIP3   OH219325   4.502   0.399   2.557 -0.0737 -0.2120 -0.0713
 6440TIP3    H119326   4.445   0.375   2.630 -1.3517  0.3981 -0.8477
 6440TIP3    H219327   4.460   0.363   2.480  0.8076 -0.1018 -0.6217
 6441TIP3   OH219328   5.014   2.242   4.199 -0.0450  0.0568  0.5493
 6441TIP3    H119329   5.026   2.195   4.282 -1.2343 -0.7654  0.2840
 6441TIP3    H219330   5.101   2.275   4.177  1.1100 -2.8528  0.2758
 6442TIP3   OH219331   4.202   0.453   0.649  0.5265 -0.5469  0.1735
 6442TIP3    H119332   4.174   0.494   0.731 -0.1556  1.2115 -0.8922
 6442TIP3    H219333   4.294   0.429   0.664  0.2998 -0.6268  1.5668
 6443TIP3   OH219334   4.714   1.466   2.790 -0.5096 -0.3374  0.6572
 6443TIP3    H119335   4.675   1.541   2.745  0.6068  0.3238  0.7398
 6443TIP3    H219336   4.757   1.416   2.721  0.9048  0.4884  0.9043
 6444TIP3   OH219337   0.156   5.033   0.845 -0.4371  0.0927 -0.0923
 6444TIP3    H119338   0.192   5.090   0.776  1.5155  0.0298  0.8154
 6444TIP3    H219339   0.154   4.946   0.805  0.7937  0.0337 -0.0495
 6445TIP3   OH219340   0.560   2.111   3.007  0.2496 -0.2192  0.6961
 6445TIP3    H119341   0.602   2.029   3.034  1.2252 -0.1385 -0.4933
 6445TIP3    H219342   0.587   2.123   2.916 -2.6025 -0.3042 -0.2659
 6446TIP3   OH219343   5.968   5.058   2.091  0.1449  0.0103 -0.0556
 6446TIP3    H119344   5.987   5.013   2.174 -1.6697  0.8888  0.9239
 6446TIP3    H219345   5.925   4.991   2.037 -0.7766  0.0006  0.6455
 6447TIP3   OH219346   4.737   3.834   1.220 -0.7536 -0.3118 -0.3296
 6447TIP3    H119347   4.714   3.844   1.128 -2.3814  0.7784  0.1516
 6447TIP3    H219348   4.669   3.777   1.256 -0.0047 -0.9177  0.1753
 6448TIP3   OH219349   5.388   2.237   3.024 -0.2885 -0.7812  0.7029
 6448TIP3    H119350   5.413   2.223   2.933 -1.3147 -0.3208  0.3235
 6448TIP3    H219351   5.302   2.196   3.031 -1.3178  1.2536  0.7765
 6449TIP3   OH219352   3.347   4.083   2.710 -0.0838 -0.4325 -0.1133
 6449TIP3    H119353   3.357   4.140   2.786 -1.5523  0.3059 -0.4465
 6449TIP3    H219354   3.435   4.079   2.672  0.1419  1.3229  0.1366
 6450TIP3   OH219355   2.014   4.814   3.269 -0.1143  0.4252  0.2234
 6450TIP3    H119356   2.087   4.777   3.218 -0.5219  0.5458 -0.4620
 6450TIP3    H219357   1.972   4.876   3.209 -2.2873 -1.4127 -0.3076
 6451TIP3   OH219358   4.089   5.503   4.344  0.3611  0.5468 -0.4429
 6451TIP3    H119359   4.095   5.561   4.420  0.3584  0.1568 -0.1433
 6451TIP3    H219360   4.174   5.459   4.340  0.3230  0.4853 -0.6031
 6452TIP3   OH219361   1.691   5.652   1.479  0.1529 -0.2879  0.1112
 6452TIP3    H119362   1.757   5.694   1.534  0.0501  0.2546 -0.1725
 6452TIP3    H219363   1.608   5.666   1.525  0.2402 -1.0986  0.5433
 6453TIP3   OH219364   6.103   1.000   3.498  0.0341 -0.3898 -0.4802
 6453TIP3    H119365   6.122   0.950   3.577  1.8116  1.7373  0.5401
 6453TIP3    H219366   6.011   0.983   3.480 -0.4101 -0.9978  2.0168
 6454TIP3   OH219367   4.589   0.383   4.750  0.0862 -0.0088  0.4275
 6454TIP3    H119368   4.681   0.366   4.772  1.1656  0.9163 -2.6919
 6454TIP3    H219369   4.594   0.437   4.671 -3.1834 -0.3804 -0.1595
 6455TIP3   OH219370   0.179   4.492   4.920 -0.0979  0.1830  0.2238
 6455TIP3    H119371   0.263   4.530   4.944  1.0677 -0.2660 -2.7412
 6455TIP3    H219372   0.147   4.547   4.848 -1.7557 -0.3769  0.4930
 6456TIP3   OH219373   1.936   2.527   4.089  0.7694 -0.2257  0.0500
 6456TIP3    H119374   1.941   2.543   3.994  0.2630  2.2662  0.3847
 6456TIP3    H219375   1.844   2.538   4.111  0.9798 -0.1292  0.9259
 6457TIP3   OH219376   3.926   5.265   4.321  0.7833 -0.9343 -0.1977
 6457TIP3    H119377   3.987   5.337   4.335  0.9638 -1.5611  2.7399
 6457TIP3    H219378   3.840   5.303   4.335  0.9406 -1.4639  2.9777
 6458TIP3   OH219379   6.282   5.049   1.310  0.1719 -0.4505 -0.1359
 6458TIP3    H119380   6.205   5.077   1.259 -0.2949 -2.8633 -0.8595
 6458TIP3    H219381   6.339   5.008   1.246  1.7504  0.5665  0.5510
 6459TIP3   OH219382   3.799   1.247   0.915 -0.0479  0.0681  0.8771
 6459TIP3    H119383   3.772   1.292   0.995  0.1445  1.4275  0.2038
 6459TIP3    H219384   3.805   1.316   0.849 -0.0001 -0.9918 -0.2697
 6460TIP3   OH219385   1.086   4.113   3.456 -0.1689  0.6062 -0.2316
 6460TIP3    H119386   1.145   4.086   3.526 -0.7809 -0.3235 -0.0585
 6460TIP3    H219387   1.099   4.048   3.387 -2.4041 -0.8712  0.5920
 6461TIP3   OH219388   5.006   3.034   0.629  0.4710  0.4519 -0.3761
 6461TIP3    H119389   4.937   3.082   0.674  1.0245  0.7000  0.2184
 6461TIP3    H219390   5.035   2.968   0.692  0.1809 -0.2265 -0.9414
 6462TIP3   OH219391   2.154   0.566   0.239 -0.2179 -0.0909 -0.0684
 6462TIP3    H119392   2.066   0.582   0.274 -0.1759  2.6926 -0.9941
 6462TIP3    H219393   2.138   0.515   0.159 -1.1395  1.4126 -0.8819
 6463TIP3   OH219394   0.113   3.414   5.058 -0.6144 -0.1779 -0.5277
 6463TIP3    H119395   0.114   3.367   4.974 -0.8425 -0.8555 -0.1614
 6463TIP3    H219396   0.179   3.369   5.111  1.8066  2.1415 -1.3134
 6464TIP3   OH219397   1.877   5.746   1.686 -0.2680 -0.0924 -0.5031
 6464TIP3    H119398   1.859   5.839   1.699 -2.4029 -0.5271  0.0621
 6464TIP3    H219399   1.826   5.702   1.755  1.0219 -1.6761 -0.4837
 6465TIP3   OH219400   3.928   5.110   0.709 -0.3246  0.2810  0.0366
 6465TIP3    H119401   3.938   5.063   0.626 -1.0669 -0.8122  0.5431
 6465TIP3    H219402   3.836   5.137   0.711 -0.3573  0.1366  0.5874
 6466TIP3   OH219403   3.204   5.499   1.728  0.1676 -0.4011 -0.0671
 6466TIP3    H119404   3.239   5.544   1.804  0.8144  0.4103 -0.8272
 6466TIP3    H219405   3.137   5.440   1.763  0.2103  0.2176  1.0755
 6467TIP3   OH219406   6.099   0.667   2.823  0.2744  0.5802  0.0062
 6467TIP3    H119407   6.096   0.619   2.740  0.8785  1.3765 -0.4919
 6467TIP3    H219408   6.033   0.624   2.878  1.9354 -1.9167  0.2152
 6468TIP3   OH219409   2.226   4.426   3.135  0.0969 -0.2986  0.0913
 6468TIP3    H119410   2.160   4.395   3.197  0.2575 -1.1316 -0.1412
 6468TIP3    H219411   2.301   4.369   3.151 -0.2346 -1.2657 -1.6317
 6469TIP3   OH219412   4.344   0.036   0.669  0.5008  0.0457 -0.3001
 6469TIP3    H119413   4.308  -0.022   0.735 -1.7637 -0.1139 -1.5776
 6469TIP3    H219414   4.419   0.078   0.712  0.6036 -1.8314  1.5088
 6470TIP3   OH219415   6.048   3.859   3.311  0.2909 -0.5037 -0.1715
 6470TIP3    H119416   5.956   3.882   3.303  0.3563 -0.0290  0.3307
 6470TIP3    H219417   6.076   3.838   3.222 -0.2430 -0.4214 -0.3625
 6471TIP3   OH219418   0.378   2.854   0.466  0.5946 -0.2455  0.0485
 6471TIP3    H119419   0.461   2.810   0.479  0.4439 -0.5094  0.1246
 6471TIP3    H219420   0.352   2.884   0.553  0.1898 -0.9262  0.1690
 6472TIP3   OH219421   1.477   1.510   2.111  0.1074  1.0712 -0.6491
 6472TIP3    H119422   1.440   1.596   2.131  0.7987  1.2684 -0.1721
 6472TIP3    H219423   1.404   1.449   2.125 -0.3119  1.5514 -0.7201
 6473TIP3   OH219424   0.092   1.813   5.122  0.4515 -0.7055 -0.1170
 6473TIP3    H119425   0.090   1.719   5.106 -2.5423 -0.4116 -2.5120
 6473TIP3    H219426   0.003   1.842   5.102  1.6675  2.8391 -1.1253
 6474TIP3   OH219427   4.382   5.889   4.009  0.1643  0.4536  0.0007
 6474TIP3    H119428   4.289   5.870   3.992 -0.0306  1.2509  0.1234
 6474TIP3    H219429   4.404   5.837   4.086 -0.4066  0.8467  0.4417
 6475TIP3   OH219430   2.523   5.506   0.629  0.2645 -0.0316 -0.3851
 6475TIP3    H119431   2.534   5.601   0.622 -0.2210  0.2279  1.5726
 6475TIP3    H219432   2.521   5.474   0.539  1.0371  1.7430 -1.0635
 6476TIP3   OH219433   3.315   2.192   3.632 -0.1394  0.3671  0.5136
 6476TIP3    H119434   3.359   2.172   3.550 -1.1163 -1.3524  0.3544
 6476TIP3    H219435   3.301   2.287   3.630 -0.4909  0.3084 -1.4860
 6477TIP3   OH219436   0.990   0.165   2.015 -0.4625 -0.1440 -0.0410
 6477TIP3    H119437   1.071   0.211   1.993 -0.1309 -0.6787  0.0385
 6477TIP3    H219438   0.936   0.172   1.936 -1.1475  1.8865  0.5474
 6478TIP3   OH219439   4.370   5.320   4.635 -0.2092 -0.3347 -1.0225
 6478TIP3    H119440   4.451   5.280   4.604  1.5226  0.7576  1.7714
 6478TIP3    H219441   4.385   5.414   4.627 -1.0433 -0.1112 -0.1564
 6479TIP3   OH219442   5.710   2.294   1.934  0.7021 -0.5188 -0.6613
 6479TIP3    H119443   5.677   2.224   1.991  1.4912 -0.3214  0.0674
 6479TIP3    H219444   5.771   2.250   1.875 -1.1496 -0.9812 -2.3687
 6480TIP3   OH219445   3.954   3.194   3.069 -0.5408  0.0137  0.1171
 6480TIP3    H119446   3.967   3.276   3.116  0.6680  0.6025 -1.1892
 6480TIP3    H219447   4.038   3.149   3.075 -1.0972 -1.0044  0.5553
 6481TIP3   OH219448   5.811   3.167   3.106  0.6777 -0.0594 -0.1091
 6481TIP3    H119449   5.819   3.142   3.198 -0.3479 -0.2154 -0.0395
 6481TIP3    H219450   5.732   3.221   3.103 -0.5348 -1.7920 -1.2060
 6482TIP3   OH219451   0.972   4.143   4.224  0.0857 -0.0340  0.3204
 6482TIP3    H119452   0.985   4.059   4.268  1.4403 -0.8025 -1.4365
 6482TIP3    H219453   1.053   4.157   4.174 -0.7294  1.5730 -0.6359
 6483TIP3   OH219454   5.700   5.260   1.371  0.1819 -0.3411  0.1974
 6483TIP3    H119455   5.757   5.245   1.446  0.5391 -0.7693 -0.1542
 6483TIP3    H219456   5.659   5.344   1.388 -0.3503 -0.7955  1.2655
 6484TIP3   OH219457   5.541   3.352   4.656 -0.1166 -0.0402  0.3887
 6484TIP3    H119458   5.487   3.394   4.589 -0.4506 -1.7937 -0.5145
 6484TIP3    H219459   5.584   3.280   4.610  1.8101  0.3542  1.4536
 6485TIP3   OH219460   0.084   1.021   2.412  0.1146  0.3902 -0.3370
 6485TIP3    H119461   0.005   0.998   2.461  0.0294  1.2824 -0.0421
 6485TIP3    H219462   0.156   0.988   2.465 -0.0414 -0.1819 -0.4704
 6486TIP3   OH219463   2.471   5.326   4.091 -0.6613  0.2902 -0.3324
 6486TIP3    H119464   2.423   5.297   4.013 -0.4197 -0.9023 -0.0523
 6486TIP3    H219465   2.541   5.261   4.101  0.1651  1.2248  0.0731
 6487TIP3   OH219466   3.717   5.333   0.882  0.1708  0.1126  0.3528
 6487TIP3    H119467   3.760   5.314   0.965  1.6086 -1.0077 -0.5972
 6487TIP3    H219468   3.697   5.247   0.845 -0.3690  0.5885 -0.5075
 6488TIP3   OH219469   4.768   1.958   1.119 -0.3031  0.1776 -0.2205
 6488TIP3    H119470   4.779   2.051   1.141 -0.8707  0.0628  0.6295
 6488TIP3    H219471   4.707   1.926   1.186 -0.6331 -0.6516 -0.9149
 6489TIP3   OH219472   5.703   2.823   3.577 -1.0358  0.0310 -0.0068
 6489TIP3    H119473   5.798   2.809   3.579 -1.1324 -0.7181  1.5683
 6489TIP3    H219474   5.691   2.913   3.608 -0.8286  0.2132 -0.4547
 6490TIP3   OH219475   0.305   0.907   3.127 -0.0046  0.2806 -0.1806
 6490TIP3    H119476   0.351   0.866   3.200  0.3996 -0.2423 -0.7182
 6490TIP3    H219477   0.213   0.885   3.141  0.2029 -0.8341 -0.4590
 6491TIP3   OH219478   1.714   5.637   1.950  0.1929 -0.2452  0.1409
 6491TIP3    H119479   1.672   5.703   2.005  0.6600  0.5506 -0.4441
 6491TIP3    H219480   1.732   5.564   2.010 -1.4088 -0.3460  0.5422
 6492TIP3   OH219481   0.076   3.748   3.068 -0.1446  0.0481  0.4862
 6492TIP3    H119482   0.134   3.822   3.084  0.0641 -0.2866  1.3250
 6492TIP3    H219483   0.060   3.750   2.974  1.8329 -0.2744  0.1032
 6493TIP3   OH219484   2.893   2.552   0.910  0.1965  0.1032 -0.4507
 6493TIP3    H119485   2.836   2.599   0.972  0.3825  0.4746 -0.5554
 6493TIP3    H219486   2.883   2.599   0.828 -0.0888 -0.4241 -0.7230
 6494TIP3   OH219487   2.487   0.243   4.368 -0.1341  0.0703  0.0968
 6494TIP3    H119488   2.477   0.313   4.433  2.3689  0.3302  0.3067
 6494TIP3    H219489   2.537   0.175   4.414  0.4226 -0.3735 -1.1222
 6495TIP3   OH219490   5.737   2.747   1.584 -0.2769 -0.5564  0.3668
 6495TIP3    H119491   5.684   2.824   1.604  0.9692  0.0429  1.5416
 6495TIP3    H219492   5.704   2.716   1.500 -1.2104  0.8992  0.1640
 6496TIP3   OH219493   1.101   0.877   3.498 -0.0502 -0.2404 -0.0355
 6496TIP3    H119494   1.031   0.943   3.500 -0.7873 -0.9979 -0.4439
 6496TIP3    H219495   1.168   0.915   3.442  0.0373  0.6519  0.6471
 6497TIP3   OH219496   3.554   5.590   0.135  0.5685  0.2669 -0.6612
 6497TIP3    H119497   3.612   5.607   0.209 -1.6549  1.0380  1.0368
 6497TIP3    H219498   3.587   5.647   0.065  1.5337  1.0692  0.4135
 6498TIP3   OH219499   6.302   4.935   2.330  0.2206  0.3683  0.6758
 6498TIP3    H119500   6.346   4.939   2.246  1.9888 -2.7060  1.3035
 6498TIP3    H219501   6.216   4.896   2.310  0.7349 -0.6009  0.2833
 6499TIP3   OH219502   2.167   4.921   3.713 -0.6957 -0.2013 -0.1016
 6499TIP3    H119503   2.253   4.878   3.717 -0.7090 -0.3229 -0.9939
 6499TIP3    H219504   2.105   4.854   3.742 -0.4836 -0.0611  0.7085
 6500TIP3   OH219505   4.718   5.239   3.232 -0.5228 -0.4025  0.6870
 6500TIP3    H119506   4.808   5.239   3.201 -0.4769 -0.8163  0.8128
 6500TIP3    H219507   4.707   5.324   3.275 -0.4090 -0.0695  0.0639
 6501TIP3   OH219508   0.677   2.293   1.012 -0.2025 -0.2135 -0.1506
 6501TIP3    H119509   0.672   2.383   0.981 -0.5562  0.6730  2.2567
 6501TIP3    H219510   0.762   2.261   0.981  0.8580  1.6614  0.6452
 6502TIP3   OH219511   0.766   5.352   4.122 -0.2438  0.6338  0.0564
 6502TIP3    H119512   0.751   5.394   4.207 -0.4002  0.0753  0.3073
 6502TIP3    H219513   0.720   5.409   4.060  0.3540  1.3588  0.2622
 6503TIP3   OH219514   5.238   1.300   4.851  0.5739  0.2823 -0.2847
 6503TIP3    H119515   5.243   1.286   4.946  1.2038  0.4594 -0.2855
 6503TIP3    H219516   5.242   1.395   4.841  0.1005  0.2853 -0.4724
 6504TIP3   OH219517   1.845   0.473   1.475 -0.7188  0.2850 -0.1889
 6504TIP3    H119518   1.923   0.417   1.477 -0.5364  0.5160 -0.5667
 6504TIP3    H219519   1.845   0.510   1.386 -1.1170  0.4873 -0.1070
 6505TIP3   OH219520   0.112   1.686   3.721  0.1621  0.0202  0.6550
 6505TIP3    H119521   0.154   1.601   3.734  1.7824  0.6557 -0.0691
 6505TIP3    H219522   0.027   1.666   3.683  0.1346 -1.3037  1.3659
 6506TIP3   OH219523   5.468   4.024   3.339 -0.3292  0.0202 -0.3402
 6506TIP3    H119524   5.424   4.101   3.303  0.7100  0.0416 -1.6398
 6506TIP3    H219525   5.487   4.047   3.429 -0.5095  1.0826 -0.5647
 6507TIP3   OH219526   0.412   0.353   0.592  0.3873  0.0272  0.2305
 6507TIP3    H119527   0.455   0.364   0.508 -0.3257  1.1231 -0.0109
 6507TIP3    H219528   0.441   0.428   0.644 -1.3234  0.9213 -0.0084
 6508TIP3   OH219529   2.393   5.008   3.493  0.1796  0.4065 -0.1035
 6508TIP3    H119530   2.389   4.948   3.567  0.5868  0.1646 -0.2715
 6508TIP3    H219531   2.301   5.023   3.469  0.0665  0.0591  0.1048
 6509TIP3   OH219532   0.594   5.267   4.556  0.2223 -0.1103 -0.1406
 6509TIP3    H119533   0.509   5.296   4.590  0.2568 -0.4338  0.2189
 6509TIP3    H219534   0.583   5.173   4.541  0.5900 -0.1928  0.1115
 6510TIP3   OH219535   0.324   0.115   4.453 -0.5905 -0.0531  0.6159
 6510TIP3    H119536   0.298   0.074   4.535  2.8236 -0.7263  1.5157
 6510TIP3    H219537   0.420   0.116   4.456 -0.2867 -0.2473 -3.4284
 6511TIP3   OH219538   2.733   4.455   1.040  0.1210  0.2929  0.0905
 6511TIP3    H119539   2.716   4.534   0.989 -1.9818  0.1917  0.5504
 6511TIP3    H219540   2.692   4.471   1.125 -0.0267 -1.1433  0.3259
 6512TIP3   OH219541   2.839   3.387   4.636 -0.6411  0.2068  0.0197
 6512TIP3    H119542   2.867   3.393   4.727  0.9882  0.0323 -0.4431
 6512TIP3    H219543   2.912   3.421   4.586 -1.1477 -0.5420 -1.2889
 6513TIP3   OH219544   6.296   5.130   3.418 -0.2329 -0.1242  0.0154
 6513TIP3    H119545   6.339   5.133   3.503  0.8390 -1.3057 -0.4569
 6513TIP3    H219546   6.326   5.210   3.373 -0.4916  0.3007  0.5852
 6514TIP3   OH219547   4.888   1.823   1.953 -0.2677 -0.4326  0.3369
 6514TIP3    H119548   4.918   1.913   1.942 -0.8397 -0.2758  0.0390
 6514TIP3    H219549   4.825   1.809   1.882 -1.2217 -0.6164  1.2032
 6515TIP3   OH219550   4.027   2.387   3.611  1.1400 -0.0329 -0.5312
 6515TIP3    H119551   4.057   2.417   3.697  0.9423 -0.0309 -0.4636
 6515TIP3    H219552   3.947   2.338   3.629  1.3727 -0.4652 -0.6581
 6516TIP3   OH219553   4.491   3.280   2.396 -0.6213  0.8320 -0.4457
 6516TIP3    H119554   4.447   3.235   2.324 -0.6935  2.0046 -1.1648
 6516TIP3    H219555   4.443   3.253   2.474  0.4242 -1.6920 -0.6063
 6517TIP3   OH219556   4.096   1.264   0.373  0.4475 -1.1594 -0.9925
 6517TIP3    H119557   4.096   1.235   0.282  0.8850 -1.7649 -0.8057
 6517TIP3    H219558   4.033   1.207   0.417 -0.2652 -0.4299 -1.0403
 6518TIP3   OH219559   0.681   3.631   2.496 -0.1965  0.1401  0.2573
 6518TIP3    H119560   0.666   3.567   2.426  0.1574 -0.5277  0.7761
 6518TIP3    H219561   0.642   3.712   2.463  0.4251 -0.0251 -0.9292
 6519TIP3   OH219562   5.676   0.218   4.541 -0.5384  0.1526  0.1124
 6519TIP3    H119563   5.746   0.167   4.498 -0.1769 -0.1734  1.0658
 6519TIP3    H219564   5.659   0.290   4.481  2.8530  2.1043  1.2199
 6520TIP3   OH219565   2.795   5.007   2.104 -0.1454  0.1342  0.4053
 6520TIP3    H119566   2.835   4.920   2.106 -2.2423 -1.0350 -1.8392
 6520TIP3    H219567   2.744   5.012   2.185  1.4110  0.0854  1.4295
 6521TIP3   OH219568   0.130   0.520   0.242  0.1167  0.1689  0.4067
 6521TIP3    H119569   0.191   0.558   0.307  0.3153 -0.2754  0.4816
 6521TIP3    H219570   0.182   0.513   0.162 -0.1512  0.7884  0.1705
 6522TIP3   OH219571   1.789   3.082   0.473  0.5451 -0.3140  0.3023
 6522TIP3    H119572   1.869   3.133   0.469  0.3987 -0.1413 -2.1658
 6522TIP3    H219573   1.719   3.146   0.485  0.5762 -0.1831 -0.1960
 6523TIP3   OH219574   5.492   2.365   3.766 -0.2427 -0.3310 -0.0892
 6523TIP3    H119575   5.578   2.350   3.807  0.5599 -0.9497 -1.9034
 6523TIP3    H219576   5.446   2.423   3.828  1.1393 -0.6798  1.3393
 6524TIP3   OH219577   5.792   4.024   0.906 -0.0931 -0.3579  0.1470
 6524TIP3    H119578   5.848   4.089   0.949  0.2526  0.5666 -1.5747
 6524TIP3    H219579   5.802   4.043   0.813 -1.4188 -1.7414 -0.3147
 6525TIP3   OH219580   0.872   0.561   2.993 -0.1798 -0.0149 -0.0575
 6525TIP3    H119581   0.951   0.577   3.044 -1.1396  2.4149  0.8330
 6525TIP3    H219582   0.900   0.504   2.921  1.8819 -0.9197  1.3846
 6526TIP3   OH219583   5.163   3.900   3.470  0.1683 -0.2605  0.0224
 6526TIP3    H119584   5.077   3.901   3.510  0.6204  0.5815  0.9997
 6526TIP3    H219585   5.224   3.907   3.543  1.0236  0.6746 -0.7599
 6527TIP3   OH219586   3.045   5.014   1.787  0.4512 -0.3082 -0.5732
 6527TIP3    H119587   3.090   4.959   1.851  0.8625 -0.3618 -0.9005
 6527TIP3    H219588   2.957   4.979   1.783 -0.5366  1.4956  2.1429
 6528TIP3   OH219589   4.176   3.342   0.744 -0.0985 -0.2037 -0.3940
 6528TIP3    H119590   4.177   3.429   0.783  1.7275 -0.5095  0.3253
 6528TIP3    H219591   4.099   3.342   0.687 -1.3851  1.1137  1.2538
 6529TIP3   OH219592   3.987   3.136   3.594  0.7024 -0.2986 -0.3269
 6529TIP3    H119593   4.009   3.103   3.681 -2.9205 -0.9056  0.5464
 6529TIP3    H219594   4.049   3.093   3.535  3.1056 -0.0504  1.8496
 6530TIP3   OH219595   5.643   2.314   2.210 -0.0244  0.3306  0.2406
 6530TIP3    H119596   5.563   2.340   2.256  1.4563  2.3790  1.8287
 6530TIP3    H219597   5.627   2.338   2.119 -1.5248 -0.1441  0.3453
 6531TIP3   OH219598   4.580   0.300   3.569 -0.3868  0.3174 -0.1992
 6531TIP3    H119599   4.580   0.227   3.632 -0.8178 -0.7022 -1.3332
 6531TIP3    H219600   4.488   0.325   3.561 -0.3098  0.5787 -0.2686
 6532TIP3   OH219601   4.000   2.324   2.094  0.3351 -0.1786  0.3300
 6532TIP3    H119602   4.067   2.280   2.041  0.6762 -0.7531  1.2203
 6532TIP3    H219603   3.956   2.383   2.032  0.6110 -0.9441 -0.6263
 6533TIP3   OH219604   4.958   1.746   2.363 -0.1582 -0.0860 -0.3572
 6533TIP3    H119605   5.015   1.696   2.304  1.4949  0.2277  0.8896
 6533TIP3    H219606   4.875   1.752   2.317  0.4118 -1.6905 -1.7010
 6534TIP3   OH219607   6.184   5.302   3.686  0.5475 -0.5672 -0.0165
 6534TIP3    H119608   6.251   5.370   3.695 -1.6167  1.7761 -0.5347
 6534TIP3    H219609   6.141   5.322   3.603 -1.4865 -1.3485  0.7999
 6535TIP3   OH219610   4.967   1.445   2.966  0.3119 -0.0967  0.0784
 6535TIP3    H119611   4.886   1.453   2.916 -0.2186  0.8886  1.0546
 6535TIP3    H219612   4.948   1.377   3.031  0.7766 -0.8960 -0.5944
 6536TIP3   OH219613   3.384   5.860   0.699  0.3887 -0.1864  0.0491
 6536TIP3    H119614   3.417   5.793   0.640 -0.3245 -2.4901  2.1173
 6536TIP3    H219615   3.463   5.907   0.729  0.7899  0.7328 -2.2540
 6537TIP3   OH219616   5.472   2.246   4.766 -0.2306 -0.0477 -0.6836
 6537TIP3    H119617   5.513   2.208   4.843  0.0783 -2.2813 -1.8430
 6537TIP3    H219618   5.378   2.230   4.777 -0.2496  0.2065 -0.4830
 6538TIP3   OH219619   0.606   2.939   2.891 -0.5980  0.3292  0.2970
 6538TIP3    H119620   0.674   2.986   2.844 -0.6843  0.0132 -0.1476
 6538TIP3    H219621   0.640   2.929   2.980 -0.4620  0.9871  0.3215
 6539TIP3   OH219622   5.691   4.688   0.346 -0.0371 -0.2174  0.1380
 6539TIP3    H119623   5.760   4.655   0.404 -0.2469 -1.8121 -0.4679
 6539TIP3    H219624   5.653   4.610   0.306 -1.0233  0.7349 -0.8867
 6540TIP3   OH219625   3.910   4.056   0.115 -0.5264 -0.0847  0.3319
 6540TIP3    H119626   4.003   4.075   0.124 -0.3144 -1.6582  2.0486
 6540TIP3    H219627   3.866   4.138   0.136  0.4406  0.6281 -0.3356
 6541TIP3   OH219628   5.075   5.717   4.781 -0.0654 -0.3342 -0.2760
 6541TIP3    H119629   5.121   5.672   4.711  2.0811  0.4048  0.5529
 6541TIP3    H219630   5.021   5.783   4.737  3.3382  2.0379 -1.3141
 6542TIP3   OH219631   2.493   4.859   2.537 -0.2025  0.2317 -0.3883
 6542TIP3    H119632   2.421   4.808   2.500  0.7383 -1.3110 -0.1990
 6542TIP3    H219633   2.476   4.949   2.509 -2.1294 -0.1037 -0.4236
 6543TIP3   OH219634   5.676   2.441   5.041  0.2424  0.1881 -0.4031
 6543TIP3    H119635   5.592   2.465   5.002  0.0462 -0.1739 -0.2070
 6543TIP3    H219636   5.708   2.523   5.080 -0.8667 -0.0431  1.0856
 6544TIP3   OH219637   5.157   3.504   2.704 -0.4692  0.4918  0.8150
 6544TIP3    H119638   5.065   3.517   2.728 -1.1558 -1.2104 -0.6802
 6544TIP3    H219639   5.167   3.409   2.699  1.8599  0.5827  2.5694
 6545TIP3   OH219640   0.373   0.945   2.204 -0.1207  0.5060  0.0711
 6545TIP3    H119641   0.402   0.867   2.251 -1.0807  1.4814  2.4460
 6545TIP3    H219642   0.304   0.914   2.146  0.7748 -0.6807 -0.3963
 6546TIP3   OH219643   4.010   1.051   2.853  0.7954 -0.2787  0.3428
 6546TIP3    H119644   4.066   1.067   2.928 -1.1321  0.5463  1.6833
 6546TIP3    H219645   3.997   1.138   2.814 -1.5261  0.0171  1.5885
 6547TIP3   OH219646   5.962   2.832   1.743 -0.1522  0.1020 -0.0099
 6547TIP3    H119647   5.938   2.924   1.730  1.0423  0.5379  0.7354
 6547TIP3    H219648   5.900   2.784   1.687  0.0199  1.4246 -1.4253
 6548TIP3   OH219649   4.560   4.808   3.564  0.5638  0.0469  0.0500
 6548TIP3    H119650   4.569   4.737   3.628  2.1962 -0.2409 -0.4573
 6548TIP3    H219651   4.495   4.867   3.603 -1.2323 -1.9428  0.2512
 6549TIP3   OH219652   2.417   1.197   4.773  0.4771  0.3305  0.0041
 6549TIP3    H119653   2.346   1.258   4.752 -0.9366 -0.0089  3.2357
 6549TIP3    H219654   2.382   1.111   4.749  0.5269  0.3251 -0.0498
 6550TIP3   OH219655   5.444   0.638   1.350 -0.1430  0.1576  0.7737
 6550TIP3    H119656   5.361   0.644   1.302  0.3001 -0.3738 -0.0810
 6550TIP3    H219657   5.509   0.677   1.291  0.1157  1.1625  1.7081
 6551TIP3   OH219658   4.138   1.689   2.374 -0.4533 -0.1697 -0.4422
 6551TIP3    H119659   4.114   1.623   2.439 -0.3100  1.6776  1.6207
 6551TIP3    H219660   4.056   1.713   2.332 -0.9652  0.2460  0.7432
 6552TIP3   OH219661   0.160   5.842   5.136 -0.2706 -0.0993  0.3661
 6552TIP3    H119662   0.248   5.838   5.174 -0.8589 -0.8281  1.7375
 6552TIP3    H219663   0.102   5.834   5.211 -1.5185  0.1271 -0.5475
 6553TIP3   OH219664   1.027   3.310   4.171 -0.2306  0.7097  0.5422
 6553TIP3    H119665   1.092   3.248   4.200 -0.2007  1.0663  1.2442
 6553TIP3    H219666   1.077   3.389   4.149 -0.2238  0.3833 -0.6995
 6554TIP3   OH219667   2.408  -0.018   1.057 -0.1256  0.4054  0.0675
 6554TIP3    H119668   2.353   0.056   1.033  1.3319  1.5772  0.1843
 6554TIP3    H219669   2.432  -0.002   1.148 -0.2292 -0.5064  0.2644
 6555TIP3   OH219670   5.596   4.343   0.736  0.0594  0.3021 -0.0406
 6555TIP3    H119671   5.544   4.274   0.776  0.4163 -0.4491 -0.8424
 6555TIP3    H219672   5.593   4.324   0.642  0.7886  0.9315 -0.2000
 6556TIP3   OH219673   5.782   4.073   4.045 -0.7146 -0.0659  0.3817
 6556TIP3    H119674   5.786   4.156   3.999  3.8083  0.4866  1.3099
 6556TIP3    H219675   5.824   4.010   3.985  2.1065 -0.0606  2.1676
 6557TIP3   OH219676   1.123   1.715   4.623  0.2919  0.8174  0.0959
 6557TIP3    H119677   1.210   1.707   4.661  1.1646 -0.0907 -1.9065
 6557TIP3    H219678   1.139   1.718   4.528 -1.7879  1.9258 -0.2822
 6558TIP3   OH219679   4.082   2.578   4.696  0.5198 -0.0382 -0.3902
 6558TIP3    H119680   4.083   2.540   4.608 -2.1874 -1.2506 -0.0113
 6558TIP3    H219681   4.025   2.655   4.688  1.3628  0.6424  0.0387
 6559TIP3   OH219682   0.233   0.202   0.436  0.3510 -0.3815 -0.6607
 6559TIP3    H119683   0.160   0.178   0.493 -1.3721  0.0321 -2.5908
 6559TIP3    H219684   0.289   0.257   0.491 -1.3419  0.1887  0.5604
 6560TIP3   OH219685   1.531   0.731   5.100  0.6453 -0.5334 -0.0680
 6560TIP3    H119686   1.620   0.764   5.106  0.1447  0.8713  0.1894
 6560TIP3    H219687   1.521   0.705   5.008  0.6640  1.3922 -0.6589
 6561TIP3   OH219688   1.315   2.998   1.963  0.4372  0.0231  0.1459
 6561TIP3    H119689   1.317   2.958   2.050 -0.1108 -1.9453 -0.6802
 6561TIP3    H219690   1.331   2.925   1.903 -0.0538  1.1725 -1.4531
 6562TIP3   OH219691   3.067   1.857   0.241  0.0773  0.4069  0.0207
 6562TIP3    H119692   2.983   1.822   0.271  0.6850 -0.7064  0.4607
 6562TIP3    H219693   3.048   1.948   0.219 -1.6580 -0.3168 -1.6652
 6563TIP3   OH219694   3.833   5.813   2.512 -0.3555  0.1773 -0.3293
 6563TIP3    H119695   3.816   5.904   2.491  1.6604  1.3497  2.4778
 6563TIP3    H219696   3.780   5.795   2.589 -1.0256 -1.1997 -1.0621
 6564TIP3   OH219697   3.851   4.479   1.683  0.0700 -0.0124  0.4750
 6564TIP3    H119698   3.789   4.527   1.629 -1.3753 -0.2350  1.8719
 6564TIP3    H219699   3.798   4.414   1.729  1.4998 -0.8804  0.9551
 6565TIP3   OH219700   1.058   2.081   2.961  0.7437 -0.1770 -0.3290
 6565TIP3    H119701   1.039   2.011   3.023  0.2390 -0.3398 -0.6611
 6565TIP3    H219702   1.104   2.147   3.013  1.3374 -0.8046 -0.0391
 6566TIP3   OH219703   5.167   1.243   0.423 -0.1797  0.2471  0.0609
 6566TIP3    H119704   5.246   1.213   0.468  0.2101  0.8757 -0.1927
 6566TIP3    H219705   5.155   1.333   0.454  0.0315  0.6531 -1.0126
 6567TIP3   OH219706   1.351   0.379   2.296 -0.2829 -0.0497 -0.4913
 6567TIP3    H119707   1.432   0.338   2.323 -1.1644 -1.8398 -0.4439
 6567TIP3    H219708   1.377   0.442   2.228  1.4670  1.7139  1.6505
 6568TIP3   OH219709   3.266   2.569   4.022 -0.3392 -0.1335  0.0729
 6568TIP3    H119710   3.219   2.506   3.966  0.2769 -0.1519 -0.4260
 6568TIP3    H219711   3.326   2.614   3.963  0.1920 -0.0234  0.6905
 6569TIP3   OH219712   0.003   5.851   3.483 -0.3776 -0.2716  0.0986
 6569TIP3    H119713   0.068   5.790   3.447  1.7209  1.9456 -0.1249
 6569TIP3    H219714   0.025   5.857   3.576 -0.1839  0.5313  0.0128
 6570TIP3   OH219715   5.678   4.441   4.694 -0.1339  0.1164  0.0286
 6570TIP3    H119716   5.702   4.359   4.738  2.2058  0.4759 -0.4246
 6570TIP3    H219717   5.697   4.509   4.758  0.4456  0.4506 -0.4838
 6571TIP3   OH219718   5.178   2.714   4.810  0.0654  0.5554 -0.4570
 6571TIP3    H119719   5.186   2.694   4.903 -0.7454 -0.3904 -0.5839
 6571TIP3    H219720   5.264   2.750   4.786  0.5477  0.0469  0.4617
 6572TIP3   OH219721   4.238   3.243   3.998  0.1582  0.3174 -0.4120
 6572TIP3    H119722   4.159   3.286   3.965 -1.1167 -0.8037  1.0471
 6572TIP3    H219723   4.306   3.311   3.994 -0.6743  1.0950 -2.3624
 6573TIP3   OH219724   1.951   5.052   4.261 -0.0912  0.4753 -0.3089
 6573TIP3    H119725   1.955   5.052   4.165  3.0661  1.0903 -0.2865
 6573TIP3    H219726   1.978   5.140   4.286 -0.4618  0.1891  1.1930
 6574TIP3   OH219727   1.819   5.844   2.957 -0.3987 -0.2225 -0.1296
 6574TIP3    H119728   1.845   5.752   2.956 -2.2147 -0.7891 -2.1883
 6574TIP3    H219729   1.730   5.844   2.994  0.6366  1.1361  2.6600
 6575TIP3   OH219730   6.088   0.226   4.557 -0.1964 -0.6093  0.0821
 6575TIP3    H119731   6.146   0.179   4.497  1.5153 -2.1349  2.6783
 6575TIP3    H219732   6.076   0.312   4.517  1.7576 -1.1430 -1.8706
 6576TIP3   OH219733   3.213   0.783   3.961 -0.1228 -0.1594 -0.0810
 6576TIP3    H119734   3.253   0.751   4.041 -0.0774  1.5597  0.6249
 6576TIP3    H219735   3.286   0.794   3.900 -0.1349 -1.2774 -0.3224
 6577TIP3   OH219736   5.179   1.395   0.110 -0.1408  0.3851  0.6496
 6577TIP3    H119737   5.087   1.371   0.108  0.4856 -2.3491 -0.8529
 6577TIP3    H219738   5.207   1.380   0.200 -0.1614 -3.6897  0.1461
 6578TIP3   OH219739   1.141   0.448   3.007 -0.3012 -0.0114 -0.2586
 6578TIP3    H119740   1.207   0.482   3.067 -0.4408 -0.9406  0.4553
 6578TIP3    H219741   1.165   0.484   2.921  1.8692 -1.2618 -0.2670
 6579TIP3   OH219742   2.313   1.513   2.939  0.0107 -0.3788 -0.1491
 6579TIP3    H119743   2.323   1.607   2.925  0.2245 -0.5849 -1.5202
 6579TIP3    H219744   2.278   1.480   2.856 -0.5242 -1.4403  0.4824
 6580TIP3   OH219745   2.767   2.740   2.872 -0.7381  0.0492  0.3310
 6580TIP3    H119746   2.675   2.737   2.899 -1.2481  0.4907 -1.2425
 6580TIP3    H219747   2.792   2.648   2.860 -1.1707 -0.0530  0.1880
 6581TIP3   OH219748   4.460   4.234   4.475 -0.6230  0.1756  0.2290
 6581TIP3    H119749   4.531   4.286   4.438 -0.9727  1.0915  0.8202
 6581TIP3    H219750   4.501   4.184   4.545 -1.1876  3.7961  3.4744
 6582TIP3   OH219751   4.713   5.692   1.714 -0.1863  0.1404 -0.1603
 6582TIP3    H119752   4.700   5.734   1.800 -0.2282  1.2126 -0.6743
 6582TIP3    H219753   4.808   5.699   1.699 -0.2701  0.5637 -0.4987
 6583TIP3   OH219754   2.861   0.027   0.096 -0.0775 -0.1725 -0.2392
 6583TIP3    H119755   2.856   0.119   0.122  0.4738 -0.3104  0.3928
 6583TIP3    H219756   2.909   0.028   0.013 -0.8228  0.1779 -0.6673
 6584TIP3   OH219757   2.892   0.324   4.304 -0.1542 -0.3324 -0.1681
 6584TIP3    H119758   2.844   0.285   4.377  0.2029 -0.2723  0.1015
 6584TIP3    H219759   2.825   0.345   4.239 -0.6555  0.8758  0.6934
 6585TIP3   OH219760   5.487   1.432   0.302  0.6079  0.5993  0.1319
 6585TIP3    H119761   5.490   1.421   0.396  0.3603 -0.9363 -0.0226
 6585TIP3    H219762   5.450   1.351   0.268  1.2637  0.8632 -1.3386
 6586TIP3   OH219763   3.716   1.997   3.758 -0.2121 -0.2152  0.4331
 6586TIP3    H119764   3.790   1.941   3.779  0.3982  1.4062  3.0059
 6586TIP3    H219765   3.685   1.965   3.673  2.7853 -1.5892 -0.2659
 6587TIP3   OH219766   4.144   0.180   0.511 -0.2585  0.4335 -0.8712
 6587TIP3    H119767   4.185   0.115   0.568 -1.5867  0.6120  0.3627
 6587TIP3    H219768   4.210   0.247   0.498  0.2523  0.1241  0.0403
 6588TIP3   OH219769   4.202   3.689   0.976 -0.5045 -0.0439 -0.3191
 6588TIP3    H119770   4.176   3.605   1.013 -0.1376 -0.6986 -1.5055
 6588TIP3    H219771   4.136   3.750   1.008 -0.3308 -0.6078  1.2082
 6589TIP3   OH219772   2.406   0.050   3.165  0.0423  0.0765 -0.1922
 6589TIP3    H119773   2.324   0.068   3.120  0.0467  0.8974  0.1157
 6589TIP3    H219774   2.404   0.105   3.243 -0.0425 -1.4578  0.9348
 6590TIP3   OH219775   1.869   2.017   2.596  0.2429  0.4587  0.4379
 6590TIP3    H119776   1.836   2.105   2.580  2.8691  1.9954  2.6018
 6590TIP3    H219777   1.804   1.977   2.654 -1.6806  0.3350 -1.6629
 6591TIP3   OH219778   4.844   4.670   3.806 -0.3121 -0.5976  0.6934
 6591TIP3    H119779   4.763   4.631   3.839 -2.0863  1.4768 -0.8925
 6591TIP3    H219780   4.834   4.764   3.822  1.4443 -0.2171 -0.2004
 6592TIP3   OH219781   4.679   2.824   4.898 -0.0703  0.3893 -0.5178
 6592TIP3    H119782   4.663   2.834   4.992  0.2555 -0.7413 -0.3254
 6592TIP3    H219783   4.595   2.843   4.857 -1.3540 -2.8393  0.3009
 6593TIP3   OH219784   2.944   1.043   2.193 -0.6592 -0.4472  0.1714
 6593TIP3    H119785   2.953   0.992   2.274 -0.4892  1.1493  1.1921
 6593TIP3    H219786   2.889   1.117   2.217  0.9411  1.0789 -0.6528
 6594TIP3   OH219787   3.752   4.168   3.444  0.0215 -0.6701  0.0733
 6594TIP3    H119788   3.682   4.109   3.418 -0.7767  1.0844 -2.1376
 6594TIP3    H219789   3.769   4.146   3.536 -2.9887 -1.6084  0.5343
 6595TIP3   OH219790   0.841   3.361   1.582  0.4735 -0.2536  0.1346
 6595TIP3    H119791   0.827   3.290   1.644 -1.4884 -1.1485 -1.2563
 6595TIP3    H219792   0.889   3.321   1.509 -0.2857 -0.0720 -0.4732
 6596TIP3   OH219793   2.735   4.283   2.086  0.4308  0.2803  0.6557
 6596TIP3    H119794   2.774   4.223   2.023 -0.7975 -0.0742  0.2044
 6596TIP3    H219795   2.667   4.329   2.036 -1.1274 -0.5868  1.8980
 6597TIP3   OH219796   3.083   5.019   5.035  0.3419  0.3150  0.2164
 6597TIP3    H119797   3.040   4.969   5.104  0.1423  1.1736  0.7270
 6597TIP3    H219798   3.036   5.102   5.032  2.1702  1.4504  1.0583
 6598TIP3   OH219799   2.345   0.096   4.874 -0.0264 -0.1575  0.6553
 6598TIP3    H119800   2.274   0.042   4.909 -0.0857 -0.2769  0.3507
 6598TIP3    H219801   2.361   0.060   4.787  0.1593  0.1069  0.5821
 6599TIP3   OH219802   1.828   2.622   3.583  0.4463  0.1253  0.1406
 6599TIP3    H119803   1.752   2.575   3.549  0.4858  0.2522 -0.1276
 6599TIP3    H219804   1.892   2.619   3.511 -0.0106  1.6915 -0.3880
 6600TIP3   OH219805   0.795   1.342   3.082 -0.0152  0.2807  0.1046
 6600TIP3    H119806   0.748   1.301   3.010 -0.2897  0.1036  0.3818
 6600TIP3    H219807   0.887   1.336   3.057 -0.1274  0.4650 -0.3557
 6601TIP3   OH219808   0.215   5.221   1.766 -0.0304 -0.0872  0.2775
 6601TIP3    H119809   0.138   5.195   1.816 -0.5473  1.1706  0.1667
 6601TIP3    H219810   0.185   5.228   1.676  0.2177  0.3805  0.2267
 6602TIP3   OH219811   4.931   2.550   3.999  0.6327  0.3316 -0.1009
 6602TIP3    H119812   4.888   2.635   3.989  0.4563  0.1190 -1.4680
 6602TIP3    H219813   4.994   2.547   3.926 -0.5894 -1.3822 -1.1597
 6603TIP3   OH219814   3.873   0.194   2.921  0.1709 -0.2306 -0.1068
 6603TIP3    H119815   3.960   0.155   2.930  0.4905  0.1199 -1.4428
 6603TIP3    H219816   3.814   0.129   2.958  0.9858 -0.5214  0.7338
 6604TIP3   OH219817   4.761   4.027   2.831 -0.1091  0.4002 -0.4389
 6604TIP3    H119818   4.824   4.067   2.892  1.3418 -1.4690 -0.6317
 6604TIP3    H219819   4.812   4.009   2.753 -0.9179 -1.0333 -0.6617
 6605TIP3   OH219820   3.649   5.457   4.362  0.4330  0.2161 -0.1128
 6605TIP3    H119821   3.604   5.375   4.341  0.0482  0.3828  0.0355
 6605TIP3    H219822   3.638   5.511   4.284 -1.6439  1.1153  0.6929
 6606TIP3   OH219823   4.331   1.077   4.790 -0.3237  0.3101 -0.0957
 6606TIP3    H119824   4.279   1.103   4.714 -0.1112 -1.3076 -0.8380
 6606TIP3    H219825   4.266   1.051   4.856 -0.4912  0.7346 -0.0937
 6607TIP3   OH219826   5.155   0.573   1.261 -0.2534 -0.0956 -0.1911
 6607TIP3    H119827   5.072   0.574   1.308 -0.6328  0.7832 -0.8612
 6607TIP3    H219828   5.133   0.544   1.173  0.4640 -1.7988  0.1515
 6608TIP3   OH219829   4.598   2.546   4.704  0.4014 -0.0900  0.5713
 6608TIP3    H119830   4.546   2.470   4.676  0.4970  0.1576 -0.2986
 6608TIP3    H219831   4.562   2.619   4.655  0.8249  0.2955  0.8289
 6609TIP3   OH219832   2.041   1.009   0.136  0.8008  0.1403  0.0958
 6609TIP3    H119833   2.075   0.919   0.134 -0.1998 -0.2690 -2.3307
 6609TIP3    H219834   2.113   1.061   0.170  2.5883 -1.1696 -1.4212
 6610TIP3   OH219835   0.938   2.035   3.876  0.2102  0.2791  0.0479
 6610TIP3    H119836   0.864   2.023   3.935  1.6873  1.7759  2.3539
 6610TIP3    H219837   0.907   2.098   3.810 -1.2028 -0.7925 -0.3540
 6611TIP3   OH219838   4.726   3.718   4.306 -0.2703 -0.7050 -0.4013
 6611TIP3    H119839   4.781   3.650   4.344  0.2544  0.3981  0.9215
 6611TIP3    H219840   4.768   3.800   4.334 -1.3119  0.1583 -1.2907
 6612TIP3   OH219841   5.971   4.975   0.705  0.2976  0.2622 -0.1465
 6612TIP3    H119842   5.893   5.011   0.662 -0.1064  1.8523  1.7670
 6612TIP3    H219843   5.940   4.945   0.790  1.6262  0.1013  0.3045
 6613TIP3   OH219844   1.391   4.601   3.989  0.4906  0.6210  0.0055
 6613TIP3    H119845   1.427   4.539   4.052  2.6763  2.3453  0.5871
 6613TIP3    H219846   1.438   4.582   3.908  1.3157  1.5781  0.2362
 6614TIP3   OH219847   2.002   2.079   0.876  0.1329 -0.8087 -0.2181
 6614TIP3    H119848   2.027   1.998   0.920 -0.5724 -1.2068 -0.5382
 6614TIP3    H219849   1.932   2.115   0.931  0.4915 -0.3838 -0.0398
 6615TIP3   OH219850   2.883   4.806   0.074 -0.9559 -0.6236  0.3687
 6615TIP3    H119851   2.911   4.877   0.016 -1.5726  0.6173  1.5320
 6615TIP3    H219852   2.800   4.775   0.038 -1.2800  0.0634  0.5250
 6616TIP3   OH219853   5.684   4.295   3.720  0.2729 -0.1253  0.2483
 6616TIP3    H119854   5.771   4.334   3.714  0.0718  0.3829  0.5267
 6616TIP3    H219855   5.635   4.336   3.648  0.1033  0.0358  0.4516
 6617TIP3   OH219856   0.413   1.905   3.542 -0.4516  0.2673 -0.0364
 6617TIP3    H119857   0.338   1.954   3.576 -1.5929 -0.7402 -0.9932
 6617TIP3    H219858   0.376   1.848   3.474  1.4861  1.1840 -2.0068
 6618TIP3   OH219859   4.180   0.461   1.306  0.3998 -0.1567 -0.6333
 6618TIP3    H119860   4.271   0.467   1.335  0.4143  0.6439 -0.8142
 6618TIP3    H219861   4.136   0.414   1.376  0.7003  0.6030  0.0876
 6619TIP3   OH219862   5.130   4.035   5.103 -0.2109 -0.3365  0.5910
 6619TIP3    H119863   5.068   3.969   5.072 -0.1271  0.5300 -1.5540
 6619TIP3    H219864   5.074   4.104   5.140 -0.5367  0.2185 -0.8915
 6620TIP3   OH219865   1.092   3.245   1.769 -0.5779 -0.0105  0.3543
 6620TIP3    H119866   1.024   3.178   1.778 -0.5696  0.1382  1.7867
 6620TIP3    H219867   1.173   3.195   1.756 -0.9432 -0.1832 -1.5207
 6621TIP3   OH219868   4.873   3.729   2.032 -0.3153  0.1445 -0.2996
 6621TIP3    H119869   4.888   3.812   1.987  0.4769  0.9499  1.3719
 6621TIP3    H219870   4.837   3.754   2.118  2.3497 -1.0092  1.2775
 6622TIP3   OH219871   1.310   5.416   3.302  0.5807  0.3391 -0.6298
 6622TIP3    H119872   1.234   5.457   3.343 -0.8817 -0.7734 -2.0745
 6622TIP3    H219873   1.370   5.489   3.286 -0.0073  1.2068  0.8426
 6623TIP3   OH219874   2.496   0.594   4.397  0.1138 -0.2947 -0.2451
 6623TIP3    H119875   2.553   0.668   4.373 -0.2732  0.6744  1.6120
 6623TIP3    H219876   2.550   0.541   4.456 -1.0855  1.1676  2.3609
 6624TIP3   OH219877   1.574   4.494   0.621 -0.1287 -0.6985 -0.0645
 6624TIP3    H119878   1.539   4.560   0.562  0.6837 -0.5657 -0.4061
 6624TIP3    H219879   1.502   4.433   0.634 -0.7926  0.0879  0.0150
 6625TIP3   OH219880   4.157   4.268   2.496  0.4681 -0.0410 -0.1643
 6625TIP3    H119881   4.178   4.184   2.538 -0.9480 -1.0284 -1.2992
 6625TIP3    H219882   4.240   4.299   2.461  1.0000 -1.0194  0.1956
 6626TIP3   OH219883   3.467   3.960   0.594  0.2537 -0.3046  0.0562
 6626TIP3    H119884   3.495   3.898   0.661 -1.3451  0.2067  1.2626
 6626TIP3    H219885   3.423   4.030   0.643 -3.4429 -1.2165 -1.5939
 6627TIP3   OH219886   0.646   5.386   1.126  0.0463  0.4880 -0.2780
 6627TIP3    H119887   0.712   5.454   1.120  0.4836  0.2290  1.3002
 6627TIP3    H219888   0.661   5.344   1.211 -0.9252 -0.8345 -0.7171
 6628TIP3   OH219889   4.689   3.295   0.637  0.4419  0.2377  0.4732
 6628TIP3    H119890   4.762   3.274   0.695 -0.4164 -0.9794  1.1415
 6628TIP3    H219891   4.617   3.318   0.696 -0.4395 -0.9875 -0.0897
 6629TIP3   OH219892   3.414   1.571   4.286  0.0622  0.4799  0.0532
 6629TIP3    H119893   3.474   1.595   4.357  1.6866 -1.4283 -0.5909
 6629TIP3    H219894   3.441   1.626   4.213  0.6159  0.1091 -0.0317
 6630TIP3   OH219895   2.113   2.518   0.630  0.6195 -0.2419  0.1792
 6630TIP3    H119896   2.049   2.589   0.635 -1.9413 -2.1626 -2.4069
 6630TIP3    H219897   2.099   2.467   0.710  2.1280  1.7346  1.8044
 6631TIP3   OH219898   4.912   2.664   5.111 -0.5597  0.4124  0.4159
 6631TIP3    H119899   4.919   2.593   5.049 -1.3173 -0.1463  0.9451
 6631TIP3    H219900   5.002   2.693   5.126 -0.4189  1.0177 -1.4390
 6632TIP3   OH219901   0.886   0.877   3.096 -0.2825  0.7333  0.3369
 6632TIP3    H119902   0.815   0.823   3.062  1.8281 -0.6234 -2.3679
 6632TIP3    H219903   0.843   0.956   3.128 -3.0764 -0.5529  0.0357
 6633TIP3   OH219904   5.331   1.414   2.722 -0.1398 -0.3134  0.2259
 6633TIP3    H119905   5.382   1.335   2.703  1.5335  0.8770 -0.4700
 6633TIP3    H219906   5.313   1.452   2.636 -0.3201  0.4240  0.5803
 6634TIP3   OH219907   0.829   4.541   0.994 -0.5819 -0.4606 -0.2316
 6634TIP3    H119908   0.772   4.542   1.070 -1.0950  0.1913 -0.6134
 6634TIP3    H219909   0.795   4.610   0.937  0.5360 -0.1089 -0.5014
 6635TIP3   OH219910   3.631   0.921   0.690 -0.4671  0.3461 -0.2604
 6635TIP3    H119911   3.625   0.848   0.628 -2.5977  0.5416 -0.3399
 6635TIP3    H219912   3.612   0.998   0.637  1.5985  0.9942 -0.1406
 6636TIP3   OH219913   5.712   2.108   3.188 -0.4918 -0.4813  0.2923
 6636TIP3    H119914   5.801   2.118   3.224  0.0037 -1.5236 -0.5948
 6636TIP3    H219915   5.714   2.158   3.106 -2.2275  3.6574  2.4637
 6637TIP3   OH219916   1.601   5.641   0.566 -0.9953 -0.1535  0.2833
 6637TIP3    H119917   1.573   5.667   0.653 -1.9514 -1.7007  0.4695
 6637TIP3    H219918   1.667   5.573   0.580 -1.5378 -0.7927 -0.1861
 6638TIP3   OH219919   2.950   5.661   3.558 -0.1591 -0.0543 -0.1680
 6638TIP3    H119920   2.992   5.703   3.482 -0.6189 -0.7725 -0.8350
 6638TIP3    H219921   2.995   5.577   3.567  0.3585  0.3117  0.7982
 6639TIP3   OH219922   5.644   5.758   2.468 -0.1336  0.3960  0.3756
 6639TIP3    H119923   5.717   5.766   2.406 -0.8861 -0.2455 -0.6177
 6639TIP3    H219924   5.683   5.714   2.544 -0.0998 -2.9535 -1.3864
 6640TIP3   OH219925   0.439   3.287   4.280  0.1166 -0.3352  0.4432
 6640TIP3    H119926   0.514   3.228   4.284 -0.1756 -0.6899  0.7414
 6640TIP3    H219927   0.479   3.375   4.276  0.5654 -0.5820 -1.3359
 6641TIP3   OH219928   1.989   4.494   3.263  0.1490 -0.2395  0.3829
 6641TIP3    H119929   2.058   4.515   3.325  0.2845  1.2682 -0.2280
 6641TIP3    H219930   1.908   4.524   3.306  0.1574  0.1289  0.1469
 6642TIP3   OH219931   0.001   4.267   1.382 -0.5078  0.3159  0.3577
 6642TIP3    H119932  -0.013   4.294   1.291  0.4759  0.1161  0.1342
 6642TIP3    H219933   0.018   4.349   1.429  3.0020  0.2093 -0.4152
 6643TIP3   OH219934   4.421   0.883   2.668 -0.2791  0.1154 -0.1546
 6643TIP3    H119935   4.395   0.930   2.747  1.9674  0.4822  0.4149
 6643TIP3    H219936   4.458   0.801   2.699 -0.3160 -0.1957 -0.8999
 6644TIP3   OH219937   6.214   1.183   1.678 -0.3159  0.3652 -0.0820
 6644TIP3    H119938   6.302   1.219   1.664 -0.4374  0.6928 -0.0144
 6644TIP3    H219939   6.181   1.229   1.755  0.0307 -0.8508  0.8237
 6645TIP3   OH219940   3.645   4.240   4.337  0.3598 -0.2012  0.8055
 6645TIP3    H119941   3.667   4.196   4.255 -1.2281  1.1520 -0.4123
 6645TIP3    H219942   3.633   4.168   4.400 -0.9958 -1.4773 -0.8035
   6.34332   5.98054   5.17930   0.00000   0.00000  -2.11445   0.00000  -2.11445  -2.99027
