Title
19927
    1ASP      N    1   0.593   3.891   0.309 -0.1994  0.2869  0.0021
    1ASP    HT1    2   0.569   3.860   0.213  2.3307  1.2341 -1.0283
    1ASP    HT2    3   0.535   3.973   0.335 -3.0244 -1.1886 -1.2202
    1ASP    HT3    4   0.568   3.820   0.381  0.6111 -1.3952 -1.3029
    1ASP     CA    5   0.737   3.917   0.291 -0.1171  0.1111  0.3082
    1ASP     HA    6   0.784   3.820   0.284  0.4964  0.3725  0.6500
    1ASP     CB    7   0.761   4.012   0.174  0.8462  0.4282  0.6887
    1ASP    HB1    8   0.871   4.014   0.158  0.8474 -1.1852  0.3363
    1ASP    HB2    9   0.719   4.114   0.191  1.0577  0.8293 -0.9582
    1ASP     CG   10   0.716   3.953   0.037 -0.1629 -0.4192 -0.0895
    1ASP    OD1   11   0.642   3.848   0.043  0.2049  0.0197  0.9057
    1ASP    OD2   12   0.743   4.008  -0.074  0.4873 -0.0473 -0.0434
    1ASP      C   13   0.791   3.971   0.426  0.2086  0.2837  0.2621
    1ASP      O   14   0.722   3.970   0.524 -0.3244 -0.7144  0.1741
    2ALA      N   15   0.923   4.009   0.431 -0.1806 -0.0229  0.1470
    2ALA     HN   16   0.975   3.981   0.351  2.2830  0.2840  1.5313
    2ALA     CA   17   0.981   4.054   0.558  0.1489  0.1846 -0.0476
    2ALA     HA   18   0.951   3.977   0.627  0.5575 -0.5432 -0.6502
    2ALA     CB   19   1.134   4.061   0.549  0.2824  0.4399  0.1346
    2ALA    HB1   20   1.152   3.968   0.490  1.0993  0.8978 -0.3558
    2ALA    HB2   21   1.194   4.060   0.643 -0.0938  1.7776  0.4135
    2ALA    HB3   22   1.168   4.145   0.486 -1.5064  1.9043  1.0084
    2ALA      C   23   0.926   4.179   0.611  0.3670 -0.5637 -0.0545
    2ALA      O   24   0.862   4.258   0.544  0.3962 -0.0493 -0.4008
    3ASP      N   25   0.942   4.209   0.739  0.4193  0.0138  0.7495
    3ASP     HN   26   0.964   4.133   0.800  0.0178 -0.5036  0.2620
    3ASP     CA   27   0.908   4.339   0.787 -0.6179  0.2621  0.6436
    3ASP     HA   28   0.807   4.355   0.752 -1.5300 -0.2410  2.8282
    3ASP     CB   29   0.903   4.344   0.941  0.2672  0.9518  0.2389
    3ASP    HB1   30   0.848   4.437   0.967 -0.4836  0.6865 -0.3495
    3ASP    HB2   31   1.002   4.341   0.990  1.0505 -1.3608 -1.3185
    3ASP     CG   32   0.818   4.227   0.997  0.0001 -0.2191  0.1536
    3ASP    OD1   33   0.858   4.169   1.100 -0.4895 -0.1929 -0.0605
    3ASP    OD2   34   0.713   4.197   0.935 -0.1979 -0.4931 -0.2276
    3ASP      C   35   0.999   4.451   0.736 -0.6322 -0.6470  0.3303
    3ASP      O   36   1.120   4.427   0.724 -0.0510 -0.2170 -0.2523
    4GLY      N   37   0.943   4.567   0.695  0.0227  0.3627 -0.2521
    4GLY     HN   38   0.846   4.578   0.715 -0.0844 -0.0448 -0.5402
    4GLY     CA   39   1.026   4.674   0.636  0.6430  0.0658 -0.3677
    4GLY    HA1   40   0.956   4.733   0.578 -1.4474  0.0980  2.0325
    4GLY    HA2   41   1.111   4.639   0.580  2.4656  0.2391  2.1459
    4GLY      C   42   1.087   4.765   0.736  0.8734 -0.4428  0.3127
    4GLY      O   43   1.097   4.725   0.853  0.7904 -0.2597  0.5987
    5PRO      N   44   1.126   4.893   0.701  0.5257 -0.0660  0.2283
    5PRO     CD   45   1.121   4.945   0.559 -0.6668 -1.0207 -0.4189
    5PRO    HD1   46   1.018   4.955   0.518  0.3438 -1.7637 -3.3521
    5PRO    HD2   47   1.176   4.873   0.495  2.3031  0.6246  0.1326
    5PRO     CA   48   1.183   4.998   0.784 -0.2040 -0.3765  0.7056
    5PRO     HA   49   1.283   4.958   0.793 -0.3421 -0.3668  3.3206
    5PRO     CB   50   1.171   5.134   0.696 -0.2563  0.6233 -0.0476
    5PRO    HB1   51   1.245   5.202   0.742 -1.1141  0.7491  1.1812
    5PRO    HB2   52   1.075   5.189   0.704  0.8131  2.4112  0.8803
    5PRO     CG   53   1.195   5.080   0.553 -0.4367 -0.0749 -0.0413
    5PRO    HG1   54   1.157   5.146   0.472  1.4805  0.4467 -0.5432
    5PRO    HG2   55   1.304   5.070   0.535 -0.4777  0.6123 -0.6956
    5PRO      C   56   1.143   5.019   0.934 -0.3477  0.3341  0.2951
    5PRO      O   57   1.021   5.051   0.950  0.3745 -0.0412  0.1447
    6GLY      N   58   1.236   5.004   1.032 -0.2706  0.2215 -0.3735
    6GLY     HN   59   1.331   4.983   1.011 -0.5934 -2.9751  0.7396
    6GLY     CA   60   1.212   5.029   1.173  0.1506 -0.2043 -0.6412
    6GLY    HA1   61   1.309   5.020   1.220 -0.5911  2.1374  1.5975
    6GLY    HA2   62   1.129   4.973   1.213  0.2372  0.3592  0.3625
    6GLY      C   63   1.182   5.172   1.195  0.4278 -0.5830 -0.8562
    6GLY      O   64   1.240   5.266   1.143  0.6153 -0.4196  0.4366
    7ASP      N   65   1.087   5.196   1.292 -0.0665 -0.6348  0.0706
    7ASP     HN   66   1.060   5.118   1.347  0.5058 -0.4851  0.5697
    7ASP     CA   67   1.038   5.318   1.339  1.0577 -0.4788  0.0438
    7ASP     HA   68   0.978   5.357   1.259  1.5400  0.7066  0.2336
    7ASP     CB   69   0.949   5.316   1.466 -0.7231 -0.2270  0.6717
    7ASP    HB1   70   0.926   5.420   1.499 -3.0509 -1.0480  1.8168
    7ASP    HB2   71   1.006   5.264   1.546 -0.3804 -2.6874 -1.0598
    7ASP     CG   72   0.818   5.248   1.447 -0.1850  0.2708  0.4176
    7ASP    OD1   73   0.791   5.202   1.335 -0.0320  0.0973 -0.2647
    7ASP    OD2   74   0.734   5.255   1.541 -0.0390  0.4763 -0.8243
    7ASP      C   75   1.149   5.427   1.370 -0.5932  0.8318 -0.3648
    7ASP      O   76   1.260   5.395   1.409 -0.2157  1.0075 -0.4619
    8PRO      N   77   1.127   5.557   1.337 -0.2507  0.2231 -0.2518
    8PRO     CD   78   1.007   5.603   1.275 -0.2432 -0.0368  0.5744
    8PRO    HD1   79   0.925   5.590   1.349 -0.4671 -1.7265  0.0620
    8PRO    HD2   80   0.973   5.550   1.183 -0.4308 -0.6981  1.0172
    8PRO     CA   81   1.193   5.669   1.399 -0.1606 -0.0448 -0.0758
    8PRO     HA   82   1.290   5.664   1.352  1.5380 -0.5187  3.1676
    8PRO     CB   83   1.105   5.794   1.378  0.7180 -0.2252  0.0613
    8PRO    HB1   84   1.160   5.890   1.384  0.4389 -0.0684  0.0916
    8PRO    HB2   85   1.027   5.793   1.456  1.0556  0.0071  0.4052
    8PRO     CG   86   1.036   5.756   1.248 -0.5203 -0.4507 -0.2054
    8PRO    HG1   87   0.945   5.816   1.225 -0.8048 -0.1717  1.5418
    8PRO    HG2   88   1.114   5.753   1.169 -0.0289 -1.8037  0.3095
    8PRO      C   89   1.229   5.659   1.542 -0.1029 -0.2958  0.2803
    8PRO      O   90   1.147   5.617   1.626 -0.2652  0.3265 -0.2730
    9ASP      N   91   1.352   5.705   1.570  0.4283 -0.5212 -0.2873
    9ASP     HN   92   1.406   5.742   1.495  0.0553  0.8112  0.0810
    9ASP     CA   93   1.421   5.687   1.698  0.6144 -0.0121  0.3994
    9ASP     HA   94   1.405   5.584   1.728  1.7975  0.3095  2.3282
    9ASP     CB   95   1.576   5.721   1.681 -0.1355  0.3911  0.0403
    9ASP    HB1   96   1.625   5.721   1.780  0.6467  1.6445 -0.3254
    9ASP    HB2   97   1.585   5.820   1.631 -2.2549  2.0405  2.6542
    9ASP     CG   98   1.646   5.631   1.583 -0.1576  0.0139  0.2752
    9ASP    OD1   99   1.604   5.513   1.566  0.7479 -0.0731  0.0868
    9ASP    OD2  100   1.750   5.669   1.522  0.1719  0.3305 -0.2316
    9ASP      C  101   1.351   5.783   1.793 -0.4799 -0.0431 -0.1640
    9ASP      O  102   1.327   5.898   1.764 -0.1091  0.0892  0.1080
   10ALA      N  103   1.316   5.735   1.915 -0.4257 -0.2341  0.4501
   10ALA     HN  104   1.339   5.641   1.940 -2.0379 -0.1235  2.5383
   10ALA     CA  105   1.257   5.806   2.023 -0.0433  0.1595 -0.2760
   10ALA     HA  106   1.177   5.860   1.975  0.8599  0.9603 -0.9179
   10ALA     CB  107   1.222   5.703   2.133  0.6097  0.1780 -0.2031
   10ALA    HB1  108   1.169   5.612   2.097  1.8100 -0.4074 -0.5688
   10ALA    HB2  109   1.158   5.756   2.206 -1.5328  0.9501 -2.4783
   10ALA    HB3  110   1.313   5.672   2.189 -0.3315 -0.2037  1.1528
   10ALA      C  111   1.343   5.914   2.086 -0.0274 -0.7785 -0.4352
   10ALA      O  112   1.449   5.883   2.137 -0.4662 -0.0223 -0.4487
   11GLY      N  113   1.309   6.047   2.071 -0.0592 -0.5231 -0.1109
   11GLY     HN  114   1.229   6.063   2.014 -0.0072 -1.3275 -0.4309
   11GLY     CA  115   1.363   6.169   2.134  0.3731  1.0722 -0.3998
   11GLY    HA1  116   1.331   6.258   2.082  0.1620  0.8426 -0.6648
   11GLY    HA2  117   1.471   6.158   2.133  0.2832  0.1452 -1.0480
   11GLY      C  118   1.321   6.185   2.282  0.4856 -0.3667  0.7379
   11GLY    OT1  119   1.360   6.108   2.370 -0.4895  0.2045 -0.2515
   11GLY    OT2  120   1.239   6.278   2.309  0.1840  0.0960 -0.3350
   12SOD    SOD  121   5.240   2.685   2.752  0.2427 -0.1224  0.1923
   13SOD    SOD  122   3.260   0.610   2.131  0.1130 -0.2420  0.3789
   14SOD    SOD  123   3.975   0.988   3.520 -0.4607  0.0516 -0.2775
   15SOD    SOD  124   3.369   4.656   3.871 -0.5008 -0.1315 -0.0652
   16SOD    SOD  125   4.544   5.516   4.715  0.1381  0.3481  0.0216
   17SOD    SOD  126   0.078   5.809   1.468 -0.2943  0.1227  0.1533
   18SOD    SOD  127   0.430   4.361   1.824 -0.3772  0.2410  0.1233
   19SOD    SOD  128   1.988   0.828   5.183 -0.0929 -0.6336 -0.0226
   20SOD    SOD  129   5.659   5.374   4.545 -0.1042 -0.5991 -0.0802
   21SOD    SOD  130   4.772   0.724   4.101  0.1333 -0.4048  0.1890
   22SOD    SOD  131   0.742   0.359   1.723 -0.4116  0.0947 -0.3152
   23SOD    SOD  132   1.937   2.384   2.496 -0.3282 -0.1082  0.3951
   24SOD    SOD  133   5.578   0.072   4.615 -0.4360 -0.0012  0.3639
   25SOD    SOD  134   6.256   4.826   1.288 -0.3413  0.3476  0.2013
   26SOD    SOD  135   3.401   0.517   3.003 -0.3291 -0.1352 -0.0647
   27SOD    SOD  136   0.914   5.026   2.418  0.5080 -0.5170 -0.1128
   28SOD    SOD  137   0.434   5.227   2.118  0.2272  0.0799 -0.1827
   29SOD    SOD  138   6.252   1.718   4.129 -0.6864 -0.0633  0.0627
   30SOD    SOD  139   1.279   4.248   1.674 -0.2021  0.0440  0.7234
   31SOD    SOD  140   4.067   3.841   2.993  0.2539 -0.1657  0.5043
   32SOD    SOD  141   5.500   2.254   2.185  0.2237 -0.4765 -0.0405
   33SOD    SOD  142   2.835   5.297   2.998 -0.0951  0.0667 -0.4224
   34CLA    CLA  143   4.731   3.151   1.135 -0.0738  0.1179 -0.1151
   35CLA    CLA  144   0.804   4.777   4.175 -0.1629 -0.2869 -0.0341
   36CLA    CLA  145   2.041   0.165   2.659 -0.0202 -0.3151 -0.0889
   37CLA    CLA  146   2.499   2.113   4.766  0.2325 -0.0422  0.1795
   38CLA    CLA  147   6.345   5.514   1.786  0.1995 -0.1374  0.0305
   39CLA    CLA  148   3.257   4.945   0.061 -0.0270 -0.2128  0.6994
   40CLA    CLA  149   3.665   0.600   3.077  0.2420 -0.0518  0.2415
   41CLA    CLA  150   3.842   3.813   3.177  0.3158  0.2128  0.0492
   42CLA    CLA  151   1.046   4.639   2.329  0.1333  0.3179 -0.3716
   43CLA    CLA  152   4.837   1.507   0.762  0.3882  0.1086 -0.0170
   44CLA    CLA  153   0.940   0.314   1.931 -0.1928  0.3588 -0.1101
   45CLA    CLA  154   5.121   5.725   4.437  0.7276  0.2292  0.4745
   46CLA    CLA  155   5.813   3.455   2.128 -0.1313  0.4402  0.3311
   47CLA    CLA  156   0.444   5.086   2.628 -0.1965  0.0807  0.1886
   48CLA    CLA  157   5.676   0.776   3.918 -0.1022  0.0797 -0.0784
   49CLA    CLA  158   1.016   2.119   0.349 -0.0576 -0.1578  0.0617
   50CLA    CLA  159   4.694   3.100   3.911  0.4689  0.5915  0.0501
   51CLA    CLA  160   1.131   2.885   4.631  0.1281 -0.1615 -0.2715
   52TIP3   OH2  161   6.218   0.395   3.466 -0.2160 -0.1312  0.3482
   52TIP3    H1  162   6.275   0.319   3.477  0.4555  0.4392  0.8511
   52TIP3    H2  163   6.267   0.455   3.411 -1.4928 -0.8049 -1.6452
   53TIP3   OH2  164   0.997   0.952   3.435 -0.2892  0.3830  0.3250
   53TIP3    H1  165   0.942   0.875   3.443 -0.6579  0.6813  0.7142
   53TIP3    H2  166   1.082   0.925   3.469  0.5056 -0.7534 -2.3277
   54TIP3   OH2  167   1.497   2.892   0.884 -0.1785  0.3784  0.1203
   54TIP3    H1  168   1.452   2.809   0.865 -0.8686  0.4863  1.1859
   54TIP3    H2  169   1.571   2.893   0.824 -0.8544 -0.4316 -0.7724
   55TIP3   OH2  170   6.007   3.835   4.658  0.3001  0.1677 -0.0018
   55TIP3    H1  171   6.033   3.836   4.566  0.7055  1.2002  0.1115
   55TIP3    H2  172   5.990   3.927   4.678 -0.3762 -0.1255  0.7923
   56TIP3   OH2  173   2.428   2.729   4.589 -0.0491  0.1952 -0.1930
   56TIP3    H1  174   2.498   2.711   4.652 -0.4351  1.4362  0.6431
   56TIP3    H2  175   2.353   2.681   4.622 -0.2839  0.9398  0.3894
   57TIP3   OH2  176   3.569   5.773   3.981 -0.1439  0.1207 -0.1285
   57TIP3    H1  177   3.533   5.702   4.033 -1.0999  0.9284  0.3453
   57TIP3    H2  178   3.603   5.835   4.046  0.2757  0.3180 -0.5267
   58TIP3   OH2  179   6.291   2.985   1.167 -0.2500 -0.5108 -0.5954
   58TIP3    H1  180   6.225   2.977   1.236  1.5243 -0.9307  1.1103
   58TIP3    H2  181   6.240   2.980   1.085 -2.5549  1.1460  0.6179
   59TIP3   OH2  182   3.549   0.248   4.076  0.2509 -0.3885 -0.0248
   59TIP3    H1  183   3.569   0.314   4.142  1.1537 -0.1961 -0.4740
   59TIP3    H2  184   3.469   0.279   4.034 -0.3571 -0.5278  0.9752
   60TIP3   OH2  185   5.164   4.171   4.552 -0.5513  0.1888 -0.4276
   60TIP3    H1  186   5.212   4.099   4.592  0.3899  0.9094 -0.2348
   60TIP3    H2  187   5.223   4.204   4.483 -1.6645 -0.2921 -1.6588
   61TIP3   OH2  188   0.647   5.797   1.218 -0.0606  0.0121  0.4177
   61TIP3    H1  189   0.666   5.860   1.288 -0.9372  0.9367 -0.1538
   61TIP3    H2  190   0.555   5.811   1.196 -0.4028 -1.7553  0.5305
   62TIP3   OH2  191   3.992   3.014   2.777 -0.0043 -0.6034 -0.0123
   62TIP3    H1  192   3.998   3.068   2.856 -2.0270 -0.5297  0.1421
   62TIP3    H2  193   3.948   3.070   2.713  1.7260 -0.6214 -1.2688
   63TIP3   OH2  194   0.653   4.636   0.799 -0.8780  0.3840  0.2027
   63TIP3    H1  195   0.613   4.723   0.790 -1.6351 -0.1118 -1.6514
   63TIP3    H2  196   0.580   4.578   0.818 -0.7072 -0.1742 -0.7976
   64TIP3   OH2  197   0.741   0.139   2.887  0.3616 -0.3645 -0.0481
   64TIP3    H1  198   0.779   0.225   2.870 -1.3317  0.2750 -0.8554
   64TIP3    H2  199   0.755   0.124   2.980  1.8022  0.1894 -0.1526
   65TIP3   OH2  200   2.212   3.213   3.932  0.2861  0.3464 -0.1369
   65TIP3    H1  201   2.181   3.218   3.842  0.1791 -1.0653 -0.2064
   65TIP3    H2  202   2.141   3.171   3.980  1.0269 -0.5542  0.2232
   66TIP3   OH2  203   2.399   3.912   1.380  0.5471  0.2557 -0.0646
   66TIP3    H1  204   2.478   3.869   1.414  0.8727 -0.2751 -1.4418
   66TIP3    H2  205   2.396   3.996   1.425  0.4721 -0.7423  1.9205
   67TIP3   OH2  206   1.026   4.718   1.203 -0.5340 -0.1262 -0.0650
   67TIP3    H1  207   1.014   4.803   1.244 -2.8081 -0.8356  0.8894
   67TIP3    H2  208   0.962   4.715   1.133 -0.8319 -1.2138  0.2225
   68TIP3   OH2  209   0.521   0.023   2.596  0.0390  0.5841  0.0022
   68TIP3    H1  210   0.597   0.081   2.591  0.8059 -0.1591  1.9000
   68TIP3    H2  211   0.539  -0.047   2.534  1.4549 -0.1282  1.1502
   69TIP3   OH2  212   4.203   1.051   1.588 -0.0018  0.4506 -0.2576
   69TIP3    H1  213   4.142   1.029   1.518 -1.0886 -0.3918  0.8978
   69TIP3    H2  214   4.154   1.110   1.645  0.3672  0.0396  0.5095
   70TIP3   OH2  215   2.326   4.270   4.953  0.2989  0.5429  0.0361
   70TIP3    H1  216   2.312   4.358   4.919  1.6130  0.4238 -0.8830
   70TIP3    H2  217   2.249   4.221   4.924  0.4215  0.9514 -1.0200
   71TIP3   OH2  218   4.690   0.202   2.127  0.2968  0.1482 -0.1602
   71TIP3    H1  219   4.601   0.234   2.113 -0.3625 -1.7432 -0.6134
   71TIP3    H2  220   4.698   0.195   2.222 -0.3710 -0.4899 -0.1420
   72TIP3   OH2  221   3.268   2.591   1.255  0.2633 -0.4644  0.4280
   72TIP3    H1  222   3.206   2.661   1.235 -0.7887 -1.0558  1.5629
   72TIP3    H2  223   3.289   2.603   1.348  1.2776 -0.7444  0.2540
   73TIP3   OH2  224   1.993   5.205   3.590  0.0087 -0.1513  0.7530
   73TIP3    H1  225   1.973   5.121   3.631  0.3712 -1.4045 -1.5181
   73TIP3    H2  226   1.913   5.256   3.599 -1.0089 -1.5942  0.1637
   74TIP3   OH2  227   0.472   5.788   5.100 -0.4130  0.5443  0.4353
   74TIP3    H1  228   0.540   5.855   5.111  0.1153  0.5226 -2.0550
   74TIP3    H2  229   0.521   5.705   5.094 -0.7506  0.3713 -0.0192
   75TIP3   OH2  230   1.662   5.630   0.323  0.3930  0.7063 -0.4127
   75TIP3    H1  231   1.691   5.569   0.391 -1.7184  0.4193  0.3149
   75TIP3    H2  232   1.738   5.685   0.306  2.2013 -1.6883 -0.6494
   76TIP3   OH2  233   0.967   2.932   2.423  0.4417  0.4280 -0.2802
   76TIP3    H1  234   0.982   2.999   2.489 -0.0508  1.4973 -1.2234
   76TIP3    H2  235   1.006   2.853   2.460 -0.7703  0.7229  1.7513
   77TIP3   OH2  236   2.227   4.958   3.443  0.3611  0.2366  0.1612
   77TIP3    H1  237   2.143   5.001   3.423 -0.6898 -1.1334  1.3770
   77TIP3    H2  238   2.255   4.921   3.359  0.4368  1.7984 -0.5382
   78TIP3   OH2  239   3.000   0.604   0.909  0.4299 -0.0233 -0.2887
   78TIP3    H1  240   3.071   0.665   0.891  0.1881  0.0232 -1.1194
   78TIP3    H2  241   2.942   0.610   0.833 -0.2055 -0.4273  0.1460
   79TIP3   OH2  242   3.519   3.989   4.006 -0.5925 -0.2732  0.1466
   79TIP3    H1  243   3.559   3.966   3.922  0.7911 -1.2406  1.0254
   79TIP3    H2  244   3.434   3.946   4.004 -0.2415 -0.9691 -0.4319
   80TIP3   OH2  245   5.271   1.963   2.471 -0.4399  0.1565 -0.4245
   80TIP3    H1  246   5.350   1.922   2.507 -0.1515  1.5645  0.6502
   80TIP3    H2  247   5.206   1.956   2.542 -0.6703  0.6954 -0.5755
   81TIP3   OH2  248  -0.011   1.396   3.261 -0.1271  0.2328  0.5150
   81TIP3    H1  249   0.038   1.420   3.339  0.1259  0.3912  0.3100
   81TIP3    H2  250   0.018   1.459   3.194  0.6185 -0.6825 -0.0594
   82TIP3   OH2  251   5.992   3.568   0.300  0.2220  0.4354  0.7833
   82TIP3    H1  252   5.954   3.653   0.320  0.2070  0.0725  2.3923
   82TIP3    H2  253   5.928   3.505   0.331  0.7882 -0.1722  0.7401
   83TIP3   OH2  254   2.935   2.685   4.425  0.0333  0.1459 -0.4128
   83TIP3    H1  255   2.857   2.730   4.392  0.9472  1.3220 -0.9853
   83TIP3    H2  256   2.932   2.599   4.382  0.1279  0.9183 -2.0548
   84TIP3   OH2  257   6.054   4.718   1.281 -0.2829  0.6207 -0.5117
   84TIP3    H1  258   5.985   4.771   1.321  0.0792  1.0329 -0.4278
   84TIP3    H2  259   6.009   4.665   1.215 -0.8176  0.2466  0.1428
   85TIP3   OH2  260   3.170   1.862   3.792 -0.2169 -0.4608 -0.0086
   85TIP3    H1  261   3.218   1.940   3.768  0.0615 -0.6353 -0.0231
   85TIP3    H2  262   3.144   1.876   3.883  0.6941 -0.7820  0.3052
   86TIP3   OH2  263   5.377   0.586   0.769 -0.1058  0.0120  0.1081
   86TIP3    H1  264   5.434   0.614   0.697  0.6919  0.1562  0.7893
   86TIP3    H2  265   5.403   0.495   0.786 -0.0616  0.0862  0.4346
   87TIP3   OH2  266   5.481   5.450   1.057 -0.1371 -0.6223  0.6200
   87TIP3    H1  267   5.494   5.457   1.152 -2.7055  0.5581  0.9822
   87TIP3    H2  268   5.388   5.428   1.048 -0.1211  0.0327 -1.6407
   88TIP3   OH2  269   2.217   3.834   4.566  0.0151 -0.1112 -0.4286
   88TIP3    H1  270   2.272   3.760   4.592  0.8612  0.4242 -0.6465
   88TIP3    H2  271   2.208   3.825   4.471 -0.3003 -0.2007 -0.3943
   89TIP3   OH2  272   3.446   2.832   3.486  0.3639  0.4941 -0.5565
   89TIP3    H1  273   3.522   2.795   3.531  0.9365  0.4457 -1.5370
   89TIP3    H2  274   3.417   2.903   3.543  0.7871  0.1469  0.1132
   90TIP3   OH2  275   5.832   2.959   4.775  0.3012  0.2939  0.4851
   90TIP3    H1  276   5.827   2.865   4.759  1.7626  0.3175 -0.1937
   90TIP3    H2  277   5.750   2.979   4.821  0.4499 -1.4915  1.6341
   91TIP3   OH2  278   5.598   5.331   3.958 -0.2121 -0.4107 -0.1961
   91TIP3    H1  279   5.626   5.246   3.926  0.9439 -0.0623 -0.1591
   91TIP3    H2  280   5.677   5.370   3.997 -1.0943 -0.0195  1.3182
   92TIP3   OH2  281   4.096   1.576   0.227 -0.0419 -0.1718 -0.3169
   92TIP3    H1  282   4.161   1.514   0.261 -1.0428 -1.8585 -1.3067
   92TIP3    H2  283   4.101   1.565   0.132 -1.6292 -0.1929 -0.4150
   93TIP3   OH2  284   5.101   0.627   1.015 -0.5862 -0.3530  0.4753
   93TIP3    H1  285   5.029   0.652   1.073  0.8376 -0.4158  2.3536
   93TIP3    H2  286   5.133   0.709   0.980 -2.0615 -0.3804 -1.0550
   94TIP3   OH2  287   1.538   0.755   3.016 -0.8160 -0.0702 -0.0433
   94TIP3    H1  288   1.600   0.728   3.083 -0.6919  0.1017 -0.0862
   94TIP3    H2  289   1.456   0.772   3.064 -0.6048  0.4807  0.1297
   95TIP3   OH2  290   5.213   0.910   5.016 -0.0371  0.1375 -0.2289
   95TIP3    H1  291   5.124   0.941   5.035 -0.1851 -0.2394 -0.3086
   95TIP3    H2  292   5.261   0.990   4.992 -0.5272  0.2571 -0.8537
   96TIP3   OH2  293   4.939   0.389   4.749  0.2244  0.3876 -0.2974
   96TIP3    H1  294   4.922   0.469   4.700 -0.9442 -1.4653 -3.2499
   96TIP3    H2  295   5.032   0.393   4.771  0.3390  2.2189 -0.9517
   97TIP3   OH2  296   5.161   3.435   1.531 -0.1349  0.1165 -0.3018
   97TIP3    H1  297   5.252   3.462   1.539 -0.6349  1.6070  0.8321
   97TIP3    H2  298   5.112   3.516   1.522 -1.4747 -0.5640  0.4951
   98TIP3   OH2  299   4.831   0.848   3.164  0.1909 -0.2670  0.2992
   98TIP3    H1  300   4.912   0.851   3.215 -0.4220  0.1095  1.2540
   98TIP3    H2  301   4.830   0.759   3.127  1.4921  0.0119 -0.4822
   99TIP3   OH2  302   3.225   1.082   2.606 -0.6448 -0.4040 -0.1529
   99TIP3    H1  303   3.205   1.161   2.555  0.6355  0.3483  0.4753
   99TIP3    H2  304   3.318   1.089   2.626 -1.1204 -0.5824  2.4450
  100TIP3   OH2  305   1.744   4.254   2.293 -0.2084 -0.3692 -0.3398
  100TIP3    H1  306   1.818   4.197   2.274 -0.6477 -0.7565 -0.9639
  100TIP3    H2  307   1.681   4.198   2.339 -0.3148 -0.1778 -0.2504
  101TIP3   OH2  308   4.564   4.349   2.116 -0.5639 -0.3535  0.1444
  101TIP3    H1  309   4.659   4.351   2.130 -0.1087  1.4557 -2.5136
  101TIP3    H2  310   4.528   4.388   2.196  1.3193  3.1058 -0.4927
  102TIP3   OH2  311   6.062   3.370   3.623  0.3994 -0.1329  0.2323
  102TIP3    H1  312   6.070   3.453   3.578 -0.2119  0.2306  0.7720
  102TIP3    H2  313   6.098   3.385   3.710 -3.2698  0.8065  1.7888
  103TIP3   OH2  314   5.055   4.168   0.044 -0.1383 -0.3958  0.0420
  103TIP3    H1  315   4.974   4.136   0.085  0.3526 -2.2292 -0.3204
  103TIP3    H2  316   5.025   4.211  -0.036 -0.9228  1.2516  1.1632
  104TIP3   OH2  317   5.699   5.360   2.412  0.5004  0.1508 -0.2495
  104TIP3    H1  318   5.739   5.425   2.354  1.4617 -0.5728 -0.4343
  104TIP3    H2  319   5.652   5.412   2.477  1.7341  1.0650 -0.0367
  105TIP3   OH2  320   2.460   1.026   0.606  0.2663  0.1121 -0.2864
  105TIP3    H1  321   2.398   0.958   0.579 -0.0793  0.0472  0.6073
  105TIP3    H2  322   2.416   1.108   0.584 -0.4292  0.0807  0.8827
  106TIP3   OH2  323   4.599   1.890   3.351  0.4586  0.3825  0.3957
  106TIP3    H1  324   4.512   1.924   3.372  0.3957  0.0619  0.6528
  106TIP3    H2  325   4.657   1.934   3.413  0.1369 -1.3770  2.0364
  107TIP3   OH2  326   1.408   3.664   5.044  0.2047 -0.1759  0.0365
  107TIP3    H1  327   1.351   3.654   5.121  0.7896  2.8640  1.0445
  107TIP3    H2  328   1.389   3.588   4.990 -1.3383 -1.7122  2.4940
  108TIP3   OH2  329   6.279   2.017   2.256  0.1270 -0.1928  0.1298
  108TIP3    H1  330   6.315   1.955   2.193 -0.7383 -1.0106  0.4199
  108TIP3    H2  331   6.189   2.032   2.226 -0.6842 -1.4803  1.7602
  109TIP3   OH2  332   0.260   1.133   3.028 -0.3023 -0.4584 -0.3848
  109TIP3    H1  333   0.340   1.103   3.071 -0.6198 -1.5775 -0.5346
  109TIP3    H2  334   0.228   1.204   3.084 -0.1863 -1.2309  0.7032
  110TIP3   OH2  335   5.349   1.888   0.428 -0.3334  0.5651  0.5872
  110TIP3    H1  336   5.432   1.902   0.383  0.7420 -2.8678  1.1909
  110TIP3    H2  337   5.372   1.888   0.521 -1.2585  0.8266  0.8268
  111TIP3   OH2  338   1.649   4.486   2.981 -0.0446 -0.0639  0.2165
  111TIP3    H1  339   1.575   4.475   3.039 -1.0366  0.3873 -0.9215
  111TIP3    H2  340   1.637   4.572   2.941 -0.3239 -0.9849 -1.8606
  112TIP3   OH2  341   5.445   4.874   1.553  0.1510 -0.0172 -0.0976
  112TIP3    H1  342   5.465   4.949   1.497  1.9412  0.8492  1.5427
  112TIP3    H2  343   5.509   4.808   1.529  0.8577  0.3190  0.7738
  113TIP3   OH2  344   2.871   1.042   4.671 -0.6939  0.0608  0.0563
  113TIP3    H1  345   2.846   1.132   4.647 -0.7995  0.1321  0.4190
  113TIP3    H2  346   2.951   1.052   4.722 -1.8282  0.1524  1.9094
  114TIP3   OH2  347   5.334   1.753   3.728  0.0988 -1.3363  0.0741
  114TIP3    H1  348   5.242   1.770   3.750  0.0116 -2.2063  0.4346
  114TIP3    H2  349   5.364   1.833   3.685 -0.5714 -0.7095  0.7539
  115TIP3   OH2  350   1.856   1.082   0.710  0.1849 -0.0235  0.5410
  115TIP3    H1  351   1.833   1.096   0.802  0.0178  2.4863  0.1752
  115TIP3    H2  352   1.915   1.154   0.688  1.3006 -1.3343 -0.9820
  116TIP3   OH2  353   1.917   1.534   1.099  0.0797 -0.4901  0.0219
  116TIP3    H1  354   1.912   1.565   1.009  0.2886  0.0723  0.1998
  116TIP3    H2  355   1.980   1.593   1.141 -0.5313 -0.3124  0.7062
  117TIP3   OH2  356   2.270   2.513   0.282 -0.2687  0.5295 -0.0387
  117TIP3    H1  357   2.232   2.601   0.292  0.6367  1.1059 -1.2988
  117TIP3    H2  358   2.316   2.517   0.198  1.0636 -0.6825  0.5899
  118TIP3   OH2  359   5.227   3.527   2.241 -0.1450  0.0171  0.8150
  118TIP3    H1  360   5.285   3.570   2.179 -3.0149  1.8002 -0.8341
  118TIP3    H2  361   5.201   3.446   2.197 -1.1507  0.6462  0.2180
  119TIP3   OH2  362   3.825   1.231   0.321  0.0008  0.1447  0.3717
  119TIP3    H1  363   3.768   1.271   0.254  0.7244  1.3398  0.4495
  119TIP3    H2  364   3.903   1.205   0.273 -0.8642 -2.2281  0.1089
  120TIP3   OH2  365   4.702   3.003   3.425 -0.3410  0.0720 -0.0921
  120TIP3    H1  366   4.690   2.966   3.512 -1.3113  0.9887  0.1719
  120TIP3    H2  367   4.630   2.966   3.373  1.7530 -2.7153 -1.3242
  121TIP3   OH2  368   3.034   4.478   1.993 -0.8126  0.1042  0.1287
  121TIP3    H1  369   2.944   4.458   2.018 -0.1676 -2.4612  0.6058
  121TIP3    H2  370   3.087   4.438   2.061  0.7802 -1.2466 -1.8095
  122TIP3   OH2  371   5.905   3.894   3.182 -0.5920 -0.2603 -0.0954
  122TIP3    H1  372   5.851   3.968   3.154  2.3172  2.2233  0.3237
  122TIP3    H2  373   5.984   3.901   3.128  1.8956  0.0331  3.2756
  123TIP3   OH2  374   2.158   0.490   1.375  0.2179  0.7545  0.2819
  123TIP3    H1  375   2.156   0.533   1.461  1.4959  0.7055  0.3634
  123TIP3    H2  376   2.177   0.560   1.314  1.0281  0.5333  0.2622
  124TIP3   OH2  377   4.481   1.081   2.992 -0.0253 -0.0156  0.1480
  124TIP3    H1  378   4.530   1.159   3.016 -0.2730  0.2241 -0.1276
  124TIP3    H2  379   4.495   1.072   2.898 -1.6845  0.8766 -0.2091
  125TIP3   OH2  380   3.986   4.264   4.539 -0.8033 -0.3480  0.5304
  125TIP3    H1  381   4.049   4.258   4.467 -0.3615  0.1228  0.8720
  125TIP3    H2  382   3.923   4.194   4.521 -0.8012 -0.1249 -0.4100
  126TIP3   OH2  383   2.074   3.843   0.662  0.0563  0.0312 -0.7849
  126TIP3    H1  384   2.129   3.921   0.656  1.0547 -0.6918 -1.3881
  126TIP3    H2  385   2.019   3.858   0.739  0.3447  1.2534 -0.8019
  127TIP3   OH2  386   5.330   3.990   0.698 -0.7026  0.1294 -0.1429
  127TIP3    H1  387   5.300   3.982   0.788 -0.7841  1.4476 -0.0401
  127TIP3    H2  388   5.425   3.986   0.703 -0.7251 -0.3142 -0.0589
  128TIP3   OH2  389   1.567   1.043   4.793  0.8203 -0.1793  0.4966
  128TIP3    H1  390   1.641   1.103   4.780 -0.3765  1.3619  0.4453
  128TIP3    H2  391   1.490   1.101   4.796 -0.5759 -1.8269 -1.0509
  129TIP3   OH2  392   3.074   5.642   3.037  0.3165  0.3496 -0.2014
  129TIP3    H1  393   3.137   5.585   3.080  0.2343 -1.4013 -2.2614
  129TIP3    H2  394   3.019   5.584   2.986 -0.8812  2.1382 -1.0600
  130TIP3   OH2  395   4.132   3.875   1.980 -0.4640  1.0259  0.0404
  130TIP3    H1  396   4.047   3.918   1.975 -0.7234  0.6486  1.0785
  130TIP3    H2  397   4.149   3.846   1.890 -1.7670  0.4465 -0.0298
  131TIP3   OH2  398   5.314   3.826   1.486  0.2940  0.2318  0.0701
  131TIP3    H1  399   5.231   3.793   1.451  1.0443 -0.5409 -1.0597
  131TIP3    H2  400   5.293   3.913   1.519 -1.3773 -0.6717  1.5656
  132TIP3   OH2  401   3.319   2.490   1.603  0.4730  0.1792 -0.1231
  132TIP3    H1  402   3.320   2.585   1.591 -0.8777  0.2064 -0.1980
  132TIP3    H2  403   3.258   2.476   1.675  0.4763 -0.6552 -0.2748
  133TIP3   OH2  404   1.995   2.258   3.321 -0.2074 -0.5501  0.0551
  133TIP3    H1  405   2.010   2.237   3.413  1.4432 -0.2682 -0.1055
  133TIP3    H2  406   1.944   2.338   3.322 -0.6247 -0.8196  0.7192
  134TIP3   OH2  407   0.332   0.877   2.239 -0.7534  0.3424  0.0020
  134TIP3    H1  408   0.370   0.790   2.251 -1.4271 -0.0600 -0.6829
  134TIP3    H2  409   0.309   0.906   2.327  0.6095  0.3599  0.3651
  135TIP3   OH2  410   5.928   2.328   2.147  0.7226  0.5940 -0.1727
  135TIP3    H1  411   5.930   2.389   2.220 -0.1992 -0.4853  0.7956
  135TIP3    H2  412   5.857   2.361   2.091  0.7492  0.8533 -0.0562
  136TIP3   OH2  413   0.562   4.402   0.888 -0.5528  0.0707 -0.1134
  136TIP3    H1  414   0.474   4.369   0.904 -0.2257 -0.4428  0.6811
  136TIP3    H2  415   0.617   4.324   0.883 -0.0885  0.4021 -0.2650
  137TIP3   OH2  416   2.381   1.168   4.717 -0.6068 -0.1975  0.2284
  137TIP3    H1  417   2.393   1.117   4.797  1.9669  0.2726  0.2461
  137TIP3    H2  418   2.394   1.104   4.646  1.5076  0.1299  0.2524
  138TIP3   OH2  419   5.837   2.985   1.651  0.2550  0.2018  0.3823
  138TIP3    H1  420   5.877   2.920   1.593 -0.0676  0.6585 -0.3640
  138TIP3    H2  421   5.762   3.018   1.602 -0.4144  0.1354  1.3230
  139TIP3   OH2  422   6.239   2.195   4.465 -0.1478 -0.0692 -0.1390
  139TIP3    H1  423   6.253   2.255   4.539 -2.1631  0.1549  0.1261
  139TIP3    H2  424   6.252   2.108   4.502 -0.6129  0.0670  0.3571
  140TIP3   OH2  425   3.055   4.876   4.425  0.2273  0.3997 -0.3244
  140TIP3    H1  426   2.984   4.877   4.489 -0.9751 -0.3760 -1.5882
  140TIP3    H2  427   3.122   4.820   4.464  0.5490  1.7597  1.2330
  141TIP3   OH2  428   6.027   0.560   1.726 -0.7110  0.1302 -0.4591
  141TIP3    H1  429   6.018   0.502   1.801 -0.1307  1.1746  0.4430
  141TIP3    H2  430   6.075   0.508   1.661  1.8867  0.2737  1.1784
  142TIP3   OH2  431   3.847   3.900   1.916  0.3355  0.3622  0.0580
  142TIP3    H1  432   3.821   3.809   1.932 -0.0008  0.3833 -0.3270
  142TIP3    H2  433   3.801   3.950   1.983  1.5807  0.1214  1.1245
  143TIP3   OH2  434   5.264   4.378   3.500 -0.7074  0.1334  0.6166
  143TIP3    H1  435   5.190   4.410   3.447  0.6013  0.6854 -0.9519
  143TIP3    H2  436   5.273   4.444   3.569 -0.6131  1.0197 -0.2076
  144TIP3   OH2  437   2.763   3.483   4.827  0.1258  0.0759  0.3042
  144TIP3    H1  438   2.794   3.471   4.916 -2.5379 -0.6415  1.2209
  144TIP3    H2  439   2.761   3.395   4.789 -2.1025 -0.1691  0.8255
  145TIP3   OH2  440   0.458   3.890   2.256  1.0386  0.0528 -0.0019
  145TIP3    H1  441   0.408   3.963   2.292 -0.2346 -1.2601  1.0017
  145TIP3    H2  442   0.549   3.910   2.280  0.5993  0.8369  1.1194
  146TIP3   OH2  443   1.962   4.926   3.985  0.0104  0.2285 -0.4176
  146TIP3    H1  444   1.961   4.835   4.014  2.2843  0.6012  1.0075
  146TIP3    H2  445   1.906   4.972   4.048  3.2474  0.6697  2.3778
  147TIP3   OH2  446   5.969   2.017   0.743 -0.6145 -0.0466 -0.0288
  147TIP3    H1  447   5.892   1.969   0.715 -2.0182  1.6275  0.7967
  147TIP3    H2  448   6.010   2.046   0.661  0.8811 -3.3470 -0.6181
  148TIP3   OH2  449   4.064   2.051   0.059  0.1656  0.0007  0.6563
  148TIP3    H1  450   4.119   2.102  -0.000  2.1743 -0.2657  2.1889
  148TIP3    H2  451   4.125   1.993   0.105 -1.4613 -0.6264  2.1470
  149TIP3   OH2  452   6.047   4.643   4.129  0.0629 -0.2482  0.2478
  149TIP3    H1  453   5.952   4.632   4.129  0.0463 -0.1074  0.1714
  149TIP3    H2  454   6.064   4.706   4.059  0.1262  0.4619  0.8825
  150TIP3   OH2  455   1.691   3.497   1.584  1.2527  0.0798  0.8290
  150TIP3    H1  456   1.644   3.471   1.663 -0.4449  0.7532  0.0873
  150TIP3    H2  457   1.624   3.533   1.526  2.3236 -1.0190 -1.2300
  151TIP3   OH2  458   6.214   0.588   0.511  0.2908  0.2475 -0.1861
  151TIP3    H1  459   6.154   0.519   0.540  0.3900 -0.1118 -0.8089
  151TIP3    H2  460   6.163   0.669   0.520  0.5328  0.2388  1.5608
  152TIP3   OH2  461   0.165   1.399   0.244 -0.4537  0.0216  0.0603
  152TIP3    H1  462   0.105   1.360   0.180 -0.4191  1.1396 -0.6809
  152TIP3    H2  463   0.176   1.489   0.214  1.7859 -0.2146  0.0490
  153TIP3   OH2  464   1.740   1.909   1.865  0.1799 -0.0631 -0.6087
  153TIP3    H1  465   1.663   1.944   1.911  1.0309  0.0503  0.7820
  153TIP3    H2  466   1.715   1.910   1.773 -0.8575  1.5879 -0.3591
  154TIP3   OH2  467   4.541   4.971   3.854 -0.1358  0.1293  0.2193
  154TIP3    H1  468   4.551   4.941   3.944  1.4424  0.5205  0.2075
  154TIP3    H2  469   4.560   5.065   3.857 -0.7685  0.2892 -0.4191
  155TIP3   OH2  470   0.490   4.595   4.423  0.2674  0.2666  0.1760
  155TIP3    H1  471   0.568   4.628   4.468  0.5980  0.0774 -0.2508
  155TIP3    H2  472   0.505   4.501   4.415 -0.2639  0.1427  0.5917
  156TIP3   OH2  473   1.064   0.742   0.589 -0.4334  0.4976  0.0784
  156TIP3    H1  474   1.110   0.770   0.510  0.1888 -0.2045  0.1883
  156TIP3    H2  475   0.972   0.737   0.562 -0.3933  1.3848 -0.2835
  157TIP3   OH2  476   5.695   2.097   4.858 -0.3519 -0.2395  0.2222
  157TIP3    H1  477   5.645   2.059   4.930 -0.7307 -0.8154 -0.3332
  157TIP3    H2  478   5.674   2.190   4.861  1.2073  0.1069  2.0931
  158TIP3   OH2  479   5.860   5.135   4.870 -0.3932  0.3544 -0.7141
  158TIP3    H1  480   5.769   5.113   4.850 -0.9240  1.7809 -0.0425
  158TIP3    H2  481   5.888   5.068   4.932 -1.0541  0.0431 -0.7433
  159TIP3   OH2  482   5.596   1.891   0.260  0.3328  0.6972  0.4715
  159TIP3    H1  483   5.656   1.817   0.251 -0.4273 -0.0768  1.5962
  159TIP3    H2  484   5.606   1.939   0.178  0.4716 -0.9315 -0.5142
  160TIP3   OH2  485   5.893   3.818   1.019 -0.0420 -0.9719 -0.0795
  160TIP3    H1  486   5.966   3.788   0.965 -0.2395  0.6182 -1.3134
  160TIP3    H2  487   5.816   3.772   0.984 -0.1551 -0.0085 -1.1462
  161TIP3   OH2  488   3.493   1.006   3.642 -0.4186 -0.4229 -0.4538
  161TIP3    H1  489   3.440   1.014   3.563  0.8436 -0.4530 -1.3285
  161TIP3    H2  490   3.521   1.095   3.662  1.6857 -0.7106 -1.7945
  162TIP3   OH2  491   4.688   0.048   3.396  0.4196 -0.2653 -0.3794
  162TIP3    H1  492   4.723   0.102   3.467  0.7807 -1.6924  0.5805
  162TIP3    H2  493   4.762  -0.005   3.368 -0.0570 -0.6443 -0.9359
  163TIP3   OH2  494   3.527   1.844   2.371 -0.5307  0.4640 -0.5971
  163TIP3    H1  495   3.575   1.790   2.434  0.2958 -0.3833 -1.8911
  163TIP3    H2  496   3.530   1.932   2.408 -0.0992 -0.0134  0.5546
  164TIP3   OH2  497   3.699   4.846   0.888 -1.2489  0.5652  0.5127
  164TIP3    H1  498   3.730   4.935   0.870  1.0108 -0.2561  0.0091
  164TIP3    H2  499   3.663   4.816   0.804 -1.9158  0.9387  0.6557
  165TIP3   OH2  500   5.414   3.282   2.004 -0.2580 -0.1556 -0.5761
  165TIP3    H1  501   5.489   3.324   1.963  0.3029  0.7631  1.2743
  165TIP3    H2  502   5.338   3.323   1.963  0.2729  2.5602  0.9315
  166TIP3   OH2  503   0.531  -0.024   5.036 -0.0407 -0.9432  0.0430
  166TIP3    H1  504   0.545   0.026   5.117  4.6139  0.7574 -1.4203
  166TIP3    H2  505   0.472   0.031   4.984  0.8068  0.4539  0.4993
  167TIP3   OH2  506   2.595   3.322   2.281  0.2702  0.0558  0.3279
  167TIP3    H1  507   2.540   3.386   2.328  1.9719 -0.0685  2.6342
  167TIP3    H2  508   2.535   3.251   2.259 -1.3778  1.7800 -1.0977
  168TIP3   OH2  509   2.641   5.371   4.814  0.5100  0.2530  0.3007
  168TIP3    H1  510   2.726   5.388   4.856  0.2992  0.5772  0.5973
  168TIP3    H2  511   2.578   5.419   4.867  0.2932  1.0740 -0.6571
  169TIP3   OH2  512   1.327   3.344   1.046  0.3105 -0.0035  0.3481
  169TIP3    H1  513   1.304   3.393   0.967  1.7537  1.0442  0.5271
  169TIP3    H2  514   1.414   3.309   1.028  0.1576 -0.7636  1.0286
  170TIP3   OH2  515   0.364   2.763   0.458 -0.1966  0.0265  0.4463
  170TIP3    H1  516   0.376   2.672   0.485 -4.0067 -0.4841  1.0153
  170TIP3    H2  517   0.293   2.759   0.394  0.6044  2.4729 -0.6790
  171TIP3   OH2  518   1.949   2.843   4.927  0.1203 -0.2190  0.5570
  171TIP3    H1  519   2.026   2.897   4.944 -0.2292  0.5388 -0.1779
  171TIP3    H2  520   1.952   2.826   4.833 -1.4272  1.1705  0.1963
  172TIP3   OH2  521   0.926   4.871   2.958  0.9443  0.4082  0.0168
  172TIP3    H1  522   0.934   4.808   3.029 -0.9648  0.9367  0.7669
  172TIP3    H2  523   0.892   4.821   2.885  1.0301  0.2464  0.0872
  173TIP3   OH2  524   2.610   0.209   2.416  0.1913  0.0276  1.0523
  173TIP3    H1  525   2.549   0.140   2.441  0.0489  0.0084  0.6500
  173TIP3    H2  526   2.554   0.286   2.401  0.1314 -0.3042 -0.5128
  174TIP3   OH2  527   2.993   3.556   1.559 -0.6507 -0.1507 -0.2642
  174TIP3    H1  528   2.926   3.571   1.626 -0.5201  0.4944 -0.2793
  174TIP3    H2  529   2.977   3.623   1.493 -0.9155 -0.9142 -0.9954
  175TIP3   OH2  530   5.211   0.428   1.710 -0.0837 -0.3630 -0.6597
  175TIP3    H1  531   5.259   0.506   1.682 -2.5305  0.5611 -2.6663
  175TIP3    H2  532   5.272   0.356   1.698  0.6298  0.6510 -3.8477
  176TIP3   OH2  533   4.991   4.202   2.436 -0.0655 -0.1672  0.2488
  176TIP3    H1  534   4.931   4.259   2.483 -0.0983 -0.1358  0.1686
  176TIP3    H2  535   5.059   4.181   2.500 -1.0314 -1.5612  0.8674
  177TIP3   OH2  536   1.891   4.638   1.686 -0.0811  0.0558  0.1776
  177TIP3    H1  537   1.816   4.627   1.627 -0.0307  0.5936  0.0124
  177TIP3    H2  538   1.913   4.549   1.713 -0.8881 -0.0938  0.3609
  178TIP3   OH2  539   4.247   1.554   0.727  0.1341  0.4054  0.5910
  178TIP3    H1  540   4.247   1.650   0.731  0.0326  0.3897  1.0178
  178TIP3    H2  541   4.165   1.529   0.769  0.0082  0.1408  0.1920
  179TIP3   OH2  542   4.000   5.726   0.907  0.3294  0.5957 -0.4541
  179TIP3    H1  543   3.967   5.660   0.967  0.4992  0.4239 -0.5484
  179TIP3    H2  544   4.038   5.676   0.834  0.2932  0.7972 -0.6137
  180TIP3   OH2  545   5.129   1.095   0.673 -0.5250  0.7719 -0.3410
  180TIP3    H1  546   5.154   1.180   0.709  0.4171  0.5618 -0.4780
  180TIP3    H2  547   5.200   1.072   0.614  0.4007 -1.1743  1.4051
  181TIP3   OH2  548   5.264   3.027   3.279  0.4249 -0.4997  0.1152
  181TIP3    H1  549   5.298   3.005   3.366 -0.1058  1.8241  0.9892
  181TIP3    H2  550   5.337   3.073   3.237  0.4529 -1.0425 -0.4378
  182TIP3   OH2  551   4.020   5.036   0.295 -0.2934  0.0679 -0.1788
  182TIP3    H1  552   4.039   5.121   0.333 -0.2588  0.1883 -0.4651
  182TIP3    H2  553   3.924   5.034   0.287 -0.2491  0.3809 -0.8607
  183TIP3   OH2  554   1.726   3.830   1.466 -0.6443  0.2349 -0.2502
  183TIP3    H1  555   1.743   3.911   1.419 -0.7578 -0.1289 -0.9313
  183TIP3    H2  556   1.653   3.789   1.419  0.0142 -0.7130 -0.4858
  184TIP3   OH2  557   4.639   4.338   3.183  0.4486 -0.1828  0.1981
  184TIP3    H1  558   4.622   4.283   3.107  0.2164  1.2211 -0.7898
  184TIP3    H2  559   4.698   4.406   3.151 -0.6372  1.1569  0.9458
  185TIP3   OH2  560   3.566   6.007   2.808  0.3409 -0.1472 -0.1814
  185TIP3    H1  561   3.624   5.956   2.864 -2.1951 -0.6425  2.1916
  185TIP3    H2  562   3.598   5.991   2.719  2.1011 -2.5785  0.8000
  186TIP3   OH2  563   5.238   5.889   1.467  0.1548  0.1422  0.0183
  186TIP3    H1  564   5.312   5.829   1.454  0.1838  0.2823 -0.4974
  186TIP3    H2  565   5.277   5.976   1.459 -0.1837  0.2148 -1.0167
  187TIP3   OH2  566   4.506   5.344   4.112  0.2590 -0.5040  0.1777
  187TIP3    H1  567   4.596   5.372   4.093 -0.0572  1.3676  1.1749
  187TIP3    H2  568   4.495   5.361   4.206 -1.3852  0.1529 -0.0946
  188TIP3   OH2  569   6.299   4.527   4.145  0.1546 -0.1557  0.0754
  188TIP3    H1  570   6.358   4.536   4.070  0.4326  1.8519  0.4816
  188TIP3    H2  571   6.214   4.558   4.113 -0.0322 -0.4986  0.2342
  189TIP3   OH2  572   2.531   3.129   1.492 -0.3707 -0.0975  0.0269
  189TIP3    H1  573   2.487   3.077   1.425 -1.6697 -0.4757  1.1179
  189TIP3    H2  574   2.499   3.218   1.478 -1.1626 -0.2918  0.5325
  190TIP3   OH2  575   5.093   2.102   2.196 -0.0963 -0.1263 -0.0458
  190TIP3    H1  576   5.023   2.165   2.215 -0.3179 -0.8685  1.7308
  190TIP3    H2  577   5.174   2.153   2.204 -0.3641  0.4447 -0.8683
  191TIP3   OH2  578   4.566   1.349   1.663  0.6946 -0.1771  0.0560
  191TIP3    H1  579   4.566   1.434   1.617  2.4635 -0.9063 -1.4441
  191TIP3    H2  580   4.485   1.307   1.636  1.5209 -0.4359 -2.2301
  192TIP3   OH2  581   0.464   4.086   4.636 -0.1632  0.3556 -0.0804
  192TIP3    H1  582   0.379   4.129   4.630  0.4970  1.7147 -0.0128
  192TIP3    H2  583   0.443   3.994   4.653 -1.6224  0.5335 -0.7702
  193TIP3   OH2  584   1.636   5.471   4.230  0.6108 -0.1494 -0.2167
  193TIP3    H1  585   1.647   5.550   4.283 -1.6784 -0.8909  1.5073
  193TIP3    H2  586   1.656   5.499   4.141  0.9869  2.0680  0.5000
  194TIP3   OH2  587   5.560   5.733   2.713  0.3537  0.4080 -0.0183
  194TIP3    H1  588   5.638   5.751   2.662 -1.5315 -0.0849 -3.3437
  194TIP3    H2  589   5.552   5.637   2.714 -2.3810  0.3754 -3.7220
  195TIP3   OH2  590   4.233   0.688   0.943 -0.5780  0.1011  0.6994
  195TIP3    H1  591   4.160   0.749   0.945 -1.2350 -0.6555  0.4206
  195TIP3    H2  592   4.255   0.675   1.036 -1.4293 -0.3908  0.8444
  196TIP3   OH2  593   3.777   3.518   3.024  0.1533  0.0557  0.4969
  196TIP3    H1  594   3.850   3.463   3.053 -0.9384 -0.8716  1.5994
  196TIP3    H2  595   3.795   3.604   3.063 -0.4441 -0.7442  2.7052
  197TIP3   OH2  596   1.446   4.074   1.816 -0.0160  0.0598  0.3228
  197TIP3    H1  597   1.484   4.078   1.904  2.8271  0.8707 -0.8492
  197TIP3    H2  598   1.456   3.982   1.790  0.3919  0.0991  0.3373
  198TIP3   OH2  599   5.550   3.463   0.255 -0.1862  0.1298 -0.2051
  198TIP3    H1  600   5.577   3.544   0.298 -0.2369  0.2285 -0.3598
  198TIP3    H2  601   5.562   3.480   0.161  1.2142 -0.5372 -0.1820
  199TIP3   OH2  602   1.630   3.247   3.166 -0.3037 -0.4609  0.5131
  199TIP3    H1  603   1.601   3.183   3.101 -0.8701 -0.9344  1.2117
  199TIP3    H2  604   1.675   3.194   3.232  0.5255  0.0494  0.3775
  200TIP3   OH2  605   1.777   0.717   5.053 -0.0617  0.4995 -0.0919
  200TIP3    H1  606   1.813   0.648   4.998 -0.6174  0.3850 -0.3132
  200TIP3    H2  607   1.683   0.712   5.041 -0.2353  0.1802  1.2201
  201TIP3   OH2  608   3.897   5.928   1.203 -0.8525 -0.6649  0.1139
  201TIP3    H1  609   3.856   5.944   1.118 -0.3485  1.1199  0.1718
  201TIP3    H2  610   3.871   6.002   1.258  1.7437  0.1741  0.3738
  202TIP3   OH2  611   5.737   5.838   1.532  0.3205  0.1735 -0.2380
  202TIP3    H1  612   5.656   5.806   1.571  1.5782 -1.3956  1.2424
  202TIP3    H2  613   5.718   5.930   1.510 -1.2670  0.4193  1.8275
  203TIP3   OH2  614   0.570   5.079   1.361  0.0963 -0.0646  0.0085
  203TIP3    H1  615   0.649   5.133   1.374  0.5871 -0.9442  0.7916
  203TIP3    H2  616   0.590   5.025   1.285 -0.3695  0.7650 -0.7343
  204TIP3   OH2  617   2.753   3.880   3.151  0.1306 -0.5182  0.2077
  204TIP3    H1  618   2.671   3.853   3.108  0.3101  1.0665 -1.2400
  204TIP3    H2  619   2.820   3.828   3.107  0.0407 -0.9358  0.5532
  205TIP3   OH2  620   5.451   3.587   1.507  0.4796 -0.3806  0.2208
  205TIP3    H1  621   5.454   3.600   1.412 -1.8433 -2.3602 -0.2362
  205TIP3    H2  622   5.398   3.659   1.540 -2.3475 -1.8875 -0.6688
  206TIP3   OH2  623   3.585   5.899   1.164 -0.3989  0.0884 -0.1519
  206TIP3    H1  624   3.606   5.820   1.214 -0.6782  0.8936  1.2617
  206TIP3    H2  625   3.642   5.893   1.087  1.0331 -0.5082  0.8971
  207TIP3   OH2  626   3.328   3.245   0.588  0.5859  0.0374  0.3273
  207TIP3    H1  627   3.267   3.240   0.514  1.6226 -0.7581 -0.5041
  207TIP3    H2  628   3.411   3.273   0.548  1.2274 -0.6606  1.1375
  208TIP3   OH2  629   0.457   3.808   3.644  0.8371 -0.4113 -0.3576
  208TIP3    H1  630   0.479   3.901   3.638 -0.7114 -0.0357 -0.5539
  208TIP3    H2  631   0.538   3.763   3.618  1.3506  0.8793 -1.0899
  209TIP3   OH2  632   0.221   2.204   4.402 -0.6596 -0.2062 -0.1788
  209TIP3    H1  633   0.183   2.288   4.378 -0.4103 -0.3044 -0.9450
  209TIP3    H2  634   0.310   2.224   4.430 -0.6292 -0.2063 -0.2765
  210TIP3   OH2  635   4.052   1.301   0.553  0.0040  0.1889  0.1771
  210TIP3    H1  636   3.967   1.333   0.522 -0.6665 -1.4872  0.1929
  210TIP3    H2  637   4.057   1.329   0.644  0.3982  2.0449 -0.3726
  211TIP3   OH2  638   5.474   3.090   3.091 -0.0699 -0.1528 -0.4788
  211TIP3    H1  639   5.471   3.144   3.012 -0.6257  0.7491  0.1425
  211TIP3    H2  640   5.546   3.128   3.143  0.8746 -1.2796 -0.9070
  212TIP3   OH2  641   5.456   3.216   4.572  0.2045 -0.7860  0.3490
  212TIP3    H1  642   5.543   3.256   4.570  0.4800 -1.4044 -1.9409
  212TIP3    H2  643   5.470   3.125   4.546 -1.0999 -0.9843  0.2793
  213TIP3   OH2  644   0.051   4.928   4.932  0.0944  0.0260  0.2916
  213TIP3    H1  645   0.083   4.838   4.933 -0.7962 -0.3554  2.9594
  213TIP3    H2  646   0.119   4.977   4.886  2.0973 -1.5187  1.4260
  214TIP3   OH2  647   2.887   0.424   2.038  0.4116 -0.2443  0.4992
  214TIP3    H1  648   2.981   0.433   2.023  0.2606  1.2836  0.3957
  214TIP3    H2  649   2.856   0.372   1.964  1.0474 -0.1239  0.1425
  215TIP3   OH2  650   0.964   0.095   4.161 -0.0322  0.0087  0.2543
  215TIP3    H1  651   0.920   0.084   4.245 -0.6289  0.6497  0.0378
  215TIP3    H2  652   0.973   0.006   4.126  3.3182 -0.7108  2.4921
  216TIP3   OH2  653   1.157   1.727   4.966 -0.6646 -0.0094  0.1453
  216TIP3    H1  654   1.171   1.778   4.886 -1.3035  1.8891  1.1764
  216TIP3    H2  655   1.153   1.793   5.035  0.5106 -1.6431  1.8587
  217TIP3   OH2  656   4.101   3.700   0.519 -0.2461  0.4831 -0.4956
  217TIP3    H1  657   4.114   3.790   0.489  0.1175 -0.2014 -2.6217
  217TIP3    H2  658   4.015   3.676   0.485 -0.5369  0.1586  0.4505
  218TIP3   OH2  659   1.574   5.008  -0.011 -0.7577  0.4116 -0.0365
  218TIP3    H1  660   1.599   5.099  -0.032  0.8685 -0.5288 -2.6634
  218TIP3    H2  661   1.616   4.992   0.073 -0.5549  1.9064  0.1853
  219TIP3   OH2  662   6.070   3.309   1.934 -0.2601  0.6575  0.4509
  219TIP3    H1  663   5.999   3.350   1.985  0.3381  1.5041  0.6271
  219TIP3    H2  664   6.109   3.381   1.885  1.3729  0.4779  1.4172
  220TIP3   OH2  665   4.545   5.414   3.378  0.2528 -0.5110  0.0629
  220TIP3    H1  666   4.482   5.388   3.311  0.1185 -0.2117  0.0698
  220TIP3    H2  667   4.507   5.385   3.460  0.7335 -1.4770 -0.0472
  221TIP3   OH2  668   5.349   0.093   0.287 -0.3083  0.0205 -0.1352
  221TIP3    H1  669   5.370   0.162   0.350 -1.7249  0.8397 -0.5107
  221TIP3    H2  670   5.288   0.035   0.334  0.8854 -1.0303  0.1855
  222TIP3   OH2  671   2.884   1.333   4.319 -0.3083 -0.4851  0.5245
  222TIP3    H1  672   2.832   1.293   4.249  0.2159  1.4714 -1.0865
  222TIP3    H2  673   2.845   1.419   4.332  1.6175  0.4925  0.2259
  223TIP3   OH2  674   3.009   3.312   0.619  0.1437 -0.1620 -0.2129
  223TIP3    H1  675   2.978   3.232   0.577  0.3771 -0.4466  0.1464
  223TIP3    H2  676   3.026   3.286   0.709  1.7762 -0.1324 -0.4737
  224TIP3   OH2  677   5.237   2.757   4.387 -0.6862  0.6844  0.1097
  224TIP3    H1  678   5.268   2.736   4.475  0.0263  3.1003  0.5018
  224TIP3    H2  679   5.152   2.798   4.401 -1.9195 -1.4708 -0.6063
  225TIP3   OH2  680   3.705   1.762   4.031  0.0413 -0.2996 -0.4094
  225TIP3    H1  681   3.708   1.757   3.936  0.1462 -1.3002 -0.3598
  225TIP3    H2  682   3.792   1.735   4.060 -0.4603 -1.5582  0.0116
  226TIP3   OH2  683   5.997   2.358   0.420  0.5201 -0.0391  0.4392
  226TIP3    H1  684   6.061   2.390   0.357  1.0133  0.3228  1.1072
  226TIP3    H2  685   5.961   2.436   0.461 -1.8369 -0.1151 -1.2952
  227TIP3   OH2  686   3.116   1.318   1.770 -0.3917 -0.4365 -0.4628
  227TIP3    H1  687   3.182   1.331   1.838  1.5913 -1.4159 -2.0797
  227TIP3    H2  688   3.100   1.406   1.735 -0.7208 -0.0569  0.6216
  228TIP3   OH2  689   4.393   5.626   4.190  0.2877  0.7261  0.1140
  228TIP3    H1  690   4.430   5.712   4.210  0.2751  0.7833 -0.0995
  228TIP3    H2  691   4.423   5.608   4.101 -0.3447  0.8501 -0.1235
  229TIP3   OH2  692   1.871   0.046   1.697  0.3621  0.2890  0.0349
  229TIP3    H1  693   1.875  -0.047   1.720 -2.4481 -0.0777 -0.6306
  229TIP3    H2  694   1.871   0.048   1.602  1.6104  1.1064  0.0227
  230TIP3   OH2  695   1.660   5.723   4.343 -0.2823 -0.4640 -0.2306
  230TIP3    H1  696   1.678   5.814   4.322  0.7749 -0.6982 -0.4056
  230TIP3    H2  697   1.744   5.689   4.376 -0.7431 -1.2828  0.1323
  231TIP3   OH2  698   6.352   5.445   3.040  0.1760 -0.2413 -0.3072
  231TIP3    H1  699   6.258   5.454   3.056  0.6187  2.2598  1.3775
  231TIP3    H2  700   6.383   5.387   3.109 -0.0504 -0.7324 -0.6132
  232TIP3   OH2  701   4.315   2.175   4.649 -0.0328  0.1567 -0.0634
  232TIP3    H1  702   4.297   2.263   4.682 -0.7659  0.1621 -0.4599
  232TIP3    H2  703   4.280   2.116   4.716  0.5233  0.1643  0.2361
  233TIP3   OH2  704   4.414   3.871   1.213  0.2352  0.3404  0.4228
  233TIP3    H1  705   4.320   3.875   1.231  0.1056  0.5781 -0.2726
  233TIP3    H2  706   4.420   3.853   1.119  0.8949 -1.1290  0.7266
  234TIP3   OH2  707   5.629   5.601   4.986 -0.4887  0.5050  0.0053
  234TIP3    H1  708   5.722   5.577   4.988 -0.7833 -0.6787 -0.3424
  234TIP3    H2  709   5.590   5.554   5.060 -0.8127  1.0481  0.1900
  235TIP3   OH2  710   1.366   5.840   2.436 -0.0025  0.0320 -0.0060
  235TIP3    H1  711   1.460   5.826   2.426 -0.1589 -0.7276 -0.4466
  235TIP3    H2  712   1.351   5.927   2.398  0.9583  1.4833  2.6162
  236TIP3   OH2  713   6.185   1.169   3.211  0.3295  0.1876 -0.5751
  236TIP3    H1  714   6.257   1.232   3.214  1.4227 -1.0343  1.6918
  236TIP3    H2  715   6.190   1.130   3.123  1.5154  1.1414 -0.9549
  237TIP3   OH2  716   1.959   3.461   2.733 -0.8222  0.6342  0.3846
  237TIP3    H1  717   1.933   3.398   2.665 -0.9873  1.7675 -0.6302
  237TIP3    H2  718   1.920   3.426   2.813 -0.9589 -0.5256 -0.1661
  238TIP3   OH2  719   5.650   5.366   1.947  0.5693  0.7537  0.0022
  238TIP3    H1  720   5.677   5.293   2.004  0.6378 -0.1445 -1.1591
  238TIP3    H2  721   5.555   5.358   1.941  0.4473  1.4590  0.7797
  239TIP3   OH2  722   6.025   4.392   1.880 -0.1398  0.0357 -0.4128
  239TIP3    H1  723   6.051   4.471   1.834 -3.1632  1.4717  0.0882
  239TIP3    H2  724   6.002   4.422   1.968  0.6487 -1.8022  0.4757
  240TIP3   OH2  725   5.482   4.544   2.122 -0.2973 -0.5783 -0.2572
  240TIP3    H1  726   5.532   4.549   2.041 -0.8716 -1.6339 -0.6947
  240TIP3    H2  727   5.518   4.614   2.177  1.3258 -0.9923 -0.7297
  241TIP3   OH2  728   3.887   3.459   4.683  0.2689  0.1612 -0.0999
  241TIP3    H1  729   3.836   3.378   4.678  0.3134  0.1567 -0.4806
  241TIP3    H2  730   3.923   3.471   4.595  1.3214 -0.0908  0.2791
  242TIP3   OH2  731   3.841   1.643   1.545 -0.4999 -0.6198  0.0451
  242TIP3    H1  732   3.931   1.676   1.537 -0.4798 -0.7856 -0.4386
  242TIP3    H2  733   3.788   1.706   1.497 -0.8701  0.3577  1.6545
  243TIP3   OH2  734   5.230   3.985   0.997  0.0323 -0.4347  0.0557
  243TIP3    H1  735   5.278   4.036   1.063 -0.6416  0.7669 -0.3404
  243TIP3    H2  736   5.138   4.010   1.011 -0.4019 -2.0578  0.2692
  244TIP3   OH2  737   0.816   4.129   4.743 -0.3642 -0.0884  0.1820
  244TIP3    H1  738   0.799   4.188   4.816 -0.4971  2.0135 -1.4408
  244TIP3    H2  739   0.849   4.049   4.783 -3.6660 -0.3458  2.7599
  245TIP3   OH2  740   1.188   0.174   2.529 -0.0732 -0.0755  0.1671
  245TIP3    H1  741   1.230   0.142   2.609  0.2068  0.2155  0.1369
  245TIP3    H2  742   1.261   0.204   2.474 -0.4049  1.8947  0.7350
  246TIP3   OH2  743   2.082   2.227   1.317  0.8090 -0.6066 -0.3214
  246TIP3    H1  744   2.018   2.230   1.388 -0.0364 -2.9345 -0.8916
  246TIP3    H2  745   2.030   2.235   1.238  1.5836  0.4659 -0.7411
  247TIP3   OH2  746   2.428   3.109   3.758  0.4554 -0.3664  0.7132
  247TIP3    H1  747   2.343   3.108   3.802 -1.2690  0.1000 -2.3063
  247TIP3    H2  748   2.428   3.029   3.705  0.9386  0.6962 -0.9525
  248TIP3   OH2  749   3.328   2.600   0.482 -0.3963  0.2446  0.0370
  248TIP3    H1  750   3.293   2.615   0.570  0.6195  0.0393  0.4933
  248TIP3    H2  751   3.287   2.667   0.428 -1.3099  0.1409  0.5914
  249TIP3   OH2  752   3.739   3.016   3.418 -0.0910 -0.0165  0.3328
  249TIP3    H1  753   3.753   3.061   3.334  1.4407  1.0866  1.1209
  249TIP3    H2  754   3.695   3.082   3.473  1.5676  0.3349  1.2929
  250TIP3   OH2  755   2.279   0.275   4.520 -0.0626  0.2664  0.1001
  250TIP3    H1  756   2.262   0.301   4.430  0.7789  0.2143 -0.0798
  250TIP3    H2  757   2.207   0.216   4.542 -1.5515  2.0330  0.2388
  251TIP3   OH2  758   1.639   0.376   3.768  0.1492 -0.6281  0.3251
  251TIP3    H1  759   1.730   0.377   3.799  0.2045  0.8743  0.2034
  251TIP3    H2  760   1.646   0.378   3.672 -0.0237 -1.0772  0.2984
  252TIP3   OH2  761   5.238   3.272   2.898  0.0175 -0.0157 -0.1407
  252TIP3    H1  762   5.290   3.293   2.976  0.1729  0.6001 -0.4014
  252TIP3    H2  763   5.258   3.343   2.837 -1.1858  0.2655 -0.2208
  253TIP3   OH2  764   4.784   5.218   3.812  0.3747 -0.4343 -0.0541
  253TIP3    H1  765   4.723   5.233   3.739 -0.7589 -2.9454  0.2741
  253TIP3    H2  766   4.765   5.290   3.873 -1.7609 -0.6879 -0.3139
  254TIP3   OH2  767   4.383   5.634   2.907  0.1686 -0.3736  0.1580
  254TIP3    H1  768   4.360   5.726   2.913  0.7595 -0.3088  1.9039
  254TIP3    H2  769   4.479   5.633   2.904  0.1563 -0.9141 -0.2661
  255TIP3   OH2  770   5.720   2.537   0.728  0.0204 -0.2017 -0.2044
  255TIP3    H1  771   5.740   2.533   0.822 -1.3470  1.0250  0.1720
  255TIP3    H2  772   5.805   2.524   0.685  0.5226 -1.7973  1.1612
  256TIP3   OH2  773   1.243   0.166   4.582 -0.3824 -0.4155  0.0102
  256TIP3    H1  774   1.319   0.140   4.634 -0.0928  0.4283  0.0231
  256TIP3    H2  775   1.261   0.134   4.494 -1.1427 -2.3797  0.5170
  257TIP3   OH2  776   1.099   3.293   1.759  0.1492 -0.1672 -0.4491
  257TIP3    H1  777   1.125   3.218   1.706  0.9656 -0.7944  0.8066
  257TIP3    H2  778   1.009   3.274   1.786 -0.0549 -0.1278 -1.0727
  258TIP3   OH2  779   5.045   4.855   3.877  0.1867  0.6200  0.2530
  258TIP3    H1  780   5.089   4.915   3.817  1.4044  0.1044  0.5800
  258TIP3    H2  781   4.986   4.910   3.928  0.2286  1.3020 -0.4208
  259TIP3   OH2  782   4.245   1.505   3.082  0.5126 -0.7570 -0.0575
  259TIP3    H1  783   4.237   1.596   3.054 -0.9053 -1.0632 -0.7637
  259TIP3    H2  784   4.338   1.486   3.077  0.6783  0.2430 -1.2453
  260TIP3   OH2  785   0.258   5.588   2.717  0.2661 -0.4402  0.3410
  260TIP3    H1  786   0.225   5.665   2.762  1.8246 -0.6870  2.0190
  260TIP3    H2  787   0.181   5.532   2.706 -0.4609  0.3482  1.2190
  261TIP3   OH2  788   1.417   2.758   2.968  0.0432  0.0209 -0.4581
  261TIP3    H1  789   1.484   2.804   3.019  1.0191 -0.4936 -1.2301
  261TIP3    H2  790   1.421   2.668   3.000 -0.5498  0.0667 -0.2486
  262TIP3   OH2  791   6.271   1.007   2.368 -0.1292 -0.1865  0.0450
  262TIP3    H1  792   6.278   1.094   2.407 -2.1783 -0.2062  0.5624
  262TIP3    H2  793   6.284   0.947   2.441  2.5959 -0.4145 -0.5303
  263TIP3   OH2  794   3.642   1.035   0.392 -0.6461 -0.2754  0.0419
  263TIP3    H1  795   3.567   1.093   0.380 -1.1462 -0.7838  0.6199
  263TIP3    H2  796   3.718   1.088   0.368 -1.1776  0.2865 -0.4178
  264TIP3   OH2  797   2.792   4.228   3.821  0.5054  0.0095 -0.0017
  264TIP3    H1  798   2.772   4.233   3.727  1.3168 -1.5170 -0.2822
  264TIP3    H2  799   2.709   4.249   3.864  0.1412  0.8286 -1.0480
  265TIP3   OH2  800   0.657   1.533   1.090  0.2866  0.6078  0.4699
  265TIP3    H1  801   0.694   1.602   1.144  0.6696  1.0510 -0.3394
  265TIP3    H2  802   0.652   1.571   1.002 -0.9359  0.1276  0.3127
  266TIP3   OH2  803   3.328   2.795   4.690  0.1636 -0.1204 -0.4130
  266TIP3    H1  804   3.268   2.827   4.623 -1.8361 -1.3935  0.6763
  266TIP3    H2  805   3.303   2.704   4.703  3.6997 -1.3674 -1.3245
  267TIP3   OH2  806   6.246   4.182   1.893  0.3023 -0.0209 -0.7758
  267TIP3    H1  807   6.258   4.123   1.819 -2.3494  0.2151 -1.5040
  267TIP3    H2  808   6.203   4.259   1.856 -0.2400  0.5091  0.8494
  268TIP3   OH2  809   0.264   0.183   3.397 -0.3332  0.0255 -0.3044
  268TIP3    H1  810   0.292   0.094   3.416  3.1490  1.1723  0.6237
  268TIP3    H2  811   0.191   0.199   3.458  1.9042 -0.8069  2.8466
  269TIP3   OH2  812   2.063   5.337   1.607  0.1348  0.0927  0.0477
  269TIP3    H1  813   2.059   5.242   1.606 -1.4873  0.1350 -0.1565
  269TIP3    H2  814   2.157   5.358   1.602  0.5114 -1.4736  0.2145
  270TIP3   OH2  815   5.621   1.313   1.944 -0.5900 -0.2723  0.1330
  270TIP3    H1  816   5.698   1.368   1.927 -0.6775 -0.1109  0.2556
  270TIP3    H2  817   5.560   1.336   1.873 -0.2268 -0.9619 -0.4108
  271TIP3   OH2  818   3.279   4.743   1.635 -0.1564 -0.3012 -0.9469
  271TIP3    H1  819   3.205   4.709   1.686  0.6630 -0.7401 -0.0054
  271TIP3    H2  820   3.289   4.833   1.665  1.5322 -1.1224  1.1736
  272TIP3   OH2  821   0.358   4.884   4.478 -0.1539  0.0932  0.1668
  272TIP3    H1  822   0.390   4.906   4.565  0.1524  0.6602 -0.0914
  272TIP3    H2  823   0.407   4.805   4.454 -0.0578  0.0795  0.4051
  273TIP3   OH2  824   5.738   1.445   3.596  0.0653  0.0571 -0.4169
  273TIP3    H1  825   5.826   1.475   3.618 -0.0518 -0.8765  1.5378
  273TIP3    H2  826   5.751   1.355   3.565 -0.2049 -0.1732  0.1218
  274TIP3   OH2  827   3.982   5.764   2.510  0.0466 -0.2456  0.9839
  274TIP3    H1  828   4.054   5.751   2.572 -0.1437 -0.5119  1.1514
  274TIP3    H2  829   3.904   5.736   2.558  0.0950 -2.1970  0.0088
  275TIP3   OH2  830   1.746   4.772   0.510  0.4857 -0.6009  0.2432
  275TIP3    H1  831   1.658   4.756   0.541 -0.1690 -1.0094 -1.6684
  275TIP3    H2  832   1.759   4.866   0.522 -0.6657 -0.3253 -0.4868
  276TIP3   OH2  833   4.896   4.235   4.622  0.1830  0.1838 -0.2168
  276TIP3    H1  834   4.843   4.184   4.560  0.1533 -1.2636  0.9593
  276TIP3    H2  835   4.986   4.229   4.587  0.1549 -0.5464 -0.1671
  277TIP3   OH2  836   5.412   1.388   1.739  0.4911  0.5740 -0.0703
  277TIP3    H1  837   5.430   1.479   1.718  2.2979  0.1609 -0.4577
  277TIP3    H2  838   5.460   1.338   1.673  1.5991 -0.6756  1.5944
  278TIP3   OH2  839   1.070   0.903   3.833  0.0941  0.2785  0.1167
  278TIP3    H1  840   1.019   0.828   3.863 -1.4464 -0.2440 -3.3718
  278TIP3    H2  841   1.117   0.871   3.756  0.1255  2.6379 -0.9327
  279TIP3   OH2  842   0.845   2.133   0.592 -0.2637  0.4047 -0.2805
  279TIP3    H1  843   0.766   2.087   0.564  1.3302 -3.7299  1.2156
  279TIP3    H2  844   0.904   2.128   0.516 -0.0866 -0.1591 -0.1150
  280TIP3   OH2  845   5.722   4.356   4.430 -0.2389 -0.1289  0.3367
  280TIP3    H1  846   5.749   4.270   4.396  0.4518  0.0819  0.3229
  280TIP3    H2  847   5.669   4.336   4.506  2.4536 -0.5929  2.2469
  281TIP3   OH2  848   0.512   4.598   2.431 -0.2094 -0.3934 -0.2336
  281TIP3    H1  849   0.495   4.590   2.525 -2.0890  0.0128 -0.4825
  281TIP3    H2  850   0.518   4.692   2.415 -2.0048 -0.3298 -0.7857
  282TIP3   OH2  851   4.588   5.797   3.944 -0.2821 -0.0721 -0.1399
  282TIP3    H1  852   4.637   5.728   3.988 -0.6142  1.1381  2.2846
  282TIP3    H2  853   4.555   5.755   3.864 -1.8346 -3.2242  1.9471
  283TIP3   OH2  854   3.572   1.171   3.317  0.6127  0.2773 -0.4803
  283TIP3    H1  855   3.485   1.182   3.279  1.3756  0.5116 -2.2689
  283TIP3    H2  856   3.570   1.084   3.356 -0.2721  0.0602 -0.9834
  284TIP3   OH2  857   5.439   1.643   4.209  0.5627 -0.1069  0.4876
  284TIP3    H1  858   5.449   1.615   4.118  0.9248 -0.0021  0.4921
  284TIP3    H2  859   5.426   1.562   4.258 -0.3812 -0.1088  0.2522
  285TIP3   OH2  860   2.477   3.119   1.847  0.1494 -0.1855  0.1100
  285TIP3    H1  861   2.503   3.209   1.829 -1.0204  0.2904  0.6888
  285TIP3    H2  862   2.383   3.124   1.865  0.2854 -1.3418  1.3267
  286TIP3   OH2  863   4.273   0.570   1.513  0.3574 -0.8484 -0.2880
  286TIP3    H1  864   4.221   0.648   1.534 -1.0790 -1.4145 -1.5383
  286TIP3    H2  865   4.305   0.587   1.424 -1.9280 -2.6157 -1.5413
  287TIP3   OH2  866   4.694   2.625   4.093  0.0448 -0.4376 -0.0409
  287TIP3    H1  867   4.706   2.633   3.999  1.3292  1.0588  0.2104
  287TIP3    H2  868   4.756   2.557   4.120  2.3538  1.6270  0.1512
  288TIP3   OH2  869   4.293   4.098   2.024  0.3334  0.4350 -0.3503
  288TIP3    H1  870   4.280   4.091   1.929 -0.4103  1.2303 -0.3160
  288TIP3    H2  871   4.234   4.032   2.061 -2.1319  2.5049 -0.3042
  289TIP3   OH2  872   5.121   4.095   1.966 -0.3384  0.3219  0.7131
  289TIP3    H1  873   5.157   4.123   2.050 -1.0598 -0.7125  1.3738
  289TIP3    H2  874   5.029   4.122   1.969 -0.4368  0.0269  0.3738
  290TIP3   OH2  875   3.481   3.428   4.214  0.1727  0.1058  0.3522
  290TIP3    H1  876   3.422   3.368   4.259 -1.3945  0.6699 -0.8640
  290TIP3    H2  877   3.551   3.372   4.181 -1.0588 -1.0480 -0.4333
  291TIP3   OH2  878   3.632   0.890   1.902 -0.5688  0.2091 -0.5978
  291TIP3    H1  879   3.666   0.953   1.838  1.6566  0.5557  0.7912
  291TIP3    H2  880   3.607   0.814   1.850 -2.0892  1.7217 -2.1859
  292TIP3   OH2  881   0.611   5.344   0.141  0.0253 -0.2867  0.0543
  292TIP3    H1  882   0.691   5.396   0.137 -0.0977 -0.1890 -1.9145
  292TIP3    H2  883   0.565   5.364   0.060 -2.2273 -0.0183  1.3243
  293TIP3   OH2  884   4.890   2.815   3.311  0.5824  0.3104  0.0631
  293TIP3    H1  885   4.831   2.749   3.274  0.7386  0.8110 -1.1298
  293TIP3    H2  886   4.834   2.870   3.364  0.0401  0.5171 -0.7061
  294TIP3   OH2  887   1.247   1.031   2.887 -0.2158  0.0532 -0.0397
  294TIP3    H1  888   1.321   1.089   2.874 -1.2124  0.8745 -2.7848
  294TIP3    H2  889   1.205   1.063   2.966  1.5339  0.4500  0.7725
  295TIP3   OH2  890   5.659   5.249   5.065 -0.3328  0.5010  0.1770
  295TIP3    H1  891   5.735   5.307   5.064  0.5030 -0.5420 -1.8569
  295TIP3    H2  892   5.586   5.306   5.091  0.6854  2.1263 -0.3510
  296TIP3   OH2  893   4.145   4.702   3.851  0.5932  0.3182  0.0379
  296TIP3    H1  894   4.234   4.716   3.819  0.1888  1.8809 -0.5140
  296TIP3    H2  895   4.151   4.722   3.945  1.2653 -1.8573  0.5147
  297TIP3   OH2  896   3.752   5.073   1.749 -0.3450  0.0950  0.3326
  297TIP3    H1  897   3.734   5.127   1.672 -0.5072 -0.4227  0.0020
  297TIP3    H2  898   3.795   5.133   1.811  1.2127  0.1495 -0.7586
  298TIP3   OH2  899   3.128   5.868   0.074  0.1418 -0.0891  0.3607
  298TIP3    H1  900   3.141   5.775   0.057  0.0659  0.2559 -1.9822
  298TIP3    H2  901   3.217   5.902   0.086  0.2247 -0.3406  0.4697
  299TIP3   OH2  902   2.692   2.798   4.342 -0.3303 -0.2926 -0.0627
  299TIP3    H1  903   2.698   2.833   4.430  0.5049 -0.1093 -0.1911
  299TIP3    H2  904   2.614   2.839   4.305 -1.0755 -0.8821  0.8090
  300TIP3   OH2  905   3.602   1.638   1.744  0.1428  0.6308  0.4063
  300TIP3    H1  906   3.627   1.723   1.709 -0.6060  1.3679  1.5717
  300TIP3    H2  907   3.650   1.632   1.827  3.8113 -2.1151 -1.6184
  301TIP3   OH2  908   0.531   2.971   2.917 -0.5950  0.3261 -0.2555
  301TIP3    H1  909   0.540   3.005   3.006 -0.0050  0.9962 -0.5556
  301TIP3    H2  910   0.534   2.876   2.927  1.7188  0.3938  0.2475
  302TIP3   OH2  911   2.535   0.920   0.271  0.1758 -0.7891 -0.1698
  302TIP3    H1  912   2.590   0.964   0.207 -0.8801 -0.6588 -1.0097
  302TIP3    H2  913   2.460   0.978   0.283 -0.7596 -1.8648 -0.5566
  303TIP3   OH2  914   5.457   2.624   1.416  0.5412  0.2075  0.0858
  303TIP3    H1  915   5.392   2.635   1.347  1.6116 -0.1738 -1.0033
  303TIP3    H2  916   5.431   2.688   1.483  0.8471  2.3766 -1.7211
  304TIP3   OH2  917   3.861   4.301   1.488  0.0582  0.5564  0.4201
  304TIP3    H1  918   3.773   4.331   1.468  0.1294 -0.0530 -0.8871
  304TIP3    H2  919   3.918   4.372   1.459 -0.0081  1.3215  2.0392
  305TIP3   OH2  920   4.336   0.267   1.537  0.2745  0.3442 -0.1033
  305TIP3    H1  921   4.411   0.277   1.479  1.9699 -1.1926  1.6834
  305TIP3    H2  922   4.291   0.351   1.533  1.9051  1.2123 -1.4461
  306TIP3   OH2  923   4.749   4.011   0.599 -0.0803  0.4081 -0.5595
  306TIP3    H1  924   4.805   4.067   0.546  0.6776  0.7714  0.5836
  306TIP3    H2  925   4.792   4.008   0.684 -1.9475  0.9421  0.4576
  307TIP3   OH2  926   3.729   0.379   2.358  0.0862 -0.2264  0.1586
  307TIP3    H1  927   3.686   0.433   2.425  1.3918 -0.2799  1.0570
  307TIP3    H2  928   3.811   0.424   2.340 -0.6236  0.2931 -2.1097
  308TIP3   OH2  929   6.101   5.225   1.410 -0.0374  0.1682 -0.3887
  308TIP3    H1  930   6.089   5.307   1.362 -2.1927  0.2196  0.1231
  308TIP3    H2  931   6.165   5.246   1.478  0.0375  1.2002 -0.7629
  309TIP3   OH2  932   5.465   5.137   2.338 -0.4601 -0.2949 -0.1081
  309TIP3    H1  933   5.527   5.131   2.411  2.0948  0.3688 -2.0602
  309TIP3    H2  934   5.457   5.230   2.321  0.2493 -0.4859 -1.6284
  310TIP3   OH2  935   0.691   1.291   2.152 -0.1129 -0.4312 -0.0851
  310TIP3    H1  936   0.773   1.266   2.109 -0.5287  0.7694 -1.7032
  310TIP3    H2  937   0.718   1.350   2.222  0.3494  2.6440 -2.6376
  311TIP3   OH2  938   0.267   4.759   2.204  0.1226  0.4636 -0.1392
  311TIP3    H1  939   0.345   4.771   2.257 -0.8251  0.0327  1.4255
  311TIP3    H2  940   0.203   4.719   2.263 -2.0566  2.8565 -0.6667
  312TIP3   OH2  941   2.704   3.165   1.061 -0.5636 -0.3925  0.1338
  312TIP3    H1  942   2.647   3.240   1.076 -0.1616  0.0529 -0.4868
  312TIP3    H2  943   2.672   3.125   0.980  0.3208  0.1859 -0.5184
  313TIP3   OH2  944   4.861   1.987   1.087  0.0966 -0.0407  0.0520
  313TIP3    H1  945   4.826   1.936   1.161 -1.4064  3.0452  1.6680
  313TIP3    H2  946   4.925   2.046   1.127  0.1827  0.8446 -1.3393
  314TIP3   OH2  947   2.845   3.249   2.389  0.1170 -0.4671 -0.0912
  314TIP3    H1  948   2.757   3.236   2.353  0.4681 -0.6573 -0.9014
  314TIP3    H2  949   2.867   3.165   2.430 -0.6078  0.0036  1.3206
  315TIP3   OH2  950   1.110   3.890   0.806 -0.3178  0.1369 -0.7132
  315TIP3    H1  951   1.030   3.926   0.843 -0.6595 -0.2426 -1.0740
  315TIP3    H2  952   1.081   3.837   0.732  0.1580 -0.9393 -0.1640
  316TIP3   OH2  953   0.610   2.149   3.223 -0.9669  0.5813 -0.0851
  316TIP3    H1  954   0.645   2.061   3.213 -1.4400  0.3230  0.4856
  316TIP3    H2  955   0.582   2.154   3.314 -0.7771  1.3856 -0.0587
  317TIP3   OH2  956   6.106   1.900   5.146  0.1744  0.3773  0.0969
  317TIP3    H1  957   6.137   1.949   5.222  0.7274  1.6886 -0.9358
  317TIP3    H2  958   6.134   1.810   5.163  0.1320  0.5948  1.5041
  318TIP3   OH2  959   3.984   5.336   2.911 -0.6289 -0.4680  0.3213
  318TIP3    H1  960   4.059   5.386   2.879 -0.6357  0.3073  1.4546
  318TIP3    H2  961   4.021   5.252   2.939 -0.5718 -1.0292 -1.2998
  319TIP3   OH2  962   2.861   0.026   4.974  0.1111 -0.9592 -0.3121
  319TIP3    H1  963   2.827   0.047   5.061  0.6377 -1.3896  0.0028
  319TIP3    H2  964   2.905  -0.059   4.985  0.5049 -0.8391 -0.9115
  320TIP3   OH2  965   4.988   4.039   1.163 -0.0397 -0.5569 -0.1753
  320TIP3    H1  966   4.893   4.048   1.168  0.0060 -0.2047  0.0962
  320TIP3    H2  967   5.022   4.120   1.201  0.3701 -0.7164 -0.1965
  321TIP3   OH2  968   6.317   2.423   4.632  0.1845 -0.2380 -0.5561
  321TIP3    H1  969   6.362   2.370   4.698 -0.5805  1.6402  1.5964
  321TIP3    H2  970   6.353   2.510   4.642 -2.7707  1.0357  0.2934
  322TIP3   OH2  971   0.133   3.844   3.362  0.2186 -0.9889 -0.0143
  322TIP3    H1  972   0.100   3.877   3.278 -0.5928 -0.6693  0.4153
  322TIP3    H2  973   0.201   3.907   3.387  0.4667 -1.0860 -0.4237
  323TIP3   OH2  974   3.362   2.022   3.225 -0.2560 -0.0781 -0.0846
  323TIP3    H1  975   3.272   2.046   3.200  0.3391  0.6534 -1.5942
  323TIP3    H2  976   3.410   2.105   3.224  0.3482 -0.3785  1.2339
  324TIP3   OH2  977   2.275   4.193   3.473  0.1791  0.2593 -0.2391
  324TIP3    H1  978   2.352   4.167   3.422  0.3943  2.2410 -1.0336
  324TIP3    H2  979   2.311   4.238   3.549 -0.1898  0.1231  0.0182
  325TIP3   OH2  980   3.666   1.174   2.866 -0.5963  0.5316 -0.3941
  325TIP3    H1  981   3.598   1.156   2.931  1.2244 -1.6182  1.0616
  325TIP3    H2  982   3.708   1.254   2.897 -1.1600  0.7474 -0.1746
  326TIP3   OH2  983   4.950   5.487   4.366  0.0800 -0.4385  0.4550
  326TIP3    H1  984   4.971   5.573   4.402 -2.0170 -0.0353  0.8212
  326TIP3    H2  985   5.027   5.464   4.314  0.3652  2.0521 -0.3798
  327TIP3   OH2  986   3.497   5.653   2.821  0.1051  0.0816  0.4393
  327TIP3    H1  987   3.498   5.575   2.877  2.3404 -0.6218 -0.4823
  327TIP3    H2  988   3.547   5.718   2.870 -1.0760  0.7161  0.8472
  328TIP3   OH2  989   5.628   4.776   1.220  0.0518 -0.2704  0.8454
  328TIP3    H1  990   5.677   4.793   1.300  1.4824  0.4948 -0.1611
  328TIP3    H2  991   5.625   4.680   1.214 -1.1195 -0.3749  2.3974
  329TIP3   OH2  992   3.582   2.547   0.361  0.3279 -0.3435  0.6593
  329TIP3    H1  993   3.504   2.529   0.413 -0.2919 -2.0759 -0.7545
  329TIP3    H2  994   3.553   2.610   0.295  0.7379  0.7590  1.5211
  330TIP3   OH2  995   0.184   5.005   0.067  0.1060 -0.6141  0.0199
  330TIP3    H1  996   0.197   4.939   0.136 -0.4311 -0.7135  0.0236
  330TIP3    H2  997   0.248   4.982  -0.000  0.1085 -0.9758  0.1441
  331TIP3   OH2  998   5.346   0.293   2.069  0.4250  0.4895  0.2107
  331TIP3    H1  999   5.359   0.360   2.002 -0.3912  0.8647  0.4277
  331TIP3    H2 1000   5.421   0.303   2.128  0.5403  0.9108 -0.0044
  332TIP3   OH2 1001   6.078   3.790   0.800  0.0502  0.0888 -0.1901
  332TIP3    H1 1002   6.150   3.775   0.861 -0.6110 -0.0791  0.5635
  332TIP3    H2 1003   6.099   3.736   0.724  0.0387 -1.0325  0.5884
  333TIP3   OH2 1004   5.407   0.822   4.068  0.1303 -0.2879  0.0596
  333TIP3    H1 1005   5.338   0.861   4.015  1.1258  0.3139 -0.8222
  333TIP3    H2 1006   5.484   0.822   4.012  1.0400 -0.3007  1.2542
  334TIP3   OH2 1007   5.855   2.674   4.751  0.4234 -0.2651 -0.8648
  334TIP3    H1 1008   5.950   2.675   4.759  0.4350  0.5062 -1.0416
  334TIP3    H2 1009   5.839   2.636   4.664  0.5355 -1.1742 -0.4976
  335TIP3   OH2 1010   4.887   2.311   0.616  0.9415  0.0752  0.3238
  335TIP3    H1 1011   4.901   2.237   0.556  0.9893 -0.4722  0.9918
  335TIP3    H2 1012   4.973   2.352   0.624  0.6516  1.0100 -1.0593
  336TIP3   OH2 1013   4.560   4.592   1.183 -0.3674  0.0241 -0.4765
  336TIP3    H1 1014   4.468   4.576   1.164 -0.0647 -0.5103 -1.5708
  336TIP3    H2 1015   4.572   4.686   1.165 -0.8092  0.2004  0.1582
  337TIP3   OH2 1016   3.920   5.953   2.748  0.3516  0.3964 -0.7637
  337TIP3    H1 1017   3.974   5.894   2.696 -0.2389  0.7028 -1.7572
  337TIP3    H2 1018   3.846   5.975   2.690 -0.0055  1.2338 -0.0145
  338TIP3   OH2 1019   1.905   5.666   1.928 -0.2228  0.0389 -0.3081
  338TIP3    H1 1020   1.903   5.687   1.835 -1.2995  1.6877  0.0629
  338TIP3    H2 1021   1.995   5.636   1.943  0.5436  1.5807 -1.5056
  339TIP3   OH2 1022   0.046   0.973   3.022  0.6470  0.9098  0.0106
  339TIP3    H1 1023   0.061   0.896   3.076 -0.5625  1.7049  1.5528
  339TIP3    H2 1024   0.132   1.012   3.010  1.1165 -0.0581  0.1300
  340TIP3   OH2 1025   5.326   1.271   0.814 -0.2028  0.2013 -0.0599
  340TIP3    H1 1026   5.284   1.241   0.895 -1.5262 -1.2948 -1.2273
  340TIP3    H2 1027   5.382   1.198   0.788  0.2939  0.7130 -0.4619
  341TIP3   OH2 1028   0.778   5.417   3.276 -0.3824 -0.2044 -0.5323
  341TIP3    H1 1029   0.854   5.379   3.232  0.1279 -0.9305  0.8951
  341TIP3    H2 1030   0.742   5.344   3.328 -0.8547  0.6391  0.3521
  342TIP3   OH2 1031   5.466   5.839   1.193 -0.0113 -0.3907  0.4847
  342TIP3    H1 1032   5.448   5.823   1.100  1.3274 -0.2100  0.1805
  342TIP3    H2 1033   5.408   5.778   1.239  0.3235 -1.4934 -0.5012
  343TIP3   OH2 1034   1.494   4.784   1.098 -0.4942 -0.2223 -0.5533
  343TIP3    H1 1035   1.565   4.720   1.103 -0.6544 -0.3481  0.1334
  343TIP3    H2 1036   1.418   4.740   1.137  0.0371  1.2494  2.4568
  344TIP3   OH2 1037   3.561   5.565   2.170 -0.0213  0.1443  0.2324
  344TIP3    H1 1038   3.539   5.616   2.092  0.7517 -0.7701 -0.6160
  344TIP3    H2 1039   3.613   5.624   2.224 -0.4372  0.7419 -0.0096
  345TIP3   OH2 1040   2.949   1.250   1.513  0.4455 -0.3035  0.0223
  345TIP3    H1 1041   2.976   1.249   1.605 -1.5335  3.2669  0.8317
  345TIP3    H2 1042   3.012   1.308   1.470  0.4023 -0.6377 -0.5025
  346TIP3   OH2 1043   4.331   3.074   5.164  0.0226  0.4199  0.5694
  346TIP3    H1 1044   4.330   3.031   5.078 -1.2471  1.5651 -0.0321
  346TIP3    H2 1045   4.391   3.148   5.153  0.7933 -0.1199  1.0525
  347TIP3   OH2 1046   0.994   0.614   3.203 -0.3115 -0.1590  0.5432
  347TIP3    H1 1047   1.000   0.637   3.295  1.1097  2.6014 -0.1177
  347TIP3    H2 1048   0.905   0.579   3.192 -0.8500  0.4026  2.7475
  348TIP3   OH2 1049   6.094   5.496   1.984 -0.4483 -0.6676 -0.3559
  348TIP3    H1 1050   6.118   5.555   2.056 -1.0568 -3.4193  2.3133
  348TIP3    H2 1051   6.167   5.503   1.922  0.4121  1.3554  0.7830
  349TIP3   OH2 1052   4.092   0.575   2.592 -0.5577 -0.4605 -0.1996
  349TIP3    H1 1053   4.031   0.648   2.587 -0.0253 -0.0491 -0.7058
  349TIP3    H2 1054   4.075   0.536   2.678  0.1393  1.1348  0.7138
  350TIP3   OH2 1055   6.104   5.386   3.920  0.0479 -0.6097  0.4072
  350TIP3    H1 1056   6.174   5.444   3.949 -0.1100 -0.5760  0.7201
  350TIP3    H2 1057   6.075   5.424   3.837 -0.4092  0.0562  0.8678
  351TIP3   OH2 1058   0.871   1.340   2.552 -0.8334 -0.0151 -0.2084
  351TIP3    H1 1059   0.954   1.361   2.509 -1.0829 -0.2325 -0.8210
  351TIP3    H2 1060   0.804   1.373   2.491 -1.1921  1.5399  0.9928
  352TIP3   OH2 1061   2.120   4.776   1.690 -0.0934 -0.3280 -0.1382
  352TIP3    H1 1062   2.026   4.761   1.687 -0.2444  0.4017  0.4240
  352TIP3    H2 1063   2.157   4.692   1.717 -0.7438 -0.2147  1.2362
  353TIP3   OH2 1064   4.773   5.458   5.059 -0.2289 -0.2508 -0.2523
  353TIP3    H1 1065   4.857   5.482   5.021  0.4872 -1.3572  0.5648
  353TIP3    H2 1066   4.790   5.375   5.104 -1.6035 -0.1791  0.4525
  354TIP3   OH2 1067   3.320   3.671   2.560 -0.4455 -0.3345 -0.4502
  354TIP3    H1 1068   3.318   3.748   2.617  2.3319 -0.7578  0.3829
  354TIP3    H2 1069   3.350   3.600   2.617 -1.0966 -1.6155 -1.6493
  355TIP3   OH2 1070   5.461   2.973   2.495 -0.3991  0.2266  0.0477
  355TIP3    H1 1071   5.437   3.022   2.417 -0.9012  0.9044  0.6134
  355TIP3    H2 1072   5.463   3.038   2.565 -3.6867 -0.8900  1.3769
  356TIP3   OH2 1073   3.380   3.859   2.093  0.0412 -0.3253  0.1374
  356TIP3    H1 1074   3.301   3.896   2.134 -1.5665 -1.3679 -1.8597
  356TIP3    H2 1075   3.400   3.782   2.146 -1.5472 -1.2275 -0.5073
  357TIP3   OH2 1076   4.323   5.863   1.926  0.0676 -0.2113  0.0719
  357TIP3    H1 1077   4.346   5.781   1.969 -0.3043 -0.8327 -0.8748
  357TIP3    H2 1078   4.241   5.845   1.881  1.1317 -0.0561 -2.0630
  358TIP3   OH2 1079   5.338   5.686   2.888 -0.0737  0.4935  0.0151
  358TIP3    H1 1080   5.414   5.716   2.837 -1.3682  0.3237 -2.1365
  358TIP3    H2 1081   5.292   5.626   2.830 -0.8027 -1.0213  2.0335
  359TIP3   OH2 1082   5.461   2.243   4.437  0.1417 -0.4082  0.4457
  359TIP3    H1 1083   5.529   2.192   4.482  0.4254  0.3791  0.9312
  359TIP3    H2 1084   5.509   2.294   4.372 -0.0496 -0.2534  0.4256
  360TIP3   OH2 1085   5.065   3.674   1.501 -0.1292  0.1414  0.3428
  360TIP3    H1 1086   5.043   3.721   1.581  0.0603 -1.1378  1.1736
  360TIP3    H2 1087   4.982   3.664   1.455 -0.2600  0.7823  0.4370
  361TIP3   OH2 1088   3.956   1.308   4.734  0.3692 -0.2601  0.2578
  361TIP3    H1 1089   3.968   1.241   4.667  2.2097  0.7992 -0.5329
  361TIP3    H2 1090   3.877   1.281   4.781 -0.6284 -1.3552 -1.9205
  362TIP3   OH2 1091   3.974   1.172   1.979  0.6026  0.7268  0.0504
  362TIP3    H1 1092   3.888   1.184   1.939  1.1015  1.6915 -0.7747
  362TIP3    H2 1093   3.972   1.083   2.015 -0.8643  0.8695  0.3833
  363TIP3   OH2 1094   3.011   4.186   4.220  0.0664  0.4153  0.4643
  363TIP3    H1 1095   2.969   4.101   4.209  0.5587 -0.2176  2.9775
  363TIP3    H2 1096   2.956   4.232   4.283  0.7415  1.2742  0.4462
  364TIP3   OH2 1097   6.284   1.851   2.463  0.3464 -0.0484 -0.1452
  364TIP3    H1 1098   6.276   1.924   2.402 -3.9073 -0.1740 -0.0409
  364TIP3    H2 1099   6.314   1.892   2.544  0.6612  1.1035 -0.8153
  365TIP3   OH2 1100   0.986   1.759   2.954 -0.4108 -0.2704  0.3074
  365TIP3    H1 1101   1.074   1.790   2.975 -0.4028  0.5334 -0.8088
  365TIP3    H2 1102   0.978   1.771   2.860 -2.3226  1.3509  0.5811
  366TIP3   OH2 1103   3.370   0.646   0.093  0.0879  0.8343 -0.0510
  366TIP3    H1 1104   3.312   0.646   0.169  0.9817  0.4655  0.6531
  366TIP3    H2 1105   3.426   0.723   0.105 -0.2639  1.2118 -0.7443
  367TIP3   OH2 1106   2.208   1.986   3.725 -0.5931 -0.0449  0.3879
  367TIP3    H1 1107   2.194   2.057   3.663 -0.4238 -1.1930 -1.0027
  367TIP3    H2 1108   2.143   2.001   3.794 -0.4518  1.5278  0.2152
  368TIP3   OH2 1109   0.609   0.699   3.445  0.0185  0.0453  0.4542
  368TIP3    H1 1110   0.609   0.614   3.489  0.0574  0.2333  0.8245
  368TIP3    H2 1111   0.520   0.710   3.413  0.2633 -0.5852 -0.4862
  369TIP3   OH2 1112   2.996   2.051   2.434 -0.2239 -0.0271  0.3161
  369TIP3    H1 1113   2.994   2.112   2.507 -0.6433 -0.3998  0.6245
  369TIP3    H2 1114   2.972   1.966   2.473 -0.1431 -0.2879 -0.1937
  370TIP3   OH2 1115   4.076   1.939   2.246  0.0527 -0.0323 -0.2893
  370TIP3    H1 1116   4.138   1.997   2.203 -2.6897  1.5180 -2.4922
  370TIP3    H2 1117   4.116   1.852   2.239  2.4250  1.0168 -0.5711
  371TIP3   OH2 1118   3.404   0.117   2.614  0.0663 -0.4241 -0.1878
  371TIP3    H1 1119   3.483   0.108   2.666 -0.6008  4.5782  2.2197
  371TIP3    H2 1120   3.434   0.153   2.531  0.4614 -1.0098 -0.3087
  372TIP3   OH2 1121   4.368   3.555   2.951 -0.8522  0.1002 -0.1329
  372TIP3    H1 1122   4.449   3.577   2.997 -1.6847  1.1409  0.8935
  372TIP3    H2 1123   4.386   3.576   2.860  0.4180 -0.8203 -0.1277
  373TIP3   OH2 1124   0.728   2.366   2.164 -0.1630 -0.3754 -0.1291
  373TIP3    H1 1125   0.707   2.277   2.137  0.0297 -0.0700 -1.3267
  373TIP3    H2 1126   0.651   2.395   2.213 -0.7598 -0.7706 -0.8072
  374TIP3   OH2 1127   5.949   4.074   2.527  0.2322  0.1816 -0.3324
  374TIP3    H1 1128   5.987   4.138   2.466 -0.0725  0.1394 -0.5722
  374TIP3    H2 1129   5.861   4.057   2.491  0.0040  0.2507  0.1878
  375TIP3   OH2 1130   4.556   1.275   2.523 -0.2562  0.7953  0.3205
  375TIP3    H1 1131   4.595   1.330   2.591  1.4262  0.1854 -0.1048
  375TIP3    H2 1132   4.615   1.284   2.448 -0.6047 -0.6336 -0.1606
  376TIP3   OH2 1133   0.046   1.577   0.444 -0.3208  0.4347 -0.1854
  376TIP3    H1 1134   0.011   1.651   0.494 -1.5447 -1.1751  1.4738
  376TIP3    H2 1135   0.129   1.610   0.408 -0.0236  2.1345  1.8321
  377TIP3   OH2 1136   3.052   5.808   5.132 -0.1455  0.3370 -0.1716
  377TIP3    H1 1137   2.964   5.777   5.113 -0.3981  1.1005 -0.3078
  377TIP3    H2 1138   3.103   5.729   5.149 -1.1285 -0.0548  1.0720
  378TIP3   OH2 1139   5.800   2.444   1.001  0.1286 -0.6977 -0.2973
  378TIP3    H1 1140   5.862   2.376   0.974  0.8868  0.0537 -0.4937
  378TIP3    H2 1141   5.819   2.459   1.093  0.1762 -0.5452 -0.3308
  379TIP3   OH2 1142   2.328   4.557   3.898 -0.3415  0.7965  0.2416
  379TIP3    H1 1143   2.306   4.516   3.981  1.1025 -1.6843 -0.4847
  379TIP3    H2 1144   2.259   4.621   3.882 -2.9478 -1.5585  1.3695
  380TIP3   OH2 1145   1.445   2.616   4.599  0.1540 -0.1238  0.2596
  380TIP3    H1 1146   1.521   2.643   4.547 -0.3091 -0.0158 -0.3807
  380TIP3    H2 1147   1.474   2.536   4.643  1.1888  0.8162  1.3462
  381TIP3   OH2 1148   5.875   1.055   2.250 -0.3364  0.2624  0.1360
  381TIP3    H1 1149   5.803   1.058   2.188  1.2866  0.5227 -1.8422
  381TIP3    H2 1150   5.874   1.140   2.293 -1.1337  0.2960  0.0578
  382TIP3   OH2 1151   0.412   0.719   1.427 -0.5428 -0.0228  0.2664
  382TIP3    H1 1152   0.427   0.802   1.384 -0.7481 -0.1890 -0.1290
  382TIP3    H2 1153   0.455   0.727   1.512  2.1201 -0.6091 -0.9444
  383TIP3   OH2 1154   0.377   5.372   0.856  0.0534  0.7131 -0.1744
  383TIP3    H1 1155   0.381   5.286   0.814 -0.9258  0.4055  0.3170
  383TIP3    H2 1156   0.382   5.434   0.784  1.5254  0.2700 -0.4758
  384TIP3   OH2 1157   2.195   5.732   5.010 -0.9918  0.0156 -0.6218
  384TIP3    H1 1158   2.230   5.807   4.961 -4.4680  1.9032 -0.5022
  384TIP3    H2 1159   2.127   5.697   4.953 -0.4763 -2.1439  0.0171
  385TIP3   OH2 1160   5.631   4.495   1.228  0.4746 -0.0986  0.2815
  385TIP3    H1 1161   5.712   4.462   1.265  0.9669  0.1355 -0.5559
  385TIP3    H2 1162   5.595   4.422   1.177  1.3196  0.4513 -1.1767
  386TIP3   OH2 1163   4.210   2.879   2.668 -0.3623 -0.1779  0.9454
  386TIP3    H1 1164   4.119   2.870   2.698  0.1769 -2.5208  2.0802
  386TIP3    H2 1165   4.255   2.922   2.741  0.0030 -1.6690  1.6255
  387TIP3   OH2 1166   4.239   4.217   0.735  0.2752 -0.0326  0.6051
  387TIP3    H1 1167   4.305   4.259   0.789  1.6742  0.5112 -1.4513
  387TIP3    H2 1168   4.229   4.274   0.659 -0.5526 -1.4872 -0.4336
  388TIP3   OH2 1169   2.213   5.071   0.521 -0.0005 -0.0376  0.1152
  388TIP3    H1 1170   2.158   4.995   0.500  1.0424 -0.5375 -0.9043
  388TIP3    H2 1171   2.277   5.075   0.450 -0.0868  1.8703  0.0934
  389TIP3   OH2 1172   2.019   2.393   3.897  0.1510  0.2696 -0.0419
  389TIP3    H1 1173   2.032   2.315   3.952 -0.5984 -1.0906 -1.7331
  389TIP3    H2 1174   1.926   2.414   3.906  0.0320  0.0587 -0.7647
  390TIP3   OH2 1175   1.953   5.467   4.439  0.3043 -0.7287  0.3567
  390TIP3    H1 1176   1.964   5.547   4.387 -0.3831 -0.9164 -0.0791
  390TIP3    H2 1177   2.042   5.435   4.453  0.7183  0.8670  1.7252
  391TIP3   OH2 1178   0.749   3.226   4.816  0.4278  0.1772  0.2833
  391TIP3    H1 1179   0.813   3.206   4.747 -0.4091 -0.9249 -0.2136
  391TIP3    H2 1180   0.778   3.175   4.891  1.3081  1.3336  0.7486
  392TIP3   OH2 1181   1.760   1.538   4.296  0.4011 -0.2408 -0.1112
  392TIP3    H1 1182   1.706   1.490   4.359 -0.9428  0.1189 -0.9611
  392TIP3    H2 1183   1.807   1.603   4.350 -1.3658  0.6373  0.4615
  393TIP3   OH2 1184   0.542   3.742   4.958 -0.0042  0.5686 -0.2041
  393TIP3    H1 1185   0.637   3.752   4.953 -0.0874  1.2531 -0.3777
  393TIP3    H2 1186   0.530   3.652   4.991  0.6859  0.1774 -0.9738
  394TIP3   OH2 1187   0.548   5.398   3.054  0.2278  0.1753 -0.0154
  394TIP3    H1 1188   0.620   5.335   3.048 -0.8193 -0.8927 -3.0139
  394TIP3    H2 1189   0.591   5.484   3.050  1.4239 -0.3911  0.1426
  395TIP3   OH2 1190   2.491   2.648   4.086 -0.0704 -0.1803  0.0329
  395TIP3    H1 1191   2.580   2.616   4.098  0.5479  1.0202 -1.0955
  395TIP3    H2 1192   2.435   2.572   4.106  1.0267 -0.2647  3.3280
  396TIP3   OH2 1193   5.547   1.525   1.023  0.5951  0.1617 -0.1104
  396TIP3    H1 1194   5.583   1.444   1.060  0.1753  0.4821  1.0308
  396TIP3    H2 1195   5.453   1.520   1.039  0.6260  1.1105  0.4749
  397TIP3   OH2 1196   3.287   0.086   1.621 -0.6951  0.4477  0.0050
  397TIP3    H1 1197   3.303   0.045   1.706  1.4760  3.5703  1.2918
  397TIP3    H2 1198   3.370   0.080   1.575 -1.7479 -0.8827 -1.8230
  398TIP3   OH2 1199   3.539   0.202   3.191 -0.0054 -0.3630  0.7149
  398TIP3    H1 1200   3.555   0.123   3.243  1.0961  0.4080  1.5841
  398TIP3    H2 1201   3.500   0.264   3.253 -1.5370 -0.4308 -0.1302
  399TIP3   OH2 1202   4.981   5.034   0.359 -0.5870 -0.4052 -0.6716
  399TIP3    H1 1203   4.980   4.950   0.404  1.9800  0.2694  0.8394
  399TIP3    H2 1204   5.038   5.020   0.283 -0.7826 -0.2032 -0.8598
  400TIP3   OH2 1205   0.645   0.480   4.195 -0.7178  0.7135  0.1447
  400TIP3    H1 1206   0.703   0.506   4.267  0.2282  0.1617 -0.3986
  400TIP3    H2 1207   0.670   0.390   4.176 -1.2264  0.7285 -0.6251
  401TIP3   OH2 1208   0.594   3.027   0.709  0.4841 -0.6527  0.2360
  401TIP3    H1 1209   0.682   3.046   0.675  0.9372 -1.2798  1.0321
  401TIP3    H2 1210   0.604   3.030   0.805 -0.3064 -0.9937  0.3380
  402TIP3   OH2 1211   3.751   2.564   0.631 -0.4925 -0.2967 -0.0750
  402TIP3    H1 1212   3.782   2.528   0.548  0.0167  0.2920 -0.1435
  402TIP3    H2 1213   3.672   2.513   0.651  1.3312 -2.9858  0.9338
  403TIP3   OH2 1214   0.415   3.822   4.725  0.2298  0.2502  0.2946
  403TIP3    H1 1215   0.387   3.752   4.667  1.1500 -0.4658  0.6945
  403TIP3    H2 1216   0.442   3.778   4.806  2.2976  0.8823  0.0089
  404TIP3   OH2 1217   5.198   4.473   4.588 -0.0303 -0.0555 -0.0499
  404TIP3    H1 1218   5.205   4.394   4.534  2.4365 -0.4532  0.7254
  404TIP3    H2 1219   5.203   4.442   4.678  0.5918  0.9443  0.2805
  405TIP3   OH2 1220   5.944   5.626   3.859 -0.3491 -0.2943  0.0867
  405TIP3    H1 1221   6.027   5.659   3.894 -0.0323 -1.2307  0.2426
  405TIP3    H2 1222   5.880   5.692   3.884  0.4349  0.7254 -0.5223
  406TIP3   OH2 1223   4.262   0.029   0.729  0.3521  0.0768 -0.0039
  406TIP3    H1 1224   4.317   0.005   0.804  2.5620  0.0908 -1.5321
  406TIP3    H2 1225   4.223   0.112   0.755  2.8889  1.2698  0.3245
  407TIP3   OH2 1226   1.829   5.098   1.666  1.0711  0.1771  0.3321
  407TIP3    H1 1227   1.838   5.191   1.686  0.4613  0.4039 -0.4098
  407TIP3    H2 1228   1.758   5.068   1.722  0.6919  0.3553 -0.0541
  408TIP3   OH2 1229   0.380   0.205   1.654  0.4364  0.7950 -0.4273
  408TIP3    H1 1230   0.444   0.144   1.693 -0.4662 -0.7828 -1.3118
  408TIP3    H2 1231   0.296   0.162   1.667 -0.1471  1.4950 -1.7787
  409TIP3   OH2 1232   4.961   0.486   0.409 -0.0897  0.5435  0.4149
  409TIP3    H1 1233   5.016   0.542   0.465  0.1242 -0.4686  1.2426
  409TIP3    H2 1234   4.873   0.497   0.445  0.2738 -1.3672  2.0896
  410TIP3   OH2 1235   0.471   3.098   5.119  0.1614 -0.7500 -0.0158
  410TIP3    H1 1236   0.431   3.043   5.186  1.8383 -1.2372  0.6543
  410TIP3    H2 1237   0.515   3.036   5.061 -0.5444 -0.2758 -1.0775
  411TIP3   OH2 1238   2.088   3.130   0.602  0.4289  0.1057 -0.1491
  411TIP3    H1 1239   2.007   3.085   0.626 -0.0096  0.8188 -0.2789
  411TIP3    H2 1240   2.157   3.074   0.637 -0.0608 -1.1443 -1.0721
  412TIP3   OH2 1241   4.961   4.040   4.810 -0.3845 -0.1988 -0.3815
  412TIP3    H1 1242   4.978   3.965   4.753  0.3282 -0.8292  0.6449
  412TIP3    H2 1243   4.937   4.110   4.750 -0.0308 -0.9546 -1.4312
  413TIP3   OH2 1244   5.717   2.132   1.451  0.0969 -0.5986 -0.4274
  413TIP3    H1 1245   5.626   2.158   1.435 -0.4088 -1.3623  0.9886
  413TIP3    H2 1246   5.746   2.095   1.368 -0.5053  0.6541 -1.2311
  414TIP3   OH2 1247   2.065   0.119   4.240  0.0892 -0.1726  0.1097
  414TIP3    H1 1248   2.143   0.095   4.190 -0.1558  0.7877 -0.7756
  414TIP3    H2 1249   2.083   0.090   4.329  1.0744 -0.7794 -0.2778
  415TIP3   OH2 1250   4.606   2.277   0.544 -0.0649  0.2455  0.2239
  415TIP3    H1 1251   4.557   2.232   0.475 -1.2921  0.1868  1.0995
  415TIP3    H2 1252   4.697   2.254   0.528 -0.2813  0.4962 -1.5635
  416TIP3   OH2 1253   4.113   3.067   4.857  0.1983 -0.3780  0.0325
  416TIP3    H1 1254   4.152   3.152   4.838 -0.1477  0.3214  2.1981
  416TIP3    H2 1255   4.188   3.007   4.860  0.6970  0.2577  0.5629
  417TIP3   OH2 1256   3.520   4.570   1.692  0.2538 -0.2983  0.0638
  417TIP3    H1 1257   3.601   4.613   1.662  0.9729 -3.2008 -2.6894
  417TIP3    H2 1258   3.452   4.607   1.637 -0.0197  0.7489  1.0654
  418TIP3   OH2 1259   4.648   2.338   4.134 -0.1842 -0.5398 -0.3888
  418TIP3    H1 1260   4.704   2.371   4.205 -1.6174  1.0996  0.0394
  418TIP3    H2 1261   4.629   2.247   4.159 -1.2671  0.2162  1.7834
  419TIP3   OH2 1262   4.610   0.564   4.177 -0.4079  0.5360  0.6125
  419TIP3    H1 1263   4.528   0.604   4.151 -0.2645 -1.0039 -2.6738
  419TIP3    H2 1264   4.590   0.471   4.189  0.9358 -0.0405 -1.1535
  420TIP3   OH2 1265   6.335   0.703   2.862 -0.1104  0.2245  0.4518
  420TIP3    H1 1266   6.371   0.791   2.877 -0.6029  0.3852  0.7033
  420TIP3    H2 1267   6.294   0.680   2.944 -0.6048  0.0500  0.1571
  421TIP3   OH2 1268   0.191   2.412   2.823  0.1866 -0.8514 -0.2530
  421TIP3    H1 1269   0.124   2.344   2.826 -0.6292 -0.0505  0.2904
  421TIP3    H2 1270   0.273   2.366   2.842 -0.6341 -1.3626  2.5456
  422TIP3   OH2 1271   4.069   5.834   1.792  0.8881 -0.0159  0.1182
  422TIP3    H1 1272   4.018   5.842   1.873  1.2092  0.2679  0.2954
  422TIP3    H2 1273   4.019   5.883   1.727  0.9770  0.3461  0.3157
  423TIP3   OH2 1274   4.720   3.247   3.294 -0.3057 -0.1514  0.0232
  423TIP3    H1 1275   4.789   3.257   3.228 -1.1722  0.2789 -0.8450
  423TIP3    H2 1276   4.729   3.157   3.325 -0.2144 -0.5372 -1.0800
  424TIP3   OH2 1277   1.162   2.204   4.755  0.4112  0.2862  0.2280
  424TIP3    H1 1278   1.226   2.238   4.818  0.5229  0.7422 -0.1249
  424TIP3    H2 1279   1.172   2.109   4.761  1.3890  0.3547 -0.0789
  425TIP3   OH2 1280   3.277   3.363   5.093  0.2035 -0.3328 -0.4720
  425TIP3    H1 1281   3.286   3.423   5.167  0.4446  0.9006 -1.4680
  425TIP3    H2 1282   3.221   3.410   5.031 -1.1303 -1.9020 -0.5167
  426TIP3   OH2 1283   3.615   1.332   5.091 -0.1681 -0.2999 -0.3717
  426TIP3    H1 1284   3.699   1.377   5.101 -0.2791  0.4386 -2.2340
  426TIP3    H2 1285   3.607   1.318   4.996 -2.7111  0.8176 -0.3946
  427TIP3   OH2 1286   5.130   0.114   4.521  0.7582  0.1871  1.0681
  427TIP3    H1 1287   5.129   0.207   4.500 -1.3523 -0.1413 -0.7133
  427TIP3    H2 1288   5.119   0.111   4.617  1.2049  1.7506  1.1964
  428TIP3   OH2 1289   4.067   1.361   1.392  0.0481 -0.4388  0.1600
  428TIP3    H1 1290   4.064   1.447   1.350 -0.9038 -0.2727  0.5398
  428TIP3    H2 1291   4.088   1.378   1.483  0.3099 -0.6505  0.1414
  429TIP3   OH2 1292   4.752   0.340   3.956 -0.4618  0.1931 -0.1820
  429TIP3    H1 1293   4.697   0.266   3.930  0.4125 -0.6266  0.1907
  429TIP3    H2 1294   4.708   0.378   4.032 -0.8516 -0.0300 -0.2936
  430TIP3   OH2 1295   6.233   3.337   0.682  0.3064 -0.0125  0.8850
  430TIP3    H1 1296   6.266   3.404   0.742 -1.0106  1.8586 -0.3509
  430TIP3    H2 1297   6.153   3.305   0.725 -1.0452  1.8465 -0.0577
  431TIP3   OH2 1298   0.848   5.889   3.421  0.3324  0.2129 -0.2065
  431TIP3    H1 1299   0.903   5.935   3.484 -0.5752 -0.7388  1.3353
  431TIP3    H2 1300   0.910   5.837   3.369  1.0781  0.8816 -0.0048
  432TIP3   OH2 1301   4.908   3.476   3.933 -0.2055  0.1029 -0.0668
  432TIP3    H1 1302   4.858   3.447   3.857  0.5719 -0.6469 -0.3079
  432TIP3    H2 1303   4.860   3.552   3.965  0.4780  1.6396 -2.4356
  433TIP3   OH2 1304   2.392   3.033   1.059 -0.3438  0.1764 -0.3886
  433TIP3    H1 1305   2.319   3.090   1.036 -0.6628 -0.3174 -0.6112
  433TIP3    H2 1306   2.459   3.051   0.992  0.3069  1.6291  0.5829
  434TIP3   OH2 1307   5.161   2.815   3.721  0.4264  0.1262  0.4548
  434TIP3    H1 1308   5.125   2.796   3.634  1.2237  0.1944  0.0969
  434TIP3    H2 1309   5.102   2.882   3.757  0.1671  0.1962 -0.0861
  435TIP3   OH2 1310   2.897   5.310   1.779 -0.2046  0.7562  0.3644
  435TIP3    H1 1311   2.943   5.307   1.696  0.5903  0.2235  0.8068
  435TIP3    H2 1312   2.930   5.234   1.828 -1.6857  0.2551  0.6356
  436TIP3   OH2 1313   4.092   0.895   3.329 -0.4283  0.0552  0.0680
  436TIP3    H1 1314   4.024   0.836   3.298  0.8100 -1.3249 -0.1726
  436TIP3    H2 1315   4.166   0.837   3.349  0.8562  1.5276 -0.2016
  437TIP3   OH2 1316   5.181   2.318   1.374 -0.2468 -0.0688 -0.3781
  437TIP3    H1 1317   5.129   2.328   1.454  0.7610  0.2741  0.2493
  437TIP3    H2 1318   5.264   2.282   1.403  0.3516  0.5932 -1.1884
  438TIP3   OH2 1319   2.002   3.009   4.637 -0.0117 -0.3684 -0.1183
  438TIP3    H1 1320   1.936   3.001   4.569  0.2593 -0.1341 -0.4138
  438TIP3    H2 1321   2.042   2.922   4.643 -1.1618 -0.8529  0.9154
  439TIP3   OH2 1322   3.025   5.915   0.518 -0.2102 -0.0962  0.3956
  439TIP3    H1 1323   3.034   5.866   0.600 -1.3120 -0.6105  0.2343
  439TIP3    H2 1324   2.969   5.990   0.540 -0.0101  0.0962  0.2508
  440TIP3   OH2 1325   6.301   1.870   0.720  0.4262 -0.0331 -0.6073
  440TIP3    H1 1326   6.370   1.915   0.768  0.1834  1.5969 -1.7000
  440TIP3    H2 1327   6.315   1.895   0.628 -0.4343 -1.2656 -1.1016
  441TIP3   OH2 1328   1.630   4.887   4.477 -0.7263  0.8031  0.2924
  441TIP3    H1 1329   1.568   4.835   4.427 -0.4196  1.0304 -0.3276
  441TIP3    H2 1330   1.580   4.917   4.553 -0.3495 -2.1619  1.8476
  442TIP3   OH2 1331   2.013   0.380   2.407  0.5269  0.2430  0.4478
  442TIP3    H1 1332   2.018   0.350   2.498  1.0386  0.5255  0.5152
  442TIP3    H2 1333   1.960   0.459   2.410  0.1312 -0.0232  0.4326
  443TIP3   OH2 1334   5.229   5.315   0.794  0.1577  0.0363  0.8283
  443TIP3    H1 1335   5.171   5.245   0.766  0.1318 -0.8087  2.8257
  443TIP3    H2 1336   5.299   5.316   0.728 -0.3026 -1.2804  0.2906
  444TIP3   OH2 1337   4.618   4.788   0.146  0.5695 -0.6358 -0.1567
  444TIP3    H1 1338   4.669   4.736   0.084 -0.5279 -1.3311 -0.4956
  444TIP3    H2 1339   4.531   4.795   0.106  0.2206  0.0183  0.6878
  445TIP3   OH2 1340   0.380   2.471   1.279 -0.3264  0.0406  0.3004
  445TIP3    H1 1341   0.454   2.533   1.277 -0.7522  0.6652  2.0003
  445TIP3    H2 1342   0.378   2.434   1.191  1.9013  0.1313  0.1410
  446TIP3   OH2 1343   3.201   2.192   0.617 -0.5572 -0.2851  0.4301
  446TIP3    H1 1344   3.130   2.130   0.630 -0.6961 -0.2939 -0.3382
  446TIP3    H2 1345   3.254   2.185   0.697 -0.2923 -1.7392  0.1527
  447TIP3   OH2 1346   0.850   0.492   2.438  0.1345 -0.3459  0.3909
  447TIP3    H1 1347   0.889   0.409   2.413  0.2079 -0.5286  1.0882
  447TIP3    H2 1348   0.919   0.538   2.486 -0.7523 -1.0582  2.4651
  448TIP3   OH2 1349   5.539   4.201   0.035 -0.1987  0.1624 -0.4094
  448TIP3    H1 1350   5.474   4.268   0.053  0.8779  1.0927  0.1341
  448TIP3    H2 1351   5.618   4.250   0.013  0.5095 -0.9371 -0.3739
  449TIP3   OH2 1352   3.885   5.908   0.516 -0.0312  0.5171 -0.0925
  449TIP3    H1 1353   3.842   5.830   0.551  0.4721  0.8716  1.3768
  449TIP3    H2 1354   3.954   5.874   0.459 -0.4793 -0.0855 -0.2825
  450TIP3   OH2 1355   2.048   3.953  -0.010  0.4461  0.2265  0.0255
  450TIP3    H1 1356   2.084   3.989   0.071 -0.8146 -0.9717  1.1562
  450TIP3    H2 1357   2.096   3.871  -0.023  0.6653  0.4277 -0.4816
  451TIP3   OH2 1358   2.569   4.323   1.504 -0.2805 -0.1322  0.5619
  451TIP3    H1 1359   2.639   4.389   1.512 -0.2096 -0.2524  0.9360
  451TIP3    H2 1360   2.615   4.242   1.483 -0.3506 -0.1060  0.3077
  452TIP3   OH2 1361   5.096   4.907   3.222 -0.3911  0.2839  0.2543
  452TIP3    H1 1362   5.124   4.950   3.142 -0.9900 -1.1596 -0.7644
  452TIP3    H2 1363   5.139   4.956   3.292 -0.1603  1.8039 -0.9081
  453TIP3   OH2 1364   4.234   0.175   3.632  0.4918  0.1733  0.0575
  453TIP3    H1 1365   4.197   0.264   3.629  1.4156  0.5677 -0.0077
  453TIP3    H2 1366   4.329   0.189   3.635  0.6348 -0.8129  0.3182
  454TIP3   OH2 1367   3.304   4.789   1.021  0.3071  0.0867  0.1647
  454TIP3    H1 1368   3.225   4.841   1.004  0.1843  0.2283  1.0740
  454TIP3    H2 1369   3.308   4.726   0.950 -1.6958 -1.1837  1.0812
  455TIP3   OH2 1370   6.033   0.403   3.245 -0.0788 -0.2872 -0.2973
  455TIP3    H1 1371   6.074   0.484   3.214 -0.1363 -0.2530 -0.2840
  455TIP3    H2 1372   6.038   0.409   3.340  2.3242 -1.5151 -0.2714
  456TIP3   OH2 1373   2.043   2.450   2.703  0.0391 -0.3379  0.0788
  456TIP3    H1 1374   2.072   2.416   2.788  0.0435 -1.6383 -0.4307
  456TIP3    H2 1375   2.106   2.520   2.684 -1.7791  2.1993  2.5755
  457TIP3   OH2 1376   2.960   1.043   3.000 -0.3681 -0.1629 -0.3281
  457TIP3    H1 1377   2.880   1.095   3.003  0.0608  0.5060 -0.3135
  457TIP3    H2 1378   3.005   1.073   2.922 -0.1431 -0.5589 -0.3527
  458TIP3   OH2 1379   0.742   5.670   0.839  0.3347  0.1228 -0.2712
  458TIP3    H1 1380   0.774   5.580   0.845  0.4981  0.2263  0.5517
  458TIP3    H2 1381   0.647   5.662   0.842  0.3618  0.0237  0.8036
  459TIP3   OH2 1382   2.247   5.539   3.771  0.7506  0.2502 -0.1121
  459TIP3    H1 1383   2.317   5.478   3.795  1.3177  0.6810 -0.6689
  459TIP3    H2 1384   2.209   5.566   3.855  1.0226 -0.2438  0.1750
  460TIP3   OH2 1385   5.690   2.199   2.322 -0.1929 -0.1803  0.2088
  460TIP3    H1 1386   5.782   2.222   2.309  0.3969 -1.0287  2.3600
  460TIP3    H2 1387   5.681   2.194   2.417 -2.3599 -0.5685  0.0159
  461TIP3   OH2 1388   6.321   2.176   0.502 -0.1040  0.2485 -0.1462
  461TIP3    H1 1389   6.380   2.108   0.535 -1.1107 -1.2969 -1.3627
  461TIP3    H2 1390   6.248   2.127   0.464 -0.8390  2.0254 -1.1253
  462TIP3   OH2 1391   2.833   3.177   3.732 -0.3711  0.3538  0.4984
  462TIP3    H1 1392   2.772   3.137   3.670 -0.1056  0.1311  0.3815
  462TIP3    H2 1393   2.887   3.235   3.679 -0.2488  0.2838  0.5458
  463TIP3   OH2 1394   1.808   0.082   3.267 -0.6432 -0.2596 -0.0690
  463TIP3    H1 1395   1.767   0.094   3.353  0.1490  1.3505  0.1255
  463TIP3    H2 1396   1.811  -0.013   3.255 -0.7348 -0.5261  1.7057
  464TIP3   OH2 1397   0.299   0.563   3.024 -0.2080  0.6702  0.5897
  464TIP3    H1 1398   0.234   0.496   3.003  1.3378 -0.8281  0.4205
  464TIP3    H2 1399   0.372   0.515   3.061  0.6225  2.3760  1.2821
  465TIP3   OH2 1400   3.972   4.878   3.620  0.1888 -0.5242 -0.5754
  465TIP3    H1 1401   3.890   4.900   3.577 -0.3141 -1.3203 -0.0601
  465TIP3    H2 1402   3.949   4.870   3.713  0.9673 -0.1812 -0.3457
  466TIP3   OH2 1403   2.299   2.421   4.133 -0.1385 -0.1449 -0.0750
  466TIP3    H1 1404   2.285   2.335   4.094 -1.6426 -0.9373  2.0330
  466TIP3    H2 1405   2.281   2.408   4.226  2.8247  1.7189  0.9114
  467TIP3   OH2 1406   2.171   5.885   0.975  0.2030  0.3247  0.2400
  467TIP3    H1 1407   2.178   5.796   0.940  2.4376  0.3392  0.4875
  467TIP3    H2 1408   2.082   5.892   1.007 -0.4455 -1.3342 -1.0888
  468TIP3   OH2 1409   1.544   0.191   2.888  0.5289 -0.2307  0.0498
  468TIP3    H1 1410   1.605   0.198   2.961 -0.5056  1.1611  0.8131
  468TIP3    H2 1411   1.589   0.234   2.815  1.1071 -0.6492  0.1509
  469TIP3   OH2 1412   0.587   0.430   4.751 -0.2544 -0.1371 -0.7040
  469TIP3    H1 1413   0.536   0.362   4.706 -0.6399 -0.7296  0.5617
  469TIP3    H2 1414   0.678   0.405   4.738 -0.2599  0.5953 -2.4770
  470TIP3   OH2 1415   5.078   1.259   4.515 -0.2296  0.7600 -0.0934
  470TIP3    H1 1416   5.109   1.170   4.498 -1.5126  0.3836 -0.5762
  470TIP3    H2 1417   5.049   1.257   4.606 -0.5571  0.5837 -0.1987
  471TIP3   OH2 1418   5.365   4.912   2.055  0.4194  0.0630  0.2119
  471TIP3    H1 1419   5.316   4.919   1.973 -0.3102 -0.7767  0.5540
  471TIP3    H2 1420   5.453   4.887   2.029  0.2961  0.1844 -0.3343
  472TIP3   OH2 1421   0.520   2.717   2.651 -0.1264 -0.0366  0.2708
  472TIP3    H1 1422   0.493   2.731   2.561  1.6281  1.0961 -0.1155
  472TIP3    H2 1423   0.581   2.643   2.647 -0.4877 -0.3580  0.6172
  473TIP3   OH2 1424   6.085   0.547   2.761  0.6751 -0.0840  0.0883
  473TIP3    H1 1425   6.020   0.562   2.692  0.8658 -0.9647 -0.2917
  473TIP3    H2 1426   6.166   0.527   2.714  1.1763  0.7734  0.5625
  474TIP3   OH2 1427   5.413   3.711   3.664 -0.3962  0.2070 -0.0839
  474TIP3    H1 1428   5.422   3.687   3.756 -0.5770  0.9685  0.1418
  474TIP3    H2 1429   5.386   3.631   3.621 -2.7396  0.3603  0.9185
  475TIP3   OH2 1430   4.270   4.737   4.733 -0.0927  0.0365  0.0559
  475TIP3    H1 1431   4.362   4.711   4.740  0.2003  0.3793 -1.8915
  475TIP3    H2 1432   4.223   4.655   4.719 -0.0232 -0.0982  0.6159
  476TIP3   OH2 1433   3.926   2.231   1.219  0.6213  0.0543  0.4397
  476TIP3    H1 1434   3.954   2.306   1.167 -0.4169 -0.1107 -0.3936
  476TIP3    H2 1435   3.993   2.222   1.287  0.9489  1.5035  0.3303
  477TIP3   OH2 1436   5.644   5.929   4.447  0.5782 -0.1697 -0.4894
  477TIP3    H1 1437   5.605   5.977   4.375  1.8883  0.4301 -0.8414
  477TIP3    H2 1438   5.590   5.850   4.457 -0.0155  0.0764 -1.6668
  478TIP3   OH2 1439   3.049   4.371   1.100 -0.6779 -0.2806  0.0780
  478TIP3    H1 1440   3.125   4.429   1.097 -0.9631  0.1576  1.0808
  478TIP3    H2 1441   3.086   4.283   1.111 -0.2204 -0.3831 -1.9462
  479TIP3   OH2 1442   4.049   0.170   3.389  0.3395  0.6102 -0.2108
  479TIP3    H1 1443   4.119   0.166   3.454  0.9812  1.9710 -0.7812
  479TIP3    H2 1444   4.095   0.171   3.305 -0.4481 -0.3736 -0.6659
  480TIP3   OH2 1445   4.626   1.728   4.069  0.1404  0.0302  0.3393
  480TIP3    H1 1446   4.604   1.733   3.976  0.4811  0.7963  0.2918
  480TIP3    H2 1447   4.713   1.688   4.071 -0.4794 -1.3423  0.4221
  481TIP3   OH2 1448   0.048   5.422   1.379  0.4240 -0.0093  0.3182
  481TIP3    H1 1449   0.006   5.487   1.434 -0.9286 -0.4413 -0.1754
  481TIP3    H2 1450   0.062   5.347   1.437  2.2896  0.7787  0.9777
  482TIP3   OH2 1451   2.581   0.709   2.096 -0.2188  0.3972  0.1012
  482TIP3    H1 1452   2.623   0.623   2.099 -0.0545  0.3005 -2.3078
  482TIP3    H2 1453   2.488   0.691   2.109 -0.3138 -0.3277 -1.3284
  483TIP3   OH2 1454   4.336   3.328   1.633  0.2250  0.3146  0.3100
  483TIP3    H1 1455   4.289   3.311   1.714  0.7525  1.7304  0.9531
  483TIP3    H2 1456   4.408   3.386   1.658  1.6347 -0.8476 -0.8321
  484TIP3   OH2 1457   0.118   3.689   2.965 -0.1283  0.4709  0.5651
  484TIP3    H1 1458   0.173   3.651   2.896 -0.6931  0.7730 -0.0698
  484TIP3    H2 1459   0.032   3.699   2.924 -0.4073  0.8908  1.2379
  485TIP3   OH2 1460   4.768   5.156   0.613  0.1670  0.3876 -0.0793
  485TIP3    H1 1461   4.704   5.134   0.680  1.7288  1.1694  1.7822
  485TIP3    H2 1462   4.743   5.244   0.583 -0.3481  0.1674 -0.2965
  486TIP3   OH2 1463   0.607   5.392   2.082  0.3008  0.0269 -0.5632
  486TIP3    H1 1464   0.594   5.486   2.068  0.8135  0.3910  1.1698
  486TIP3    H2 1465   0.670   5.367   2.015 -2.1511  0.1908 -3.0968
  487TIP3   OH2 1466   3.228   3.020   2.335  0.3948 -0.0133 -0.4247
  487TIP3    H1 1467   3.223   2.935   2.291  1.4610 -0.1472 -0.3104
  487TIP3    H2 1468   3.217   3.000   2.428  2.1276 -0.2271 -0.2416
  488TIP3   OH2 1469   6.145   0.630   3.092 -0.2053  0.3619 -0.6424
  488TIP3    H1 1470   6.057   0.620   3.057 -0.5436 -0.1935  0.3358
  488TIP3    H2 1471   6.140   0.709   3.146 -0.5362 -0.5078  0.6463
  489TIP3   OH2 1472   0.799   0.466   3.833  0.4799  0.2919  0.3479
  489TIP3    H1 1473   0.756   0.381   3.844  1.2625  0.0363  1.6768
  489TIP3    H2 1474   0.867   0.450   3.768 -1.2725  0.6771 -1.7041
  490TIP3   OH2 1475   5.258   4.735   1.293  0.1415  0.2353 -0.1278
  490TIP3    H1 1476   5.328   4.713   1.353  0.3943  1.1338 -0.0723
  490TIP3    H2 1477   5.302   4.784   1.222 -0.7105  3.1940  1.2134
  491TIP3   OH2 1478   1.393   5.774   3.510 -0.1439 -0.5204 -0.2537
  491TIP3    H1 1479   1.370   5.788   3.602 -0.1929  0.9841 -0.4626
  491TIP3    H2 1480   1.386   5.680   3.498 -2.3923 -0.5495  0.7180
  492TIP3   OH2 1481   2.049   2.416   1.930 -0.0418  0.2874 -0.1574
  492TIP3    H1 1482   2.091   2.492   1.971 -2.3743  0.6022  1.8575
  492TIP3    H2 1483   2.051   2.348   1.997  0.4581 -0.9056 -1.3329
  493TIP3   OH2 1484   5.051   4.643   1.139  0.0234  0.3147  0.3451
  493TIP3    H1 1485   5.125   4.590   1.169  0.4411  1.1804  0.8643
  493TIP3    H2 1486   4.996   4.654   1.216 -0.3846  0.1086  0.0842
  494TIP3   OH2 1487   0.153   0.959   0.640  0.4115  0.2174  0.2301
  494TIP3    H1 1488   0.175   1.038   0.689 -1.0378  0.9445 -0.2337
  494TIP3    H2 1489   0.146   0.891   0.706 -0.1770  0.8915  0.8805
  495TIP3   OH2 1490   5.945   2.294   4.708  0.6897  0.4022  0.1287
  495TIP3    H1 1491   6.013   2.346   4.665  0.3502  0.6272 -0.1388
  495TIP3    H2 1492   5.993   2.239   4.771  0.9546  1.6489  1.0424
  496TIP3   OH2 1493   5.625   3.672   0.397  0.6123  0.2157 -0.5592
  496TIP3    H1 1494   5.631   3.662   0.492  0.5390  0.9080 -0.4706
  496TIP3    H2 1495   5.702   3.725   0.374 -0.5154  1.9150 -0.5754
  497TIP3   OH2 1496   4.401   4.769   5.104  0.2637  0.0751  0.7172
  497TIP3    H1 1497   4.429   4.731   5.020  2.6122  1.5891  0.7488
  497TIP3    H2 1498   4.445   4.716   5.170 -0.2126 -0.0453  0.9400
  498TIP3   OH2 1499   3.604   3.430   5.114 -0.4011 -0.3717  0.5357
  498TIP3    H1 1500   3.513   3.447   5.137 -1.3822 -1.4356 -2.1336
  498TIP3    H2 1501   3.652   3.506   5.148 -2.0510 -0.3022  2.9666
  499TIP3   OH2 1502   0.205   0.470   4.260  0.1018 -0.3364  0.1168
  499TIP3    H1 1503   0.281   0.517   4.227 -0.5675 -0.5042 -1.7545
  499TIP3    H2 1504   0.130   0.512   4.219 -0.7651 -0.7864  1.1769
  500TIP3   OH2 1505   4.104   4.451   0.899  0.2055  0.4584  0.0846
  500TIP3    H1 1506   4.017   4.468   0.933 -0.7848  0.0324 -2.0545
  500TIP3    H2 1507   4.106   4.356   0.884  0.4244  0.6696 -1.3543
  501TIP3   OH2 1508   0.362   5.826   3.667  0.6989 -0.1542  0.3778
  501TIP3    H1 1509   0.450   5.789   3.655  0.7063 -0.4215  1.2305
  501TIP3    H2 1510   0.328   5.833   3.578  0.7607 -2.0783  0.1531
  502TIP3   OH2 1511   3.649   0.847   2.888  0.1008  0.6918 -0.2968
  502TIP3    H1 1512   3.730   0.898   2.896  0.7619 -0.1293 -1.3942
  502TIP3    H2 1513   3.663   0.770   2.942 -0.5627  1.2491  0.6954
  503TIP3   OH2 1514   0.773   0.122   4.965  0.5367 -0.0952 -0.1900
  503TIP3    H1 1515   0.851   0.095   5.013 -0.1828  0.2831  1.2417
  503TIP3    H2 1516   0.701   0.077   5.010 -0.1863  0.4173 -0.8111
  504TIP3   OH2 1517   1.194   3.682   3.633  0.1091 -0.6053 -0.1042
  504TIP3    H1 1518   1.127   3.630   3.678  0.5123 -1.6804 -0.7275
  504TIP3    H2 1519   1.248   3.718   3.704 -0.1315 -1.0921  0.3281
  505TIP3   OH2 1520   4.934   5.244   2.708 -0.3703  0.2280 -0.4759
  505TIP3    H1 1521   4.870   5.294   2.658  1.5303  2.5016 -0.8206
  505TIP3    H2 1522   5.003   5.223   2.645  0.8992  0.9837  0.6201
  506TIP3   OH2 1523   6.319   5.084   3.027 -0.2390  0.3126  0.0415
  506TIP3    H1 1524   6.273   5.073   3.110 -0.5650 -0.5753 -0.2433
  506TIP3    H2 1525   6.410   5.098   3.052 -0.4606  0.8281  0.5723
  507TIP3   OH2 1526   1.179   5.909   0.024  0.0530  0.2798  0.3697
  507TIP3    H1 1527   1.107   5.912  -0.038  0.2800 -2.7425 -0.2203
  507TIP3    H2 1528   1.137   5.897   0.109 -0.1737  0.7257  0.3218
  508TIP3   OH2 1529   5.701   0.671   1.585  0.1587 -0.1303  0.6291
  508TIP3    H1 1530   5.710   0.727   1.662  3.9956  2.0105 -1.0942
  508TIP3    H2 1531   5.717   0.583   1.617  2.2030  0.7697  2.2731
  509TIP3   OH2 1532   3.560   0.406   0.670 -0.8349  0.3159 -0.4724
  509TIP3    H1 1533   3.481   0.369   0.629  0.8899 -1.6694 -2.2090
  509TIP3    H2 1534   3.606   0.448   0.597  0.7532 -0.4743  0.0493
  510TIP3   OH2 1535   0.097   5.697   2.307  0.0589 -0.8062  0.1099
  510TIP3    H1 1536   0.183   5.657   2.326 -0.1398 -1.1418  0.3241
  510TIP3    H2 1537   0.083   5.681   2.214  0.3663 -0.4763  0.0022
  511TIP3   OH2 1538   5.250   4.544   0.671  0.5346  0.0364 -0.5261
  511TIP3    H1 1539   5.201   4.586   0.742 -0.1241  0.9293 -1.4769
  511TIP3    H2 1540   5.317   4.493   0.716 -0.2739  0.0480  0.7633
  512TIP3   OH2 1541   4.410   0.284   0.856  0.0254  0.0893 -0.1725
  512TIP3    H1 1542   4.452   0.324   0.780 -0.9422  1.5397  0.0048
  512TIP3    H2 1543   4.316   0.287   0.836 -0.1449 -1.1129  0.3477
  513TIP3   OH2 1544   1.277   2.234   3.130  0.3894 -0.4417  0.0149
  513TIP3    H1 1545   1.279   2.233   3.226 -0.3827 -0.9493  0.0347
  513TIP3    H2 1546   1.350   2.178   3.104  1.5614  0.9212  0.2737
  514TIP3   OH2 1547   6.051   5.735   2.970 -0.2633  0.3837 -0.2329
  514TIP3    H1 1548   6.146   5.731   2.969 -0.3114 -1.7384 -0.1203
  514TIP3    H2 1549   6.025   5.731   2.878 -0.2635 -1.6775 -0.1842
  515TIP3   OH2 1550   4.667   2.100   3.928 -0.3048  0.5272 -0.1814
  515TIP3    H1 1551   4.688   2.193   3.919 -0.0579  0.6422  1.3724
  515TIP3    H2 1552   4.748   2.054   3.905 -0.4512  0.6856 -1.0283
  516TIP3   OH2 1553   3.890   1.906   1.835  0.2039  0.2394 -0.1890
  516TIP3    H1 1554   3.827   1.978   1.845 -0.0288 -0.2226  2.3507
  516TIP3    H2 1555   3.836   1.828   1.826  0.4596  0.2640 -2.3605
  517TIP3   OH2 1556   5.234   5.630   5.120 -0.1292  0.0996 -0.3881
  517TIP3    H1 1557   5.286   5.695   5.072  0.2207 -0.4381 -0.7519
  517TIP3    H2 1558   5.296   5.590   5.181 -0.2082 -0.2746 -0.5515
  518TIP3   OH2 1559   1.381   1.157   1.896  0.6051  0.2156  0.9848
  518TIP3    H1 1560   1.311   1.220   1.914 -0.2316 -1.3301  3.6949
  518TIP3    H2 1561   1.460   1.200   1.928  0.8021  1.5040 -1.0450
  519TIP3   OH2 1562   3.360   1.040   1.357  0.4513  0.4698  0.2870
  519TIP3    H1 1563   3.437   1.074   1.403  0.5028 -0.4027  0.8643
  519TIP3    H2 1564   3.307   0.999   1.426  0.9347 -1.6249 -0.5296
  520TIP3   OH2 1565   3.223   0.692   1.301  0.7009 -0.2977  0.7896
  520TIP3    H1 1566   3.268   0.613   1.271  2.2084  0.6343  0.5084
  520TIP3    H2 1567   3.258   0.709   1.388  0.5410  0.1933  0.7622
  521TIP3   OH2 1568   1.989   1.813   0.841  0.2344 -0.1399  0.0828
  521TIP3    H1 1569   2.071   1.789   0.799  0.3622  2.7652 -1.5605
  521TIP3    H2 1570   2.013   1.880   0.905 -0.9170  1.6963 -1.3191
  522TIP3   OH2 1571   3.531   1.263   3.701  0.2426 -0.4750  0.0388
  522TIP3    H1 1572   3.581   1.343   3.687  1.0256 -1.1439 -1.0689
  522TIP3    H2 1573   3.440   1.292   3.702  0.5497  1.2339  5.0072
  523TIP3   OH2 1574   1.307   0.702   4.033 -0.3514 -0.3985 -0.8538
  523TIP3    H1 1575   1.365   0.757   4.085 -0.6707  0.0981 -1.0171
  523TIP3    H2 1576   1.219   0.735   4.051 -0.5435 -0.8226 -0.9941
  524TIP3   OH2 1577   1.033   4.831   5.040 -0.0336  0.2765 -0.0394
  524TIP3    H1 1578   0.983   4.758   5.005  0.6967  0.3858 -1.3797
  524TIP3    H2 1579   0.982   4.861   5.116 -1.6550 -0.0196 -0.9614
  525TIP3   OH2 1580   0.522   4.068   3.623  0.3932  0.3569  0.0220
  525TIP3    H1 1581   0.616   4.081   3.609  0.0848  2.2615 -0.6622
  525TIP3    H2 1582   0.511   4.073   3.718  0.9927  0.0148  0.1171
  526TIP3   OH2 1583   2.119   1.795   2.408 -0.0154  0.3806  0.0875
  526TIP3    H1 1584   2.167   1.779   2.489  0.9086  0.7914 -0.3725
  526TIP3    H2 1585   2.083   1.709   2.385  1.4401 -0.1989 -0.1479
  527TIP3   OH2 1586   2.155   0.112   0.879 -0.1553 -0.3923 -0.4899
  527TIP3    H1 1587   2.100   0.154   0.813 -1.5337 -1.0473  0.2065
  527TIP3    H2 1588   2.242   0.108   0.839 -0.5376  0.8868 -1.5226
  528TIP3   OH2 1589   5.139   2.471   0.362  0.2416 -0.1304 -0.3210
  528TIP3    H1 1590   5.171   2.553   0.400  1.2359 -0.5338 -0.2575
  528TIP3    H2 1591   5.144   2.408   0.434 -0.2080 -0.3266 -0.4602
  529TIP3   OH2 1592   1.543   0.713   2.115  0.8898 -0.2419 -0.8185
  529TIP3    H1 1593   1.578   0.676   2.196 -1.4830  1.3843  1.0947
  529TIP3    H2 1594   1.457   0.671   2.105 -0.2548  1.9084 -0.6209
  530TIP3   OH2 1595   2.126   3.068   3.443  0.2464  0.3748 -0.1072
  530TIP3    H1 1596   2.059   3.038   3.381  0.9310  0.4918 -0.9325
  530TIP3    H2 1597   2.190   3.113   3.388  1.5818 -0.7155  0.4813
  531TIP3   OH2 1598   2.210   0.931   4.018  0.0504  0.1410  0.2699
  531TIP3    H1 1599   2.240   0.916   3.928 -2.6460  0.9832 -0.9015
  531TIP3    H2 1600   2.148   0.860   4.035 -0.7327  0.9316  0.7955
  532TIP3   OH2 1601   1.566   3.674   2.851  0.5834 -0.3123  0.8709
  532TIP3    H1 1602   1.498   3.653   2.915 -1.0078  1.8069  0.0141
  532TIP3    H2 1603   1.542   3.626   2.772 -0.1157  0.6278  0.4913
  533TIP3   OH2 1604   1.142   0.883   1.138 -0.0094  0.4830 -0.4075
  533TIP3    H1 1605   1.081   0.853   1.205 -0.0175  1.4944  0.0484
  533TIP3    H2 1606   1.213   0.925   1.186 -0.5721  2.2490 -1.0456
  534TIP3   OH2 1607   4.589   3.727   4.535  0.0660  0.3465 -0.2488
  534TIP3    H1 1608   4.509   3.678   4.555  0.4518 -0.1021  0.2144
  534TIP3    H2 1609   4.562   3.792   4.470 -0.5955 -0.0482 -0.3756
  535TIP3   OH2 1610   4.869   1.281   3.396 -0.2795 -0.7323 -0.4817
  535TIP3    H1 1611   4.865   1.195   3.439  0.9358 -0.2652  0.6096
  535TIP3    H2 1612   4.849   1.343   3.466  1.0984  0.0025 -0.7167
  536TIP3   OH2 1613   2.250   2.028   0.640  0.2232  0.1850 -0.1517
  536TIP3    H1 1614   2.167   2.072   0.624  0.9854  1.7400  0.0520
  536TIP3    H2 1615   2.288   2.074   0.715  0.2234 -2.0244  1.2997
  537TIP3   OH2 1616   3.072   2.551   3.330 -0.0773  0.4868  0.7392
  537TIP3    H1 1617   3.140   2.578   3.392  1.3313  1.0771 -0.9715
  537TIP3    H2 1618   3.108   2.474   3.287 -1.9127 -1.1718  1.9914
  538TIP3   OH2 1619   0.217   4.614   4.618  0.0176  0.2276  0.0886
  538TIP3    H1 1620   0.292   4.635   4.562 -0.4761  0.7629 -0.3851
  538TIP3    H2 1621   0.148   4.589   4.557  0.0668 -1.1659  0.5602
  539TIP3   OH2 1622   6.082   1.012   1.657 -0.2008 -0.3886 -0.4749
  539TIP3    H1 1623   6.159   1.068   1.668  0.4178 -1.1459 -0.7851
  539TIP3    H2 1624   6.090   0.947   1.727 -0.3574 -0.6917 -0.7349
  540TIP3   OH2 1625   2.989   1.920   0.982 -0.2690  0.0655  0.3499
  540TIP3    H1 1626   3.068   1.868   0.998  0.8983  1.6577 -0.0139
  540TIP3    H2 1627   2.920   1.875   1.032  1.5376  0.4470  3.4639
  541TIP3   OH2 1628   2.090   5.219   3.290 -0.1414 -0.5229  0.3978
  541TIP3    H1 1629   2.071   5.210   3.196  0.7357 -0.7447  0.2315
  541TIP3    H2 1630   2.014   5.264   3.325  1.0106  2.9927 -1.1020
  542TIP3   OH2 1631   4.860   5.312   0.842 -0.1365  0.5787  0.2509
  542TIP3    H1 1632   4.870   5.251   0.768  1.4411  1.0878  0.0030
  542TIP3    H2 1633   4.803   5.381   0.809 -0.0444  0.4228 -0.2449
  543TIP3   OH2 1634   4.403   2.716   5.118 -0.0885 -0.3845 -0.6529
  543TIP3    H1 1635   4.461   2.772   5.066  0.5092  0.8720  1.2581
  543TIP3    H2 1636   4.317   2.756   5.110 -0.0286 -0.2829 -0.7994
  544TIP3   OH2 1637   3.643   3.713   2.513  0.5914 -0.1208 -0.3112
  544TIP3    H1 1638   3.711   3.647   2.503  0.8810  0.2681 -0.9700
  544TIP3    H2 1639   3.633   3.723   2.607  0.5322 -1.1133 -0.1979
  545TIP3   OH2 1640   4.161   0.344   1.136  0.0701 -0.1977 -0.4116
  545TIP3    H1 1641   4.217   0.412   1.173 -1.3338 -0.0110  1.5206
  545TIP3    H2 1642   4.082   0.345   1.190 -0.4524 -2.6468 -0.9827
  546TIP3   OH2 1643   1.808   3.737   2.291 -0.7767 -0.0862 -0.2411
  546TIP3    H1 1644   1.876   3.801   2.309 -0.9792 -0.0458  0.4085
  546TIP3    H2 1645   1.768   3.720   2.376 -2.1800  0.5609 -0.7414
  547TIP3   OH2 1646   1.218   0.244   0.916 -0.4840 -0.2342 -0.0094
  547TIP3    H1 1647   1.198   0.297   0.840 -0.9876 -0.7406 -0.2408
  547TIP3    H2 1648   1.273   0.299   0.971  0.4247 -0.0954 -1.0395
  548TIP3   OH2 1649   5.607   0.444   0.866  0.2961  0.0798  0.3660
  548TIP3    H1 1650   5.673   0.505   0.898 -0.7030  1.4583 -0.1078
  548TIP3    H2 1651   5.558   0.418   0.944 -0.8018  1.8035  0.2996
  549TIP3   OH2 1652   6.163   2.757   1.876  0.4611 -0.7481  0.0139
  549TIP3    H1 1653   6.181   2.784   1.786  3.0346  0.4393  0.8144
  549TIP3    H2 1654   6.087   2.810   1.902  2.0520  1.8336 -0.2606
  550TIP3   OH2 1655   5.118   5.353   2.181  0.2241 -1.1796 -0.0111
  550TIP3    H1 1656   5.137   5.403   2.101  2.1556 -0.9829  0.5424
  550TIP3    H2 1657   5.178   5.279   2.178 -1.1158 -2.3214  0.2782
  551TIP3   OH2 1658   0.052  -0.003   2.451 -0.6734 -0.0676  0.3037
  551TIP3    H1 1659   0.014   0.065   2.507 -0.2594 -0.4096  1.0264
  551TIP3    H2 1660   0.127  -0.035   2.501  0.6474  0.6729 -1.1201
  552TIP3   OH2 1661   4.247   0.957   2.737 -0.5730  0.1477 -0.0856
  552TIP3    H1 1662   4.335   0.979   2.705 -0.3853 -0.4183  0.0346
  552TIP3    H2 1663   4.197   1.038   2.726  0.2492  0.8262  0.8635
  553TIP3   OH2 1664   6.120   1.224   4.080 -0.7173 -0.1254 -0.8107
  553TIP3    H1 1665   6.215   1.228   4.069 -0.7411 -1.8983 -1.9074
  553TIP3    H2 1666   6.085   1.267   4.003 -0.8359  1.0723 -0.1154
  554TIP3   OH2 1667   6.078   3.919   2.948  0.4629  0.0551  0.0969
  554TIP3    H1 1668   6.005   3.869   2.911 -0.9958  1.2095  1.2770
  554TIP3    H2 1669   6.156   3.871   2.921 -0.7406 -1.4701 -0.8550
  555TIP3   OH2 1670   5.110   0.811   1.342 -0.0528  0.1128  0.4140
  555TIP3    H1 1671   5.183   0.819   1.281 -0.0434  2.0397  0.6021
  555TIP3    H2 1672   5.113   0.720   1.372 -0.1769 -0.9692 -2.5453
  556TIP3   OH2 1673   0.026   5.033   1.759 -0.2784  0.0836  0.3422
  556TIP3    H1 1674   0.111   5.071   1.782 -0.9584  2.0490 -0.1991
  556TIP3    H2 1675  -0.018   5.021   1.843  0.2557 -0.2722  0.5748
  557TIP3   OH2 1676   4.513   3.369   4.533  0.3604 -0.5366  0.0565
  557TIP3    H1 1677   4.489   3.291   4.582 -1.1544  0.3874  0.8709
  557TIP3    H2 1678   4.579   3.412   4.588 -0.1490 -0.3325  0.5255
  558TIP3   OH2 1679   1.627   3.836   1.718 -0.5731  0.0457 -0.2470
  558TIP3    H1 1680   1.664   3.863   1.634  2.5107 -0.3954  0.8535
  558TIP3    H2 1681   1.571   3.761   1.696  1.2993 -0.9972 -1.8163
  559TIP3   OH2 1682   4.804   0.273   0.580 -0.5080  0.2636  0.4133
  559TIP3    H1 1683   4.889   0.276   0.623  0.6651 -0.7697 -1.6617
  559TIP3    H2 1684   4.752   0.213   0.634  0.1730  0.6178  1.5021
  560TIP3   OH2 1685   0.803   0.459   0.772 -0.1947 -0.1152 -0.2729
  560TIP3    H1 1686   0.814   0.365   0.766  0.0736 -0.3087  2.0753
  560TIP3    H2 1687   0.766   0.474   0.859  0.8809  2.0009 -0.0885
  561TIP3   OH2 1688   4.706   4.083   3.910 -0.1871  0.1872  0.4778
  561TIP3    H1 1689   4.613   4.103   3.896  0.2342  1.8412 -0.1019
  561TIP3    H2 1690   4.753   4.159   3.876  1.3868 -0.5303  0.9528
  562TIP3   OH2 1691   5.354   1.511   2.708 -0.3538 -0.0285  0.0167
  562TIP3    H1 1692   5.321   1.429   2.745 -1.5472  0.4919  0.1748
  562TIP3    H2 1693   5.431   1.486   2.658  0.0734 -1.0533  1.1315
  563TIP3   OH2 1694   5.105   2.603   5.061  0.4376  0.5383  0.6689
  563TIP3    H1 1695   5.094   2.563   5.147  2.2294 -0.5981  0.4287
  563TIP3    H2 1696   5.183   2.561   5.025 -0.1458  1.1366 -1.4364
  564TIP3   OH2 1697   5.177   5.879   4.808  0.0991  1.0553 -0.2497
  564TIP3    H1 1698   5.172   5.974   4.800  0.5915  0.9416 -2.5620
  564TIP3    H2 1699   5.086   5.852   4.823 -0.2849  1.7999 -1.1375
  565TIP3   OH2 1700   3.715   3.004   4.226  0.3780  0.1616  0.3508
  565TIP3    H1 1701   3.657   3.008   4.301 -1.3258  0.5118 -0.9197
  565TIP3    H2 1702   3.672   3.058   4.159  0.1883 -2.5950 -1.9497
  566TIP3   OH2 1703   4.562   2.344   3.213  0.3219 -0.1886 -0.2341
  566TIP3    H1 1704   4.529   2.304   3.294  0.7140  0.5723  0.3182
  566TIP3    H2 1705   4.642   2.295   3.194  0.9659  0.4879  0.6092
  567TIP3   OH2 1706   3.410   4.400   3.382  0.2533 -0.2696 -0.7419
  567TIP3    H1 1707   3.471   4.377   3.312 -0.2179  1.2921 -1.7230
  567TIP3    H2 1708   3.462   4.393   3.462  0.2282 -4.2820 -0.8872
  568TIP3   OH2 1709   6.334   3.241   1.988  0.5630  0.2216 -0.4290
  568TIP3    H1 1710   6.246   3.270   1.966  0.6522  0.0626 -1.0103
  568TIP3    H2 1711   6.326   3.203   2.076  0.1562  0.6575 -0.2728
  569TIP3   OH2 1712   2.796   2.818   3.835  0.0772 -0.1492  0.0997
  569TIP3    H1 1713   2.829   2.779   3.916  0.2604  1.0038  0.6091
  569TIP3    H2 1714   2.795   2.912   3.853 -2.6805 -0.0391 -0.1674
  570TIP3   OH2 1715   2.908   2.855   0.746 -0.3086  0.0539  0.2398
  570TIP3    H1 1716   2.939   2.771   0.779  0.1889 -0.1976 -0.8218
  570TIP3    H2 1717   2.986   2.895   0.706 -0.0516  1.8651  2.3471
  571TIP3   OH2 1718   2.795   0.657   0.251 -0.3571  0.4953 -0.1388
  571TIP3    H1 1719   2.766   0.691   0.336 -2.2105  1.4591 -1.1069
  571TIP3    H2 1720   2.875   0.609   0.271 -0.7948  0.6121  2.1686
  572TIP3   OH2 1721   3.034   2.947   4.072 -0.1230 -0.1177 -0.3787
  572TIP3    H1 1722   3.034   2.994   4.155  0.3480 -0.2618 -0.2920
  572TIP3    H2 1723   3.034   2.854   4.096 -2.1407 -0.2061 -0.5478
  573TIP3   OH2 1724   1.703   3.604   2.493  0.0580  0.1715  0.0617
  573TIP3    H1 1725   1.609   3.591   2.480  0.2262  0.5298 -1.7515
  573TIP3    H2 1726   1.741   3.517   2.478  0.0675  0.1385  0.2737
  574TIP3   OH2 1727   1.788   0.123   1.425  0.7210  0.3815  0.4435
  574TIP3    H1 1728   1.855   0.169   1.374  1.3797 -0.4731  0.5296
  574TIP3    H2 1729   1.730   0.085   1.360  0.9177  0.2427  0.3489
  575TIP3   OH2 1730   2.648   1.861   4.878  0.2799 -0.2044  0.0265
  575TIP3    H1 1731   2.729   1.889   4.835 -0.5015  0.4801 -1.0409
  575TIP3    H2 1732   2.584   1.927   4.855 -0.7276 -1.0095  0.4353
  576TIP3   OH2 1733   3.225   3.755   1.176  0.3509 -0.2209 -0.1178
  576TIP3    H1 1734   3.232   3.843   1.139  2.3173  0.4959  1.6732
  576TIP3    H2 1735   3.231   3.696   1.101 -2.6211  1.0978 -1.5468
  577TIP3   OH2 1736   5.943   0.945   1.054 -0.0586  0.4888 -0.1996
  577TIP3    H1 1737   5.853   0.976   1.052 -1.5010 -3.2016  0.0868
  577TIP3    H2 1738   5.950   0.897   1.137  1.9124  0.0399 -0.5803
  578TIP3   OH2 1739   4.745   1.766   2.404 -0.0707  0.4627 -0.3243
  578TIP3    H1 1740   4.705   1.708   2.339 -0.7898 -0.6276  1.0369
  578TIP3    H2 1741   4.836   1.776   2.375  0.1671 -1.6460 -0.4312
  579TIP3   OH2 1742   0.702   3.829   4.153 -0.9215  0.3913 -0.1927
  579TIP3    H1 1743   0.772   3.868   4.205 -0.5587 -2.4537  1.6807
  579TIP3    H2 1744   0.621   3.856   4.196 -0.7475  0.2722  0.2129
  580TIP3   OH2 1745   1.916   3.034   1.916  0.9417  0.0143  0.9346
  580TIP3    H1 1746   1.907   2.951   1.871 -2.1886 -0.8331  2.8793
  580TIP3    H2 1747   1.888   3.017   2.006  0.5425  3.0640  1.5139
  581TIP3   OH2 1748   2.599   4.784   4.646  0.4043 -0.1167  0.3946
  581TIP3    H1 1749   2.522   4.839   4.636 -0.0250 -0.9049 -0.7646
  581TIP3    H2 1750   2.593   4.752   4.737 -0.2471  0.3826  0.5370
  582TIP3   OH2 1751   3.442   3.131   2.431 -0.0056  0.0484  0.2559
  582TIP3    H1 1752   3.383   3.081   2.373  0.0706  0.3801 -0.1114
  582TIP3    H2 1753   3.391   3.144   2.511 -0.3537  0.1480  0.0197
  583TIP3   OH2 1754   0.277   0.949   2.503 -0.0303  0.3831  0.7966
  583TIP3    H1 1755   0.364   0.929   2.537 -0.2069  0.7534  1.4811
  583TIP3    H2 1756   0.237   1.005   2.569 -0.9285 -0.0876  0.6706
  584TIP3   OH2 1757   5.172   2.881   5.025  0.1398  0.2516  0.1549
  584TIP3    H1 1758   5.182   2.865   4.931  0.3408 -1.3100  0.4117
  584TIP3    H2 1759   5.134   2.800   5.059 -0.6046  1.0621  1.3177
  585TIP3   OH2 1760   1.443   5.418   1.054  0.3775 -0.2265 -0.6425
  585TIP3    H1 1761   1.493   5.431   1.135 -0.2903  0.1715 -0.2775
  585TIP3    H2 1762   1.372   5.358   1.080  1.1450 -1.4755 -1.3570
  586TIP3   OH2 1763   6.187   4.986   3.273 -0.2170 -0.0492 -0.1000
  586TIP3    H1 1764   6.239   4.910   3.244 -1.1122 -0.5606 -0.4090
  586TIP3    H2 1765   6.106   4.948   3.307 -0.1104  0.6961  1.0208
  587TIP3   OH2 1766   3.387   0.991   4.947 -0.1874  0.2227 -0.3349
  587TIP3    H1 1767   3.333   1.011   5.024  0.2598 -0.2206  0.0998
  587TIP3    H2 1768   3.368   0.899   4.928  1.4554 -0.3710  0.6880
  588TIP3   OH2 1769   0.599   2.635   4.024 -0.1440 -0.5173 -0.7997
  588TIP3    H1 1770   0.555   2.696   4.083  1.1541 -0.2405 -0.0886
  588TIP3    H2 1771   0.528   2.584   3.986 -1.0571 -0.3705  0.6277
  589TIP3   OH2 1772   4.727   3.455   4.695  0.0787 -0.4194  0.0034
  589TIP3    H1 1773   4.808   3.494   4.663 -0.0486  0.1903  0.4132
  589TIP3    H2 1774   4.709   3.500   4.777 -0.6409 -0.5978 -0.0504
  590TIP3   OH2 1775   2.234   4.874   1.207 -0.6695 -0.3548 -0.7549
  590TIP3    H1 1776   2.265   4.875   1.297  1.0258  1.0201 -1.2860
  590TIP3    H2 1777   2.178   4.951   1.199 -0.9093 -0.5380 -0.8293
  591TIP3   OH2 1778   2.721   5.587   1.024 -0.1023 -0.0597 -0.8991
  591TIP3    H1 1779   2.642   5.553   1.067  0.7954 -3.5297 -1.6899
  591TIP3    H2 1780   2.700   5.585   0.931  0.4556  0.3231 -1.0376
  592TIP3   OH2 1781   4.569   5.321   4.587  0.7182  0.3360  0.0357
  592TIP3    H1 1782   4.550   5.234   4.623 -0.3741  0.2358 -0.7392
  592TIP3    H2 1783   4.661   5.317   4.561  0.6121 -0.6566 -0.1980
  593TIP3   OH2 1784   0.904   4.957   1.367  0.0569 -0.3008  0.1766
  593TIP3    H1 1785   0.857   5.038   1.345 -0.3420 -0.7705 -0.7459
  593TIP3    H2 1786   0.846   4.887   1.339  0.9013 -0.8986 -0.1127
  594TIP3   OH2 1787   0.287   2.711   2.998 -0.1186 -0.1350 -0.6869
  594TIP3    H1 1788   0.382   2.696   2.999 -0.0241  0.3889  0.7888
  594TIP3    H2 1789   0.253   2.655   3.067 -0.6202  1.0850  0.0947
  595TIP3   OH2 1790   5.712   4.830   3.803  0.0127  0.1345  0.1944
  595TIP3    H1 1791   5.774   4.780   3.750  1.1928 -0.4524  2.0338
  595TIP3    H2 1792   5.684   4.769   3.871 -1.8905  0.6947 -0.0277
  596TIP3   OH2 1793   5.252   2.960   0.946 -0.3809  0.4130  0.2425
  596TIP3    H1 1794   5.208   3.039   0.979 -1.7298 -0.3007  0.1927
  596TIP3    H2 1795   5.215   2.889   0.998  2.0511 -0.0509  1.4621
  597TIP3   OH2 1796   5.626   4.366   2.920 -0.1332  0.0216  0.0402
  597TIP3    H1 1797   5.645   4.296   2.983 -0.2510  1.5109  1.8178
  597TIP3    H2 1798   5.703   4.370   2.864  0.3673 -0.7604  0.6491
  598TIP3   OH2 1799   6.124   4.332   3.847  0.2077  0.0120  0.3153
  598TIP3    H1 1800   6.042   4.284   3.850  0.3603 -0.2448  0.4318
  598TIP3    H2 1801   6.186   4.276   3.894  0.7004 -0.2950 -0.6863
  599TIP3   OH2 1802   0.937   4.571   2.031 -0.2699  0.1314  0.3957
  599TIP3    H1 1803   0.933   4.545   2.123  0.8067 -1.3195  0.0689
  599TIP3    H2 1804   0.994   4.648   2.031  0.1481 -0.1657  0.8965
  600TIP3   OH2 1805   4.453   1.088   1.254  0.1336  0.4952 -0.5328
  600TIP3    H1 1806   4.435   1.138   1.333 -0.1954  1.6277 -1.3059
  600TIP3    H2 1807   4.537   1.045   1.271  0.7849  1.8972 -0.1155
  601TIP3   OH2 1808   5.963   1.758   3.602 -0.2768  0.4322 -0.4205
  601TIP3    H1 1809   5.973   1.852   3.615  0.3132  0.0283  2.9368
  601TIP3    H2 1810   5.919   1.727   3.681  0.9888 -2.3471 -0.6838
  602TIP3   OH2 1811   1.203   2.654   4.873 -0.0424 -0.1812 -0.1726
  602TIP3    H1 1812   1.174   2.745   4.873 -0.3468 -0.1523  2.9441
  602TIP3    H2 1813   1.226   2.636   4.782 -1.0808  2.6201 -1.1115
  603TIP3   OH2 1814   0.605   0.830   2.427 -0.4395  0.6573 -0.2214
  603TIP3    H1 1815   0.608   0.898   2.359  2.3999  0.0482 -0.7980
  603TIP3    H2 1816   0.564   0.873   2.502 -1.8757  1.9228 -1.6565
  604TIP3   OH2 1817   2.900   1.155   1.863  0.3674  0.0254  0.2051
  604TIP3    H1 1818   2.836   1.211   1.907  0.9424  0.7138  0.1877
  604TIP3    H2 1819   2.965   1.216   1.828  1.0210 -0.6552  0.2044
  605TIP3   OH2 1820   5.786   3.561   0.070  0.1625 -0.2248 -0.2349
  605TIP3    H1 1821   5.811   3.611   0.147 -0.5462  0.1363 -0.2336
  605TIP3    H2 1822   5.729   3.619   0.020  0.3122 -0.5872 -0.8489
  606TIP3   OH2 1823   1.219   5.747   2.632 -0.3217  0.4723 -0.0625
  606TIP3    H1 1824   1.289   5.789   2.583  0.9139 -1.5626 -0.1530
  606TIP3    H2 1825   1.192   5.672   2.579  0.2325 -1.1007  1.7445
  607TIP3   OH2 1826   3.725   2.754   0.858 -0.0441  0.1829  0.0519
  607TIP3    H1 1827   3.788   2.695   0.900 -0.0910  0.2573  0.2278
  607TIP3    H2 1828   3.696   2.706   0.780  0.7020  0.4130 -0.3769
  608TIP3   OH2 1829   0.868   5.544   3.750  0.1601  0.7147  0.0644
  608TIP3    H1 1830   0.930   5.483   3.712  0.7697  0.6651  1.0833
  608TIP3    H2 1831   0.785   5.525   3.707  0.1315 -1.4063  0.9274
  609TIP3   OH2 1832   2.100   3.957   3.564  0.0900  0.1655  0.8891
  609TIP3    H1 1833   2.173   4.000   3.521  0.1450  0.9404  1.7267
  609TIP3    H2 1834   2.060   4.026   3.618 -0.3756 -0.6048  1.5472
  610TIP3   OH2 1835   2.327   1.122   4.221  0.4255 -0.0620  0.2024
  610TIP3    H1 1836   2.284   1.075   4.150  1.3785  0.0569 -0.4743
  610TIP3    H2 1837   2.372   1.195   4.177 -0.7937  1.3341  1.1862
  611TIP3   OH2 1838   0.370   2.150   5.188 -0.4201 -0.0267  0.0890
  611TIP3    H1 1839   0.417   2.128   5.108 -0.3648 -1.1655  0.4103
  611TIP3    H2 1840   0.326   2.233   5.169 -0.9845 -0.6391 -1.3668
  612TIP3   OH2 1841   6.101   4.927   4.545 -0.3086  0.5522  0.3050
  612TIP3    H1 1842   6.104   4.847   4.492  0.1265  1.1925 -0.6642
  612TIP3    H2 1843   6.154   4.990   4.496  0.9340  0.8851  1.9863
  613TIP3   OH2 1844   1.822   4.249   0.134  0.0075  0.1529 -0.2273
  613TIP3    H1 1845   1.885   4.203   0.189 -0.9226 -0.5578  0.2717
  613TIP3    H2 1846   1.754   4.279   0.195  0.0867  1.3403 -0.6836
  614TIP3   OH2 1847   3.157   4.311   2.900 -0.5217 -0.2391 -0.3450
  614TIP3    H1 1848   3.099   4.235   2.908 -0.2253 -0.2704  2.1334
  614TIP3    H2 1849   3.242   4.274   2.878 -0.2834 -0.7037  1.2687
  615TIP3   OH2 1850   4.126   0.792   1.543  0.0747 -0.2842 -0.0010
  615TIP3    H1 1851   4.171   0.874   1.564 -0.3324  0.5670 -2.2067
  615TIP3    H2 1852   4.036   0.807   1.570  0.3144 -0.5915  0.9921
  616TIP3   OH2 1853   3.894   0.852   0.075 -0.1220  0.0453 -0.8668
  616TIP3    H1 1854   3.800   0.865   0.091  0.1688  1.4961 -0.1498
  616TIP3    H2 1855   3.914   0.769   0.118 -1.3453 -1.0290 -2.2829
  617TIP3   OH2 1856   6.117   2.319   4.954 -0.4182  0.3886  0.1567
  617TIP3    H1 1857   6.177   2.391   4.975 -0.3225  0.7791 -1.3453
  617TIP3    H2 1858   6.080   2.294   5.039  0.6360  1.2293  0.9013
  618TIP3   OH2 1859   5.162   5.581   0.534  0.4743 -0.3788  0.1955
  618TIP3    H1 1860   5.136   5.662   0.578  0.7535 -0.5705  0.7168
  618TIP3    H2 1861   5.079   5.534   0.521  0.2390  0.2349 -0.6240
  619TIP3   OH2 1862   5.781   5.635   1.318  0.1937 -0.3038  0.3911
  619TIP3    H1 1863   5.700   5.686   1.313 -1.0859 -2.2765  0.0166
  619TIP3    H2 1864   5.817   5.639   1.230 -0.5011 -0.9275  0.0640
  620TIP3   OH2 1865   1.992   4.389   1.763  0.2303 -0.9726 -0.1349
  620TIP3    H1 1866   2.077   4.368   1.801  0.8818  0.7044 -0.6060
  620TIP3    H2 1867   1.930   4.371   1.834  1.2763  0.6551  1.2833
  621TIP3   OH2 1868   1.001   2.704   0.546 -0.2274 -0.0136 -0.4829
  621TIP3    H1 1869   1.046   2.630   0.506  1.1891  0.4144  0.2599
  621TIP3    H2 1870   1.022   2.779   0.489  0.6391  0.3277  0.2662
  622TIP3   OH2 1871   2.979   1.502   0.474 -0.5087  0.2523 -0.4062
  622TIP3    H1 1872   3.008   1.446   0.403  0.8035  1.5471 -0.9419
  622TIP3    H2 1873   3.054   1.559   0.492 -0.5354 -0.4336  2.4655
  623TIP3   OH2 1874   3.609   5.526   0.916  0.0606 -0.0576  0.1784
  623TIP3    H1 1875   3.526   5.528   0.964 -1.9034 -1.7858 -2.7406
  623TIP3    H2 1876   3.600   5.595   0.850  0.6752 -0.6380 -0.5319
  624TIP3   OH2 1877   2.955   4.863   2.941  0.4369  0.1242 -0.7380
  624TIP3    H1 1878   2.977   4.855   2.848 -1.7748 -0.1827 -1.3068
  624TIP3    H2 1879   2.966   4.774   2.975  1.0923  0.2018 -0.7347
  625TIP3   OH2 1880   0.025   2.191   5.111 -0.2597 -0.7340 -0.3586
  625TIP3    H1 1881  -0.003   2.102   5.134  2.1049 -1.4597  0.0164
  625TIP3    H2 1882   0.092   2.178   5.044  0.1911  0.7765 -0.2236
  626TIP3   OH2 1883   1.807   5.903   0.419  0.1267  0.8057  0.0159
  626TIP3    H1 1884   1.742   5.943   0.361  0.0852 -0.7670 -1.0866
  626TIP3    H2 1885   1.760   5.890   0.501 -0.7153  0.4303 -0.5064
  627TIP3   OH2 1886   3.769   1.366   0.561 -0.3329 -0.1434  0.6640
  627TIP3    H1 1887   3.723   1.315   0.628  0.1959 -1.1001  0.3120
  627TIP3    H2 1888   3.736   1.331   0.478  0.6210 -0.4658  0.4141
  628TIP3   OH2 1889   1.750   1.412   0.858  0.6347 -0.0841 -0.3636
  628TIP3    H1 1890   1.735   1.502   0.831 -1.7126 -0.5269 -0.7584
  628TIP3    H2 1891   1.800   1.374   0.786 -0.1314  0.3916 -1.1711
  629TIP3   OH2 1892   1.348   0.518   2.110 -0.4611  0.2589 -0.3591
  629TIP3    H1 1893   1.274   0.504   2.051  1.2027  1.7222 -3.0028
  629TIP3    H2 1894   1.308   0.543   2.193 -2.9273 -0.9617 -1.0764
  630TIP3   OH2 1895   2.157   2.626   2.116  0.1861  0.2961  0.3721
  630TIP3    H1 1896   2.191   2.641   2.204 -0.0963 -0.0484  0.5439
  630TIP3    H2 1897   2.077   2.678   2.112 -0.5478 -0.7501  0.8094
  631TIP3   OH2 1898   1.273   5.167   5.177 -0.1354 -0.0598  0.1546
  631TIP3    H1 1899   1.199   5.197   5.230  0.7002  1.5357  0.4894
  631TIP3    H2 1900   1.291   5.240   5.118  0.6059 -0.7837 -0.5337
  632TIP3   OH2 1901   2.949   4.089   2.978  0.1187  0.2566 -0.6891
  632TIP3    H1 1902   2.893   4.022   3.015 -0.2075 -0.0107 -1.6326
  632TIP3    H2 1903   2.919   4.098   2.887  0.1917  1.6314 -0.6012
  633TIP3   OH2 1904   4.456   2.139   2.328  0.0847  0.4243  0.3288
  633TIP3    H1 1905   4.492   2.224   2.302 -0.0610  0.6715  0.9183
  633TIP3    H2 1906   4.380   2.127   2.271  0.1950  0.6178  0.1394
  634TIP3   OH2 1907   1.929   5.930   3.056  1.0756 -0.6471 -0.4899
  634TIP3    H1 1908   1.882   5.853   3.023  1.4374 -1.4594  0.7822
  634TIP3    H2 1909   1.960   5.903   3.143  1.1818  0.9614  0.0058
  635TIP3   OH2 1910   3.209   0.454   4.911  0.6745  0.4239  0.0609
  635TIP3    H1 1911   3.142   0.457   4.843  0.6532  0.0007  0.0551
  635TIP3    H2 1912   3.292   0.448   4.863  0.6213 -0.5700  0.0543
  636TIP3   OH2 1913   0.201   2.079   4.929 -0.0597  0.1620 -0.2705
  636TIP3    H1 1914   0.217   2.075   4.835  2.4080 -0.8770  0.1022
  636TIP3    H2 1915   0.215   1.989   4.959  0.2029  0.6611  1.2065
  637TIP3   OH2 1916   4.312   0.412   2.518  0.0755  0.1114 -0.0879
  637TIP3    H1 1917   4.283   0.385   2.430 -1.0070 -1.1826  0.6235
  637TIP3    H2 1918   4.240   0.463   2.553 -0.2121 -0.7838  0.6611
  638TIP3   OH2 1919   2.745   0.638   4.682  0.2761 -0.1951 -0.1735
  638TIP3    H1 1920   2.746   0.592   4.599 -1.4980  1.1324 -1.0175
  638TIP3    H2 1921   2.700   0.721   4.663  0.9793  0.7141  1.8228
  639TIP3   OH2 1922   5.262   3.560   0.685 -0.6354  0.5407 -0.2130
  639TIP3    H1 1923   5.202   3.494   0.721  1.0679 -0.1348  1.5369
  639TIP3    H2 1924   5.259   3.632   0.748 -0.4881  1.0205 -0.7450
  640TIP3   OH2 1925   3.835   0.524   4.531  0.0042 -0.1183  0.2585
  640TIP3    H1 1926   3.851   0.448   4.586 -0.9308 -0.9364 -0.5520
  640TIP3    H2 1927   3.739   0.529   4.524  0.0866 -0.6357 -2.0190
  641TIP3   OH2 1928   5.528   4.395   3.349 -0.4338 -0.4855  0.4566
  641TIP3    H1 1929   5.446   4.410   3.396 -0.5155  0.0877  0.1362
  641TIP3    H2 1930   5.587   4.361   3.416 -1.1601 -1.7048  0.5182
  642TIP3   OH2 1931   5.552   3.626   1.229  0.1978  0.0174  0.1131
  642TIP3    H1 1932   5.569   3.660   1.141 -0.2930  2.4310  0.8935
  642TIP3    H2 1933   5.460   3.601   1.227 -0.1144  1.1005  0.2206
  643TIP3   OH2 1934   2.297   4.543   2.075 -0.3587  0.1072  0.2413
  643TIP3    H1 1935   2.308   4.633   2.043  0.1609  0.4766  1.4168
  643TIP3    H2 1936   2.207   4.540   2.108 -0.6727 -0.0780 -0.6104
  644TIP3   OH2 1937   5.133   4.211   4.226  0.9208  0.0515  0.7510
  644TIP3    H1 1938   5.097   4.244   4.309  0.5616  0.0597  0.5957
  644TIP3    H2 1939   5.062   4.158   4.189 -0.1013  2.4202 -0.9781
  645TIP3   OH2 1940   6.213   1.811   3.410 -0.0968  0.1633  0.3265
  645TIP3    H1 1941   6.136   1.762   3.439 -0.7080  1.0365  0.2188
  645TIP3    H2 1942   6.281   1.788   3.473 -0.1435 -1.3784 -0.1344
  646TIP3   OH2 1943   0.092   1.454   4.683  0.4817  0.1398  0.3399
  646TIP3    H1 1944   0.070   1.547   4.692 -0.7859 -0.2674  1.7733
  646TIP3    H2 1945   0.156   1.438   4.753 -0.1355 -0.3097  0.8057
  647TIP3   OH2 1946   1.849   1.575   4.648  0.3319 -0.7993 -0.1426
  647TIP3    H1 1947   1.851   1.488   4.609  4.1842 -0.8042 -0.3064
  647TIP3    H2 1948   1.919   1.623   4.603  0.1962  1.4648  1.8695
  648TIP3   OH2 1949   1.900   5.548   0.992 -0.2014  0.5345  0.7587
  648TIP3    H1 1950   1.843   5.513   0.924  0.4212 -0.1506  0.5780
  648TIP3    H2 1951   1.846   5.551   1.070 -0.7463  0.7539  0.3798
  649TIP3   OH2 1952   5.380   1.868   4.356  0.2225  0.0319  0.4851
  649TIP3    H1 1953   5.404   1.844   4.445  3.6390  1.7034  0.1891
  649TIP3    H2 1954   5.393   1.788   4.305  1.9508 -0.0505  0.9725
  650TIP3   OH2 1955   0.078   2.155   2.895  0.3791  0.0411 -0.4004
  650TIP3    H1 1956   0.120   2.071   2.914  1.0310  0.7872  1.7282
  650TIP3    H2 1957  -0.015   2.133   2.886  0.3793 -0.7743  1.2632
  651TIP3   OH2 1958   4.861   4.402   4.844 -0.1626  0.9399  1.1744
  651TIP3    H1 1959   4.882   4.347   4.769 -1.9711  2.4502 -0.5361
  651TIP3    H2 1960   4.843   4.339   4.915 -0.1067 -0.5859 -0.1050
  652TIP3   OH2 1961   3.312   4.378   0.538 -0.0722  0.6215  0.5145
  652TIP3    H1 1962   3.352   4.453   0.494  1.0435 -0.3813 -0.2370
  652TIP3    H2 1963   3.226   4.410   0.565  0.0410  1.9228 -0.5358
  653TIP3   OH2 1964   1.820   3.776   3.790 -0.2098  0.4425 -0.6319
  653TIP3    H1 1965   1.909   3.801   3.763 -0.5451 -0.1103 -2.3838
  653TIP3    H2 1966   1.823   3.680   3.794 -0.4723  0.4664  0.3278
  654TIP3   OH2 1967   3.049   1.376   0.221 -0.4783 -0.4665 -0.4831
  654TIP3    H1 1968   3.124   1.354   0.165 -0.4236 -0.1422 -0.5347
  654TIP3    H2 1969   2.973   1.368   0.164 -0.3566  0.6009 -0.8014
  655TIP3   OH2 1970   4.705   2.968   2.188 -0.0835  0.1370  0.4475
  655TIP3    H1 1971   4.740   2.989   2.275 -0.1624  1.6227  0.1512
  655TIP3    H2 1972   4.753   3.025   2.128  0.3888 -1.2894 -0.5854
  656TIP3   OH2 1973   2.597   2.546   4.765 -0.0761  0.4330  0.1729
  656TIP3    H1 1974   2.569   2.482   4.830  0.8702  0.8457  1.0217
  656TIP3    H2 1975   2.641   2.614   4.816  0.7556  0.7324 -0.9064
  657TIP3   OH2 1976   1.457   0.610   4.458 -0.4183 -0.1183  0.2569
  657TIP3    H1 1977   1.497   0.647   4.537  0.1600  2.1928 -1.0136
  657TIP3    H2 1978   1.403   0.537   4.489 -0.4313  0.8903  2.7848
  658TIP3   OH2 1979   2.309   2.637   4.969 -0.0640 -0.4863 -0.3779
  658TIP3    H1 1980   2.217   2.618   4.985 -0.6965  1.6313 -1.1542
  658TIP3    H2 1981   2.355   2.605   5.047 -1.2453 -2.7400 -0.5362
  659TIP3   OH2 1982   5.458   2.805   1.159 -0.9464  0.2129 -0.6684
  659TIP3    H1 1983   5.434   2.887   1.203  0.1186  1.4634 -2.2962
  659TIP3    H2 1984   5.376   2.773   1.123 -1.6070 -0.1689  1.0707
  660TIP3   OH2 1985   4.736   2.725   4.749 -0.5403 -0.1274  1.0060
  660TIP3    H1 1986   4.795   2.663   4.792 -1.2247 -1.0424  0.6667
  660TIP3    H2 1987   4.759   2.719   4.656 -0.5520  0.1974  0.9822
  661TIP3   OH2 1988   5.448   1.176   1.148 -0.5690  0.3063 -0.1439
  661TIP3    H1 1989   5.417   1.239   1.212  1.1774  0.8383  0.2173
  661TIP3    H2 1990   5.369   1.149   1.101 -1.3585  2.9286 -0.4855
  662TIP3   OH2 1991   1.429   5.831   0.518 -0.3999  0.2632 -0.1131
  662TIP3    H1 1992   1.486   5.801   0.447 -0.7602  1.1292 -0.7969
  662TIP3    H2 1993   1.408   5.752   0.568 -0.5629 -0.4628 -1.2887
  663TIP3   OH2 1994   0.226   2.712   4.109  0.2944 -0.1710  0.4771
  663TIP3    H1 1995   0.202   2.804   4.118 -0.0671 -0.4137  2.3558
  663TIP3    H2 1996   0.320   2.713   4.093 -0.2257  0.6446 -3.8062
  664TIP3   OH2 1997   1.636   0.855   4.104  0.4578 -0.0619  0.4671
  664TIP3    H1 1998   1.554   0.862   4.153 -0.6675 -0.9509 -1.2218
  664TIP3    H2 1999   1.663   0.946   4.090 -0.2899  0.2406  0.9459
  665TIP3   OH2 2000   6.054   2.038   1.011  0.2838  0.1016  0.1450
  665TIP3    H1 2001   6.017   2.034   0.923 -0.1495  1.4906  0.2448
  665TIP3    H2 2002   6.064   2.131   1.029  1.4309 -0.1844  1.1367
  666TIP3   OH2 2003   1.577   5.121   4.645  0.2308  0.0123  0.0586
  666TIP3    H1 2004   1.643   5.189   4.633  0.0753  0.2924  0.7548
  666TIP3    H2 2005   1.513   5.137   4.575  0.0957  0.7057  0.3297
  667TIP3   OH2 2006   3.525   4.441   3.138  0.5692  0.2199 -0.5805
  667TIP3    H1 2007   3.433   4.415   3.141  0.6201  0.0997  0.4599
  667TIP3    H2 2008   3.523   4.537   3.133  0.3920  0.1955 -1.0192
  668TIP3   OH2 2009   3.069   5.634   1.905  0.0934  0.0799  0.1609
  668TIP3    H1 2010   3.003   5.581   1.950  1.7263 -1.2552  1.0964
  668TIP3    H2 2011   3.037   5.724   1.913 -0.4243 -0.2485  2.7473
  669TIP3   OH2 2012   3.234   2.359   0.372 -0.3350 -0.0682 -0.0566
  669TIP3    H1 2013   3.247   2.453   0.388 -2.4286  0.5334 -1.4022
  669TIP3    H2 2014   3.234   2.319   0.459  3.4026  0.6412  0.4679
  670TIP3   OH2 2015   2.799   5.053   3.105  0.4530 -0.8552  0.1692
  670TIP3    H1 2016   2.830   4.992   3.038  0.0272  0.8797 -1.7026
  670TIP3    H2 2017   2.817   5.008   3.188  2.1019 -2.5891 -1.0290
  671TIP3   OH2 2018   3.209   2.747   3.053  0.2058  0.7362 -0.8106
  671TIP3    H1 2019   3.192   2.654   3.065 -0.7243  0.7496 -1.8213
  671TIP3    H2 2020   3.294   2.762   3.092  0.5116 -0.6122 -0.9289
  672TIP3   OH2 2021   5.886   5.546   0.522 -0.2040  0.1142  0.5621
  672TIP3    H1 2022   5.812   5.536   0.462  0.4983  0.6759 -0.4193
  672TIP3    H2 2023   5.952   5.484   0.489  0.3727  0.7846  0.4492
  673TIP3   OH2 2024   0.254   3.649   3.519 -0.2382  0.8044 -0.1344
  673TIP3    H1 2025   0.327   3.701   3.551 -0.8673  0.6477  1.6279
  673TIP3    H2 2026   0.200   3.711   3.471  1.3394  0.7897 -2.0959
  674TIP3   OH2 2027   4.342   0.979   3.771  0.3293  0.3798 -0.1020
  674TIP3    H1 2028   4.402   0.992   3.697 -0.6447  1.6573 -0.7109
  674TIP3    H2 2029   4.340   1.064   3.815 -0.3188  0.0791  0.4646
  675TIP3   OH2 2030   5.413   0.504   0.303 -0.6199  0.0068  0.2240
  675TIP3    H1 2031   5.427   0.571   0.370 -0.2440  0.8172 -0.6470
  675TIP3    H2 2032   5.360   0.437   0.347  2.1575 -1.0233  2.3149
  676TIP3   OH2 2033   0.435   0.568   4.058  0.2433  0.5999  0.0341
  676TIP3    H1 2034   0.473   0.533   3.978  0.4160  1.0574 -0.0849
  676TIP3    H2 2035   0.504   0.559   4.124 -0.5275 -1.5649  0.6348
  677TIP3   OH2 2036   3.448   1.064   3.002 -0.7117  0.4081  0.2766
  677TIP3    H1 2037   3.486   1.014   3.075  1.0129  0.3471 -0.6206
  677TIP3    H2 2038   3.412   0.997   2.944  0.2917  0.2620 -0.2038
  678TIP3   OH2 2039   0.107   2.589   5.007  0.1391  0.0205  0.2157
  678TIP3    H1 2040   0.077   2.506   5.044 -0.4789  0.4298  0.6520
  678TIP3    H2 2041   0.103   2.576   4.912 -1.8369  0.1681  0.2261
  679TIP3   OH2 2042   5.833   5.883   2.777 -0.7248 -0.3700 -0.5129
  679TIP3    H1 2043   5.842   5.789   2.792 -5.3816 -0.6581  2.5958
  679TIP3    H2 2044   5.804   5.891   2.686 -0.0577 -1.8441 -0.8888
  680TIP3   OH2 2045   0.057   1.039   3.371 -0.5623 -0.3030 -0.0884
  680TIP3    H1 2046   0.150   1.030   3.349  0.2644  2.0071  2.0016
  680TIP3    H2 2047   0.015   1.066   3.289  0.6217 -1.2357 -1.0278
  681TIP3   OH2 2048   6.070   4.595   2.404  0.0157 -0.0538 -0.2813
  681TIP3    H1 2049   6.139   4.598   2.471  1.1128 -1.1378 -1.3124
  681TIP3    H2 2050   5.992   4.629   2.449  1.0721  0.7193  1.0786
  682TIP3   OH2 2051   3.694   4.440   4.384 -0.9379  0.6184 -0.6184
  682TIP3    H1 2052   3.685   4.469   4.293 -1.7680  1.8722 -0.1506
  682TIP3    H2 2053   3.607   4.452   4.422 -0.1354  1.9687  0.8822
  683TIP3   OH2 2054   4.527   5.615   4.504 -0.1381  0.5700 -0.8595
  683TIP3    H1 2055   4.580   5.613   4.425  0.9331 -2.0860 -0.1751
  683TIP3    H2 2056   4.484   5.701   4.502  0.6722  1.0062 -3.7297
  684TIP3   OH2 2057   5.344   0.562   3.603 -0.0369  0.3738  0.2028
  684TIP3    H1 2058   5.429   0.606   3.602 -0.0103  0.4640  2.2739
  684TIP3    H2 2059   5.365   0.470   3.589  0.4600  0.3598  0.9613
  685TIP3   OH2 2060   4.064   1.117   2.363 -0.1956 -0.4234 -0.5945
  685TIP3    H1 2061   4.134   1.087   2.306  0.2552  0.1899 -0.3773
  685TIP3    H2 2062   4.105   1.182   2.420 -0.0734 -2.6065  1.9828
  686TIP3   OH2 2063   5.349   4.959   3.380  0.5949 -0.0358 -0.0784
  686TIP3    H1 2064   5.275   5.009   3.414  0.4628 -0.3441  0.0960
  686TIP3    H2 2065   5.338   4.872   3.418 -0.4861 -0.8890 -2.1387
  687TIP3   OH2 2066   1.277   4.013   1.282 -0.2181  0.2701  0.2145
  687TIP3    H1 2067   1.246   4.035   1.194 -1.9270  1.1993  1.0097
  687TIP3    H2 2068   1.202   3.971   1.325  0.7591 -0.6676  1.0837
  688TIP3   OH2 2069   4.619   4.733   2.058  0.0627  0.6331  0.0134
  688TIP3    H1 2070   4.581   4.659   2.010 -0.4570 -0.8211  2.4565
  688TIP3    H2 2071   4.641   4.797   1.991  0.8614 -1.8686 -2.2936
  689TIP3   OH2 2072   0.448   5.756   4.788 -0.5311 -0.1621 -0.2367
  689TIP3    H1 2073   0.431   5.719   4.701 -1.4979 -2.5218  0.8737
  689TIP3    H2 2074   0.362   5.768   4.826 -0.0896  0.2087  0.6696
  690TIP3   OH2 2075   3.477   0.977   1.091 -0.1380  0.2404  0.5297
  690TIP3    H1 2076   3.408   1.025   1.046 -0.9297 -0.2432  1.2077
  690TIP3    H2 2077   3.439   0.952   1.175  0.9894  0.2982  1.0834
  691TIP3   OH2 2078   1.238   0.787   4.700  0.6675  0.4304 -0.2795
  691TIP3    H1 2079   1.329   0.811   4.717  0.3841  0.1605  1.8058
  691TIP3    H2 2080   1.187   0.863   4.727  0.2844  1.1691 -2.8069
  692TIP3   OH2 2081   2.206   1.923   3.442  0.4147  0.5753 -0.2649
  692TIP3    H1 2082   2.212   2.019   3.444  0.6297  0.5732 -0.6918
  692TIP3    H2 2083   2.295   1.893   3.456  0.2569  0.4200  0.4675
  693TIP3   OH2 2084   4.774   3.956   5.036 -0.1107  0.1260  0.3724
  693TIP3    H1 2085   4.681   3.972   5.021  0.0258 -0.7889 -1.8092
  693TIP3    H2 2086   4.816   3.983   4.955  1.5658  0.5553  1.3381
  694TIP3   OH2 2087   6.134   4.271   2.143 -0.0796 -0.2739 -0.0866
  694TIP3    H1 2088   6.164   4.223   2.065 -0.9979 -1.2378  0.1322
  694TIP3    H2 2089   6.123   4.361   2.112  0.3901 -0.4668 -0.8520
  695TIP3   OH2 2090   2.664   0.678   3.196  0.3673  0.1062  0.1279
  695TIP3    H1 2091   2.656   0.689   3.101  0.9184  0.1655  0.0875
  695TIP3    H2 2092   2.659   0.583   3.209 -1.6834  0.1874  0.2317
  696TIP3   OH2 2093   4.209   5.075   3.830  0.1390 -0.2536 -0.2544
  696TIP3    H1 2094   4.240   4.999   3.780  0.3943 -1.6365  1.8753
  696TIP3    H2 2095   4.145   5.039   3.891  0.2452  1.2636  0.8084
  697TIP3   OH2 2096   6.128   1.008   4.260 -0.0287  0.3436  0.2201
  697TIP3    H1 2097   6.185   1.082   4.283 -1.3479  1.2645  0.6611
  697TIP3    H2 2098   6.070   1.043   4.193 -0.8027 -0.2259  0.5763
  698TIP3   OH2 2099   4.136   1.735   1.946  0.0650  0.3119 -0.8646
  698TIP3    H1 2100   4.171   1.824   1.937  1.3922 -0.1329 -0.3346
  698TIP3    H2 2101   4.178   1.700   2.024 -0.7156 -0.6693 -0.8646
  699TIP3   OH2 2102   0.396   1.994   1.946  0.4476 -0.4025  0.4620
  699TIP3    H1 2103   0.344   1.998   1.866 -0.2205  0.7372  0.9200
  699TIP3    H2 2104   0.485   1.974   1.917  0.0038 -1.0871 -0.4526
  700TIP3   OH2 2105   1.565   3.488   3.780  0.2486 -0.0464 -0.8010
  700TIP3    H1 2106   1.660   3.499   3.784  0.2890 -0.3770 -0.8036
  700TIP3    H2 2107   1.552   3.402   3.739  0.0092 -1.3658  1.8585
  701TIP3   OH2 2108   6.162   2.011   2.768 -0.1663  0.0265 -0.0650
  701TIP3    H1 2109   6.131   2.081   2.826  1.2927  0.0599  0.7127
  701TIP3    H2 2110   6.135   2.040   2.680 -2.8436 -0.2664  0.5649
  702TIP3   OH2 2111   5.925   1.245   3.047 -0.2453  0.1738  0.2698
  702TIP3    H1 2112   5.981   1.169   3.033  0.0193  0.6724 -1.5240
  702TIP3    H2 2113   5.961   1.313   2.990 -0.9187  1.4362  1.2875
  703TIP3   OH2 2114   0.716   5.605   1.939 -0.5265 -0.3417 -0.1346
  703TIP3    H1 2115   0.672   5.688   1.956 -2.3547 -1.0593 -1.0742
  703TIP3    H2 2116   0.763   5.619   1.857 -1.2076 -0.3405 -0.5360
  704TIP3   OH2 2117   6.306   1.231   4.749  0.1854  0.1008 -0.0040
  704TIP3    H1 2118   6.349   1.312   4.722  1.6492 -0.7824 -0.4285
  704TIP3    H2 2119   6.352   1.204   4.828 -1.3250  0.4619  1.0471
  705TIP3   OH2 2120   4.699   3.123   0.196  0.0160 -0.0759  0.1002
  705TIP3    H1 2121   4.785   3.090   0.169 -0.8300 -1.6119 -0.8841
  705TIP3    H2 2122   4.638   3.053   0.171 -1.5416  1.0491  0.6171
  706TIP3   OH2 2123   1.197   4.842   2.860 -0.0234  0.4238 -0.8297
  706TIP3    H1 2124   1.112   4.862   2.899 -0.2127 -0.1726 -0.9304
  706TIP3    H2 2125   1.233   4.927   2.836  0.0127  0.7892  0.4752
  707TIP3   OH2 2126   3.577   4.941   2.641 -0.4231 -0.0377  0.5993
  707TIP3    H1 2127   3.597   4.992   2.720 -0.0454 -0.8921  1.0808
  707TIP3    H2 2128   3.640   4.971   2.576 -0.0431 -0.0624  0.9530
  708TIP3   OH2 2129   0.449   0.788   2.969  0.1287 -0.4380 -0.0227
  708TIP3    H1 2130   0.402   0.706   2.986  0.0964 -0.1683  1.2451
  708TIP3    H2 2131   0.389   0.838   2.913 -1.0281 -0.1846  1.4062
  709TIP3   OH2 2132   5.809   3.698   4.799 -0.5391  1.0821  0.2811
  709TIP3    H1 2133   5.798   3.746   4.881  0.1260  0.0260  1.0123
  709TIP3    H2 2134   5.883   3.741   4.755  0.6701  0.1607  1.3731
  710TIP3   OH2 2135   4.788   2.767   2.540  0.4763  0.2668  0.1393
  710TIP3    H1 2136   4.806   2.847   2.588  1.9408 -1.1375  2.0785
  710TIP3    H2 2137   4.698   2.778   2.508  0.9179  2.9609 -0.3667
  711TIP3   OH2 2138   0.695   2.119   4.684 -0.5293 -0.0525  0.3827
  711TIP3    H1 2139   0.654   2.044   4.727  1.1528 -1.3028 -0.1059
  711TIP3    H2 2140   0.767   2.144   4.743  0.1167 -0.0562 -0.3943
  712TIP3   OH2 2141   4.075   1.476   1.079  0.1556 -0.0672  0.0217
  712TIP3    H1 2142   4.072   1.381   1.066 -1.1910 -0.3421  1.9472
  712TIP3    H2 2143   4.063   1.513   0.992  0.8619 -1.6478 -0.7796
  713TIP3   OH2 2144   2.877   3.659   3.997  0.3292  0.0188  0.3815
  713TIP3    H1 2145   2.841   3.736   4.041  0.9439  1.6002 -1.7442
  713TIP3    H2 2146   2.970   3.677   3.987  1.0129 -2.1510  2.0047
  714TIP3   OH2 2147   4.178   5.460   2.714  0.2758 -0.0699  0.1755
  714TIP3    H1 2148   4.251   5.422   2.665  0.1483 -1.3254  0.9137
  714TIP3    H2 2149   4.102   5.445   2.658  0.1403 -1.4449  0.6877
  715TIP3   OH2 2150   6.023   1.065   5.091  0.2966 -0.0246 -0.2803
  715TIP3    H1 2151   6.002   1.133   5.155  1.3249  1.5916 -1.5966
  715TIP3    H2 2152   6.108   1.031   5.119  0.1898 -0.1686 -0.1246
  716TIP3   OH2 2153   4.554   2.433   3.627 -0.6797  0.5123  0.1221
  716TIP3    H1 2154   4.538   2.348   3.584  0.8910  0.6269 -0.7502
  716TIP3    H2 2155   4.649   2.445   3.622 -0.7564  1.7870  1.2913
  717TIP3   OH2 2156   2.332   2.494   0.592 -0.0042  0.0783  0.7274
  717TIP3    H1 2157   2.406   2.546   0.622 -0.6076  1.4795 -0.0972
  717TIP3    H2 2158   2.346   2.484   0.498  0.2153 -1.5007  0.8972
  718TIP3   OH2 2159   5.688   0.744   5.016 -0.0660 -0.5158  0.1692
  718TIP3    H1 2160   5.682   0.799   5.094 -1.5761  0.1494 -0.3909
  718TIP3    H2 2161   5.663   0.801   4.943  0.5616 -1.3331 -0.7256
  719TIP3   OH2 2162   3.051   5.399   0.083  0.4647 -0.1203 -0.2244
  719TIP3    H1 2163   3.082   5.342   0.013  0.3464  1.1261 -1.3308
  719TIP3    H2 2164   2.978   5.448   0.044 -0.9910 -0.8728  1.4079
  720TIP3   OH2 2165   1.574   3.301   2.646 -0.3395 -0.5209 -0.5896
  720TIP3    H1 2166   1.559   3.255   2.728  1.5592  0.0655  0.1408
  720TIP3    H2 2167   1.508   3.371   2.645  0.5627  0.4247  1.2218
  721TIP3   OH2 2168   4.437   4.568   2.809  0.0476 -0.2418 -0.4422
  721TIP3    H1 2169   4.445   4.641   2.871 -1.5690  0.9896 -1.5883
  721TIP3    H2 2170   4.384   4.504   2.855 -0.3539  0.2584 -0.1935
  722TIP3   OH2 2171   3.695   1.567   4.812 -0.6132 -0.2107  0.2973
  722TIP3    H1 2172   3.756   1.602   4.747  1.3135 -2.4361  0.7809
  722TIP3    H2 2173   3.727   1.602   4.895 -2.1280  1.3516  0.2864
  723TIP3   OH2 2174   3.200   5.921   3.880 -0.1114  0.6442  0.2922
  723TIP3    H1 2175   3.276   5.966   3.918  0.0071 -0.3317  1.2826
  723TIP3    H2 2176   3.127   5.981   3.893  0.3046  1.1632  0.2693
  724TIP3   OH2 2177   1.830   2.992   3.882  0.2242 -0.2647  0.3373
  724TIP3    H1 2178   1.827   3.084   3.905 -0.5580 -0.4057  0.8583
  724TIP3    H2 2179   1.916   2.962   3.911  0.0425  0.0412  1.2197
  725TIP3   OH2 2180   3.035   4.779   2.079  0.6615 -0.7182 -0.7060
  725TIP3    H1 2181   3.057   4.778   2.172  0.2686 -1.0477 -0.6179
  725TIP3    H2 2182   2.974   4.707   2.067  0.8805 -0.8182 -1.2648
  726TIP3   OH2 2183   1.339   0.487   3.487 -0.1559 -0.0889 -0.5092
  726TIP3    H1 2184   1.371   0.397   3.494  0.2614  0.1389  0.6965
  726TIP3    H2 2185   1.418   0.540   3.475  0.3456  0.6667  4.1102
  727TIP3   OH2 2186   2.433   5.060   4.029  0.0721  0.7692 -0.0279
  727TIP3    H1 2187   2.423   4.986   3.969 -0.3731  1.1878 -0.4787
  727TIP3    H2 2188   2.350   5.061   4.079 -0.9682  2.4032 -1.6760
  728TIP3   OH2 2189   4.966   5.305   0.245  0.8732 -0.3479 -0.1430
  728TIP3    H1 2190   5.052   5.305   0.203  0.7751 -0.2078 -0.3448
  728TIP3    H2 2191   4.955   5.215   0.278  0.6700 -0.6510 -0.9965
  729TIP3   OH2 2192   0.398   1.586   4.926 -0.0073  0.5301  0.3268
  729TIP3    H1 2193   0.464   1.640   4.884 -0.2535  1.1600  0.7361
  729TIP3    H2 2194   0.385   1.513   4.865 -0.6710  1.6347 -0.9076
  730TIP3   OH2 2195   0.990   2.663   2.472 -0.0856 -0.1748  0.2003
  730TIP3    H1 2196   1.043   2.618   2.406 -0.4417  0.0085 -0.2188
  730TIP3    H2 2197   0.900   2.652   2.441 -0.0615  3.2356 -1.5025
  731TIP3   OH2 2198   0.468   3.849   0.739 -0.0812 -0.1492 -0.0621
  731TIP3    H1 2199   0.384   3.883   0.708  0.1451  0.1903 -0.3124
  731TIP3    H2 2200   0.471   3.873   0.832 -0.9913 -1.6289  0.3715
  732TIP3   OH2 2201   4.942   1.126   2.531 -0.5131 -0.0251 -0.0003
  732TIP3    H1 2202   4.862   1.118   2.583 -0.0511 -0.5730  0.6528
  732TIP3    H2 2203   5.011   1.146   2.595 -0.1849  0.7984 -0.5960
  733TIP3   OH2 2204   0.871   3.343   4.324  0.4558 -0.0759  0.3892
  733TIP3    H1 2205   0.791   3.331   4.376 -0.5535 -0.8408 -1.2590
  733TIP3    H2 2206   0.863   3.432   4.289  1.0894  0.4037  1.4077
  734TIP3   OH2 2207   5.484   1.333   4.752 -0.8527 -0.0580 -0.7074
  734TIP3    H1 2208   5.564   1.385   4.758 -0.4659 -0.5215 -1.6800
  734TIP3    H2 2209   5.502   1.254   4.803 -1.5590  0.8722  1.0467
  735TIP3   OH2 2210   5.652   4.483   3.669 -0.4362 -0.6585 -1.2280
  735TIP3    H1 2211   5.704   4.512   3.744 -0.7887 -2.9508 -0.0105
  735TIP3    H2 2212   5.608   4.563   3.638 -0.6374  0.2958  1.2958
  736TIP3   OH2 2213   4.509   1.787   4.311 -0.0888 -0.7204  0.2306
  736TIP3    H1 2214   4.553   1.772   4.228  0.4282 -1.2199  0.5820
  736TIP3    H2 2215   4.437   1.847   4.291  1.1897  0.7346 -0.2459
  737TIP3   OH2 2216   1.578   1.891   2.559 -0.3096 -0.0474  0.4960
  737TIP3    H1 2217   1.608   1.819   2.504 -2.6195  1.2079 -2.6906
  737TIP3    H2 2218   1.626   1.968   2.526 -0.3357  0.4559  1.5889
  738TIP3   OH2 2219   6.158   3.263   1.125 -0.4337  0.0514  0.4321
  738TIP3    H1 2220   6.249   3.291   1.113 -0.5948  0.5046  0.2482
  738TIP3    H2 2221   6.164   3.169   1.140  0.0349  0.0025 -0.0170
  739TIP3   OH2 2222   4.299   2.410   0.801 -0.0818 -0.1628  0.0398
  739TIP3    H1 2223   4.300   2.318   0.824 -0.1248 -0.4472 -1.0488
  739TIP3    H2 2224   4.234   2.417   0.731 -0.0083  0.6702  0.0396
  740TIP3   OH2 2225   3.890   0.571   4.253 -0.2958 -0.0361 -0.2938
  740TIP3    H1 2226   3.978   0.604   4.236 -1.3322  3.1312 -0.1541
  740TIP3    H2 2227   3.891   0.547   4.346  0.7703 -1.4660 -0.6351
  741TIP3   OH2 2228   2.640   4.687   3.821  0.2191 -0.4293  0.0309
  741TIP3    H1 2229   2.597   4.682   3.735  0.4958 -0.2346 -0.1193
  741TIP3    H2 2230   2.732   4.671   3.803  0.3298 -0.0452  0.2442
  742TIP3   OH2 2231   0.148   1.375   1.485  0.1228  0.2991 -0.5926
  742TIP3    H1 2232   0.194   1.420   1.556 -0.3469  0.7075 -0.5372
  742TIP3    H2 2233   0.191   1.290   1.479  1.3892  0.9539 -1.0764
  743TIP3   OH2 2234   2.686   0.104   3.515 -0.1308 -0.4273  0.4256
  743TIP3    H1 2235   2.716   0.088   3.604 -1.2800 -1.6008  0.6453
  743TIP3    H2 2236   2.697   0.019   3.471 -0.4274 -0.1076 -0.2727
  744TIP3   OH2 2237   1.718   5.113   3.484 -0.1524 -0.3799  0.1150
  744TIP3    H1 2238   1.638   5.072   3.518  0.4989 -0.4755  1.5898
  744TIP3    H2 2239   1.784   5.045   3.491  0.8865  0.7682  2.3434
  745TIP3   OH2 2240   6.243   5.025   2.222 -0.4641  0.8746  0.6157
  745TIP3    H1 2241   6.255   5.090   2.153  0.3485  1.6892  1.5007
  745TIP3    H2 2242   6.306   5.049   2.289  0.1430 -1.0742  0.8014
  746TIP3   OH2 2243   0.172   0.249   4.435 -0.7634 -0.4033  0.0650
  746TIP3    H1 2244   0.173   0.329   4.383 -0.6804  0.2566  1.0470
  746TIP3    H2 2245   0.109   0.191   4.390 -0.4325  0.0020 -0.9415
  747TIP3   OH2 2246   4.486   0.915   3.250 -0.0104  0.8900 -0.5376
  747TIP3    H1 2247   4.482   1.010   3.248  1.1451  0.9427 -0.8778
  747TIP3    H2 2248   4.569   0.893   3.207 -0.5269 -0.2871 -0.9821
  748TIP3   OH2 2249   0.643   2.086   2.648 -0.3493  0.7758 -0.0552
  748TIP3    H1 2250   0.730   2.123   2.665 -0.7853  1.6918  0.2536
  748TIP3    H2 2251   0.637   2.010   2.706  0.4048  0.4449 -0.3932
  749TIP3   OH2 2252   5.911   5.842   1.978 -0.0926 -0.7299  0.4487
  749TIP3    H1 2253   5.995   5.877   2.008  1.2402 -3.9883  0.9145
  749TIP3    H2 2254   5.852   5.854   2.053  0.2962  0.3763  0.5996
  750TIP3   OH2 2255   1.513   4.781   5.041  0.0585 -0.1373  0.0197
  750TIP3    H1 2256   1.424   4.745   5.047  0.2697 -0.5215  1.1130
  750TIP3    H2 2257   1.563   4.714   4.995 -0.2187  0.0842 -0.6056
  751TIP3   OH2 2258   4.646   0.743   5.173  0.2817 -0.1786  0.7200
  751TIP3    H1 2259   4.597   0.824   5.164  1.8566  0.5859 -2.6087
  751TIP3    H2 2260   4.735   0.771   5.193  0.8457 -1.0487 -0.4630
  752TIP3   OH2 2261   3.895   0.977   1.518 -0.2114  0.5055  0.4406
  752TIP3    H1 2262   3.836   0.995   1.591 -1.3513 -0.1439 -0.2993
  752TIP3    H2 2263   3.850   1.011   1.441  0.4182  0.0712 -0.1377
  753TIP3   OH2 2264   4.506   1.332   0.111 -0.2365 -0.5280  0.2597
  753TIP3    H1 2265   4.412   1.316   0.122  0.1641 -1.5452  2.9025
  753TIP3    H2 2266   4.534   1.268   0.046 -1.4350  0.2424 -1.0893
  754TIP3   OH2 2267   0.997   1.495   0.118  0.6165 -0.4310  0.3888
  754TIP3    H1 2268   1.055   1.448   0.177  0.8690 -0.2692  0.2738
  754TIP3    H2 2269   0.996   1.585   0.151  2.3992  0.1636 -1.0201
  755TIP3   OH2 2270   3.746   2.260   1.521  0.0804 -0.3800  0.4381
  755TIP3    H1 2271   3.816   2.325   1.513  0.2640 -0.6251  0.0056
  755TIP3    H2 2272   3.681   2.302   1.577 -0.1906  0.5297 -0.5110
  756TIP3   OH2 2273   4.408   1.601   3.477  0.1961  0.4425 -0.3359
  756TIP3    H1 2274   4.355   1.648   3.413 -0.9029  0.2073  0.3696
  756TIP3    H2 2275   4.384   1.509   3.465  0.2006  0.3679  0.2045
  757TIP3   OH2 2276   3.797   4.659   3.819 -0.1226 -0.3151 -0.4072
  757TIP3    H1 2277   3.815   4.610   3.739 -1.2907 -0.2422 -0.7421
  757TIP3    H2 2278   3.873   4.643   3.875  1.3758  0.7483 -2.0317
  758TIP3   OH2 2279   3.116   4.523   0.659  0.0344  0.3843 -0.2917
  758TIP3    H1 2280   3.063   4.547   0.735 -0.8641  0.4636 -0.9369
  758TIP3    H2 2281   3.062   4.545   0.584  0.9827  0.4619 -0.9688
  759TIP3   OH2 2282   0.419   1.576   4.341 -0.4020  0.5624  0.6654
  759TIP3    H1 2283   0.449   1.492   4.307 -1.4944  0.1972  0.5583
  759TIP3    H2 2284   0.455   1.641   4.281 -0.2256  0.1118  0.2806
  760TIP3   OH2 2285   4.338   4.735   2.570 -0.5826  0.2068 -0.1697
  760TIP3    H1 2286   4.401   4.741   2.498 -1.2984 -0.0618 -0.8238
  760TIP3    H2 2287   4.382   4.680   2.635 -0.8844 -1.6337 -1.4528
  761TIP3   OH2 2288   4.928   0.305   2.510 -0.5567  0.7323  0.0317
  761TIP3    H1 2289   4.911   0.228   2.456 -0.2600  1.2868 -0.8763
  761TIP3    H2 2290   5.002   0.280   2.565 -2.0839 -0.5334  1.6447
  762TIP3   OH2 2291   5.529   3.495   0.712  0.6072 -0.3439 -0.1300
  762TIP3    H1 2292   5.548   3.422   0.653  1.3709  1.2965 -2.0646
  762TIP3    H2 2293   5.434   3.505   0.707  0.7521  0.6368 -2.3422
  763TIP3   OH2 2294   1.035   5.612   0.904  0.0928 -0.1107 -0.1808
  763TIP3    H1 2295   1.087   5.687   0.934  1.1086 -1.2503  1.0028
  763TIP3    H2 2296   0.964   5.652   0.853  1.8790  1.5416 -1.5451
  764TIP3   OH2 2297   5.722   3.280   2.370 -0.1799 -0.2494 -0.2873
  764TIP3    H1 2298   5.745   3.338   2.298 -1.5547  1.0510  0.2569
  764TIP3    H2 2299   5.628   3.294   2.383 -0.3940 -2.0238  0.3982
  765TIP3   OH2 2300   4.114   5.892   0.073  0.0206  0.7470  0.2515
  765TIP3    H1 2301   4.164   5.951   0.016 -0.7664  1.6051  0.4265
  765TIP3    H2 2302   4.175   5.822   0.094  1.0620  1.6158  0.2228
  766TIP3   OH2 2303   1.295   5.305   4.740  0.2746  0.3699  0.4104
  766TIP3    H1 2304   1.385   5.326   4.714 -0.2552  2.5235  0.1453
  766TIP3    H2 2305   1.241   5.330   4.666 -0.8624  2.6336  1.8884
  767TIP3   OH2 2306   4.727   2.511   1.078  0.8897 -0.5330  0.2806
  767TIP3    H1 2307   4.785   2.520   1.002  1.2397 -1.3453  0.4401
  767TIP3    H2 2308   4.734   2.596   1.123  0.6625 -0.0357 -0.5897
  768TIP3   OH2 2309   6.302   4.801   1.051  0.4054  0.0700 -0.0853
  768TIP3    H1 2310   6.368   4.758   0.996 -0.2978 -2.3576  0.8498
  768TIP3    H2 2311   6.225   4.808   0.994  0.8683  1.2025 -0.5977
  769TIP3   OH2 2312   2.654   1.526   1.863  0.6323 -0.6613  0.1435
  769TIP3    H1 2313   2.607   1.445   1.838  0.2094 -0.3193 -0.1933
  769TIP3    H2 2314   2.721   1.497   1.925 -1.4132 -0.8975  2.3826
  770TIP3   OH2 2315   5.729   1.875   3.405 -0.1307 -0.2486 -0.0625
  770TIP3    H1 2316   5.813   1.868   3.450 -0.3468 -0.4940  0.3020
  770TIP3    H2 2317   5.675   1.931   3.461 -0.4717 -0.7315  0.1030
  771TIP3   OH2 2318   4.008   3.950   0.179 -0.2239  0.2320  0.3826
  771TIP3    H1 2319   4.059   3.913   0.251  0.8529 -0.4144 -0.6819
  771TIP3    H2 2320   3.920   3.916   0.192  0.0304 -0.1366  1.2125
  772TIP3   OH2 2321   0.797   2.923   3.243  0.3505 -0.1779  0.4610
  772TIP3    H1 2322   0.846   2.848   3.211 -0.0022 -0.2862  0.1744
  772TIP3    H2 2323   0.709   2.913   3.207  0.5813  0.9345 -0.4668
  773TIP3   OH2 2324   2.112   3.037   5.018 -0.0533  0.1760 -0.6610
  773TIP3    H1 2325   2.081   3.120   5.055 -2.0976 -0.2364 -1.3504
  773TIP3    H2 2326   2.180   3.063   4.956  0.3847  1.1924  0.2042
  774TIP3   OH2 2327   0.877   2.894   4.818  0.5982 -0.4871 -0.1174
  774TIP3    H1 2328   0.951   2.893   4.757  0.9655 -1.5326  0.3165
  774TIP3    H2 2329   0.907   2.948   4.891 -0.6824  2.7496 -1.7793
  775TIP3   OH2 2330   3.772   5.257   2.409  0.2403 -0.3635 -0.5113
  775TIP3    H1 2331   3.733   5.341   2.384 -0.8682 -0.3173  1.2390
  775TIP3    H2 2332   3.703   5.193   2.395  0.8486 -0.8937 -1.1467
  776TIP3   OH2 2333   0.933   2.687   1.517  0.1435 -0.4338 -0.1751
  776TIP3    H1 2334   0.903   2.775   1.539  0.3220 -0.4878  0.2955
  776TIP3    H2 2335   1.026   2.698   1.499  0.1262 -0.4934 -0.2955
  777TIP3   OH2 2336   3.306   1.407   3.652  0.0513 -0.1596 -0.8249
  777TIP3    H1 2337   3.237   1.360   3.605 -1.6245  0.4377  0.9212
  777TIP3    H2 2338   3.303   1.496   3.617  0.2384 -0.2390 -1.0464
  778TIP3   OH2 2339   2.333   2.751   3.863  0.3827  0.2144 -0.0294
  778TIP3    H1 2340   2.294   2.668   3.835 -0.5015  0.4349  0.5180
  778TIP3    H2 2341   2.369   2.732   3.950  0.5874  0.2835 -0.0999
  779TIP3   OH2 2342   4.768   2.292   1.588  0.3883 -0.1788 -0.0808
  779TIP3    H1 2343   4.690   2.337   1.621 -0.8692  0.3711 -3.4382
  779TIP3    H2 2344   4.742   2.200   1.583  0.9576 -0.4413  1.3404
  780TIP3   OH2 2345   4.871   5.034   2.087 -0.1985  0.1735  0.0494
  780TIP3    H1 2346   4.815   5.055   2.012  1.3812  2.6529 -0.5614
  780TIP3    H2 2347   4.949   4.995   2.049  0.2118  0.5405  0.5030
  781TIP3   OH2 2348   0.186   0.108   0.335  0.0700 -0.1809 -0.5757
  781TIP3    H1 2349   0.200   0.196   0.300  1.1377  0.5915  1.6720
  781TIP3    H2 2350   0.091   0.102   0.346  0.0756  1.1467  0.3629
  782TIP3   OH2 2351   3.389   5.415   3.845 -0.2797  0.2169  0.4410
  782TIP3    H1 2352   3.297   5.420   3.822 -0.5621 -0.2258  1.4423
  782TIP3    H2 2353   3.413   5.505   3.869 -0.0328  0.6463 -1.3076
  783TIP3   OH2 2354   5.830   5.267   3.193 -0.1474  0.2344  0.2434
  783TIP3    H1 2355   5.881   5.338   3.156 -1.7698  2.2610  1.6501
  783TIP3    H2 2356   5.865   5.188   3.152  0.4859  1.9547 -2.8442
  784TIP3   OH2 2357   1.412   1.598   2.519  0.2611  0.8838 -0.6716
  784TIP3    H1 2358   1.435   1.680   2.476  0.0735  1.7870  0.8972
  784TIP3    H2 2359   1.491   1.574   2.568 -0.0701  0.7275 -0.2159
  785TIP3   OH2 2360   1.964   0.065   0.093  0.9360 -0.1723  0.4884
  785TIP3    H1 2361   1.913   0.138   0.058  0.6884 -0.7529 -0.4009
  785TIP3    H2 2362   2.046   0.068   0.044  1.5810  0.4429  1.5528
  786TIP3   OH2 2363   0.946   2.159   5.128 -0.5029  0.3383 -0.1889
  786TIP3    H1 2364   0.863   2.115   5.142 -0.1754  0.1071  1.1855
  786TIP3    H2 2365   1.010   2.106   5.176  0.1305  1.4966  0.3133
  787TIP3   OH2 2366   2.648   3.090   3.111  0.8280 -0.1498 -0.0645
  787TIP3    H1 2367   2.648   3.009   3.061  0.3697  0.2350 -0.7010
  787TIP3    H2 2368   2.741   3.109   3.127  1.0617  0.4071 -1.8980
  788TIP3   OH2 2369   2.331   3.508   2.882  0.0526 -0.2809 -0.6611
  788TIP3    H1 2370   2.401   3.447   2.906 -0.6599 -0.4333  1.1942
  788TIP3    H2 2371   2.286   3.466   2.808  1.1777 -0.7159 -1.1184
  789TIP3   OH2 2372   2.637   0.896   4.624  0.4596 -0.5568  0.3080
  789TIP3    H1 2373   2.706   0.962   4.619 -0.1490  0.0317 -0.6591
  789TIP3    H2 2374   2.607   0.899   4.715 -1.9547  3.0728 -0.3752
  790TIP3   OH2 2375   3.799   4.632   2.376  0.0087  0.0406  0.1388
  790TIP3    H1 2376   3.734   4.668   2.435 -0.4033 -0.0628 -0.2483
  790TIP3    H2 2377   3.878   4.684   2.392 -0.4135  0.7321 -0.0106
  791TIP3   OH2 2378   2.618   4.236   1.989  0.4147 -0.3558 -0.2892
  791TIP3    H1 2379   2.530   4.211   1.962  0.3631 -0.7257  0.2237
  791TIP3    H2 2380   2.607   4.277   2.074  0.9154 -1.8978  0.5574
  792TIP3   OH2 2381   4.444   2.838   3.345 -0.1152  0.0326  0.3388
  792TIP3    H1 2382   4.398   2.861   3.264  0.9597 -0.4102 -0.4121
  792TIP3    H2 2383   4.469   2.747   3.334  1.6810  0.4777  0.3324
  793TIP3   OH2 2384   4.855   1.033   2.972  0.1322 -0.3430  0.0845
  793TIP3    H1 2385   4.942   1.069   2.987  0.3831 -0.0352 -1.7664
  793TIP3    H2 2386   4.837   0.979   3.049  1.2899  0.8074  1.2085
  794TIP3   OH2 2387   0.982   5.381   0.986  0.1322  0.1129 -0.0114
  794TIP3    H1 2388   1.006   5.467   0.952 -0.0321  0.0546 -0.2751
  794TIP3    H2 2389   1.062   5.348   1.027  0.2414  0.3180 -0.0601
  795TIP3   OH2 2390   4.672   1.530   0.515 -0.4254  0.7644 -0.4089
  795TIP3    H1 2391   4.724   1.520   0.594  0.6288 -2.4760 -1.3741
  795TIP3    H2 2392   4.585   1.498   0.539 -0.3841  0.7194 -0.3195
  796TIP3   OH2 2393   4.110   5.055   1.873  0.0182  0.4157  0.0161
  796TIP3    H1 2394   4.106   5.147   1.900 -1.8633 -0.1221  1.8010
  796TIP3    H2 2395   4.093   5.005   1.953  0.9148 -1.5180 -0.9261
  797TIP3   OH2 2396   5.061   1.912   0.909 -0.0428  0.2077  0.1351
  797TIP3    H1 2397   5.046   1.843   0.974 -1.2973  0.2063 -0.1279
  797TIP3    H2 2398   4.998   1.980   0.931  0.8416  1.0697  0.0801
  798TIP3   OH2 2399   3.674   4.287   2.132  0.2466 -0.7533 -0.0370
  798TIP3    H1 2400   3.739   4.356   2.121 -0.7746  0.3823  0.8298
  798TIP3    H2 2401   3.645   4.268   2.043  2.4905 -2.0716 -0.5711
  799TIP3   OH2 2402   5.263   3.918   0.413 -0.0419 -0.0114 -0.0205
  799TIP3    H1 2403   5.284   3.942   0.503 -0.5862 -0.5455  0.2496
  799TIP3    H2 2404   5.324   3.847   0.392  1.0177  1.0114 -0.5491
  800TIP3   OH2 2405   4.598   2.737   0.897 -0.6241 -0.3646 -0.8643
  800TIP3    H1 2406   4.599   2.645   0.872 -0.0868 -0.6586  0.2235
  800TIP3    H2 2407   4.526   2.745   0.959 -0.2641 -0.1912 -0.4601
  801TIP3   OH2 2408   4.025   3.028   3.958 -0.1467  0.0872 -0.4398
  801TIP3    H1 2409   4.106   3.010   3.910 -0.2217 -1.2515 -0.1269
  801TIP3    H2 2410   4.054   3.056   4.045 -0.0174  0.7166 -0.6851
  802TIP3   OH2 2411   1.794   1.252   5.032  0.0696 -0.2581  0.0182
  802TIP3    H1 2412   1.888   1.272   5.033  0.0390  0.0486 -1.3052
  802TIP3    H2 2413   1.761   1.290   5.114  0.8794  0.8274 -0.1237
  803TIP3   OH2 2414   1.011   5.294   3.167 -0.0148  0.3774 -0.2748
  803TIP3    H1 2415   1.015   5.218   3.108  1.3543  0.1516  0.0724
  803TIP3    H2 2416   1.072   5.357   3.128  0.8405  0.2601  0.8347
  804TIP3   OH2 2417   6.136   5.788   3.364 -0.4940 -0.2502 -0.4309
  804TIP3    H1 2418   6.078   5.764   3.436  0.6246  0.7693  0.8592
  804TIP3    H2 2419   6.170   5.705   3.331  1.1917 -0.6498  2.1243
  805TIP3   OH2 2420   0.485   4.371   2.626  0.5877  0.4856  0.0992
  805TIP3    H1 2421   0.395   4.352   2.653  0.7695 -1.4828 -0.5163
  805TIP3    H2 2422   0.489   4.345   2.534  1.8932  0.1073  0.2414
  806TIP3   OH2 2423   1.671   1.009   2.922 -0.3328 -0.3850  0.6586
  806TIP3    H1 2424   1.666   0.956   3.002  1.2098  0.4208  1.3328
  806TIP3    H2 2425   1.733   1.079   2.943 -0.6738  0.4465 -0.9213
  807TIP3   OH2 2426   4.487   1.603   1.560 -0.3830 -0.2913 -0.2700
  807TIP3    H1 2427   4.399   1.640   1.546 -0.0056  0.9631  0.5072
  807TIP3    H2 2428   4.526   1.603   1.473 -0.1501  1.9015 -0.2305
  808TIP3   OH2 2429   2.726   2.116   4.979  0.1037 -0.0192  0.3289
  808TIP3    H1 2430   2.670   2.094   5.054 -0.1907 -3.1969 -0.6559
  808TIP3    H2 2431   2.665   2.141   4.910  0.1799  0.2049  0.3421
  809TIP3   OH2 2432   5.578   5.315   3.290  0.3267  0.2485  0.1858
  809TIP3    H1 2433   5.655   5.265   3.314  0.7719  0.6955 -0.2653
  809TIP3    H2 2434   5.609   5.374   3.221 -0.6358 -0.2210 -0.6767
  810TIP3   OH2 2435   1.407   2.226   0.634  0.2318 -0.3320  0.0011
  810TIP3    H1 2436   1.467   2.192   0.700  1.2427 -0.3471 -0.9005
  810TIP3    H2 2437   1.394   2.154   0.573  0.2991  0.0678 -0.4958
  811TIP3   OH2 2438   2.748   3.837   0.778  0.4721  0.2800 -0.4998
  811TIP3    H1 2439   2.820   3.789   0.819  0.5056  1.0810  0.4024
  811TIP3    H2 2440   2.678   3.772   0.770  0.9275 -0.2309 -0.4255
  812TIP3   OH2 2441   5.317   5.317   3.168 -0.2224  0.1170  0.3019
  812TIP3    H1 2442   5.242   5.360   3.208 -0.3753  0.6828 -0.5713
  812TIP3    H2 2443   5.390   5.336   3.226 -1.0234 -1.8631  2.1002
  813TIP3   OH2 2444   1.222   2.735   1.494 -0.1561  0.4453  0.5525
  813TIP3    H1 2445   1.252   2.716   1.405  1.1424 -1.1563  1.2784
  813TIP3    H2 2446   1.288   2.794   1.529 -1.2182  1.9185  0.1502
  814TIP3   OH2 2447   3.879   3.926   1.629  1.0090  0.3713 -0.1550
  814TIP3    H1 2448   3.880   3.913   1.724 -0.4925 -3.4998 -0.4779
  814TIP3    H2 2449   3.786   3.932   1.607  1.1661 -1.3597 -1.5176
  815TIP3   OH2 2450   1.477   2.522   2.092 -0.9053  0.6262 -0.0391
  815TIP3    H1 2451   1.561   2.481   2.070 -1.7919  0.1994 -3.0751
  815TIP3    H2 2452   1.460   2.583   2.019 -4.0528 -0.6794 -0.5608
  816TIP3   OH2 2453   2.410   2.885   2.608 -0.3840  0.4714  0.0118
  816TIP3    H1 2454   2.499   2.919   2.605 -0.9404  1.9431 -0.7116
  816TIP3    H2 2455   2.367   2.939   2.675 -1.1376  0.8359 -0.7586
  817TIP3   OH2 2456   5.087   2.400   3.102  0.4253 -0.4787  0.2539
  817TIP3    H1 2457   5.036   2.408   3.022  0.8581 -0.9451 -0.0738
  817TIP3    H2 2458   5.160   2.342   3.078  1.1925  0.2982  0.6627
  818TIP3   OH2 2459   4.547   5.958   4.774  0.5683  0.2092 -0.1595
  818TIP3    H1 2460   4.528   6.002   4.856  1.9449  1.8901 -0.6880
  818TIP3    H2 2461   4.464   5.957   4.727  0.3676  1.7812  0.1053
  819TIP3   OH2 2462   6.299   5.483   0.233  0.1339  0.3671  0.1841
  819TIP3    H1 2463   6.385   5.443   0.217 -0.4213 -1.0625  0.5640
  819TIP3    H2 2464   6.309   5.574   0.207  1.8457  0.2885  0.4740
  820TIP3   OH2 2465   6.235   2.720   2.381  0.1437  0.3770 -0.1747
  820TIP3    H1 2466   6.300   2.769   2.431  0.8188  0.1326 -0.7927
  820TIP3    H2 2467   6.287   2.669   2.318 -0.7260  1.9563 -2.2830
  821TIP3   OH2 2468   3.056   2.073   3.468  0.1030  0.2340  0.5864
  821TIP3    H1 2469   3.124   2.139   3.457 -0.3871  0.6636  0.1065
  821TIP3    H2 2470   3.014   2.095   3.551 -0.6174  1.0506  0.0221
  822TIP3   OH2 2471   5.769   2.222   3.000 -0.1944  0.2896 -0.0906
  822TIP3    H1 2472   5.684   2.188   3.029 -0.0384 -0.0560 -0.0406
  822TIP3    H2 2473   5.761   2.317   3.010 -1.5779  0.5353 -2.7496
  823TIP3   OH2 2474   3.787   2.443   2.639  0.6787 -0.3646  0.3397
  823TIP3    H1 2475   3.781   2.533   2.672 -0.2012  0.5284 -2.0541
  823TIP3    H2 2476   3.847   2.449   2.565 -1.2350 -1.2234 -1.3611
  824TIP3   OH2 2477   4.437   4.084   0.131 -0.1979  0.6560  0.2051
  824TIP3    H1 2478   4.416   4.135   0.209 -1.4513  0.8725 -0.2412
  824TIP3    H2 2479   4.491   4.012   0.163  0.4676  1.5156  1.0492
  825TIP3   OH2 2480   2.182   4.145   4.694 -0.0903  0.4696  0.2992
  825TIP3    H1 2481   2.171   4.058   4.654 -0.2912  1.1064 -1.0833
  825TIP3    H2 2482   2.121   4.144   4.768 -2.4339  0.4785 -1.4963
  826TIP3   OH2 2483   0.814   1.615   0.735 -0.0794  0.5697  0.4049
  826TIP3    H1 2484   0.811   1.666   0.816 -1.9105 -0.8547  1.3181
  826TIP3    H2 2485   0.894   1.562   0.743 -0.7532 -0.3135  1.8363
  827TIP3   OH2 2486   2.671   2.350   0.841  0.1927 -0.1164 -0.7609
  827TIP3    H1 2487   2.616   2.319   0.913  1.1733  0.9925  0.5176
  827TIP3    H2 2488   2.728   2.277   0.820 -0.0325 -0.4156 -0.3405
  828TIP3   OH2 2489   0.908   3.595   2.406  0.3679  0.3587 -0.0490
  828TIP3    H1 2490   0.814   3.607   2.414  0.0326 -1.3172 -1.0088
  828TIP3    H2 2491   0.924   3.506   2.438  1.6261  0.6171  0.1078
  829TIP3   OH2 2492   2.908   0.520   3.062 -0.2003 -0.2422  0.0439
  829TIP3    H1 2493   2.848   0.594   3.052 -0.2240 -0.1840  0.6036
  829TIP3    H2 2494   2.852   0.443   3.059 -0.3399 -0.1800  0.7789
  830TIP3   OH2 2495   0.824   3.267   3.422 -0.5256  0.0548 -0.9056
  830TIP3    H1 2496   0.780   3.183   3.437 -0.7306  0.1847 -0.7795
  830TIP3    H2 2497   0.862   3.258   3.334  0.2599 -0.5198 -0.5217
  831TIP3   OH2 2498   0.383   5.778   1.139  0.1574  0.3524 -0.2309
  831TIP3    H1 2499   0.360   5.710   1.075 -1.8099  2.2640 -1.7019
  831TIP3    H2 2500   0.317   5.771   1.207  0.8229 -0.1292  0.3743
  832TIP3   OH2 2501   5.826   1.050   4.016  0.1804 -0.0224  0.0945
  832TIP3    H1 2502   5.864   1.089   3.937  0.4735 -0.2582  0.1133
  832TIP3    H2 2503   5.777   0.975   3.984 -2.1153  1.5082 -0.1664
  833TIP3   OH2 2504   6.026   3.580   3.457  0.3758 -0.4345  0.0011
  833TIP3    H1 2505   5.986   3.657   3.496 -0.6078 -0.8998 -0.0718
  833TIP3    H2 2506   6.106   3.613   3.415  1.2998  0.1238  2.0990
  834TIP3   OH2 2507   2.593   4.371   0.522 -0.6979  0.1889  0.8533
  834TIP3    H1 2508   2.645   4.355   0.600 -0.4434 -0.0259  0.6416
  834TIP3    H2 2509   2.638   4.443   0.477 -0.0079 -0.6457  0.1655
  835TIP3   OH2 2510   3.300   4.583   2.460  0.1659 -0.3921 -0.2602
  835TIP3    H1 2511   3.257   4.534   2.531 -1.4059  1.9035  0.4773
  835TIP3    H2 2512   3.231   4.599   2.397  0.6103  0.9151 -0.4440
  836TIP3   OH2 2513   5.522   3.726   4.099  0.2044  0.0609 -0.1216
  836TIP3    H1 2514   5.493   3.658   4.161 -2.4415 -0.5009 -1.8055
  836TIP3    H2 2515   5.490   3.696   4.014 -2.0935  3.8750 -0.8296
  837TIP3   OH2 2516   0.098   5.168   0.563 -0.5997 -0.0661  0.6311
  837TIP3    H1 2517   0.099   5.236   0.496 -1.2073 -0.8753 -0.2278
  837TIP3    H2 2518   0.009   5.169   0.597 -0.9052 -1.0591 -0.0798
  838TIP3   OH2 2519   5.909   5.575   3.371 -0.1144  0.7137 -0.3443
  838TIP3    H1 2520   5.900   5.609   3.282  0.1140  0.7425 -0.3578
  838TIP3    H2 2521   5.928   5.652   3.424 -0.5184  0.7320 -0.2285
  839TIP3   OH2 2522   2.464   5.666   0.841  0.1011  0.1321  0.1140
  839TIP3    H1 2523   2.505   5.743   0.880  1.1165 -0.4164  0.1657
  839TIP3    H2 2524   2.376   5.664   0.879 -0.6027  2.2505 -1.2350
  840TIP3   OH2 2525   5.641   1.790   1.003  0.4612 -0.0819 -0.9280
  840TIP3    H1 2526   5.728   1.775   0.966  0.0538 -1.3009 -1.4438
  840TIP3    H2 2527   5.595   1.708   0.989 -0.9932  0.7552 -1.2396
  841TIP3   OH2 2528   4.977   2.189   3.679 -0.0971 -0.0060 -0.2831
  841TIP3    H1 2529   5.069   2.210   3.695  0.1992 -0.5417 -1.2573
  841TIP3    H2 2530   4.964   2.105   3.722 -0.2938  0.3388  0.3489
  842TIP3   OH2 2531   2.816   2.242   2.901  0.0680 -0.0725 -0.1374
  842TIP3    H1 2532   2.765   2.316   2.933  0.2006  0.1921 -0.5350
  842TIP3    H2 2533   2.752   2.170   2.895  0.0108 -0.0865  0.5665
  843TIP3   OH2 2534   4.158   5.534   5.013  0.1019  0.0835  0.1397
  843TIP3    H1 2535   4.125   5.620   5.038 -1.5853 -0.6457  0.5588
  843TIP3    H2 2536   4.088   5.474   5.035  1.3508 -1.4564  0.1070
  844TIP3   OH2 2537   4.005   2.321   2.787  0.1482  0.5847 -0.0630
  844TIP3    H1 2538   3.916   2.351   2.767  0.3346  2.0528  1.1496
  844TIP3    H2 2539   4.062   2.392   2.757  1.0668 -0.7897 -1.8362
  845TIP3   OH2 2540   2.244   2.172   4.041 -0.5875  0.1510 -0.4716
  845TIP3    H1 2541   2.296   2.106   3.996 -1.4569 -0.6639 -0.3098
  845TIP3    H2 2542   2.218   2.130   4.123  0.0654  1.2247  0.3089
  846TIP3   OH2 2543   1.832   3.025   0.518 -0.2167 -0.4248 -0.1485
  846TIP3    H1 2544   1.782   3.104   0.539  0.1231 -0.3860  0.5565
  846TIP3    H2 2545   1.864   3.039   0.429 -0.4077  0.1018 -0.1368
  847TIP3   OH2 2546   0.361   0.253   4.659 -0.2518  0.6696  0.9415
  847TIP3    H1 2547   0.334   0.161   4.669 -1.2024  0.8497  0.1768
  847TIP3    H2 2548   0.336   0.276   4.570  1.3277  1.2583  0.6271
  848TIP3   OH2 2549   5.558   5.787   4.170 -0.6728 -0.3717 -0.0366
  848TIP3    H1 2550   5.516   5.744   4.244 -3.4624  0.3861 -1.0761
  848TIP3    H2 2551   5.521   5.875   4.168 -0.7124 -0.3766 -2.3458
  849TIP3   OH2 2552   1.636   1.793   1.112 -0.1365  0.1738 -0.0191
  849TIP3    H1 2553   1.688   1.738   1.052  0.4668  1.1341 -0.3963
  849TIP3    H2 2554   1.560   1.739   1.133  0.1992 -0.6245 -0.7681
  850TIP3   OH2 2555   0.120   4.806   2.969 -0.0812  0.0444  0.0750
  850TIP3    H1 2556   0.208   4.841   2.981  0.7530 -1.0167 -2.2972
  850TIP3    H2 2557   0.133   4.726   2.918 -2.4744  0.3181 -1.1156
  851TIP3   OH2 2558   1.196   0.581   2.326  0.1639 -0.1435 -0.6670
  851TIP3    H1 2559   1.190   0.648   2.394  0.1080 -1.9854  1.2572
  851TIP3    H2 2560   1.136   0.611   2.258  0.9574  2.2699 -0.4027
  852TIP3   OH2 2561   5.584   0.330   2.210 -0.1630  0.2240 -0.2697
  852TIP3    H1 2562   5.614   0.242   2.187 -1.4065 -0.5564  0.9693
  852TIP3    H2 2563   5.615   0.343   2.299 -2.4782 -0.2015  0.6773
  853TIP3   OH2 2564   0.702   4.398   2.804  0.1993 -0.0527 -0.3868
  853TIP3    H1 2565   0.632   4.398   2.739 -0.9651  0.7674  0.8050
  853TIP3    H2 2566   0.754   4.321   2.784  0.3754  0.6110 -2.7785
  854TIP3   OH2 2567   0.944   5.163   2.932  0.3887 -0.0098  0.0569
  854TIP3    H1 2568   0.876   5.183   2.867 -0.5455  0.5950  1.1900
  854TIP3    H2 2569   0.931   5.070   2.951  1.1239 -0.3772 -1.1081
  855TIP3   OH2 2570   3.716   4.155   4.440 -0.0919  0.0472 -0.6927
  855TIP3    H1 2571   3.685   4.135   4.352 -3.0042  0.7117  0.0806
  855TIP3    H2 2572   3.718   4.250   4.445  0.5270  0.0197 -0.1632
  856TIP3   OH2 2573   2.270   0.328   0.472 -0.9988  0.3960 -0.8650
  856TIP3    H1 2574   2.225   0.386   0.533  0.5913  1.2777 -0.4549
  856TIP3    H2 2575   2.256   0.367   0.386  0.0863  1.4560 -0.5867
  857TIP3   OH2 2576   0.183   3.442   0.883 -0.0091 -0.0921  0.2898
  857TIP3    H1 2577   0.233   3.410   0.808 -1.1014 -1.6478  0.1579
  857TIP3    H2 2578   0.157   3.531   0.859  1.2144  0.1079 -0.3531
  858TIP3   OH2 2579   3.813   2.919   1.099 -0.2693  0.2946 -0.2418
  858TIP3    H1 2580   3.743   2.974   1.134 -0.5085  0.6052 -1.1839
  858TIP3    H2 2581   3.767   2.855   1.044 -0.1266 -1.6507  1.7642
  859TIP3   OH2 2582   1.759   4.471   4.540  0.1087  0.1603  0.5703
  859TIP3    H1 2583   1.665   4.455   4.525  0.6832 -2.1689 -1.1639
  859TIP3    H2 2584   1.777   4.430   4.624 -0.2376 -0.3690  0.3907
  860TIP3   OH2 2585   1.773   0.314   2.731 -0.0113 -0.1121  0.2179
  860TIP3    H1 2586   1.844   0.255   2.705  0.0751 -0.5209  1.3225
  860TIP3    H2 2587   1.801   0.400   2.700  0.8688 -0.3105  0.4349
  861TIP3   OH2 2588   2.401   5.291   5.119 -0.2549 -0.3942 -0.4636
  861TIP3    H1 2589   2.320   5.305   5.168  1.9816  0.3587  3.4110
  861TIP3    H2 2590   2.411   5.196   5.115 -0.5764 -0.4709  0.4436
  862TIP3   OH2 2591   5.044   2.200   0.947  0.5292 -0.5974  0.1798
  862TIP3    H1 2592   5.127   2.210   0.898  0.4278  0.0212  0.1220
  862TIP3    H2 2593   5.071   2.187   1.038  0.6881  0.7155  0.3444
  863TIP3   OH2 2594   3.025   4.898   0.282  0.2885  0.1674  0.3271
  863TIP3    H1 2595   2.976   4.977   0.260  0.0881  0.2022  0.8845
  863TIP3    H2 2596   3.105   4.904   0.231 -0.2195  0.1872 -0.4723
  864TIP3   OH2 2597   0.345   3.596   4.311  0.2264 -0.4512  0.3458
  864TIP3    H1 2598   0.398   3.524   4.274  1.3322  1.5290 -2.2442
  864TIP3    H2 2599   0.258   3.558   4.323  0.3782 -1.8928 -2.3549
  865TIP3   OH2 2600   6.263   2.128   4.817  0.4846 -0.3532  0.5089
  865TIP3    H1 2601   6.335   2.115   4.879  2.3826  1.8533 -1.0554
  865TIP3    H2 2602   6.227   2.214   4.841  1.6050  0.8074 -1.6191
  866TIP3   OH2 2603   0.245   1.904   3.931  0.9409 -0.1278  0.1581
  866TIP3    H1 2604   0.301   1.944   3.864  1.4967 -0.0422  0.6664
  866TIP3    H2 2605   0.223   1.975   3.990 -0.7898  0.1297 -0.7283
  867TIP3   OH2 2606   5.723   0.099   5.103  0.6181  0.6269  0.2093
  867TIP3    H1 2607   5.633   0.113   5.073  0.5546 -0.8834 -0.3688
  867TIP3    H2 2608   5.754   0.187   5.125 -0.5335  1.3523 -0.8860
  868TIP3   OH2 2609   1.570   2.237   3.207  0.7455 -0.7367 -0.2910
  868TIP3    H1 2610   1.631   2.173   3.170 -0.0907 -1.7644  0.0748
  868TIP3    H2 2611   1.568   2.217   3.300  1.2285  0.4840 -0.0015
  869TIP3   OH2 2612   1.238   4.234   4.401  0.3876  0.3199  0.3089
  869TIP3    H1 2613   1.149   4.206   4.419  0.1631  0.7272 -0.1283
  869TIP3    H2 2614   1.234   4.272   4.313  0.8407  0.9830  0.5613
  870TIP3   OH2 2615   4.321   4.501   0.545  0.4609  0.1447  0.7702
  870TIP3    H1 2616   4.352   4.526   0.458  2.8375 -2.1211  0.8279
  870TIP3    H2 2617   4.338   4.578   0.599  0.1102  1.1528 -0.5053
  871TIP3   OH2 2618   3.318   2.791   2.814 -0.0339  0.3188 -0.7997
  871TIP3    H1 2619   3.316   2.770   2.907 -2.0138  2.0974 -0.3402
  871TIP3    H2 2620   3.375   2.868   2.808 -0.7127  0.8353 -0.8489
  872TIP3   OH2 2621   2.770   2.499   3.355  0.1845 -0.0549  0.0781
  872TIP3    H1 2622   2.858   2.530   3.371  0.0198  0.9563 -0.8485
  872TIP3    H2 2623   2.713   2.558   3.404 -0.0524  0.2206 -0.5150
  873TIP3   OH2 2624   5.443   3.481   1.771  0.1581 -0.5052 -0.2698
  873TIP3    H1 2625   5.460   3.531   1.690  2.9379  0.3643  0.7074
  873TIP3    H2 2626   5.528   3.441   1.792 -0.2831 -0.1798  2.5272
  874TIP3   OH2 2627   0.901   0.291   0.455 -0.1623 -0.9404 -0.1186
  874TIP3    H1 2628   0.963   0.293   0.528  1.1222  1.8667 -1.1586
  874TIP3    H2 2629   0.815   0.297   0.498  0.3288 -2.7919  1.2517
  875TIP3   OH2 2630   4.636   0.599   4.745  0.2279 -0.3894  0.6517
  875TIP3    H1 2631   4.668   0.575   4.832  1.1009  0.5096  0.5999
  875TIP3    H2 2632   4.552   0.642   4.761 -0.4594 -1.7562  0.8848
  876TIP3   OH2 2633   2.092   3.926   1.417 -0.6164 -0.7824 -0.3770
  876TIP3    H1 2634   2.185   3.917   1.397 -0.7695 -1.4924 -0.8112
  876TIP3    H2 2635   2.090   3.946   1.511 -0.0074 -0.2443 -0.4723
  877TIP3   OH2 2636   0.655   4.799   2.647 -0.0426 -0.4640 -0.0967
  877TIP3    H1 2637   0.672   4.758   2.731  1.2056 -0.8370 -0.5142
  877TIP3    H2 2638   0.636   4.891   2.668 -0.6989 -0.7578  0.6504
  878TIP3   OH2 2639   6.003   2.577   0.609  0.4211  0.1696 -0.3095
  878TIP3    H1 2640   6.036   2.661   0.641 -1.3426  0.4133  1.0390
  878TIP3    H2 2641   6.069   2.513   0.635 -0.0785  0.6225  2.3130
  879TIP3   OH2 2642   5.960   5.004   2.360 -0.1503  0.6626 -0.3804
  879TIP3    H1 2643   5.927   5.082   2.404  0.1073  1.5657 -1.7331
  879TIP3    H2 2644   6.032   5.036   2.306  1.1271 -0.8102  0.3635
  880TIP3   OH2 2645   0.153   0.177   2.714 -0.3415 -0.0620  0.7606
  880TIP3    H1 2646   0.064   0.163   2.747  0.0381 -1.8073  1.1137
  880TIP3    H2 2647   0.196   0.229   2.781 -0.9419  0.3775  0.8138
  881TIP3   OH2 2648   3.949   3.579   4.451  0.0696  0.2488 -0.4187
  881TIP3    H1 2649   3.970   3.671   4.433  0.3845  0.6490  1.7413
  881TIP3    H2 2650   3.863   3.566   4.410 -0.9514  2.1415  0.9506
  882TIP3   OH2 2651   1.288   4.433   1.545 -0.0194 -0.0090 -0.0936
  882TIP3    H1 2652   1.255   4.427   1.456 -1.4540 -1.1071  0.4654
  882TIP3    H2 2653   1.273   4.525   1.570  0.0188  0.2078 -0.8408
  883TIP3   OH2 2654   5.117   2.459   4.093 -0.0545  0.4011 -0.1620
  883TIP3    H1 2655   5.191   2.398   4.094 -0.2813  0.1250  0.8364
  883TIP3    H2 2656   5.085   2.455   4.004  1.1603  0.5590 -0.6321
  884TIP3   OH2 2657   3.997   3.709   2.823 -0.0038 -0.1426 -0.3665
  884TIP3    H1 2658   4.085   3.673   2.810 -0.3255 -0.6130 -1.3593
  884TIP3    H2 2659   3.963   3.721   2.734 -1.1170 -0.3989  0.0126
  885TIP3   OH2 2660   2.089   1.530   2.891  0.3724  0.1536 -0.0425
  885TIP3    H1 2661   2.140   1.452   2.914  0.4960 -0.0619 -1.0227
  885TIP3    H2 2662   2.154   1.599   2.882  0.1056  0.9048  2.8031
  886TIP3   OH2 2663   0.863   5.801   4.250 -0.1805 -0.3383  0.4157
  886TIP3    H1 2664   0.852   5.776   4.341  0.9904  0.0010  0.6653
  886TIP3    H2 2665   0.786   5.855   4.230 -0.5730 -0.6302  1.1191
  887TIP3   OH2 2666   0.540   1.976   4.127 -0.3225 -0.3221 -0.7854
  887TIP3    H1 2667   0.596   1.993   4.203  0.6732 -0.7556 -1.4044
  887TIP3    H2 2668   0.452   1.993   4.158  0.1310  0.1763  0.2790
  888TIP3   OH2 2669   0.184   5.822   4.896  0.0154  0.2675 -0.5524
  888TIP3    H1 2670   0.097   5.813   4.857  0.3654 -1.1495 -1.0749
  888TIP3    H2 2671   0.174   5.785   4.983  0.4810 -1.6429 -1.2520
  889TIP3   OH2 2672   5.945   4.863   0.350  0.0515  0.1882  0.0411
  889TIP3    H1 2673   5.878   4.852   0.417 -0.8379  1.9741 -0.4885
  889TIP3    H2 2674   5.926   4.794   0.286  0.9887 -1.6189  1.5864
  890TIP3   OH2 2675   4.634   0.538   2.874  0.2312 -0.3368 -0.6172
  890TIP3    H1 2676   4.640   0.465   2.813 -1.6467 -1.1248  0.0483
  890TIP3    H2 2677   4.571   0.598   2.834 -0.9603 -0.8240  0.4331
  891TIP3   OH2 2678   4.786   2.478   2.499 -0.2477  0.1518 -0.2038
  891TIP3    H1 2679   4.778   2.572   2.512  2.1398  0.5124 -0.8257
  891TIP3    H2 2680   4.858   2.452   2.556  0.3605 -0.9307 -1.3964
  892TIP3   OH2 2681   5.570   2.629   1.762 -0.0563 -0.0958  0.0868
  892TIP3    H1 2682   5.639   2.688   1.790 -1.1113  0.1815  2.3328
  892TIP3    H2 2683   5.493   2.685   1.753 -0.2992 -0.6013 -1.1405
  893TIP3   OH2 2684   1.443   3.469   3.164  0.0108  0.3927  0.0284
  893TIP3    H1 2685   1.395   3.505   3.239 -2.0306 -2.7376  0.3891
  893TIP3    H2 2686   1.521   3.429   3.202  0.8345  1.8386 -0.0459
  894TIP3   OH2 2687   5.854   5.756   5.010  0.1549  0.2900 -0.5485
  894TIP3    H1 2688   5.945   5.729   5.000 -0.1491 -0.3740 -1.8249
  894TIP3    H2 2689   5.858   5.843   5.049  1.2739 -0.3700  0.8537
  895TIP3   OH2 2690   4.853   4.420   0.431  0.2390 -0.0348 -0.4044
  895TIP3    H1 2691   4.765   4.395   0.460  0.1739  0.9635  0.2938
  895TIP3    H2 2692   4.900   4.440   0.512  0.5277  1.2978 -0.8754
  896TIP3   OH2 2693   3.052   1.810   4.973 -0.1394 -0.1947 -0.1737
  896TIP3    H1 2694   3.017   1.733   5.018 -0.6606  0.4509  0.5564
  896TIP3    H2 2695   3.097   1.859   5.042  1.5312 -0.5975 -0.9397
  897TIP3   OH2 2696   4.133   1.401   2.005 -0.2420 -0.2621  0.0398
  897TIP3    H1 2697   4.085   1.455   1.944 -0.4851  0.2484  0.6667
  897TIP3    H2 2698   4.092   1.314   2.000  0.3739 -0.4923 -1.2237
  898TIP3   OH2 2699   6.181   5.057   4.301  0.4138  0.3504  0.4488
  898TIP3    H1 2700   6.229   5.140   4.298 -0.5156  0.8760 -0.3432
  898TIP3    H2 2701   6.235   4.997   4.248  2.6369 -0.4728  3.3485
  899TIP3   OH2 2702   3.036   1.420   4.970  0.3514 -0.1570  0.1371
  899TIP3    H1 2703   2.956   1.396   4.923 -0.0391  1.3753 -0.0573
  899TIP3    H2 2704   3.006   1.477   5.040  1.2636  0.3891  0.0993
  900TIP3   OH2 2705   0.213   5.658   1.582 -0.3082 -0.4762 -0.5996
  900TIP3    H1 2706   0.292   5.670   1.634  1.1343 -2.3197 -2.2150
  900TIP3    H2 2707   0.156   5.605   1.638  0.1150 -0.2250  0.0861
  901TIP3   OH2 2708   5.766   0.684   3.331 -0.1797  0.5460 -0.1589
  901TIP3    H1 2709   5.853   0.688   3.290 -0.9411 -0.0863 -1.9302
  901TIP3    H2 2710   5.771   0.608   3.390  0.2582  0.0699 -0.7926
  902TIP3   OH2 2711   0.252   1.834   3.180 -0.3501 -0.0897  0.0779
  902TIP3    H1 2712   0.276   1.744   3.204  0.4135  0.1735  0.3248
  902TIP3    H2 2713   0.302   1.889   3.239 -1.6004  0.4947  0.6279
  903TIP3   OH2 2714   3.817   3.536   1.466 -0.1960  0.1599 -0.6155
  903TIP3    H1 2715   3.752   3.580   1.521 -0.4138  0.6041 -1.2210
  903TIP3    H2 2716   3.867   3.608   1.427 -2.1603  0.0651 -3.6234
  904TIP3   OH2 2717   6.128   4.096   0.564 -0.0808 -0.0312 -0.2206
  904TIP3    H1 2718   6.174   4.129   0.641  1.6491 -0.9015 -0.8218
  904TIP3    H2 2719   6.075   4.023   0.597  0.0977  0.0520  0.2593
  905TIP3   OH2 2720   3.472   0.113   0.540 -0.1083  0.3048  0.6558
  905TIP3    H1 2721   3.558   0.155   0.543 -0.7460  1.7594 -0.2437
  905TIP3    H2 2722   3.491   0.019   0.544  1.5634  0.5720 -0.0779
  906TIP3   OH2 2723   0.471   1.201   2.046  0.3687  1.0002  0.0841
  906TIP3    H1 2724   0.551   1.247   2.073 -0.0278  0.5288  2.2850
  906TIP3    H2 2725   0.400   1.247   2.091 -0.4058  0.2924 -0.3812
  907TIP3   OH2 2726   2.973   2.545   4.846  0.3983  0.0186  0.2300
  907TIP3    H1 2727   2.975   2.463   4.797 -1.7518  0.2522 -0.3415
  907TIP3    H2 2728   2.960   2.519   4.937  0.5069 -0.2827  0.1611
  908TIP3   OH2 2729   3.519   5.465   1.838 -0.3508  0.6191 -0.3773
  908TIP3    H1 2730   3.457   5.463   1.911  1.0858  0.6212  0.8931
  908TIP3    H2 2731   3.548   5.374   1.829  0.2820  0.8004 -0.2221
  909TIP3   OH2 2732   3.204   4.325   2.161 -0.3988 -0.1333 -1.0705
  909TIP3    H1 2733   3.268   4.279   2.216 -0.3580  2.6366  1.4455
  909TIP3    H2 2734   3.242   4.323   2.074  2.0129 -0.5837 -0.0866
  910TIP3   OH2 2735   5.434   0.097   3.440 -0.4277 -0.2799  0.3206
  910TIP3    H1 2736   5.350   0.062   3.469 -0.7139 -2.1221 -2.3566
  910TIP3    H2 2737   5.489   0.020   3.425  0.4256  0.6317 -1.5863
  911TIP3   OH2 2738   5.290   5.861   0.409 -0.0774 -0.2002  0.3376
  911TIP3    H1 2739   5.239   5.867   0.490  1.7443 -0.2671  1.5491
  911TIP3    H2 2740   5.350   5.935   0.413 -1.5458  1.2467 -2.1796
  912TIP3   OH2 2741   0.255   2.677   3.797  0.4602 -0.9092  0.2628
  912TIP3    H1 2742   0.249   2.654   3.705 -0.4232 -0.2138  0.1372
  912TIP3    H2 2743   0.165   2.693   3.824  0.8171  0.1416  0.9107
  913TIP3   OH2 2744   3.291   3.589   4.469 -0.2218  0.1719 -0.5731
  913TIP3    H1 2745   3.272   3.665   4.414  1.1769 -0.9501 -2.8095
  913TIP3    H2 2746   3.206   3.546   4.481 -1.1453  2.3463  1.3039
  914TIP3   OH2 2747   3.445   3.318   2.662  0.2894  0.0967 -0.1748
  914TIP3    H1 2748   3.501   3.351   2.592  2.0015 -2.9448 -0.3880
  914TIP3    H2 2749   3.498   3.325   2.742  0.8072 -2.1102 -0.2547
  915TIP3   OH2 2750   1.073   1.486   4.925  0.2921  0.0160 -0.1905
  915TIP3    H1 2751   1.086   1.574   4.962 -0.5233  0.7320 -1.5264
  915TIP3    H2 2752   0.982   1.486   4.896  0.2043 -1.3794  0.0013
  916TIP3   OH2 2753   2.192   4.430   4.115 -0.7250 -0.6063 -0.1485
  916TIP3    H1 2754   2.129   4.499   4.094 -1.4881 -0.9373  0.8881
  916TIP3    H2 2755   2.237   4.462   4.193 -0.7265 -1.0525  0.0399
  917TIP3   OH2 2756   4.058   4.640   2.975  0.8461  0.0127  0.0974
  917TIP3    H1 2757   4.113   4.643   3.053 -0.7494  0.4751  1.2456
  917TIP3    H2 2758   3.969   4.632   3.008  0.1905 -0.7062 -1.7122
  918TIP3   OH2 2759   4.592   2.758   1.356 -0.4806 -0.0499  0.6368
  918TIP3    H1 2760   4.614   2.753   1.449  0.9225  1.4311  0.4215
  918TIP3    H2 2761   4.619   2.846   1.329  1.1962 -1.1722 -1.6940
  919TIP3   OH2 2762   2.947   1.234   1.160 -0.4474 -0.0237 -0.3047
  919TIP3    H1 2763   3.006   1.280   1.100 -0.5207 -0.0372 -0.3877
  919TIP3    H2 2764   3.002   1.207   1.233 -0.4465  0.3824 -0.1546
  920TIP3   OH2 2765   3.659   0.443   4.245 -0.6031  0.3888 -0.0093
  920TIP3    H1 2766   3.625   0.451   4.335 -0.2431 -2.2120  0.4129
  920TIP3    H2 2767   3.742   0.490   4.248  0.4652 -1.4508  1.6799
  921TIP3   OH2 2768   5.462   3.228   3.567  0.0365  0.2291 -0.2423
  921TIP3    H1 2769   5.557   3.231   3.557  0.1658  1.5392  0.9737
  921TIP3    H2 2770   5.433   3.164   3.502  1.6674  0.3877 -1.2001
  922TIP3   OH2 2771   5.269   5.235   1.754  0.3607  0.0071  0.4170
  922TIP3    H1 2772   5.226   5.307   1.708 -1.7556 -1.4967 -0.1391
  922TIP3    H2 2773   5.346   5.215   1.701  1.1229  1.9591  0.7133
  923TIP3   OH2 2774   4.411   4.366   0.913 -0.0799 -0.5698  0.6006
  923TIP3    H1 2775   4.375   4.453   0.895  0.6390 -0.5787 -1.0637
  923TIP3    H2 2776   4.496   4.383   0.953 -0.9538 -0.5504  2.5674
  924TIP3   OH2 2777   0.247   3.808   3.809 -0.1020 -0.0103 -0.5849
  924TIP3    H1 2778   0.280   3.788   3.897 -1.3035 -1.1402 -0.3638
  924TIP3    H2 2779   0.322   3.794   3.752 -0.0800 -2.4644 -0.0911
  925TIP3   OH2 2780   5.237   3.028   4.106 -0.2420 -0.4751  0.1964
  925TIP3    H1 2781   5.214   2.939   4.080  0.6360 -1.1012  1.4669
  925TIP3    H2 2782   5.158   3.062   4.149 -1.3283  0.1844 -2.1379
  926TIP3   OH2 2783   5.231   2.461   3.565 -0.6215 -0.0276  0.2448
  926TIP3    H1 2784   5.239   2.499   3.478 -0.6785 -0.9101 -0.1608
  926TIP3    H2 2785   5.319   2.465   3.602 -0.5513  0.1383  0.0605
  927TIP3   OH2 2786   1.627   5.232   0.285  0.2168  0.3339 -0.2717
  927TIP3    H1 2787   1.707   5.258   0.240 -0.4685 -0.5015 -2.0414
  927TIP3    H2 2788   1.627   5.136   0.281  0.0335  0.2326  1.3750
  928TIP3   OH2 2789   3.889   4.738   1.041  0.6304 -0.0847 -0.4646
  928TIP3    H1 2790   3.861   4.647   1.028 -0.2051  0.1204 -0.1285
  928TIP3    H2 2791   3.825   4.789   0.991  2.9772  0.1749 -3.5029
  929TIP3   OH2 2792   3.801   0.886   3.406  0.3632 -0.1711  0.1741
  929TIP3    H1 2793   3.742   0.943   3.355  0.6555 -0.4794 -0.5265
  929TIP3    H2 2794   3.758   0.800   3.403  0.4330 -0.2122  0.3691
  930TIP3   OH2 2795   4.249   1.708   2.191 -0.4136  0.0344  0.1646
  930TIP3    H1 2796   4.268   1.748   2.276  0.0615  1.2873 -0.5130
  930TIP3    H2 2797   4.284   1.619   2.198  0.0163  0.2726  1.1291
  931TIP3   OH2 2798   5.217   1.523   3.565 -0.1085 -0.5815 -0.5683
  931TIP3    H1 2799   5.164   1.570   3.501 -0.2604 -2.0420 -1.5392
  931TIP3    H2 2800   5.301   1.569   3.565 -0.1654 -0.4587 -1.6865
  932TIP3   OH2 2801   1.450   5.199   3.013  0.2878  0.7709  0.2796
  932TIP3    H1 2802   1.439   5.130   3.078 -0.2720  0.0218 -0.5795
  932TIP3    H2 2803   1.484   5.274   3.062 -0.0336  0.1983  1.4023
  933TIP3   OH2 2804   1.457   1.508   1.814 -0.0265 -0.6383 -0.0474
  933TIP3    H1 2805   1.430   1.539   1.900 -0.6411 -1.9819  0.2749
  933TIP3    H2 2806   1.404   1.559   1.753  0.4811  0.3875  0.3513
  934TIP3   OH2 2807   3.008   0.844   0.083  0.6026 -0.3175 -0.7946
  934TIP3    H1 2808   3.013   0.770   0.143 -0.3912  0.0081 -0.2895
  934TIP3    H2 2809   3.095   0.884   0.086  1.4545 -1.9658 -1.7654
  935TIP3   OH2 2810   4.597   4.881   1.191  0.6099 -0.0361 -0.0422
  935TIP3    H1 2811   4.616   4.939   1.265  1.3209  1.5318 -1.3663
  935TIP3    H2 2812   4.557   4.939   1.126 -0.2067 -1.4160 -0.8035
  936TIP3   OH2 2813   5.026   5.317   1.473  0.9363 -0.0125 -0.0303
  936TIP3    H1 2814   5.024   5.240   1.530  1.5953  0.9341  1.3034
  936TIP3    H2 2815   4.947   5.309   1.419  1.5433 -2.2013 -0.7215
  937TIP3   OH2 2816   2.325   0.698   2.176 -0.5174 -0.3643 -0.3363
  937TIP3    H1 2817   2.317   0.674   2.268 -0.4439  0.4837 -0.0983
  937TIP3    H2 2818   2.250   0.656   2.134 -2.3936  1.7639  0.6607
  938TIP3   OH2 2819   1.126   0.136   1.440  0.2800  0.4721 -0.4795
  938TIP3    H1 2820   1.132   0.131   1.345 -1.9915  1.9879 -0.7796
  938TIP3    H2 2821   1.200   0.190   1.467 -0.5764  2.3343 -1.7159
  939TIP3   OH2 2822   5.481   5.465   0.121  0.4423 -0.3781 -0.7245
  939TIP3    H1 2823   5.439   5.530   0.178  1.3753 -1.4012  1.2273
  939TIP3    H2 2824   5.419   5.453   0.049 -1.5880 -0.2265  0.9003
  940TIP3   OH2 2825   1.210   0.807   3.582 -0.4896 -0.1050  0.1736
  940TIP3    H1 2826   1.302   0.799   3.608 -0.6501  0.1899  0.8533
  940TIP3    H2 2827   1.187   0.720   3.549  0.3915  0.1564 -1.2570
  941TIP3   OH2 2828   3.155   5.369   4.720 -0.0168  0.8904 -0.0552
  941TIP3    H1 2829   3.166   5.277   4.747 -0.4706  0.1371 -2.2283
  941TIP3    H2 2830   3.234   5.388   4.669  2.5553  3.3852  4.1958
  942TIP3   OH2 2831   3.222   4.566   1.246  0.2831  0.2988 -0.3966
  942TIP3    H1 2832   3.299   4.570   1.189 -1.5003 -0.0722 -3.0084
  942TIP3    H2 2833   3.183   4.653   1.239 -0.2077  0.1041 -0.1212
  943TIP3   OH2 2834   2.690   2.467   3.005 -0.1581  0.6672 -0.1308
  943TIP3    H1 2835   2.706   2.550   3.050 -1.4544  0.6330  0.4712
  943TIP3    H2 2836   2.652   2.492   2.921  1.1629  0.7036 -0.7405
  944TIP3   OH2 2837   5.663   4.974   3.469 -0.1836  0.6015 -0.4308
  944TIP3    H1 2838   5.608   4.989   3.392  0.3116 -0.1210 -0.9481
  944TIP3    H2 2839   5.647   5.049   3.526 -0.3038  1.3235 -1.3903
  945TIP3   OH2 2840   2.319   4.188   1.484 -0.4887 -0.3096 -0.2271
  945TIP3    H1 2841   2.299   4.140   1.565  1.1095  0.6787  0.8089
  945TIP3    H2 2842   2.407   4.222   1.498 -1.5430  3.0566 -0.8300
  946TIP3   OH2 2843   5.035   3.080   2.916  0.0405 -0.0217  0.4209
  946TIP3    H1 2844   5.085   3.008   2.954  1.8004  0.1738 -1.3825
  946TIP3    H2 2845   5.101   3.139   2.880 -1.4201  1.6927  0.4020
  947TIP3   OH2 2846   0.447   3.326   0.919  0.4051  0.1559  0.1465
  947TIP3    H1 2847   0.361   3.369   0.920  0.4669  0.2823  0.5623
  947TIP3    H2 2848   0.429   3.235   0.897  0.1081  0.0713  0.7275
  948TIP3   OH2 2849   1.895   4.440   2.888 -0.0130  0.1359  0.2712
  948TIP3    H1 2850   1.806   4.453   2.921  0.1324 -0.1408  0.7886
  948TIP3    H2 2851   1.902   4.346   2.873  0.2133  0.1459  0.3062
  949TIP3   OH2 2852   4.395   2.636   4.747 -0.2341  0.4402  0.3577
  949TIP3    H1 2853   4.433   2.629   4.659 -0.8085  0.0539  0.1373
  949TIP3    H2 2854   4.403   2.729   4.769 -0.5775  0.6420 -0.3298
  950TIP3   OH2 2855   0.864   2.465   2.649 -0.0791 -0.4605  0.7214
  950TIP3    H1 2856   0.779   2.460   2.692 -0.3456 -1.9300  0.0937
  950TIP3    H2 2857   0.845   2.505   2.564  0.2068  1.0416  1.3280
  951TIP3   OH2 2858   5.948   5.767   3.569  0.2296 -0.0721 -0.3342
  951TIP3    H1 2859   5.864   5.727   3.589  0.3487 -1.5192 -2.4395
  951TIP3    H2 2860   5.987   5.786   3.655 -1.9221  0.0541  0.6715
  952TIP3   OH2 2861   5.595   0.156   3.057  0.2078 -0.2582 -0.3779
  952TIP3    H1 2862   5.510   0.179   3.096  0.4532  1.2294 -0.6442
  952TIP3    H2 2863   5.574   0.113   2.975 -0.2926 -0.7061 -0.0178
  953TIP3   OH2 2864   4.470   2.534   0.348  0.1502 -0.1597 -0.1231
  953TIP3    H1 2865   4.489   2.603   0.412 -0.9405  0.8698 -0.8662
  953TIP3    H2 2866   4.544   2.538   0.286  0.4129 -0.0934  0.1908
  954TIP3   OH2 2867   2.423   2.635   1.978  0.3560  0.1852 -0.3206
  954TIP3    H1 2868   2.383   2.713   1.940 -0.1221  0.6171  1.0143
  954TIP3    H2 2869   2.355   2.598   2.034  0.3333 -1.6096 -1.4602
  955TIP3   OH2 2870   0.261   3.613   0.574  0.6401  0.5484 -0.4184
  955TIP3    H1 2871   0.210   3.630   0.654 -0.1364 -0.3711 -0.7004
  955TIP3    H2 2872   0.238   3.684   0.515 -2.0894 -0.9516 -1.3603
  956TIP3   OH2 2873   2.612   1.297   4.139 -0.2578  0.4568 -0.1213
  956TIP3    H1 2874   2.546   1.306   4.069 -0.1206  0.4341 -0.2539
  956TIP3    H2 2875   2.561   1.300   4.220 -0.4869 -0.1667 -0.2411
  957TIP3   OH2 2876   0.322   5.372   2.918 -0.1075 -0.5213  0.3661
  957TIP3    H1 2877   0.405   5.400   2.958  0.1996 -0.8054 -0.0657
  957TIP3    H2 2878   0.314   5.427   2.840 -0.5361 -0.2105  0.6192
  958TIP3   OH2 2879   3.380   0.194   4.665 -0.2223  0.2631 -0.5820
  958TIP3    H1 2880   3.351   0.112   4.626  1.5705 -0.4318 -0.5241
  958TIP3    H2 2881   3.370   0.180   4.759 -3.7517  1.6412 -0.5920
  959TIP3   OH2 2882   3.714   3.413   2.492  0.9853 -0.4966  0.2539
  959TIP3    H1 2883   3.745   3.324   2.478 -0.6967 -1.1374  0.3517
  959TIP3    H2 2884   3.699   3.448   2.404 -0.2767 -1.0516  0.2298
  960TIP3   OH2 2885   5.659   3.047   0.233 -0.3578 -0.1942  0.2245
  960TIP3    H1 2886   5.697   2.981   0.175 -1.2018 -0.1115 -0.4383
  960TIP3    H2 2887   5.717   3.123   0.224 -0.1905 -0.3598 -0.1201
  961TIP3   OH2 2888   6.263   5.851   2.670  0.1396  0.5459 -0.7674
  961TIP3    H1 2889   6.324   5.838   2.743  1.3726 -0.6718 -1.9452
  961TIP3    H2 2890   6.247   5.945   2.668 -1.1570  0.4600  1.9993
  962TIP3   OH2 2891   2.555   1.299   3.695  0.1281  0.0418  0.0454
  962TIP3    H1 2892   2.494   1.225   3.692  0.0192  0.1546 -0.8190
  962TIP3    H2 2893   2.611   1.281   3.770  0.4071 -1.1839 -0.4297
  963TIP3   OH2 2894   2.172   3.464   4.992 -0.2677  0.5007 -0.3154
  963TIP3    H1 2895   2.120   3.396   5.037  1.1476 -0.6194 -0.3052
  963TIP3    H2 2896   2.239   3.488   5.056  0.5154  0.3806 -1.0864
  964TIP3   OH2 2897   5.502   0.446   1.124 -0.2339  0.5107 -0.2732
  964TIP3    H1 2898   5.522   0.393   1.201 -0.1952  1.0374  0.0823
  964TIP3    H2 2899   5.417   0.486   1.143 -1.1098 -0.7809 -1.2763
  965TIP3   OH2 2900   2.412   4.814   0.471  0.5291 -0.2034 -0.2901
  965TIP3    H1 2901   2.369   4.809   0.385  2.6845  0.2574 -1.4613
  965TIP3    H2 2902   2.408   4.725   0.505  2.8729 -1.3263 -2.5968
  966TIP3   OH2 2903   2.358   0.241   1.390  0.1443 -0.2629 -0.9812
  966TIP3    H1 2904   2.270   0.220   1.359  0.5305  0.4863 -2.6996
  966TIP3    H2 2905   2.352   0.332   1.418  0.1224 -0.5455 -0.0332
  967TIP3   OH2 2906   3.193   4.346   4.649  0.0163 -0.5783  0.4546
  967TIP3    H1 2907   3.158   4.327   4.561 -1.5660  1.5478  0.5339
  967TIP3    H2 2908   3.140   4.292   4.708  0.2248 -1.0525  0.2162
  968TIP3   OH2 2909   0.039   3.351  -0.000  0.0923  0.1911 -0.0979
  968TIP3    H1 2910  -0.044   3.384   0.032 -0.5243 -0.4063 -1.0370
  968TIP3    H2 2911   0.098   3.427   0.005 -0.2956  0.4243  1.2508
  969TIP3   OH2 2912   2.725   2.078   0.761 -0.5910 -0.4715 -0.2643
  969TIP3    H1 2913   2.687   2.038   0.682 -0.6530  0.0661 -0.5110
  969TIP3    H2 2914   2.726   2.007   0.825 -2.6828 -0.3501 -0.0235
  970TIP3   OH2 2915   1.802   5.265   4.359 -0.0087 -0.3645 -0.2482
  970TIP3    H1 2916   1.727   5.306   4.315 -1.0718 -1.5927  0.3219
  970TIP3    H2 2917   1.848   5.337   4.401 -0.1062  0.5915 -1.6994
  971TIP3   OH2 2918   3.654   2.101   2.319  0.8045 -0.2250  0.4489
  971TIP3    H1 2919   3.697   2.075   2.401 -0.4012 -0.2903  1.0871
  971TIP3    H2 2920   3.684   2.037   2.255 -2.0200 -3.3273  1.9393
  972TIP3   OH2 2921   3.814   1.723   4.602 -0.1690  0.0937 -0.3914
  972TIP3    H1 2922   3.820   1.817   4.616 -1.9808  0.4409 -1.5983
  972TIP3    H2 2923   3.905   1.693   4.599  0.4987  2.0818 -1.8635
  973TIP3   OH2 2924   4.622   1.898   2.111  0.5373 -0.4433  0.5032
  973TIP3    H1 2925   4.556   1.937   2.054 -0.3640 -2.2029  0.2911
  973TIP3    H2 2926   4.649   1.970   2.168 -0.1245  0.7997 -0.6964
  974TIP3   OH2 2927   0.779   1.448   0.481 -0.4752 -0.3319 -0.0196
  974TIP3    H1 2928   0.769   1.400   0.562  1.8619 -2.3171 -0.7785
  974TIP3    H2 2929   0.866   1.487   0.486 -1.7797  2.9130  0.0070
  975TIP3   OH2 2930   2.519   0.913   4.879  0.2644  0.1737  0.2836
  975TIP3    H1 2931   2.457   0.890   4.948  0.2645  1.2516  0.6674
  975TIP3    H2 2932   2.590   0.958   4.924  2.1442 -2.3632  0.0772
  976TIP3   OH2 2933   5.226   5.990   5.164  0.0094 -0.0668  0.6451
  976TIP3    H1 2934   5.188   5.902   5.159 -0.6892  0.3024 -2.8013
  976TIP3    H2 2935   5.319   5.975   5.180 -0.0810 -1.4686 -0.0109
  977TIP3   OH2 2936   3.562   0.801   2.640 -0.0190 -0.5124  0.0128
  977TIP3    H1 2937   3.574   0.891   2.609 -0.1788 -0.2507  0.6734
  977TIP3    H2 2938   3.578   0.807   2.735  0.0228 -1.1910  0.0537
  978TIP3   OH2 2939   0.256   2.914   4.610  0.2930 -0.6057 -0.2286
  978TIP3    H1 2940   0.276   2.939   4.700 -0.3852 -2.0461  0.3552
  978TIP3    H2 2941   0.280   2.822   4.605 -0.9146 -0.8926 -1.1384
  979TIP3   OH2 2942   4.877   4.632   0.273  0.2214 -0.1966  0.3242
  979TIP3    H1 2943   4.853   4.575   0.347 -1.1352  0.5771  0.5083
  979TIP3    H2 2944   4.830   4.594   0.198  0.9400 -0.4923  0.0092
  980TIP3   OH2 2945   0.864   4.728   0.993  0.6994 -0.2014 -0.3953
  980TIP3    H1 2946   0.945   4.743   0.944  0.5489  0.1733 -0.5298
  980TIP3    H2 2947   0.824   4.653   0.949  1.0593 -0.5035 -0.2174
  981TIP3   OH2 2948   2.218   5.308   0.178 -0.1126  0.0695 -0.3857
  981TIP3    H1 2949   2.186   5.282   0.092  1.6960 -0.6862 -0.8957
  981TIP3    H2 2950   2.225   5.226   0.227 -1.5834  0.5468  0.6887
  982TIP3   OH2 2951   2.762   3.258   5.051  0.1121 -0.2979 -0.2946
  982TIP3    H1 2952   2.734   3.343   5.085 -0.5576  0.4988 -2.6334
  982TIP3    H2 2953   2.854   3.250   5.079  0.3458  1.4466 -0.4780
  983TIP3   OH2 2954   1.075   2.118   1.032 -0.3140 -0.3372 -0.3986
  983TIP3    H1 2955   0.986   2.132   0.999 -0.2438 -0.9539 -0.8920
  983TIP3    H2 2956   1.130   2.126   0.954  0.0984  0.3756 -0.0333
  984TIP3   OH2 2957   0.332   2.180   1.645  0.6640  0.1827  0.1948
  984TIP3    H1 2958   0.311   2.110   1.583  0.2364 -0.4563  1.0303
  984TIP3    H2 2959   0.356   2.255   1.590 -2.7270  0.6519 -0.8815
  985TIP3   OH2 2960   3.681   2.037   0.261 -0.1053 -0.0407  0.1426
  985TIP3    H1 2961   3.589   2.059   0.245  0.3590  1.1600 -1.1225
  985TIP3    H2 2962   3.724   2.122   0.269  0.5884 -0.5648  2.9046
  986TIP3   OH2 2963   5.404   2.194   1.382 -0.4573 -0.2959 -0.0258
  986TIP3    H1 2964   5.434   2.205   1.291  1.7585  0.9075  0.7744
  986TIP3    H2 2965   5.393   2.099   1.392 -0.1533 -0.4933 -1.3788
  987TIP3   OH2 2966   4.682   2.195   0.852  0.4148 -0.3918 -0.0571
  987TIP3    H1 2967   4.680   2.268   0.914 -0.2754 -0.4663  0.0103
  987TIP3    H2 2968   4.657   2.234   0.768 -1.6775 -0.8585  0.3077
  988TIP3   OH2 2969   5.035   5.013   0.090  0.1206  0.0382  0.3337
  988TIP3    H1 2970   5.018   5.083   0.027  0.6914 -2.3221 -2.6015
  988TIP3    H2 2971   5.119   4.976   0.063 -0.2631 -1.9351  1.6681
  989TIP3   OH2 2972   2.610   2.315   0.564 -0.4592  0.5610 -0.2125
  989TIP3    H1 2973   2.574   2.350   0.646  0.0500 -1.3032  0.8934
  989TIP3    H2 2974   2.699   2.288   0.588 -0.6474 -0.9437 -1.0933
  990TIP3   OH2 2975   2.494   5.789   4.258  0.3308 -0.2120 -0.5249
  990TIP3    H1 2976   2.434   5.714   4.262  0.0921  0.0234  0.4605
  990TIP3    H2 2977   2.495   5.824   4.347 -0.1814  1.4633 -1.1520
  991TIP3   OH2 2978   0.354   3.148   0.692  0.4795  0.4315  0.3685
  991TIP3    H1 2979   0.297   3.078   0.725 -1.0351  0.9404 -1.0040
  991TIP3    H2 2980   0.435   3.104   0.668 -0.4584 -0.9022 -0.5121
  992TIP3   OH2 2981   4.755   5.142   4.200 -0.0673 -0.3359 -0.4498
  992TIP3    H1 2982   4.764   5.213   4.136  2.1433 -0.3020 -0.1785
  992TIP3    H2 2983   4.799   5.068   4.158  0.0864 -0.7295  0.4008
  993TIP3   OH2 2984   3.038   0.457   2.438 -0.0910 -0.1063 -0.4904
  993TIP3    H1 2985   3.036   0.386   2.503  0.8855  0.9022  0.6768
  993TIP3    H2 2986   3.120   0.442   2.390 -0.2184 -0.1609 -0.6889
  994TIP3   OH2 2987   4.832   2.032   4.728 -0.4613  0.0808  0.0771
  994TIP3    H1 2988   4.795   1.957   4.774 -0.4949  0.0103 -0.0643
  994TIP3    H2 2989   4.926   2.027   4.743 -0.1692 -1.3125 -1.8478
  995TIP3   OH2 2990   3.673   2.959   2.587  0.1705  0.4992  0.7865
  995TIP3    H1 2991   3.589   2.998   2.563 -0.3556 -0.5787  0.8167
  995TIP3    H2 2992   3.717   2.943   2.504 -0.7427 -1.2517  0.5915
  996TIP3   OH2 2993   5.719   1.792   2.076 -0.0998  0.2803 -0.4681
  996TIP3    H1 2994   5.646   1.802   2.015  1.1002 -0.2792 -2.0692
  996TIP3    H2 2995   5.740   1.699   2.073  0.5603  0.4004  0.1216
  997TIP3   OH2 2996   0.075   3.348   4.880  0.5522 -0.1340 -0.0999
  997TIP3    H1 2997   0.152   3.336   4.937  1.5000 -0.0370 -1.3209
  997TIP3    H2 2998   0.008   3.384   4.938  1.3766 -0.3530  1.0339
  998TIP3   OH2 2999   0.415   2.111   2.255  0.2176 -0.4769  0.6580
  998TIP3    H1 3000   0.349   2.136   2.319 -0.5944  0.5169 -0.5424
  998TIP3    H2 3001   0.366   2.086   2.177  1.2187 -0.5620  0.0318
  999TIP3   OH2 3002   3.114   3.654   2.402 -0.0613 -0.2374 -0.1445
  999TIP3    H1 3003   3.197   3.665   2.449  2.2628 -0.3811 -3.8062
  999TIP3    H2 3004   3.090   3.563   2.418  0.6250 -0.2809  0.7592
 1000TIP3   OH2 3005   0.708   4.482   3.290 -0.3768  0.2900  0.3732
 1000TIP3    H1 3006   0.762   4.420   3.239  1.9527  3.4460 -1.3659
 1000TIP3    H2 3007   0.743   4.475   3.379 -1.2503 -1.9113  0.6165
 1001TIP3   OH2 3008   1.912   2.096   0.402 -0.7235 -0.2906  0.6779
 1001TIP3    H1 3009   1.976   2.167   0.411  0.0911 -1.0836  1.3602
 1001TIP3    H2 3010   1.838   2.123   0.457 -1.7508  1.4166 -1.4002
 1002TIP3   OH2 3011   2.076   5.942   2.833 -0.0581  0.0393  0.1085
 1002TIP3    H1 3012   2.036   5.965   2.917 -1.1597  0.6002 -0.5379
 1002TIP3    H2 3013   2.058   5.849   2.822 -3.2326  0.6508 -1.1324
 1003TIP3   OH2 3014   5.637   5.332   4.785  0.0891 -0.3836  0.0241
 1003TIP3    H1 3015   5.634   5.427   4.790 -1.8426 -0.4253  0.4330
 1003TIP3    H2 3016   5.650   5.303   4.875  0.3443 -0.5261 -0.0553
 1004TIP3   OH2 3017   4.831   1.097   0.690 -0.0937  0.1777 -0.6879
 1004TIP3    H1 3018   4.906   1.073   0.637 -1.4320 -1.9401 -1.7899
 1004TIP3    H2 3019   4.781   1.015   0.699 -0.0200  0.3455  3.8203
 1005TIP3   OH2 3020   5.001   1.650   3.366  0.0280 -0.9571 -0.2867
 1005TIP3    H1 3021   4.965   1.635   3.279  0.8387 -0.0515 -0.7958
 1005TIP3    H2 3022   4.953   1.590   3.423 -1.8654 -0.2033 -1.0288
 1006TIP3   OH2 3023   0.298   4.638   0.343 -0.0578  0.9321 -0.1641
 1006TIP3    H1 3024   0.333   4.717   0.300  0.3307 -0.3010 -2.2659
 1006TIP3    H2 3025   0.260   4.587   0.271  0.3205 -1.1288  1.0343
 1007TIP3   OH2 3026   4.088   5.978   0.892  0.3372 -0.5021 -0.3406
 1007TIP3    H1 3027   4.159   5.981   0.827  0.8430  0.0754  0.2232
 1007TIP3    H2 3028   4.071   5.884   0.903  1.2420 -0.6688 -0.2548
 1008TIP3   OH2 3029   1.651   5.178   4.938  0.7050 -0.4790  0.0990
 1008TIP3    H1 3030   1.613   5.133   5.014  0.8604  0.7186  0.9019
 1008TIP3    H2 3031   1.613   5.132   4.863 -1.9262  0.2732  0.8471
 1009TIP3   OH2 3032   3.840   5.601   3.886 -0.0018 -0.2639  0.1220
 1009TIP3    H1 3033   3.768   5.601   3.949  0.1420  3.1994  0.4879
 1009TIP3    H2 3034   3.902   5.665   3.920  0.6353  0.9146 -2.9104
 1010TIP3   OH2 3035   0.304   0.300   2.489  0.1060 -0.0160  0.1334
 1010TIP3    H1 3036   0.399   0.297   2.495  0.1712  2.2468  1.4871
 1010TIP3    H2 3037   0.273   0.248   2.563  0.2924 -0.2224  0.0681
 1011TIP3   OH2 3038   5.727   3.738   1.446 -0.8247 -0.0735  0.2964
 1011TIP3    H1 3039   5.731   3.704   1.356 -1.4671 -1.1103  0.6368
 1011TIP3    H2 3040   5.652   3.693   1.485 -0.1546 -0.1507  1.5556
 1012TIP3   OH2 3041   1.879   1.437   0.453 -0.1426  0.2698  0.8615
 1012TIP3    H1 3042   1.821   1.514   0.457 -0.9512 -0.2835  0.1758
 1012TIP3    H2 3043   1.951   1.464   0.397 -1.6322 -0.2108 -1.3979
 1013TIP3   OH2 3044   2.390   2.396   1.786  0.2229  0.0909  0.0010
 1013TIP3    H1 3045   2.377   2.443   1.869  0.2108 -0.2436  0.1911
 1013TIP3    H2 3046   2.421   2.463   1.725  0.9032  0.2071  0.4579
 1014TIP3   OH2 3047   5.473   4.442   2.476 -0.5325  0.0713  0.3269
 1014TIP3    H1 3048   5.517   4.468   2.557  0.1005 -1.5086  0.5249
 1014TIP3    H2 3049   5.454   4.525   2.432  0.8215  0.8870  1.1924
 1015TIP3   OH2 3050   4.213   4.736   1.346  0.4718  0.2792 -0.5556
 1015TIP3    H1 3051   4.152   4.806   1.325 -0.2781 -0.3649 -0.5798
 1015TIP3    H2 3052   4.160   4.656   1.345  1.1826 -0.2210  0.0548
 1016TIP3   OH2 3053   0.707   2.449   3.722 -0.3159  0.2687  0.0167
 1016TIP3    H1 3054   0.707   2.357   3.699 -0.6495  0.5928 -1.3815
 1016TIP3    H2 3055   0.705   2.450   3.818 -2.1609 -1.1936  0.0628
 1017TIP3   OH2 3056   0.565   1.403   2.586  0.1222 -0.4787 -0.1225
 1017TIP3    H1 3057   0.635   1.464   2.611  0.0539 -0.3998 -0.1249
 1017TIP3    H2 3058   0.501   1.457   2.540  0.1860 -0.5986 -0.3557
 1018TIP3   OH2 3059   3.730   1.367   0.089 -0.0800 -0.1787  0.0393
 1018TIP3    H1 3060   3.768   1.453   0.071  2.5021 -0.8080  1.8744
 1018TIP3    H2 3061   3.722   1.326   0.002  0.5484  1.1821 -0.6920
 1019TIP3   OH2 3062   4.876   0.812   0.690 -0.2007 -0.1215  0.4374
 1019TIP3    H1 3063   4.945   0.747   0.683 -0.1527  0.0466 -0.9327
 1019TIP3    H2 3064   4.815   0.776   0.754  0.8825 -0.5171  1.2617
 1020TIP3   OH2 3065   1.974   5.691   4.852  0.0282  0.1595 -0.2561
 1020TIP3    H1 3066   1.950   5.712   4.762  1.4556  0.6550 -0.5536
 1020TIP3    H2 3067   1.895   5.709   4.903 -1.0559 -0.9128 -1.4975
 1021TIP3   OH2 3068   1.916   3.281   3.569 -0.1267 -0.6657 -0.0449
 1021TIP3    H1 3069   1.907   3.375   3.582 -0.4625 -0.7517  0.3549
 1021TIP3    H2 3070   2.011   3.266   3.567 -0.0700 -0.2462 -0.6680
 1022TIP3   OH2 3071   2.025   4.286   3.393  0.0976  0.3465 -0.1879
 1022TIP3    H1 3072   2.100   4.263   3.449  0.3750 -0.7906 -1.0014
 1022TIP3    H2 3073   1.955   4.227   3.421  0.4121 -0.6364 -1.4044
 1023TIP3   OH2 3074   3.759   4.696   4.825 -0.1555  0.3802  0.3900
 1023TIP3    H1 3075   3.832   4.730   4.773 -1.4179 -1.1026 -2.6500
 1023TIP3    H2 3076   3.777   4.602   4.834 -1.2445  0.1355  0.2569
 1024TIP3   OH2 3077   0.293   2.073   4.161  0.4735  0.3672 -0.3034
 1024TIP3    H1 3078   0.214   2.082   4.214  2.1933  0.3159  2.4650
 1024TIP3    H2 3079   0.323   2.163   4.146  0.4449  0.3486 -0.4777
 1025TIP3   OH2 3080   0.605   4.702   1.810 -0.0540  0.2600  0.3147
 1025TIP3    H1 3081   0.666   4.740   1.874  1.4177  0.8323 -1.3594
 1025TIP3    H2 3082   0.543   4.772   1.792  0.3996  0.6042  0.0571
 1026TIP3   OH2 3083   3.913   0.814   2.596  0.1425  0.3623 -0.4049
 1026TIP3    H1 3084   3.847   0.764   2.644  0.5851  0.2002  0.0477
 1026TIP3    H2 3085   3.909   0.902   2.633 -1.4282  1.0096 -1.9814
 1027TIP3   OH2 3086   3.343   1.029   3.876 -0.2955  0.4478  0.4054
 1027TIP3    H1 3087   3.381   1.042   3.789  0.7558 -1.5238  0.5087
 1027TIP3    H2 3088   3.417   1.034   3.936 -0.5601 -0.8095  0.8873
 1028TIP3   OH2 3089   4.274   0.118   1.231 -0.1023 -0.9441  0.1728
 1028TIP3    H1 3090   4.197   0.170   1.210  0.0427 -1.0924 -0.7415
 1028TIP3    H2 3091   4.285   0.059   1.157  2.4586  0.9089 -1.1026
 1029TIP3   OH2 3092   3.750   4.219   4.950 -0.2305 -0.1072  0.0426
 1029TIP3    H1 3093   3.782   4.132   4.926 -0.7373 -0.1995 -0.3168
 1029TIP3    H2 3094   3.708   4.207   5.035 -3.2374 -0.9564 -1.4093
 1030TIP3   OH2 3095   5.930   1.513   1.584 -0.6289  0.4084 -0.3758
 1030TIP3    H1 3096   5.999   1.574   1.558  0.6508  0.1519  2.1359
 1030TIP3    H2 3097   5.861   1.570   1.619 -0.7221  0.5504 -0.7839
 1031TIP3   OH2 3098   5.336   1.219   2.129  0.2943  0.7406 -0.4317
 1031TIP3    H1 3099   5.322   1.283   2.199 -1.4442 -0.4117  0.3555
 1031TIP3    H2 3100   5.375   1.143   2.173  0.7319  0.6096 -1.0272
 1032TIP3   OH2 3101   5.222   2.146   3.041 -0.5750  0.0425  0.1666
 1032TIP3    H1 3102   5.261   2.069   3.080 -1.2471 -1.9565 -2.7684
 1032TIP3    H2 3103   5.296   2.203   3.019 -0.0253 -0.0231  1.7561
 1033TIP3   OH2 3104   3.485   1.258   0.396 -0.3860 -0.1531  0.1043
 1033TIP3    H1 3105   3.391   1.248   0.378 -0.5344  1.7212 -0.3584
 1033TIP3    H2 3106   3.500   1.353   0.394  1.6195 -0.4369 -0.3034
 1034TIP3   OH2 3107   0.875   5.584   4.079  0.5782  0.3428  0.0698
 1034TIP3    H1 3108   0.889   5.663   4.130 -2.1555  1.8196 -1.2644
 1034TIP3    H2 3109   0.790   5.551   4.107  2.6088 -3.6879  2.3636
 1035TIP3   OH2 3110   1.777   1.503   2.231 -0.0435  0.2221  0.6725
 1035TIP3    H1 3111   1.761   1.504   2.137 -2.3544  0.8633  1.0316
 1035TIP3    H2 3112   1.750   1.415   2.258  0.6241  0.0375  0.7606
 1036TIP3   OH2 3113   5.031   4.077   3.347 -0.2774 -0.3752  0.2122
 1036TIP3    H1 3114   5.043   4.046   3.258 -1.9497 -0.3861 -0.0404
 1036TIP3    H2 3115   5.119   4.080   3.384  0.5921  0.8368 -1.8185
 1037TIP3   OH2 3116   1.024   3.704   0.590 -0.0776 -0.2322  0.1240
 1037TIP3    H1 3117   1.105   3.710   0.539  0.3117 -0.5643  0.7035
 1037TIP3    H2 3118   0.979   3.628   0.554  0.7175 -1.1466  0.9984
 1038TIP3   OH2 3119   3.173   3.852   3.286 -0.2784 -0.1881 -0.3290
 1038TIP3    H1 3120   3.107   3.783   3.293 -1.1916  0.7960  1.5004
 1038TIP3    H2 3121   3.256   3.806   3.299 -0.6470 -1.2980 -1.6783
 1039TIP3   OH2 3122   4.761   1.637   1.190 -0.1096  0.0390 -0.0291
 1039TIP3    H1 3123   4.851   1.649   1.162 -0.3591  1.4044 -0.2931
 1039TIP3    H2 3124   4.768   1.593   1.275  0.8051  0.1585 -0.0361
 1040TIP3   OH2 3125   0.398   3.353   2.300 -0.0869  0.2607  0.0552
 1040TIP3    H1 3126   0.398   3.434   2.351 -1.2937 -0.6474  1.5660
 1040TIP3    H2 3127   0.471   3.302   2.335  1.1395  0.9365 -1.3921
 1041TIP3   OH2 3128   0.794   4.742   3.478  0.0884 -0.0113 -0.3393
 1041TIP3    H1 3129   0.758   4.741   3.567 -0.3647  1.0032 -0.4838
 1041TIP3    H2 3130   0.806   4.650   3.456 -0.5800 -0.3140  0.4637
 1042TIP3   OH2 3131   0.282   3.291   5.050  0.1465 -0.0502 -0.1709
 1042TIP3    H1 3132   0.357   3.234   5.067 -0.7275 -0.9254  0.9471
 1042TIP3    H2 3133   0.248   3.312   5.137  0.3550  2.0947 -0.5664
 1043TIP3   OH2 3134   4.405   5.326   3.587  0.1675  0.0634 -0.0120
 1043TIP3    H1 3135   4.405   5.237   3.624  0.1259  0.0245 -0.1060
 1043TIP3    H2 3136   4.320   5.333   3.543  0.5748 -0.2004 -0.8488
 1044TIP3   OH2 3137   2.030   3.913   2.358 -0.4250 -0.6394 -0.4027
 1044TIP3    H1 3138   2.010   3.963   2.437  1.5977 -0.2805 -0.0726
 1044TIP3    H2 3139   2.075   3.835   2.391  0.9404 -0.2192 -1.1901
 1045TIP3   OH2 3140   0.843   3.214   3.007  0.2671  0.0435  0.0612
 1045TIP3    H1 3141   0.884   3.300   3.009  1.4758 -0.4937 -0.9027
 1045TIP3    H2 3142   0.786   3.216   2.929 -1.4624  0.7100  1.2689
 1046TIP3   OH2 3143   4.185   0.474   4.772  0.0995 -0.1194 -0.2231
 1046TIP3    H1 3144   4.245   0.539   4.808  1.4888 -0.5930 -1.5867
 1046TIP3    H2 3145   4.102   0.490   4.817  1.0028  1.1376  1.0608
 1047TIP3   OH2 3146   0.692   3.458   2.131  0.0280  0.1043  0.5600
 1047TIP3    H1 3147   0.742   3.381   2.160 -0.8940 -0.3029  1.1059
 1047TIP3    H2 3148   0.609   3.423   2.100  0.1914  0.7478 -0.6748
 1048TIP3   OH2 3149   5.011   3.487   0.147  0.0585  0.5167  0.2303
 1048TIP3    H1 3150   4.936   3.503   0.205 -0.1981 -0.7765  0.2896
 1048TIP3    H2 3151   4.986   3.527   0.064 -1.1041 -0.6187 -0.0112
 1049TIP3   OH2 3152   3.594   3.098   1.872  0.4283 -0.2142  0.1094
 1049TIP3    H1 3153   3.536   3.117   1.799  0.4582 -0.9886 -0.1201
 1049TIP3    H2 3154   3.576   3.007   1.895  2.0582 -0.7216 -0.4429
 1050TIP3   OH2 3155   1.292   1.352   4.072  0.1416 -0.2267 -0.1159
 1050TIP3    H1 3156   1.226   1.282   4.077  1.8962 -2.1296 -1.6897
 1050TIP3    H2 3157   1.323   1.361   4.162 -0.1044 -1.5356  0.1284
 1051TIP3   OH2 3158   0.183   0.878   4.647  0.4064 -0.2506  0.1395
 1051TIP3    H1 3159   0.144   0.918   4.725 -0.0097 -0.9707  0.3135
 1051TIP3    H2 3160   0.161   0.785   4.655  2.7397 -0.8284  0.6018
 1052TIP3   OH2 3161   1.731   3.060   1.599 -0.3756 -0.0813 -0.6130
 1052TIP3    H1 3162   1.776   3.137   1.635  0.2486 -0.1822 -1.1602
 1052TIP3    H2 3163   1.797   3.016   1.546 -0.6013 -1.2221  0.0052
 1053TIP3   OH2 3164   2.088   5.879   3.287 -0.4555  0.4095 -0.0873
 1053TIP3    H1 3165   2.070   5.787   3.267 -2.2253  0.4881  0.9169
 1053TIP3    H2 3166   2.157   5.904   3.225 -0.6947 -1.2774 -1.1069
 1054TIP3   OH2 3167   2.202   1.225   2.893 -0.2790 -0.4075 -0.3978
 1054TIP3    H1 3168   2.113   1.189   2.882 -0.8335  0.9291 -0.3985
 1054TIP3    H2 3169   2.222   1.211   2.985 -1.1864  0.7887  0.0091
 1055TIP3   OH2 3170   3.550   2.726   0.083 -0.1930  0.3812 -0.5800
 1055TIP3    H1 3171   3.610   2.651   0.084 -1.4202 -0.6646 -1.6184
 1055TIP3    H2 3172   3.574   2.775   0.004  0.6110  1.1249  0.1001
 1056TIP3   OH2 3173   3.097   3.987   1.715  0.2797 -0.4385 -0.9491
 1056TIP3    H1 3174   3.094   4.020   1.805 -3.6474 -3.1670  0.2166
 1056TIP3    H2 3175   3.134   3.899   1.723 -1.4804 -1.3006 -1.5922
 1057TIP3   OH2 3176   5.836   0.689   1.837 -0.2413 -0.0477 -0.2980
 1057TIP3    H1 3177   5.897   0.639   1.783 -0.8248  0.0908 -1.1099
 1057TIP3    H2 3178   5.878   0.694   1.923 -0.0116 -1.6094 -0.2940
 1058TIP3   OH2 3179   2.353   1.443   1.598 -0.0239 -0.3345 -0.4520
 1058TIP3    H1 3180   2.417   1.513   1.614  1.2986 -1.5283 -0.2493
 1058TIP3    H2 3181   2.317   1.463   1.512  2.9929 -1.2757 -2.0970
 1059TIP3   OH2 3182   0.439   2.259   2.530  0.1749  0.7694  0.3447
 1059TIP3    H1 3183   0.513   2.230   2.584  0.4439 -1.4866 -1.1164
 1059TIP3    H2 3184   0.363   2.214   2.569 -0.0439  1.1841  0.3967
 1060TIP3   OH2 3185   4.167   0.233   4.563 -0.1676 -0.0272 -0.4469
 1060TIP3    H1 3186   4.168   0.281   4.480 -0.1228 -0.7214 -0.8651
 1060TIP3    H2 3187   4.122   0.291   4.624  1.6780  1.4129 -0.3677
 1061TIP3   OH2 3188   2.976   1.389   2.269 -0.4067  0.0051 -0.2903
 1061TIP3    H1 3189   3.039   1.364   2.338 -0.9394  0.8690  0.5197
 1061TIP3    H2 3190   2.911   1.319   2.271  0.7082 -1.1217 -1.4166
 1062TIP3   OH2 3191   2.504   2.014   2.019  0.2712 -0.1958 -0.1609
 1062TIP3    H1 3192   2.509   1.920   2.002 -1.3567 -0.8265  2.3228
 1062TIP3    H2 3193   2.451   2.048   1.947  1.7747 -0.9347 -1.6854
 1063TIP3   OH2 3194   1.790   3.698   0.137 -0.1721  0.0664  0.1520
 1063TIP3    H1 3195   1.874   3.658   0.115  0.0755 -0.4299  1.8414
 1063TIP3    H2 3196   1.779   3.681   0.231 -2.1540  0.1286 -0.0195
 1064TIP3   OH2 3197   2.336   2.510   1.162  0.3105 -0.2029  0.5340
 1064TIP3    H1 3198   2.332   2.583   1.100 -2.7294 -2.3206 -2.1475
 1064TIP3    H2 3199   2.304   2.547   1.244  0.0547  1.7709 -0.3872
 1065TIP3   OH2 3200   5.813   5.613   2.772 -0.1814  0.2732  0.5247
 1065TIP3    H1 3201   5.785   5.537   2.823  1.9229 -0.6897  0.3533
 1065TIP3    H2 3202   5.871   5.576   2.705 -2.1704  1.5885 -2.1032
 1066TIP3   OH2 3203   2.067   1.344   0.969 -0.1349  0.1577 -0.5151
 1066TIP3    H1 3204   2.020   1.405   1.027 -0.0622  0.3444 -0.6512
 1066TIP3    H2 3205   2.005   1.325   0.899 -0.2908 -0.2181 -0.2741
 1067TIP3   OH2 3206   0.104   5.635   3.269 -0.4586  0.0791  0.5312
 1067TIP3    H1 3207   0.154   5.575   3.324 -0.5749  0.6219  1.2445
 1067TIP3    H2 3208   0.012   5.612   3.284 -0.4549 -0.5163 -0.3111
 1068TIP3   OH2 3209   4.626   1.310   3.055  0.3325  0.1575 -0.3459
 1068TIP3    H1 3210   4.664   1.306   2.968 -0.0477 -1.8349 -0.4817
 1068TIP3    H2 3211   4.632   1.402   3.081 -1.1606  1.1735 -3.1777
 1069TIP3   OH2 3212   1.964   3.381   0.778 -0.2050  0.0708  0.0996
 1069TIP3    H1 3213   1.942   3.387   0.685  2.9920 -0.7160 -0.8356
 1069TIP3    H2 3214   1.893   3.330   0.816 -1.5920  0.4038 -1.8920
 1070TIP3   OH2 3215   3.674   5.316   4.589  0.1885  0.1820 -0.3784
 1070TIP3    H1 3216   3.714   5.237   4.626 -1.4264 -1.0458 -1.1497
 1070TIP3    H2 3217   3.728   5.336   4.512  0.1986 -0.5957 -0.5840
 1071TIP3   OH2 3218   0.831   2.760   3.995 -0.6833  0.0436  0.4726
 1071TIP3    H1 3219   0.754   2.703   4.000 -2.0530  1.6370 -1.0740
 1071TIP3    H2 3220   0.819   2.823   4.066 -1.6302  1.1873 -0.6607
 1072TIP3   OH2 3221   2.297   3.225   3.277  0.0118 -0.1290 -0.0275
 1072TIP3    H1 3222   2.329   3.300   3.327 -0.2020  0.2822 -0.4988
 1072TIP3    H2 3223   2.254   3.263   3.201 -0.6503 -0.7115  0.0459
 1073TIP3   OH2 3224   3.095   4.583   2.985  0.0509  0.5219 -0.4874
 1073TIP3    H1 3225   3.075   4.602   3.077  1.0024 -0.0200 -0.1563
 1073TIP3    H2 3226   3.087   4.488   2.978  0.2757  0.5301 -0.8962
 1074TIP3   OH2 3227   0.084   3.408   1.369 -0.0279  0.1376  0.3976
 1074TIP3    H1 3228   0.051   3.496   1.389 -0.2922  0.4504 -1.2576
 1074TIP3    H2 3229   0.080   3.403   1.273  3.0544 -0.4833  0.2243
 1075TIP3   OH2 3230   5.239   2.100   3.452  0.1868 -0.2773  0.0500
 1075TIP3    H1 3231   5.201   2.188   3.458  0.3632 -0.1510 -0.6407
 1075TIP3    H2 3232   5.168   2.046   3.416 -0.6412 -0.8906  2.3889
 1076TIP3   OH2 3233   2.645   2.929   0.197  0.2238  0.8078  0.1669
 1076TIP3    H1 3234   2.741   2.922   0.191  0.0739 -0.2917 -1.6949
 1076TIP3    H2 3235   2.615   2.838   0.191 -0.9268  1.0584  1.6300
 1077TIP3   OH2 3236   4.637   2.084   1.848 -0.0344 -0.0297 -0.9456
 1077TIP3    H1 3237   4.690   2.009   1.875 -0.6895 -0.6697 -1.4149
 1077TIP3    H2 3238   4.639   2.143   1.924 -1.1662 -1.4236  0.2411
 1078TIP3   OH2 3239   0.668   5.399   4.691  0.3097 -0.0382  0.2994
 1078TIP3    H1 3240   0.735   5.339   4.725 -0.0595 -0.7324 -0.1836
 1078TIP3    H2 3241   0.585   5.359   4.717 -0.0113 -0.8764 -1.8344
 1079TIP3   OH2 3242   4.191   4.503   5.028  0.0179 -0.8468  0.1711
 1079TIP3    H1 3243   4.234   4.435   4.977 -0.6376 -0.6417 -0.6846
 1079TIP3    H2 3244   4.254   4.575   5.030  0.8144 -1.5606  1.2974
 1080TIP3   OH2 3245   0.593   4.904   3.658 -0.6084  0.2837 -0.5818
 1080TIP3    H1 3246   0.642   4.979   3.625  0.5639 -0.2425 -0.1294
 1080TIP3    H2 3247   0.584   4.921   3.752 -0.4363 -0.0774 -0.4968
 1081TIP3   OH2 3248   3.697   4.529   0.714  0.4752  0.0798 -0.1170
 1081TIP3    H1 3249   3.647   4.607   0.692  0.4271 -0.4100 -1.8871
 1081TIP3    H2 3250   3.713   4.486   0.630  0.7062 -1.6904  0.7773
 1082TIP3   OH2 3251   3.093   3.472   4.918  0.1146  0.1860 -0.0418
 1082TIP3    H1 3252   3.079   3.391   4.870 -1.0801  0.0768  0.4462
 1082TIP3    H2 3253   3.083   3.541   4.853 -1.0535  0.0230 -0.0573
 1083TIP3   OH2 3254   6.006   2.932   2.011  0.1491  0.1180 -0.1981
 1083TIP3    H1 3255   6.052   2.982   1.943  0.8353 -1.2807 -0.7902
 1083TIP3    H2 3256   5.931   2.987   2.033  1.5633  2.0486  0.1500
 1084TIP3   OH2 3257   1.396   0.324   3.117  0.3344 -0.0188 -0.4231
 1084TIP3    H1 3258   1.390   0.295   3.026 -0.7004 -0.8060 -0.1304
 1084TIP3    H2 3259   1.352   0.409   3.119 -0.4445 -0.4159 -0.4993
 1085TIP3   OH2 3260   2.529   3.716   4.966 -0.1172  0.2907  0.1532
 1085TIP3    H1 3261   2.453   3.773   4.952  2.1475  3.0585 -1.9742
 1085TIP3    H2 3262   2.524   3.652   4.894 -0.3221  0.6383 -0.1483
 1086TIP3   OH2 3263   0.648   1.658   1.432 -0.1967  0.4305  0.0788
 1086TIP3    H1 3264   0.686   1.676   1.346 -1.9529  0.6028 -0.7048
 1086TIP3    H2 3265   0.625   1.745   1.466  1.8370  0.5050  1.4268
 1087TIP3   OH2 3266   3.966   0.478   3.430 -0.1342 -0.0225  0.1880
 1087TIP3    H1 3267   3.946   0.388   3.408 -2.4495  0.1076  1.4763
 1087TIP3    H2 3268   3.887   0.527   3.407  0.5456  1.4354  0.8260
 1088TIP3   OH2 3269   5.771   4.674   0.528  0.0490  0.0811  0.1928
 1088TIP3    H1 3270   5.715   4.747   0.503  1.2407  0.7529 -0.6122
 1088TIP3    H2 3271   5.808   4.699   0.613 -0.5648 -0.1996  0.5498
 1089TIP3   OH2 3272   5.438   5.800   5.019 -0.2296 -0.1720  0.1594
 1089TIP3    H1 3273   5.462   5.878   5.069  1.1981 -0.2157 -0.4340
 1089TIP3    H2 3274   5.521   5.758   4.997 -0.8966 -0.9409 -1.0138
 1090TIP3   OH2 3275   0.998   1.495   1.003 -0.0999  0.3057 -0.1972
 1090TIP3    H1 3276   1.060   1.429   0.971  0.0723  0.6166 -0.5182
 1090TIP3    H2 3277   0.944   1.448   1.066 -0.9803 -0.5485 -1.5364
 1091TIP3   OH2 3278   2.103   0.338   5.053  0.0578 -0.3208 -0.9470
 1091TIP3    H1 3279   2.069   0.287   4.980  0.2950 -2.1336  0.1433
 1091TIP3    H2 3280   2.164   0.279   5.098 -0.7744  0.3763  1.2407
 1092TIP3   OH2 3281   2.568   4.394   2.897  0.0453 -0.2449 -0.5853
 1092TIP3    H1 3282   2.491   4.354   2.857 -0.6887  0.4559  0.0979
 1092TIP3    H2 3283   2.606   4.448   2.828 -1.1575  0.8837 -0.4018
 1093TIP3   OH2 3284   4.991   1.743   0.136 -0.2541  0.0126 -0.1004
 1093TIP3    H1 3285   4.932   1.709   0.068 -1.2550 -0.0703  0.7913
 1093TIP3    H2 3286   4.996   1.837   0.117  1.3654 -0.3280 -1.6882
 1094TIP3   OH2 3287   1.036   3.043   2.929  0.0302 -0.2303 -0.2001
 1094TIP3    H1 3288   0.962   3.095   2.962 -1.4353 -1.4044 -1.4928
 1094TIP3    H2 3289   1.008   2.952   2.941 -0.3397 -0.7465 -3.9971
 1095TIP3   OH2 3290   3.944   3.434   0.167  0.0588 -0.3793  0.2115
 1095TIP3    H1 3291   3.992   3.354   0.148 -0.1511 -0.7487  1.1932
 1095TIP3    H2 3292   3.889   3.412   0.242 -1.1734  0.2201 -0.4785
 1096TIP3   OH2 3293   5.447   1.989   4.112  0.0416  0.1392 -0.3323
 1096TIP3    H1 3294   5.466   1.944   4.194  1.6675  0.1883 -0.6426
 1096TIP3    H2 3295   5.372   1.942   4.076  0.5243 -1.1429  0.2470
 1097TIP3   OH2 3296   4.844   2.433   1.954  0.1195 -0.0449  0.0252
 1097TIP3    H1 3297   4.917   2.371   1.954  0.8480  0.8085 -0.3313
 1097TIP3    H2 3298   4.879   2.513   1.992 -0.4038  0.6308 -0.8606
 1098TIP3   OH2 3299   5.478   0.500   2.652  0.1684 -0.0665  0.6972
 1098TIP3    H1 3300   5.463   0.469   2.742  1.5236 -1.3066  0.5385
 1098TIP3    H2 3301   5.464   0.594   2.657 -1.7213 -0.3546  1.7626
 1099TIP3   OH2 3302   0.253   3.952   0.054  0.7516  0.4729 -0.2701
 1099TIP3    H1 3303   0.161   3.972   0.034  0.2035 -1.2652  0.3190
 1099TIP3    H2 3304   0.288   4.033   0.090 -0.0516  1.6900 -2.1267
 1100TIP3   OH2 3305   5.009   4.954   5.154  0.1498  0.0676  0.0738
 1100TIP3    H1 3306   5.039   4.868   5.125 -2.1383 -0.3544 -1.2643
 1100TIP3    H2 3307   5.021   5.010   5.077  1.5089  0.9809  0.8989
 1101TIP3   OH2 3308   1.504   5.204   3.669 -0.0303 -0.6886 -0.8294
 1101TIP3    H1 3309   1.485   5.143   3.740 -1.1241 -0.5549 -0.9976
 1101TIP3    H2 3310   1.591   5.239   3.690 -1.0478  0.6576  1.3949
 1102TIP3   OH2 3311   1.730   2.721   2.692  0.0119  0.0053 -0.0737
 1102TIP3    H1 3312   1.647   2.715   2.644 -0.3501  0.7123  0.4466
 1102TIP3    H2 3313   1.723   2.656   2.761 -0.6912  0.9744  0.8041
 1103TIP3   OH2 3314   3.293   3.973   0.563 -0.1540  0.2932 -0.4322
 1103TIP3    H1 3315   3.321   4.054   0.606  0.3545  0.4580 -1.0529
 1103TIP3    H2 3316   3.213   3.948   0.608 -1.8868  2.6286 -1.9397
 1104TIP3   OH2 3317   5.587   4.731   3.094 -0.6979 -0.1236 -0.0392
 1104TIP3    H1 3318   5.520   4.688   3.147 -0.1127 -0.4370  0.4747
 1104TIP3    H2 3319   5.582   4.823   3.118 -0.7426 -0.1950  0.2341
 1105TIP3   OH2 3320   5.719   1.367   5.033  0.2075  0.4057 -0.2552
 1105TIP3    H1 3321   5.771   1.342   4.957  0.5102  1.6913 -0.4914
 1105TIP3    H2 3322   5.778   1.419   5.087 -0.9558  2.4510 -0.8424
 1106TIP3   OH2 3323   6.166   5.542   4.161 -0.1440 -0.0084 -0.2149
 1106TIP3    H1 3324   6.231   5.476   4.184  0.6023  0.6896 -0.2857
 1106TIP3    H2 3325   6.104   5.542   4.234  0.0943 -0.4815 -0.0120
 1107TIP3   OH2 3326   5.671   0.700   4.211 -0.3222  0.9207  0.1041
 1107TIP3    H1 3327   5.757   0.660   4.222 -1.0163 -0.7369 -0.0663
 1107TIP3    H2 3328   5.665   0.718   4.117 -1.4524 -2.3293 -0.5815
 1108TIP3   OH2 3329   0.862   5.897   0.560  0.7205 -0.0579 -0.1742
 1108TIP3    H1 3330   0.800   5.958   0.521 -0.0211  0.5216  1.7642
 1108TIP3    H2 3331   0.881   5.934   0.647  2.2639 -1.2493  0.0539
 1109TIP3   OH2 3332   4.639   5.937   3.465 -0.0158  0.1623  0.4635
 1109TIP3    H1 3333   4.624   5.847   3.435  0.3572 -0.1981  1.3434
 1109TIP3    H2 3334   4.727   5.959   3.433 -0.9075  1.0131 -1.6192
 1110TIP3   OH2 3335   5.035   0.063   2.367  0.3451  0.1384 -0.0303
 1110TIP3    H1 3336   5.018   0.066   2.273 -1.1612 -0.4332  0.2120
 1110TIP3    H2 3337   5.131   0.064   2.373  0.4877 -0.5653 -1.5875
 1111TIP3   OH2 3338   3.718   3.707   2.790  0.6129 -0.6879 -0.1385
 1111TIP3    H1 3339   3.658   3.720   2.863 -2.0495 -2.5200 -1.8020
 1111TIP3    H2 3340   3.805   3.703   2.829 -0.2445  2.1004  2.4254
 1112TIP3   OH2 3341   3.893   3.857   0.901 -0.4197  0.0589  0.3904
 1112TIP3    H1 3342   3.966   3.912   0.872 -0.4064  0.2998  0.8758
 1112TIP3    H2 3343   3.919   3.826   0.988 -0.8034 -0.0286  0.4753
 1113TIP3   OH2 3344   1.920   4.158   2.912 -0.3075 -1.0041 -0.3661
 1113TIP3    H1 3345   1.834   4.128   2.943 -0.3619  0.0200  0.5648
 1113TIP3    H2 3346   1.973   4.163   2.992 -0.4740  1.8270 -0.3310
 1114TIP3   OH2 3347   1.882   3.549   4.812  0.5103 -0.4752 -0.3886
 1114TIP3    H1 3348   1.902   3.581   4.900 -1.2555 -0.5336  0.0708
 1114TIP3    H2 3349   1.791   3.521   4.817 -0.3780  1.5768 -2.8135
 1115TIP3   OH2 3350   0.300   4.319   0.930 -0.8265 -0.5883 -0.3596
 1115TIP3    H1 3351   0.314   4.350   1.020 -0.0189  0.1803 -0.7294
 1115TIP3    H2 3352   0.214   4.353   0.906 -1.2258 -1.1312  0.2412
 1116TIP3   OH2 3353   3.950   3.168   3.011 -0.7185  0.4826 -0.2713
 1116TIP3    H1 3354   4.008   3.189   3.084 -1.6518 -1.1345  0.9908
 1116TIP3    H2 3355   3.863   3.158   3.050 -1.2135 -0.5955 -1.5389
 1117TIP3   OH2 3356   5.488   3.178   4.132  0.0651 -0.3717 -0.1080
 1117TIP3    H1 3357   5.543   3.123   4.076  0.4212 -1.7412  1.5158
 1117TIP3    H2 3358   5.399   3.145   4.118  0.0309 -0.0968 -0.5478
 1118TIP3   OH2 3359   5.046   5.913   1.267  0.2259  0.2097 -0.2454
 1118TIP3    H1 3360   5.117   5.924   1.330 -1.2797  0.8235  1.4370
 1118TIP3    H2 3361   4.987   5.850   1.309 -1.6146  1.8350 -0.2580
 1119TIP3   OH2 3362   2.832   4.547   2.259  0.3614 -0.3295 -0.0056
 1119TIP3    H1 3363   2.743   4.535   2.225 -0.1625 -0.2237  1.2910
 1119TIP3    H2 3364   2.861   4.458   2.282  0.2308 -0.2519  0.4561
 1120TIP3   OH2 3365   3.977   0.627   0.497 -0.4646 -0.7342 -0.3187
 1120TIP3    H1 3366   3.954   0.649   0.587 -2.7003 -0.5268 -0.8899
 1120TIP3    H2 3367   4.058   0.675   0.481 -1.2480  1.1040  0.8439
 1121TIP3   OH2 3368   1.440   1.934   5.175 -0.0431  0.2508  0.0576
 1121TIP3    H1 3369   1.472   2.016   5.139 -0.0694  0.1064 -0.2915
 1121TIP3    H2 3370   1.345   1.947   5.185 -0.0927  0.1492 -0.2910
 1122TIP3   OH2 3371   5.937   2.915   3.473 -1.0282 -0.4304 -0.1396
 1122TIP3    H1 3372   5.984   2.832   3.465 -1.9326 -0.9342 -0.3725
 1122TIP3    H2 3373   5.997   2.972   3.521 -0.2801 -1.1237 -0.2258
 1123TIP3   OH2 3374   6.335   3.674   1.391 -0.0297  0.4239 -0.1038
 1123TIP3    H1 3375   6.337   3.744   1.456 -1.4839  2.2419 -1.8755
 1123TIP3    H2 3376   6.250   3.633   1.402  0.1086  0.1036 -0.2257
 1124TIP3   OH2 3377   2.258   1.768   2.116 -0.5332  0.2267 -0.6468
 1124TIP3    H1 3378   2.167   1.784   2.092 -0.3166  0.5414 -1.2898
 1124TIP3    H2 3379   2.261   1.781   2.210 -0.9805  1.0654 -0.7434
 1125TIP3   OH2 3380   2.989   4.672   1.465 -0.1582  0.1705  0.3018
 1125TIP3    H1 3381   3.019   4.716   1.385 -1.0667 -0.0969 -0.1929
 1125TIP3    H2 3382   3.062   4.683   1.527  0.0239  1.5327 -0.1222
 1126TIP3   OH2 3383   3.784   3.752   4.669 -0.4723 -0.1177 -0.2271
 1126TIP3    H1 3384   3.702   3.800   4.655 -1.3058 -0.4621  2.9027
 1126TIP3    H2 3385   3.771   3.669   4.624 -2.0463 -0.3401  0.5745
 1127TIP3   OH2 3386   5.995   5.788   1.406  0.0223  0.0810  0.2514
 1127TIP3    H1 3387   5.930   5.852   1.437  0.6173  0.9273 -0.2046
 1127TIP3    H2 3388   5.943   5.717   1.369 -0.6499  0.6255  0.1199
 1128TIP3   OH2 3389   2.339   4.898   4.668  0.0092 -0.4077 -0.1256
 1128TIP3    H1 3390   2.309   4.988   4.674 -1.0159 -0.7133 -0.4692
 1128TIP3    H2 3391   2.349   4.869   4.759  0.8033  0.1874 -0.0146
 1129TIP3   OH2 3392   1.672   4.076   2.965 -0.7672  0.4567  0.4995
 1129TIP3    H1 3393   1.680   4.135   3.040  0.6404  0.0212  0.7220
 1129TIP3    H2 3394   1.605   4.013   2.992 -0.2832  0.3079  1.3994
 1130TIP3   OH2 3395   3.456   3.208   3.005 -0.0501  0.2728  0.3781
 1130TIP3    H1 3396   3.424   3.207   3.095  0.6665 -2.5441  0.7119
 1130TIP3    H2 3397   3.463   3.300   2.982 -1.3102  1.0411  2.8116
 1131TIP3   OH2 3398   3.873   4.983   2.096 -0.4926 -0.2940 -0.0067
 1131TIP3    H1 3399   3.951   4.934   2.124 -1.0704 -0.8950  0.5705
 1131TIP3    H2 3400   3.804   4.917   2.092 -1.2357  0.4330  0.5745
 1132TIP3   OH2 3401   0.638   0.132   1.722  0.3394  0.1966 -0.4779
 1132TIP3    H1 3402   0.601   0.095   1.802  0.5815 -0.7839 -0.8085
 1132TIP3    H2 3403   0.698   0.065   1.690  1.4510  1.2491 -0.6380
 1133TIP3   OH2 3404   4.601   1.415   2.782 -0.4008 -0.1791 -0.1894
 1133TIP3    H1 3405   4.685   1.371   2.796  0.3977  1.4091  0.3279
 1133TIP3    H2 3406   4.613   1.501   2.822 -2.0396  0.3457 -0.7625
 1134TIP3   OH2 3407   0.803   1.100   0.963 -0.0164 -0.1010 -0.5303
 1134TIP3    H1 3408   0.746   1.146   0.901  1.5754  1.3357 -1.0009
 1134TIP3    H2 3409   0.791   1.146   1.046 -2.1249 -2.0050  0.3354
 1135TIP3   OH2 3410   3.215   3.342   2.184  0.6115 -0.2980 -0.6218
 1135TIP3    H1 3411   3.213   3.269   2.246  1.2685 -0.4428 -0.7619
 1135TIP3    H2 3412   3.130   3.385   2.195  1.3287  0.7090  1.6264
 1136TIP3   OH2 3413   0.963   2.253   0.031  0.0366 -0.6442  0.3317
 1136TIP3    H1 3414   1.006   2.339   0.037 -1.5583  0.0867  2.1914
 1136TIP3    H2 3415   0.962   2.220   0.121 -2.7694 -0.8413  0.3179
 1137TIP3   OH2 3416   5.720   3.969   2.410 -0.4546  0.1149  0.2887
 1137TIP3    H1 3417   5.747   3.892   2.359 -1.7343  0.2842 -0.6850
 1137TIP3    H2 3418   5.633   3.948   2.442 -0.3545  0.7131  0.9836
 1138TIP3   OH2 3419   1.581   4.929   1.744  0.0521 -0.0404 -0.0323
 1138TIP3    H1 3420   1.581   4.858   1.808 -0.4913 -1.0510 -1.1091
 1138TIP3    H2 3421   1.489   4.952   1.733  0.0116 -0.6936 -1.2893
 1139TIP3   OH2 3422   6.101   3.153   0.305  0.0276  1.0501  0.2083
 1139TIP3    H1 3423   6.091   3.135   0.211  2.3944  0.8187 -0.0585
 1139TIP3    H2 3424   6.131   3.244   0.309  0.8952  0.7507  0.6595
 1140TIP3   OH2 3425   5.885   0.464   3.934 -0.1873 -0.1293 -0.7514
 1140TIP3    H1 3426   5.803   0.493   3.894 -0.5040 -0.9549 -0.7129
 1140TIP3    H2 3427   5.921   0.402   3.872  0.0848 -0.2664 -0.4593
 1141TIP3   OH2 3428   2.070   5.521   0.329  0.0310  0.2955  0.1515
 1141TIP3    H1 3429   2.148   5.494   0.281  0.0496 -0.8651  0.7810
 1141TIP3    H2 3430   2.103   5.574   0.401  0.1272  0.8273 -0.2823
 1142TIP3   OH2 3431   0.501   4.743   4.158  0.1141  0.1512  0.7616
 1142TIP3    H1 3432   0.482   4.677   4.225  0.6701  0.3268  1.1049
 1142TIP3    H2 3433   0.595   4.759   4.167 -0.1781  1.7067  1.3491
 1143TIP3   OH2 3434   1.797   3.701   0.692 -0.3239  0.0043 -0.5321
 1143TIP3    H1 3435   1.756   3.751   0.622 -2.0256  0.6378  0.8390
 1143TIP3    H2 3436   1.889   3.694   0.667 -0.8591  0.2917 -2.7418
 1144TIP3   OH2 3437   2.660   5.436   0.795  0.2984 -0.3410 -0.0602
 1144TIP3    H1 3438   2.595   5.505   0.786  0.6575  0.5205  2.7143
 1144TIP3    H2 3439   2.609   5.355   0.799 -0.6014  0.2469  1.2665
 1145TIP3   OH2 3440   3.292   3.188   4.296  0.3456 -0.5720  0.4648
 1145TIP3    H1 3441   3.305   3.225   4.383  0.3905 -3.3895  1.7271
 1145TIP3    H2 3442   3.210   3.140   4.301  0.6688 -1.3355 -0.8384
 1146TIP3   OH2 3443   5.792   5.202   0.389  0.8233 -0.4883  0.1018
 1146TIP3    H1 3444   5.809   5.267   0.320 -1.0876  0.2897  0.3108
 1146TIP3    H2 3445   5.748   5.251   0.458  1.1296 -1.6290  1.1434
 1147TIP3   OH2 3446   1.192   4.317   1.887 -0.0908  0.4632  0.0152
 1147TIP3    H1 3447   1.179   4.403   1.928 -1.9753 -0.7319  2.2203
 1147TIP3    H2 3448   1.108   4.273   1.899  1.1400 -2.0644 -0.0939
 1148TIP3   OH2 3449   4.605   1.890   0.240 -0.3599 -0.3421 -0.2913
 1148TIP3    H1 3450   4.581   1.798   0.227  0.0258 -0.9749  2.6369
 1148TIP3    H2 3451   4.692   1.886   0.280  0.0453  1.3571 -0.9472
 1149TIP3   OH2 3452   0.621   5.438   3.626 -0.4800  0.1087 -0.0155
 1149TIP3    H1 3453   0.557   5.476   3.566 -0.3746 -0.2221 -0.3408
 1149TIP3    H2 3454   0.568   5.404   3.698 -0.7370 -0.8121 -0.6301
 1150TIP3   OH2 3455   1.548   1.383   0.354 -0.4378 -0.2964  0.0512
 1150TIP3    H1 3456   1.612   1.427   0.298  0.2242 -0.7103  0.4745
 1150TIP3    H2 3457   1.558   1.290   0.333 -1.1459 -0.3443 -0.1230
 1151TIP3   OH2 3458   3.927   1.100   4.549 -0.4553 -0.2825 -0.4291
 1151TIP3    H1 3459   3.983   1.063   4.481  0.2186 -1.0882  0.5240
 1151TIP3    H2 3460   3.840   1.103   4.510 -0.0231 -0.4378 -1.4273
 1152TIP3   OH2 3461   5.533   4.451   4.922  0.1205 -0.1177  0.5123
 1152TIP3    H1 3462   5.568   4.398   4.994  0.9824  0.6143  0.6470
 1152TIP3    H2 3463   5.510   4.534   4.962  0.8814  0.4042 -0.0952
 1153TIP3   OH2 3464   4.319   4.389   2.977 -0.0275  0.4762 -0.1604
 1153TIP3    H1 3465   4.237   4.370   2.930 -1.1323  0.3129  1.7504
 1153TIP3    H2 3466   4.293   4.396   3.069  2.2350 -0.4022  0.6113
 1154TIP3   OH2 3467   3.374   2.326   1.393 -0.0818 -0.2197  0.2162
 1154TIP3    H1 3468   3.345   2.379   1.468  1.1268  0.1533  0.4346
 1154TIP3    H2 3469   3.421   2.387   1.337  0.1790 -0.7908 -0.1932
 1155TIP3   OH2 3470   5.746   4.837   2.455  0.3299 -0.3147  0.2459
 1155TIP3    H1 3471   5.775   4.747   2.469  2.7642  0.3638 -0.0050
 1155TIP3    H2 3472   5.823   4.883   2.422 -1.2149  1.5632 -1.0022
 1156TIP3   OH2 3473   0.181   0.040   1.734 -0.0264 -1.0108 -0.1240
 1156TIP3    H1 3474   0.178  -0.025   1.805 -1.4540 -0.4906  0.3181
 1156TIP3    H2 3475   0.166  -0.012   1.655 -0.7631 -1.2900  0.1864
 1157TIP3   OH2 3476   1.436   0.208   5.069 -0.2169 -0.1024 -0.3586
 1157TIP3    H1 3477   1.497   0.244   5.134  0.9967 -0.3558 -1.3106
 1157TIP3    H2 3478   1.391   0.284   5.034 -2.2133 -0.0733  1.9593
 1158TIP3   OH2 3479   3.468   3.591   4.864  0.1481  0.3508 -0.3762
 1158TIP3    H1 3480   3.501   3.580   4.775  2.6038 -2.0228  0.7187
 1158TIP3    H2 3481   3.546   3.593   4.919 -1.3110 -2.8190  2.1440
 1159TIP3   OH2 3482   2.292   3.217   4.820 -0.1802 -0.2430 -0.8055
 1159TIP3    H1 3483   2.211   3.255   4.784  1.0196  2.1905 -1.1319
 1159TIP3    H2 3484   2.359   3.239   4.756  1.3157  0.7809  1.0265
 1160TIP3   OH2 3485   5.322   4.122   3.408  0.0421 -0.5837 -0.0742
 1160TIP3    H1 3486   5.308   4.214   3.430 -2.6663 -0.9662  0.1274
 1160TIP3    H2 3487   5.343   4.080   3.491 -0.1261 -0.3836  0.0713
 1161TIP3   OH2 3488   2.211   5.222   2.356  0.1863 -0.3412 -0.3469
 1161TIP3    H1 3489   2.264   5.251   2.281 -1.2196  2.0290 -0.5336
 1161TIP3    H2 3490   2.127   5.198   2.318 -0.0446 -0.5940  0.3135
 1162TIP3   OH2 3491   4.176   3.708   0.793 -0.1092  0.1260  0.3050
 1162TIP3    H1 3492   4.123   3.702   0.713  1.8831  0.8932 -1.1755
 1162TIP3    H2 3493   4.237   3.635   0.786  0.2634  0.3694  0.9756
 1163TIP3   OH2 3494   4.813   3.946   3.513  0.4860 -0.1186 -0.7822
 1163TIP3    H1 3495   4.822   3.897   3.595 -2.1595 -3.2163 -2.0971
 1163TIP3    H2 3496   4.899   3.982   3.497  1.1981  0.3891  3.1663
 1164TIP3   OH2 3497   0.488   4.313   4.105 -0.4009  0.4731 -0.0039
 1164TIP3    H1 3498   0.409   4.259   4.113 -0.1705 -0.5583 -3.1747
 1164TIP3    H2 3499   0.479   4.356   4.020  2.6639 -0.1311 -0.7510
 1165TIP3   OH2 3500   6.359   2.919   3.530  0.3616  0.3293  0.6991
 1165TIP3    H1 3501   6.331   3.002   3.491 -0.2465 -0.3040 -0.2621
 1165TIP3    H2 3502   6.308   2.911   3.610  1.0129  1.2555  1.2212
 1166TIP3   OH2 3503   0.486   5.580   2.580  0.0669  0.1392  0.5938
 1166TIP3    H1 3504   0.515   5.491   2.600  0.7852  0.7420  2.4963
 1166TIP3    H2 3505   0.404   5.590   2.628  0.2819  0.6679  0.8605
 1167TIP3   OH2 3506   5.240   1.768   1.871 -0.3886  0.0457  0.8035
 1167TIP3    H1 3507   5.265   1.787   1.781 -0.7801 -0.5025  0.5719
 1167TIP3    H2 3508   5.191   1.686   1.866  2.0227 -1.5953  1.8706
 1168TIP3   OH2 3509   3.825   1.120   2.220  0.3561  0.0478  0.0750
 1168TIP3    H1 3510   3.912   1.142   2.253 -0.0167  0.8711  0.5598
 1168TIP3    H2 3511   3.810   1.182   2.148  0.9407 -1.3747 -1.3061
 1169TIP3   OH2 3512   0.116   3.324   2.328  0.1798  0.2841  0.2908
 1169TIP3    H1 3513   0.111   3.330   2.424 -0.6946 -0.0690  0.2815
 1169TIP3    H2 3514   0.207   3.299   2.310  0.7291  1.7320  0.9424
 1170TIP3   OH2 3515   1.763   3.480   4.101 -0.5925  0.5935 -0.1609
 1170TIP3    H1 3516   1.776   3.433   4.183 -0.6898 -0.3799 -0.6878
 1170TIP3    H2 3517   1.704   3.552   4.124  0.6354  1.2977  0.9405
 1171TIP3   OH2 3518   2.045   0.153   4.828  0.1041 -0.3320  0.1258
 1171TIP3    H1 3519   1.971   0.181   4.774 -0.4811  1.0339  1.5420
 1171TIP3    H2 3520   2.004   0.114   4.906  0.8118  1.0807  1.2568
 1172TIP3   OH2 3521  -0.033   4.758   3.468  0.6189  0.4050  0.0949
 1172TIP3    H1 3522   0.010   4.681   3.431  1.7613  1.5771 -1.1201
 1172TIP3    H2 3523   0.023   4.784   3.541  0.3196  0.1927  0.4043
 1173TIP3   OH2 3524   0.344   1.540   1.669  0.0618  0.3276  0.1057
 1173TIP3    H1 3525   0.299   1.594   1.733 -0.3860 -1.0240  0.9462
 1173TIP3    H2 3526   0.373   1.463   1.717 -3.3853 -2.5410 -1.8755
 1174TIP3   OH2 3527   0.928   3.885   4.303  0.7211 -0.7007 -0.0049
 1174TIP3    H1 3528   1.021   3.881   4.279  0.5883 -2.9813 -0.3513
 1174TIP3    H2 3529   0.926   3.857   4.394  0.5524  1.6556  0.7810
 1175TIP3   OH2 3530   3.413   5.570   2.421 -0.1647  0.5281 -0.4784
 1175TIP3    H1 3531   3.450   5.638   2.478 -0.7155  0.0712  0.4501
 1175TIP3    H2 3532   3.404   5.613   2.336  0.6512  1.2399 -0.2235
 1176TIP3   OH2 3533   3.863   3.113   2.050  0.5099 -0.0950  0.6446
 1176TIP3    H1 3534   3.770   3.132   2.039  0.5362 -0.4298 -0.2225
 1176TIP3    H2 3535   3.879   3.038   1.993  1.2455 -0.2362  1.0263
 1177TIP3   OH2 3536   3.709   3.189   3.173 -0.2940  0.4666  0.1908
 1177TIP3    H1 3537   3.616   3.174   3.156 -0.2764  0.1393  0.3824
 1177TIP3    H2 3538   3.713   3.277   3.210 -0.3491  1.1473 -1.3399
 1178TIP3   OH2 3539   1.805   0.616   3.165  0.4686 -0.0219  0.4174
 1178TIP3    H1 3540   1.782   0.530   3.199  0.1151  0.1525  0.6164
 1178TIP3    H2 3541   1.836   0.665   3.241 -0.7103  0.5012  0.5827
 1179TIP3   OH2 3542   3.498   1.250   1.626 -0.1769  0.0660  0.0592
 1179TIP3    H1 3543   3.551   1.327   1.603  0.7600 -0.3804  0.6656
 1179TIP3    H2 3544   3.417   1.287   1.662 -0.1075  0.7678 -0.4880
 1180TIP3   OH2 3545   1.555   2.988   3.797  0.6721  0.4357  0.2943
 1180TIP3    H1 3546   1.639   3.001   3.841  0.3485  1.4827  0.6443
 1180TIP3    H2 3547   1.577   2.956   3.710  1.4276  0.6049  0.4198
 1181TIP3   OH2 3548   6.129   2.989   1.414  0.5342 -0.2187  0.4211
 1181TIP3    H1 3549   6.177   2.945   1.484  1.1747 -1.9622 -1.0194
 1181TIP3    H2 3550   6.059   2.928   1.392  1.2627 -0.4508 -1.4459
 1182TIP3   OH2 3551   0.147   5.583   4.104 -0.1898 -0.2101 -0.1942
 1182TIP3    H1 3552   0.168   5.590   4.197 -1.9774  0.9958  0.1485
 1182TIP3    H2 3553   0.090   5.506   4.098 -1.0250  0.3959 -0.1029
 1183TIP3   OH2 3554   4.498   2.884   2.008 -0.2404 -0.4748  0.0213
 1183TIP3    H1 3555   4.428   2.908   2.069 -0.2766 -1.5233  0.4019
 1183TIP3    H2 3556   4.579   2.904   2.055 -0.2633 -1.5675  0.5573
 1184TIP3   OH2 3557   5.697   2.924   5.124 -0.1251 -0.6633 -0.1201
 1184TIP3    H1 3558   5.611   2.902   5.161  1.3299 -2.2088  2.7516
 1184TIP3    H2 3559   5.711   2.860   5.055 -1.6817  0.3327 -1.4314
 1185TIP3   OH2 3560   3.779   0.605   2.755 -0.7621  0.0156  0.2576
 1185TIP3    H1 3561   3.832   0.529   2.777 -0.1153  0.2606 -0.3934
 1185TIP3    H2 3562   3.723   0.619   2.831 -1.5189 -1.6293  0.0398
 1186TIP3   OH2 3563   5.108   0.605   4.634 -0.3074 -0.0228 -0.4437
 1186TIP3    H1 3564   5.042   0.651   4.686  0.7094  1.3709 -0.3211
 1186TIP3    H2 3565   5.190   0.650   4.655  0.6627 -1.5874 -0.7255
 1187TIP3   OH2 3566   1.836   1.120   0.978  0.9103 -0.4435  0.3170
 1187TIP3    H1 3567   1.789   1.050   1.023  2.3947 -3.2338 -2.1365
 1187TIP3    H2 3568   1.854   1.184   1.046 -1.9619 -1.5796  2.3743
 1188TIP3   OH2 3569   4.773   5.180   4.876  0.3871  0.0970 -0.3384
 1188TIP3    H1 3570   4.689   5.162   4.917 -0.7576  2.1007 -1.6488
 1188TIP3    H2 3571   4.830   5.206   4.949 -0.3653 -0.4394  0.4572
 1189TIP3   OH2 3572   4.522   4.893   2.743  0.5123  0.1407  0.1629
 1189TIP3    H1 3573   4.592   4.882   2.678  0.7640 -1.4760  0.6622
 1189TIP3    H2 3574   4.443   4.904   2.691  0.5809 -1.9770 -0.4953
 1190TIP3   OH2 3575   3.578   5.393   3.318  0.2394 -0.1255  0.5233
 1190TIP3    H1 3576   3.522   5.457   3.273 -0.2062 -1.3827 -0.7960
 1190TIP3    H2 3577   3.625   5.444   3.384  1.0099  1.8640 -1.4444
 1191TIP3   OH2 3578   2.644   5.391   5.163 -0.1160 -0.5562  0.8156
 1191TIP3    H1 3579   2.564   5.341   5.149 -0.2875 -0.7761  2.3500
 1191TIP3    H2 3580   2.714   5.325   5.157 -0.2901 -0.9072  2.1449
 1192TIP3   OH2 3581   1.153   1.253   0.226  0.0286 -0.2540  0.1113
 1192TIP3    H1 3582   1.080   1.223   0.280 -0.7411  1.5052  0.1142
 1192TIP3    H2 3583   1.229   1.249   0.284 -0.6339  0.8017  1.0927
 1193TIP3   OH2 3584   1.085   2.596   0.210  0.2748 -0.0003  0.1798
 1193TIP3    H1 3585   1.063   2.554   0.293 -0.4266 -0.1114 -0.0537
 1193TIP3    H2 3586   1.176   2.624   0.220 -0.1927  1.1753  1.4912
 1194TIP3   OH2 3587   6.156   5.695   4.482  0.1141  0.1596 -0.4455
 1194TIP3    H1 3588   6.071   5.715   4.522 -0.6779  1.2171 -2.4756
 1194TIP3    H2 3589   6.146   5.607   4.447  0.6867 -0.6253  1.2770
 1195TIP3   OH2 3590   6.185   0.176   1.643  0.3450 -0.0806 -0.2267
 1195TIP3    H1 3591   6.139   0.094   1.622  1.7651 -0.8604 -0.4873
 1195TIP3    H2 3592   6.186   0.179   1.739 -0.4496  0.0656 -0.2233
 1196TIP3   OH2 3593   2.111   4.276   2.034 -0.1899  0.0727 -0.0955
 1196TIP3    H1 3594   2.034   4.228   2.062 -0.0807 -0.3699 -0.5292
 1196TIP3    H2 3595   2.093   4.367   2.056 -0.8287 -0.0312 -0.1889
 1197TIP3   OH2 3596   0.097   5.157   2.415 -0.0692 -0.2601  0.1288
 1197TIP3    H1 3597   0.055   5.235   2.449  2.7191  0.9588  1.1053
 1197TIP3    H2 3598   0.146   5.122   2.489  1.3536 -1.0215 -1.1085
 1198TIP3   OH2 3599   0.852   1.619   4.403  0.1898  0.1466  0.0821
 1198TIP3    H1 3600   0.853   1.568   4.322  0.3470  0.3554 -0.0492
 1198TIP3    H2 3601   0.944   1.627   4.428  0.4770  2.7500 -1.4257
 1199TIP3   OH2 3602   2.125   2.638   4.053 -0.6317  0.1870  0.0836
 1199TIP3    H1 3603   2.187   2.565   4.049 -0.7373  0.0712  0.5274
 1199TIP3    H2 3604   2.047   2.605   4.008 -0.7491 -0.0443  0.4544
 1200TIP3   OH2 3605   4.261   4.160   1.061 -0.4668 -0.1063  0.3372
 1200TIP3    H1 3606   4.333   4.191   1.006 -0.1704  1.1143  1.3703
 1200TIP3    H2 3607   4.287   4.072   1.089 -0.4637 -0.6005 -1.1496
 1201TIP3   OH2 3608   5.418   0.556   4.112  0.0469  0.0643 -0.3627
 1201TIP3    H1 3609   5.500   0.540   4.065 -0.9632 -0.6725 -1.9778
 1201TIP3    H2 3610   5.394   0.646   4.088 -0.1138 -0.0735 -0.7417
 1202TIP3   OH2 3611   2.174   4.194   3.978 -0.1822  0.0891  0.2350
 1202TIP3    H1 3612   2.154   4.230   3.892 -0.2189  0.6856  0.4900
 1202TIP3    H2 3613   2.197   4.270   4.032  1.6627 -0.4243  0.2619
 1203TIP3   OH2 3614   1.930   3.000   3.209 -0.1974 -0.0372 -0.3902
 1203TIP3    H1 3615   1.857   3.041   3.254 -0.2284  0.3956 -0.8258
 1203TIP3    H2 3616   1.894   2.918   3.176 -0.0323 -0.6190  0.8088
 1204TIP3   OH2 3617   3.004   4.626   0.417 -0.2310 -0.0116  0.2562
 1204TIP3    H1 3618   3.004   4.699   0.354 -3.8382 -0.0279  0.0203
 1204TIP3    H2 3619   3.022   4.549   0.363 -0.0383  0.3120 -0.1517
 1205TIP3   OH2 3620   5.992   5.457   2.444  0.1172 -0.1303 -0.3536
 1205TIP3    H1 3621   6.028   5.440   2.357  0.4128 -0.6905 -0.1271
 1205TIP3    H2 3622   5.933   5.531   2.432 -0.1516 -0.4586 -1.1114
 1206TIP3   OH2 3623   2.650   1.399   0.337 -0.1710 -0.1173 -0.9482
 1206TIP3    H1 3624   2.589   1.414   0.409 -0.4954 -0.3706 -1.1718
 1206TIP3    H2 3625   2.698   1.482   0.329  1.5689 -0.8289  1.1500
 1207TIP3   OH2 3626   0.277   4.139   1.520 -0.0813  0.2251 -0.1342
 1207TIP3    H1 3627   0.253   4.186   1.600  1.5557  0.9383 -0.0079
 1207TIP3    H2 3628   0.197   4.094   1.493 -0.8558  0.5447  1.5041
 1208TIP3   OH2 3629   5.421   0.245   4.658 -0.4717  0.3601 -0.5039
 1208TIP3    H1 3630   5.421   0.321   4.599 -1.3121  1.2536  0.6003
 1208TIP3    H2 3631   5.340   0.254   4.708  0.3629 -0.2128  0.9969
 1209TIP3   OH2 3632   3.585   3.647   0.935  0.3793  0.9434 -0.1141
 1209TIP3    H1 3633   3.548   3.715   0.879 -2.4778 -1.2286 -1.0437
 1209TIP3    H2 3634   3.670   3.628   0.896 -0.2985  1.5099 -1.9666
 1210TIP3   OH2 3635   2.544   3.930   1.817 -0.0421  0.2762 -0.1152
 1210TIP3    H1 3636   2.593   3.998   1.771  0.1351  0.3109  0.1302
 1210TIP3    H2 3637   2.588   3.848   1.793 -1.7192 -0.0665 -2.4554
 1211TIP3   OH2 3638   0.069   3.302   1.065 -0.1003  0.0773  0.2812
 1211TIP3    H1 3639   0.099   3.372   1.008 -0.8131 -0.3738 -0.6808
 1211TIP3    H2 3640   0.148   3.251   1.084 -0.0149 -0.4711 -1.3331
 1212TIP3   OH2 3641   1.183   1.935   1.971 -0.2608 -0.1413  0.0385
 1212TIP3    H1 3642   1.163   1.878   2.045 -2.7068  0.0318 -0.4202
 1212TIP3    H2 3643   1.157   1.885   1.894 -0.4270  0.7658 -0.5069
 1213TIP3   OH2 3644   3.134   4.991   0.934 -0.1152 -0.0187 -0.1733
 1213TIP3    H1 3645   3.075   4.918   0.951 -0.9552  0.8476  0.7713
 1213TIP3    H2 3646   3.129   5.004   0.839 -0.1783 -0.9860 -0.3143
 1214TIP3   OH2 3647   2.479   4.872   1.693  0.4744  0.3576 -0.0272
 1214TIP3    H1 3648   2.551   4.932   1.710  1.3394 -1.2511  2.8305
 1214TIP3    H2 3649   2.457   4.837   1.780 -1.9499 -1.2189 -1.1683
 1215TIP3   OH2 3650   1.688   4.982   0.232 -0.3500 -0.1684 -0.0132
 1215TIP3    H1 3651   1.687   4.984   0.328 -0.9341 -1.5464  0.0308
 1215TIP3    H2 3652   1.779   4.960   0.210 -0.3214 -0.3146  0.2401
 1216TIP3   OH2 3653   5.613   2.062   3.927  0.1912 -0.3079  0.2811
 1216TIP3    H1 3654   5.548   2.033   3.991 -0.4227  1.0565  0.3098
 1216TIP3    H2 3655   5.696   2.058   3.975  0.0651 -1.4553  0.4408
 1217TIP3   OH2 3656   1.022   3.678   3.995  0.0400 -0.5645 -0.3629
 1217TIP3    H1 3657   1.006   3.617   4.067  4.0864 -0.4302  0.8899
 1217TIP3    H2 3658   1.060   3.624   3.926 -1.9756 -0.3319 -1.7595
 1218TIP3   OH2 3659   2.920   3.435   3.603 -0.3766  0.5495  0.0709
 1218TIP3    H1 3660   2.883   3.449   3.516 -0.9250 -1.2152 -0.0195
 1218TIP3    H2 3661   2.866   3.490   3.661  0.5779  2.4546 -0.7670
 1219TIP3   OH2 3662   0.633   0.271   0.516 -0.5877  0.5125 -0.3919
 1219TIP3    H1 3663   0.637   0.197   0.455 -0.5695  0.0602  0.1507
 1219TIP3    H2 3664   0.548   0.263   0.559 -0.3290  0.4541  0.1103
 1220TIP3   OH2 3665   4.104   2.636   2.321 -0.3878 -0.5760  0.0722
 1220TIP3    H1 3666   4.134   2.723   2.347  0.3497 -0.8213  0.0796
 1220TIP3    H2 3667   4.052   2.651   2.242 -0.0777 -0.1543 -0.0565
 1221TIP3   OH2 3668   5.742   3.582   3.935  0.0919 -0.4367  0.1509
 1221TIP3    H1 3669   5.660   3.616   3.969  0.1437 -0.9121  0.7556
 1221TIP3    H2 3670   5.717   3.506   3.882  0.0141  0.2805 -0.8722
 1222TIP3   OH2 3671   1.831   3.979   4.444  0.3827 -0.1477  0.0656
 1222TIP3    H1 3672   1.875   3.898   4.470 -1.2382 -0.8806  0.6163
 1222TIP3    H2 3673   1.742   3.952   4.421 -0.5370  1.6158  1.3389
 1223TIP3   OH2 3674   0.368   0.337   0.619 -0.3448 -0.1428  0.3535
 1223TIP3    H1 3675   0.282   0.296   0.622 -0.2564 -0.2804  2.1744
 1223TIP3    H2 3676   0.360   0.406   0.553 -1.7253 -0.3825  0.2440
 1224TIP3   OH2 3677   4.690   3.708   2.223 -0.4965 -0.0081  0.3945
 1224TIP3    H1 3678   4.765   3.681   2.276 -0.6263 -0.8469  0.1702
 1224TIP3    H2 3679   4.656   3.785   2.267 -0.5387 -0.6254  1.4692
 1225TIP3   OH2 3680   3.136   5.084   4.584  0.1141 -0.1233  0.2757
 1225TIP3    H1 3681   3.114   5.022   4.514  1.2175 -0.1793 -0.0307
 1225TIP3    H2 3682   3.167   5.162   4.538  1.5135 -0.4130  0.6998
 1226TIP3   OH2 3683   0.245   2.563   2.340 -0.5592 -0.4049  0.9515
 1226TIP3    H1 3684   0.185   2.529   2.406 -2.7786 -0.8381 -1.1450
 1226TIP3    H2 3685   0.192   2.569   2.261  1.5692  1.5618 -0.4365
 1227TIP3   OH2 3686   0.691   1.756   4.611  0.1887  0.0583 -0.3491
 1227TIP3    H1 3687   0.749   1.696   4.564 -0.7123 -1.0717 -0.0681
 1227TIP3    H2 3688   0.603   1.725   4.591 -0.2319 -0.5390  2.1307
 1228TIP3   OH2 3689   3.240   1.215   1.180 -0.5222 -1.1286  0.2400
 1228TIP3    H1 3690   3.287   1.146   1.227  1.2888 -0.4629 -0.5108
 1228TIP3    H2 3691   3.243   1.188   1.088  0.2588 -0.0686 -0.0746
 1229TIP3   OH2 3692   5.775   4.576   3.436 -0.0043 -0.6444  0.4177
 1229TIP3    H1 3693   5.813   4.517   3.371  0.0012 -0.6420  0.4188
 1229TIP3    H2 3694   5.778   4.527   3.518  1.0701 -0.2086  0.6516
 1230TIP3   OH2 3695   2.424   3.435   3.960 -0.4312  0.2681  0.2240
 1230TIP3    H1 3696   2.476   3.391   4.028  0.3176  0.8920  0.0628
 1230TIP3    H2 3697   2.342   3.384   3.957 -0.4172  0.1193  1.4711
 1231TIP3   OH2 3698   1.585   2.822   1.550  0.1410 -0.0412  0.1329
 1231TIP3    H1 3699   1.635   2.888   1.597 -1.4301  0.1719  1.5976
 1231TIP3    H2 3700   1.514   2.871   1.509  0.0193 -0.5830 -0.3149
 1232TIP3   OH2 3701   1.077   0.223   1.176 -0.4029  0.2484 -0.2647
 1232TIP3    H1 3702   1.116   0.177   1.102  1.0540 -0.1231  0.6997
 1232TIP3    H2 3703   1.062   0.312   1.145  2.4558  0.7977 -0.3293
 1233TIP3   OH2 3704   6.083   2.125   4.079  0.3937 -0.1438 -0.0079
 1233TIP3    H1 3705   6.047   2.042   4.110  2.6594 -1.1299  0.1297
 1233TIP3    H2 3706   6.154   2.144   4.139  0.6632  1.3104 -0.7518
 1234TIP3   OH2 3707   1.743   2.990   2.129  0.0675 -0.6160 -0.1779
 1234TIP3    H1 3708   1.731   3.084   2.136 -0.0914 -0.5004 -1.6973
 1234TIP3    H2 3709   1.665   2.953   2.171  0.1522 -0.0765  0.4601
 1235TIP3   OH2 3710   4.705   2.637   2.207  0.1951  0.5121 -0.7318
 1235TIP3    H1 3711   4.653   2.689   2.268 -0.6730  0.0074 -1.0151
 1235TIP3    H2 3712   4.671   2.660   2.121  0.6446  0.3912 -0.9449
 1236TIP3   OH2 3713   3.650   1.812   3.333 -0.3026  0.3119  0.5551
 1236TIP3    H1 3714   3.621   1.824   3.424 -2.2051 -1.2307  0.2397
 1236TIP3    H2 3715   3.622   1.891   3.288 -0.4274  0.5729  1.0869
 1237TIP3   OH2 3716   0.934   5.349   4.996 -0.3380  0.8403  0.4310
 1237TIP3    H1 3717   0.967   5.315   5.079 -0.4551  1.8391  0.9103
 1237TIP3    H2 3718   0.984   5.429   4.981 -0.5165  0.8244 -0.3233
 1238TIP3   OH2 3719   4.253   5.259   1.696  0.3976  0.4086  0.2186
 1238TIP3    H1 3720   4.315   5.187   1.687 -0.9738 -0.7477 -0.3999
 1238TIP3    H2 3721   4.262   5.287   1.787  1.7416  0.2179  0.1693
 1239TIP3   OH2 3722   2.123   1.058   3.575  0.1433  0.2740 -0.1881
 1239TIP3    H1 3723   2.043   1.108   3.588  0.3638  0.4271  0.6367
 1239TIP3    H2 3724   2.131   1.049   3.480 -1.1942 -0.3146 -0.2554
 1240TIP3   OH2 3725   5.696   2.064   0.483 -0.9240  0.3597  0.2729
 1240TIP3    H1 3726   5.647   1.995   0.439  0.0969 -0.2300  0.0306
 1240TIP3    H2 3727   5.760   2.093   0.418  0.9908 -0.9109  1.4969
 1241TIP3   OH2 3728   1.654   1.509   2.628  0.0349 -0.0095 -0.6230
 1241TIP3    H1 3729   1.655   1.417   2.601  1.9309 -0.4356  0.6667
 1241TIP3    H2 3730   1.731   1.518   2.685  0.3714  2.5921 -1.3682
 1242TIP3   OH2 3731   0.630   2.815   0.343 -0.6749 -0.0984 -0.3935
 1242TIP3    H1 3732   0.536   2.832   0.347 -1.4329 -3.5355 -0.2549
 1242TIP3    H2 3733   0.658   2.811   0.434 -0.9760 -1.3807 -0.3290
 1243TIP3   OH2 3734   1.396   4.215   3.188  0.4234 -0.0090 -0.3500
 1243TIP3    H1 3735   1.491   4.224   3.181  0.3714 -0.7353 -3.3443
 1243TIP3    H2 3736   1.377   4.128   3.154 -1.3819  0.5618 -0.9472
 1244TIP3   OH2 3737   4.033   3.737   1.448 -0.0760 -0.1062  0.4912
 1244TIP3    H1 3738   4.001   3.813   1.497 -2.2263  0.3120 -1.3572
 1244TIP3    H2 3739   4.078   3.683   1.513 -1.5456  1.0756  2.6039
 1245TIP3   OH2 3740   3.840   4.515   3.582 -0.2076  0.4452 -0.1674
 1245TIP3    H1 3741   3.877   4.553   3.503  1.3143 -1.0145 -0.2186
 1245TIP3    H2 3742   3.792   4.438   3.551 -1.2252  0.9269  0.1622
 1246TIP3   OH2 3743   3.267   4.392   0.188  0.0193  0.3383 -0.5619
 1246TIP3    H1 3744   3.234   4.480   0.167 -0.2594  0.3625 -0.0499
 1246TIP3    H2 3745   3.348   4.408   0.237 -0.9387  0.3797  1.1009
 1247TIP3   OH2 3746   0.703   1.097   2.972 -0.1491  0.3732  0.5304
 1247TIP3    H1 3747   0.777   1.098   3.032  0.4693  0.5622 -0.2191
 1247TIP3    H2 3748   0.734   1.048   2.896  0.2354  2.8368 -1.0352
 1248TIP3   OH2 3749   5.962   4.107   1.788 -0.0666 -0.2682  0.0821
 1248TIP3    H1 3750   5.961   4.184   1.846  1.4729 -0.5702  0.5571
 1248TIP3    H2 3751   5.890   4.053   1.818 -1.5914  1.2489 -0.6604
 1249TIP3   OH2 3752   6.145   3.117   3.547  0.0362 -0.0344  0.2231
 1249TIP3    H1 3753   6.133   3.211   3.552 -0.0982  0.1991 -2.5781
 1249TIP3    H2 3754   6.138   3.086   3.637  0.2874  2.6254  1.2329
 1250TIP3   OH2 3755   2.336   1.323   0.918 -0.1827  0.1681 -0.1944
 1250TIP3    H1 3756   2.392   1.347   0.992 -0.6570  0.0163  0.2208
 1250TIP3    H2 3757   2.247   1.339   0.949 -0.3750  0.4043 -0.8465
 1251TIP3   OH2 3758   2.084   1.999   4.741 -0.0691  0.3745 -0.2033
 1251TIP3    H1 3759   2.103   1.906   4.751  0.6878  0.5125 -0.3684
 1251TIP3    H2 3760   1.989   2.002   4.730 -0.3258 -0.2413  1.4655
 1252TIP3   OH2 3761   2.868   0.155   2.475 -0.5036 -0.6657 -0.6283
 1252TIP3    H1 3762   2.895   0.068   2.504 -0.5997  0.3168  2.7810
 1252TIP3    H2 3763   2.772   0.151   2.476 -0.5176 -0.8313 -1.6425
 1253TIP3   OH2 3764   0.158   1.352   3.725 -0.5858 -0.3998 -0.4781
 1253TIP3    H1 3765   0.211   1.274   3.739  0.2785  0.2128 -0.2304
 1253TIP3    H2 3766   0.195   1.417   3.786 -2.2395 -0.2383  0.4091
 1254TIP3   OH2 3767   0.284   3.476   3.980  0.0853  0.5764 -0.1529
 1254TIP3    H1 3768   0.302   3.427   4.060 -1.2233 -0.2428 -0.3268
 1254TIP3    H2 3769   0.327   3.426   3.911  0.4077  0.7627 -0.0905
 1255TIP3   OH2 3770   5.482   1.571   5.098 -0.3330 -0.8189  0.4077
 1255TIP3    H1 3771   5.542   1.511   5.143  1.9728  1.0534  0.0014
 1255TIP3    H2 3772   5.517   1.658   5.116 -1.8432  0.2480 -1.4860
 1256TIP3   OH2 3773   1.255   4.665   1.744 -0.6287  0.9125 -0.2431
 1256TIP3    H1 3774   1.263   4.755   1.715  0.9720  0.7907 -0.3130
 1256TIP3    H2 3775   1.277   4.667   1.837 -1.6166  0.7274  0.0062
 1257TIP3   OH2 3776   4.260   2.157   0.898  0.0463 -0.0592  0.2811
 1257TIP3    H1 3777   4.332   2.137   0.958 -0.4112 -0.2989  0.7544
 1257TIP3    H2 3778   4.213   2.075   0.888 -0.9580  0.3983  1.0559
 1258TIP3   OH2 3779   4.043   0.945   4.769 -0.2628  0.4273 -0.5484
 1258TIP3    H1 3780   3.999   0.977   4.691 -0.0710  0.8324 -0.4952
 1258TIP3    H2 3781   4.136   0.955   4.751 -0.2239  0.9026 -0.1193
 1259TIP3   OH2 3782   3.471   4.399   2.798  0.0121 -0.2432  0.3961
 1259TIP3    H1 3783   3.402   4.461   2.775 -1.0796 -2.0192 -1.4064
 1259TIP3    H2 3784   3.552   4.450   2.794 -0.8959  1.1923 -0.4722
 1260TIP3   OH2 3785   2.273   4.528   1.794  0.2384 -0.4223  0.0671
 1260TIP3    H1 3786   2.360   4.492   1.776  0.8837  1.5921 -1.1749
 1260TIP3    H2 3787   2.266   4.526   1.890  1.4198 -1.1165  0.1643
 1261TIP3   OH2 3788   0.242   5.656   3.032 -0.0927  0.4948  0.6058
 1261TIP3    H1 3789   0.206   5.647   3.121  0.0455 -0.8834  0.5383
 1261TIP3    H2 3790   0.234   5.569   2.994 -1.5035  1.4088 -1.2846
 1262TIP3   OH2 3791  -0.000   2.647   3.946 -0.0470  0.1486 -0.3676
 1262TIP3    H1 3792   0.084   2.621   3.982 -0.5127  0.6372  1.1226
 1262TIP3    H2 3793  -0.064   2.615   4.009 -0.8367  1.8268 -0.2696
 1263TIP3   OH2 3794   1.577   0.118   1.152  0.4207  0.3133  0.8566
 1263TIP3    H1 3795   1.594   0.053   1.084  0.8595  0.6495  0.6469
 1263TIP3    H2 3796   1.615   0.199   1.119 -0.6784  0.8398  0.8299
 1264TIP3   OH2 3797   1.080   3.439   2.803 -0.3600  0.7491 -0.0371
 1264TIP3    H1 3798   1.054   3.392   2.882  2.7834 -5.2040 -1.8878
 1264TIP3    H2 3799   1.160   3.486   2.827 -1.0094  1.3818  0.9098
 1265TIP3   OH2 3800   6.143   3.206   4.381  0.0821  0.1410  0.2925
 1265TIP3    H1 3801   6.093   3.173   4.455 -0.7083  3.2260  1.3016
 1265TIP3    H2 3802   6.224   3.156   4.382 -1.5095 -2.5963  0.7504
 1266TIP3   OH2 3803   2.067   3.111   2.969 -0.0590  0.1889 -0.5454
 1266TIP3    H1 3804   2.022   3.065   3.040 -0.7245 -0.2464 -1.2349
 1266TIP3    H2 3805   2.076   3.201   3.000  0.4491 -0.1920  0.4444
 1267TIP3   OH2 3806   3.672   2.208   2.958 -0.5705  0.0841  0.5253
 1267TIP3    H1 3807   3.707   2.297   2.953 -1.9612  0.9219  3.5629
 1267TIP3    H2 3808   3.645   2.188   2.868 -0.0961  2.6425 -0.2623
 1268TIP3   OH2 3809   2.517   1.495   2.981  0.0142 -0.6184  0.0083
 1268TIP3    H1 3810   2.603   1.503   2.940  1.6422 -0.5627  3.1127
 1268TIP3    H2 3811   2.466   1.568   2.946  0.8387 -1.2167 -2.6339
 1269TIP3   OH2 3812   1.094   0.668   0.857 -0.2813 -0.3929 -0.3470
 1269TIP3    H1 3813   1.097   0.739   0.792 -1.3420  0.9318  0.9641
 1269TIP3    H2 3814   1.109   0.713   0.940 -1.3292 -1.6730  0.5534
 1270TIP3   OH2 3815   1.142   4.496   5.173 -0.6419  0.4817  0.3793
 1270TIP3    H1 3816   1.102   4.516   5.089 -1.4862  0.4070  0.7483
 1270TIP3    H2 3817   1.079   4.529   5.238 -0.5068 -0.4008  0.9800
 1271TIP3   OH2 3818   3.504   1.626   3.086 -0.1141 -0.6313  0.7178
 1271TIP3    H1 3819   3.462   1.605   3.169 -1.7973  0.6280  0.2571
 1271TIP3    H2 3820   3.461   1.707   3.058  0.2176 -1.1637 -1.5087
 1272TIP3   OH2 3821   1.753   4.789   3.807  0.1083 -0.2003  0.0604
 1272TIP3    H1 3822   1.784   4.699   3.815 -1.7559 -0.8029  0.8030
 1272TIP3    H2 3823   1.733   4.816   3.896 -1.1063  0.3043 -0.3482
 1273TIP3   OH2 3824   0.971   2.944   1.312  0.2443  0.2174  0.4240
 1273TIP3    H1 3825   0.935   2.858   1.289 -0.0595  0.5410 -0.3166
 1273TIP3    H2 3826   0.933   2.963   1.398 -0.8374  0.2563 -0.0500
 1274TIP3   OH2 3827   0.560   0.767   1.648 -0.6147 -0.2542 -0.0037
 1274TIP3    H1 3828   0.655   0.763   1.637 -0.5257  1.5655 -0.0994
 1274TIP3    H2 3829   0.546   0.763   1.743 -0.5094 -1.2991 -0.0214
 1275TIP3   OH2 3830   1.619   5.451   2.654  0.5959 -0.1432 -0.8213
 1275TIP3    H1 3831   1.674   5.373   2.657  1.7734  0.6380 -1.2089
 1275TIP3    H2 3832   1.572   5.450   2.737  1.8871 -0.3731 -0.0571
 1276TIP3   OH2 3833   3.875   4.706   0.302  0.0988 -0.1058 -0.0885
 1276TIP3    H1 3834   3.937   4.775   0.327 -1.2712  1.5458 -0.9964
 1276TIP3    H2 3835   3.926   4.647   0.247  0.5101  2.3005 -2.5176
 1277TIP3   OH2 3836   5.124   3.765   4.049 -0.5465 -0.3133 -0.1858
 1277TIP3    H1 3837   5.185   3.817   3.997 -2.1023  0.1135 -1.6883
 1277TIP3    H2 3838   5.137   3.675   4.018  0.1098 -0.3998  0.3263
 1278TIP3   OH2 3839   3.615   1.023   3.990 -0.7191 -0.6334  0.1030
 1278TIP3    H1 3840   3.622   1.116   4.011 -0.5114 -0.2342 -1.5716
 1278TIP3    H2 3841   3.666   0.979   4.059 -2.0377  0.3298  1.7780
 1279TIP3   OH2 3842   1.451   3.814   2.473  0.1901  0.0032  0.0169
 1279TIP3    H1 3843   1.475   3.774   2.389  0.4501  0.8205 -0.3014
 1279TIP3    H2 3844   1.357   3.794   2.482  0.0379  0.3355 -0.7157
 1280TIP3   OH2 3845   1.138   2.685   1.050 -0.5435  0.3353 -0.2950
 1280TIP3    H1 3846   1.095   2.749   0.993 -0.2362  0.4862 -0.3582
 1280TIP3    H2 3847   1.072   2.663   1.115 -0.9076  0.1487 -0.7189
 1281TIP3   OH2 3848   4.483   1.799   3.117  0.2585 -0.2218  0.0286
 1281TIP3    H1 3849   4.413   1.850   3.076 -0.2027 -1.3346 -0.6077
 1281TIP3    H2 3850   4.510   1.852   3.192  0.0383  1.1100 -0.7988
 1282TIP3   OH2 3851   5.060   2.690   1.375  0.0255 -0.0789  0.0207
 1282TIP3    H1 3852   4.996   2.755   1.347 -0.4670 -0.7079 -0.3526
 1282TIP3    H2 3853   5.008   2.624   1.420  0.6296  0.2211  1.1950
 1283TIP3   OH2 3854   4.912   0.245   1.983 -0.4421  0.0117  0.3130
 1283TIP3    H1 3855   4.838   0.214   2.036  0.0188 -0.5048  0.6583
 1283TIP3    H2 3856   4.989   0.204   2.022 -0.0470 -0.0144 -0.4776
 1284TIP3   OH2 3857   1.777   0.680   4.741  0.0154 -0.3225  0.2298
 1284TIP3    H1 3858   1.844   0.680   4.673  0.3499 -1.2655  0.5497
 1284TIP3    H2 3859   1.803   0.610   4.800 -1.6338 -1.1797 -0.0161
 1285TIP3   OH2 3860   4.049   1.938   4.070 -0.0016 -0.5768 -0.1955
 1285TIP3    H1 3861   4.097   2.007   4.024  1.8123 -3.3785 -2.9302
 1285TIP3    H2 3862   4.107   1.913   4.143 -1.1150  1.2803  1.4288
 1286TIP3   OH2 3863   4.298   5.030   1.092 -0.1941 -0.0509 -0.4259
 1286TIP3    H1 3864   4.263   4.942   1.075 -1.8057  0.2331  1.1040
 1286TIP3    H2 3865   4.259   5.085   1.025 -3.9771  0.4961  1.9432
 1287TIP3   OH2 3866   1.474   4.109   2.386 -0.0997 -0.0343  0.2485
 1287TIP3    H1 3867   1.411   4.104   2.314  1.3298  2.3087 -1.2916
 1287TIP3    H2 3868   1.473   4.021   2.424 -1.8271 -1.0205 -1.8420
 1288TIP3   OH2 3869   3.556   1.930   2.069 -0.0336  0.0208 -0.7069
 1288TIP3    H1 3870   3.644   1.964   2.084 -1.0227  1.5034  3.0862
 1288TIP3    H2 3871   3.550   1.853   2.126 -1.2807  0.1469 -0.6309
 1289TIP3   OH2 3872   3.286   0.836   2.949  0.4717 -0.3480 -0.6614
 1289TIP3    H1 3873   3.228   0.772   2.992 -0.5307  1.4433  0.8516
 1289TIP3    H2 3874   3.280   0.816   2.856 -1.0218 -1.4993 -0.3545
 1290TIP3   OH2 3875   5.429   2.201   3.728 -0.9070  0.1921  0.1825
 1290TIP3    H1 3876   5.343   2.168   3.755 -0.9533  1.3548  1.5387
 1290TIP3    H2 3877   5.469   2.233   3.808  0.2573  0.8971 -0.6559
 1291TIP3   OH2 3878   2.325   5.908   1.967 -0.3131  0.1502 -0.5417
 1291TIP3    H1 3879   2.328   5.975   1.898 -0.9737 -0.2645 -0.9912
 1291TIP3    H2 3880   2.252   5.935   2.023  1.4939  1.6379  1.2488
 1292TIP3   OH2 3881   3.364   1.680   2.610 -0.0028  0.3067  0.0554
 1292TIP3    H1 3882   3.358   1.687   2.705  0.8781  1.9028  0.0293
 1292TIP3    H2 3883   3.423   1.606   2.595 -0.6446 -0.3544  0.7220
 1293TIP3   OH2 3884   3.258   1.051   0.150 -0.3118 -0.4269  0.1931
 1293TIP3    H1 3885   3.270   1.024   0.241 -3.1271  0.8153  1.0209
 1293TIP3    H2 3886   3.317   1.126   0.139  0.4101 -0.8906  0.8178
 1294TIP3   OH2 3887   5.660   5.836   0.928 -0.3207  0.0681  0.8841
 1294TIP3    H1 3888   5.674   5.911   0.870 -0.3280 -1.8043 -1.6921
 1294TIP3    H2 3889   5.748   5.818   0.964  0.2866 -0.4309 -0.7784
 1295TIP3   OH2 3890   2.753   0.208   1.147  0.4253  0.0768  0.0247
 1295TIP3    H1 3891   2.720   0.173   1.064 -0.7387  1.4717 -0.1201
 1295TIP3    H2 3892   2.675   0.226   1.199  1.0748  0.6706  0.8228
 1296TIP3   OH2 3893   3.643   2.404   4.693  0.1652  0.2549  0.6194
 1296TIP3    H1 3894   3.631   2.365   4.606 -1.4219  0.1139  0.8650
 1296TIP3    H2 3895   3.613   2.494   4.683  0.1479  0.2905  0.9821
 1297TIP3   OH2 3896   3.581   3.919   0.576  0.2518  0.2259 -0.2292
 1297TIP3    H1 3897   3.622   3.937   0.492  0.8232 -1.2351 -0.2916
 1297TIP3    H2 3898   3.493   3.956   0.569  0.9420  1.8147 -0.7475
 1298TIP3   OH2 3899   1.957   0.410   0.416 -0.0407  0.1855  0.0193
 1298TIP3    H1 3900   2.040   0.434   0.457  0.1997 -1.9845  0.9708
 1298TIP3    H2 3901   1.894   0.473   0.449  0.9079  0.8081  0.6862
 1299TIP3   OH2 3902   3.242   4.813   4.941  0.8559  0.3999 -0.6114
 1299TIP3    H1 3903   3.238   4.886   5.003  2.4124  0.4939 -0.5740
 1299TIP3    H2 3904   3.294   4.746   4.987  0.9054 -0.0482 -1.3117
 1300TIP3   OH2 3905   4.590   1.942   5.055 -0.3783  0.5068  0.1130
 1300TIP3    H1 3906   4.664   1.964   5.111 -0.0381 -2.3707  0.9493
 1300TIP3    H2 3907   4.629   1.910   4.974 -0.5712 -1.8207  0.8625
 1301TIP3   OH2 3908   1.419   5.363   3.338  0.5372  0.0940  0.3680
 1301TIP3    H1 3909   1.334   5.400   3.361  0.1054 -0.5053 -0.2380
 1301TIP3    H2 3910   1.407   5.268   3.345  0.8959 -0.0285 -0.5661
 1302TIP3   OH2 3911   5.376   4.423   0.069  0.2989  0.2406  0.0326
 1302TIP3    H1 3912   5.339   4.376   0.143 -0.5010 -1.7185 -1.5181
 1302TIP3    H2 3913   5.332   4.508   0.070  1.7511  1.1134  2.8733
 1303TIP3   OH2 3914   5.359   5.604   0.333  0.1336  0.2522  0.6873
 1303TIP3    H1 3915   5.348   5.534   0.397 -1.4293 -0.9663 -0.8450
 1303TIP3    H2 3916   5.324   5.682   0.376 -0.7539 -0.5101  1.3815
 1304TIP3   OH2 3917   2.838   1.812   1.375 -0.8397  0.2366 -0.2414
 1304TIP3    H1 3918   2.913   1.757   1.355 -0.7247  0.1109  0.5314
 1304TIP3    H2 3919   2.763   1.764   1.339 -0.5964  0.2015 -0.7093
 1305TIP3   OH2 3920   4.494   2.353   1.449  0.2948 -0.2627  0.4087
 1305TIP3    H1 3921   4.472   2.264   1.475  0.6708 -1.6472 -3.3943
 1305TIP3    H2 3922   4.415   2.404   1.467 -1.3033 -2.2136 -0.7990
 1306TIP3   OH2 3923   3.189   3.619   3.049 -0.2749 -0.2538 -0.2812
 1306TIP3    H1 3924   3.112   3.671   3.027  0.8256  1.6253  0.0764
 1306TIP3    H2 3925   3.205   3.639   3.141 -0.0895 -1.6539  0.0171
 1307TIP3   OH2 3926   1.916   3.686   1.632  0.8013 -0.1311 -0.2962
 1307TIP3    H1 3927   1.904   3.758   1.569  1.7399 -1.5148 -2.1541
 1307TIP3    H2 3928   1.831   3.641   1.632  0.4612  0.4857  0.2769
 1308TIP3   OH2 3929   0.784   0.413   1.261  0.0983  0.2127 -0.0143
 1308TIP3    H1 3930   0.879   0.406   1.262 -0.0076 -1.6961  0.4218
 1308TIP3    H2 3931   0.755   0.353   1.330 -1.4224  0.6056 -0.2872
 1309TIP3   OH2 3932   0.244   0.319   2.223  0.7703 -0.6138 -0.1887
 1309TIP3    H1 3933   0.163   0.278   2.193  0.2979  0.3252 -0.2452
 1309TIP3    H2 3934   0.240   0.312   2.319  0.5861 -0.5079 -0.1878
 1310TIP3   OH2 3935   3.882   4.685   3.329 -0.3454  0.3832  0.1276
 1310TIP3    H1 3936   3.855   4.765   3.373  2.1572  1.5929 -0.3448
 1310TIP3    H2 3937   3.965   4.708   3.286 -1.2218 -1.4892 -2.9165
 1311TIP3   OH2 3938   2.584   0.472   2.735 -0.4608 -0.1176 -0.5901
 1311TIP3    H1 3939   2.662   0.431   2.696 -0.7966 -0.2178 -1.1627
 1311TIP3    H2 3940   2.517   0.466   2.667 -0.1020  2.7746 -1.3511
 1312TIP3   OH2 3941   4.057   3.863   4.388 -0.3800 -0.5909 -0.0899
 1312TIP3    H1 3942   4.037   3.945   4.342  0.8721 -0.2652 -0.0734
 1312TIP3    H2 3943   4.115   3.816   4.329 -0.5003 -1.1459  0.2295
 1313TIP3   OH2 3944   2.521   3.031   3.345 -1.0714  0.2490  0.2238
 1313TIP3    H1 3945   2.576   3.068   3.276  1.9097 -0.5732  1.9361
 1313TIP3    H2 3946   2.447   3.090   3.352 -0.5585  1.3573 -2.3824
 1314TIP3   OH2 3947   3.091   3.273   0.885  0.4533  0.4913 -0.7801
 1314TIP3    H1 3948   3.186   3.266   0.882  0.5120  1.3895 -2.5785
 1314TIP3    H2 3949   3.062   3.193   0.926  1.9728 -0.0265 -0.6529
 1315TIP3   OH2 3950   1.648   3.030   4.100  0.8295  0.5325 -0.0539
 1315TIP3    H1 3951   1.700   2.964   4.146 -0.0723  0.3099  0.6938
 1315TIP3    H2 3952   1.560   3.021   4.138  0.4554  1.4764 -0.6662
 1316TIP3   OH2 3953   3.662   5.756   3.023  0.7556 -0.4251  0.3515
 1316TIP3    H1 3954   3.675   5.662   3.009 -0.9498 -0.5951 -0.3549
 1316TIP3    H2 3955   3.716   5.777   3.099  1.7610 -1.8059  0.0539
 1317TIP3   OH2 3956   1.201   5.375   2.245  0.5541 -0.0541 -0.1927
 1317TIP3    H1 3957   1.277   5.421   2.279  1.3065 -0.2162 -1.5890
 1317TIP3    H2 3958   1.200   5.395   2.151 -1.8394  0.9608 -0.0255
 1318TIP3   OH2 3959   6.108   0.027   3.617 -0.0933  0.5572 -0.3610
 1318TIP3    H1 3960   6.085   0.107   3.571 -2.8384  0.8294  1.2556
 1318TIP3    H2 3961   6.028  -0.025   3.617  1.1086 -1.4052  0.2027
 1319TIP3   OH2 3962   0.959   1.449   2.031 -0.2568  0.3835  0.4683
 1319TIP3    H1 3963   0.960   1.545   2.033  0.8608  0.4554 -1.1800
 1319TIP3    H2 3964   0.870   1.427   2.003 -1.2454  0.7912  3.0221
 1320TIP3   OH2 3965   3.556   4.264   4.750 -0.0374 -0.3058  0.3451
 1320TIP3    H1 3966   3.482   4.203   4.752  1.1736 -1.8043  0.8438
 1320TIP3    H2 3967   3.605   4.245   4.829  1.1562  0.3300 -0.2138
 1321TIP3   OH2 3968   5.665   4.066   0.356 -0.4091  0.2747 -0.6013
 1321TIP3    H1 3969   5.609   4.014   0.298 -0.7668  1.3242 -1.2419
 1321TIP3    H2 3970   5.724   4.111   0.296  0.7184 -0.3388  0.0297
 1322TIP3   OH2 3971   3.816   0.879   3.759  0.1752  0.1573 -0.3956
 1322TIP3    H1 3972   3.722   0.865   3.774  0.4078  0.4670  1.4794
 1322TIP3    H2 3973   3.837   0.958   3.808  1.9516 -1.3483  1.4342
 1323TIP3   OH2 3974   5.312   4.872   1.019  0.7886 -0.0951  0.3622
 1323TIP3    H1 3975   5.375   4.931   0.978 -0.2773  1.1684  0.4940
 1323TIP3    H2 3976   5.227   4.911   1.001 -0.2366 -2.9467 -1.8326
 1324TIP3   OH2 3977   2.524   5.464   1.241 -0.0241 -0.0292  0.0045
 1324TIP3    H1 3978   2.449   5.522   1.230 -0.3813 -0.2312  1.2900
 1324TIP3    H2 3979   2.585   5.513   1.297 -0.9864 -1.4234  2.4026
 1325TIP3   OH2 3980   4.750   3.347   0.892  0.0365 -0.3401 -0.1206
 1325TIP3    H1 3981   4.733   3.304   0.976 -0.4782 -0.7062 -0.4118
 1325TIP3    H2 3982   4.719   3.437   0.905 -1.2457 -0.7343 -0.3235
 1326TIP3   OH2 3983   4.896   5.721   0.327 -0.0637  0.1800 -0.2919
 1326TIP3    H1 3984   4.940   5.640   0.354  2.9379  1.6798 -0.3185
 1326TIP3    H2 3985   4.918   5.730   0.234 -2.3009 -0.0472 -0.9122
 1327TIP3   OH2 3986   5.806   4.557   2.512  0.4922 -0.2429  0.6606
 1327TIP3    H1 3987   5.799   4.527   2.603  2.1461  0.1055  0.9310
 1327TIP3    H2 3988   5.788   4.479   2.459 -0.3428 -0.4811  1.2794
 1328TIP3   OH2 3989   3.466   3.839   0.816 -0.5413 -0.1906 -0.7679
 1328TIP3    H1 3990   3.508   3.872   0.736 -0.2083  1.7295  0.1374
 1328TIP3    H2 3991   3.374   3.827   0.791 -0.5892  1.0768 -1.2944
 1329TIP3   OH2 3992   3.159   3.469   1.910 -0.4488 -0.5318  0.1731
 1329TIP3    H1 3993   3.166   3.432   1.999  2.0992  0.0866  0.3283
 1329TIP3    H2 3994   3.218   3.415   1.858 -1.2548 -0.3387 -0.9678
 1330TIP3   OH2 3995   4.961   0.069   1.352  0.0853  0.0383  0.5458
 1330TIP3    H1 3996   4.868   0.049   1.365  0.2711 -1.2455  0.0879
 1330TIP3    H2 3997   5.005   0.025   1.425  0.3320  0.7961  0.8665
 1331TIP3   OH2 3998   1.918   1.811   1.553 -0.0462  0.0577 -0.1741
 1331TIP3    H1 3999   1.904   1.837   1.462 -0.9840  0.0520 -0.0385
 1331TIP3    H2 4000   1.991   1.866   1.582  0.3120  0.0066 -0.9430
 1332TIP3   OH2 4001   1.495   0.732   1.832  0.1246 -0.5595 -0.0368
 1332TIP3    H1 4002   1.577   0.687   1.813  0.8459  0.1760  1.1539
 1332TIP3    H2 4003   1.511   0.775   1.917 -1.0454  0.6323 -0.3871
 1333TIP3   OH2 4004   2.137   5.553   1.951 -0.3769 -0.4022  0.3133
 1333TIP3    H1 4005   2.225   5.571   1.921 -0.8590 -0.0156 -0.9207
 1333TIP3    H2 4006   2.144   5.551   2.047  0.8654  0.0998  0.2465
 1334TIP3   OH2 4007   1.075   4.369   4.200 -0.5652 -0.1013 -0.0305
 1334TIP3    H1 4008   1.026   4.422   4.263 -0.4700  1.7396 -1.3956
 1334TIP3    H2 4009   1.008   4.333   4.143 -0.5273  0.0122 -0.1484
 1335TIP3   OH2 4010   6.173   0.764   4.666  0.5231 -0.2145 -0.9107
 1335TIP3    H1 4011   6.221   0.814   4.600  0.9115 -0.9847 -1.2366
 1335TIP3    H2 4012   6.233   0.759   4.740  0.8237 -0.8739 -1.1850
 1336TIP3   OH2 4013   2.584   4.636   2.725 -0.6614 -0.0590  0.8329
 1336TIP3    H1 4014   2.488   4.631   2.719 -0.6652  0.2572  0.6121
 1336TIP3    H2 4015   2.600   4.702   2.793 -0.6038 -1.3903  2.1445
 1337TIP3   OH2 4016   4.993   5.782   3.012 -0.2962  0.3515  0.4219
 1337TIP3    H1 4017   5.010   5.796   2.919 -0.3583 -1.9937 -0.0042
 1337TIP3    H2 4018   5.000   5.870   3.051  0.7096  1.2531 -1.6126
 1338TIP3   OH2 4019   6.334   4.684   0.030  0.4724  0.1147 -0.1617
 1338TIP3    H1 4020   6.285   4.738   0.092 -2.4133 -1.5219 -0.8594
 1338TIP3    H2 4021   6.277   4.677  -0.046  3.7038  1.7091 -2.9986
 1339TIP3   OH2 4022   3.606   0.755   0.885  0.1428 -0.2434 -0.0142
 1339TIP3    H1 4023   3.555   0.783   0.810  1.0066  0.3909 -0.3853
 1339TIP3    H2 4024   3.543   0.711   0.943 -0.5388 -0.7072 -1.0786
 1340TIP3   OH2 4025   0.957   0.264   4.486 -0.0243  0.1228  0.3190
 1340TIP3    H1 4026   1.007   0.205   4.543  0.4619  0.4148  0.1991
 1340TIP3    H2 4027   0.914   0.206   4.423 -0.1350 -0.1609  0.6501
 1341TIP3   OH2 4028   2.064   4.080   1.185 -0.0431 -0.0077  0.8588
 1341TIP3    H1 4029   2.033   4.030   1.260 -0.7042 -0.9616 -0.0280
 1341TIP3    H2 4030   1.987   4.129   1.156  0.7065  2.0045  2.0282
 1342TIP3   OH2 4031   0.403   4.020   4.067 -0.3902 -0.1149 -0.1398
 1342TIP3    H1 4032   0.406   3.935   4.023 -3.2457  0.1627 -1.0813
 1342TIP3    H2 4033   0.367   4.000   4.154  1.2848 -0.1361  0.5743
 1343TIP3   OH2 4034   3.506   2.453   0.717 -0.1761  0.6314  0.1400
 1343TIP3    H1 4035   3.426   2.463   0.665 -2.0623  2.8691  3.1284
 1343TIP3    H2 4036   3.476   2.422   0.802  2.5472 -1.1746  0.5812
 1344TIP3   OH2 4037   4.538   1.990   1.036 -0.2649 -0.6063  0.8290
 1344TIP3    H1 4038   4.548   1.918   0.973 -0.1381 -0.4161  0.6293
 1344TIP3    H2 4039   4.594   2.059   1.002  0.8126 -0.9614  1.8449
 1345TIP3   OH2 4040   4.390   4.920   2.130 -0.2386  0.5550 -0.3675
 1345TIP3    H1 4041   4.420   5.003   2.167  1.9245  0.2242 -1.2345
 1345TIP3    H2 4042   4.460   4.893   2.071 -0.8051 -1.9951  0.0008
 1346TIP3   OH2 4043   1.829   1.359   2.990  0.1899 -0.1638  0.3375
 1346TIP3    H1 4044   1.825   1.411   2.909 -1.9173  0.0735  0.5252
 1346TIP3    H2 4045   1.879   1.282   2.966 -0.8384 -0.3621 -1.3999
 1347TIP3   OH2 4046   5.752   3.762   4.509 -0.1914 -0.0721 -0.0309
 1347TIP3    H1 4047   5.808   3.709   4.565 -0.4461  0.1156  0.4162
 1347TIP3    H2 4048   5.810   3.799   4.443 -0.3333 -2.5746 -1.6661
 1348TIP3   OH2 4049   4.901   3.239   3.111  0.4401  0.0288  0.7367
 1348TIP3    H1 4050   4.835   3.271   3.049  1.0939  0.3961  0.2176
 1348TIP3    H2 4051   4.953   3.177   3.060  0.8633  0.1859  0.9804
 1349TIP3   OH2 4052   3.072   1.462   2.664 -0.1046 -0.2354 -0.1314
 1349TIP3    H1 4053   3.137   1.424   2.604  3.1405  3.3391  0.6954
 1349TIP3    H2 4054   3.111   1.449   2.751 -1.2990  0.6567  0.5520
 1350TIP3   OH2 4055   6.250   0.122   2.835 -0.3601  0.2515  0.2340
 1350TIP3    H1 4056   6.210   0.199   2.874 -0.5764  1.1609 -1.6399
 1350TIP3    H2 4057   6.177   0.069   2.803 -0.1871  0.9464 -1.4319
 1351TIP3   OH2 4058   3.854   4.021   3.848 -0.5351 -0.0192  0.0080
 1351TIP3    H1 4059   3.770   3.995   3.811 -0.1142 -0.7166 -0.4787
 1351TIP3    H2 4060   3.881   3.946   3.901 -0.1282  0.1204  0.0012
 1352TIP3   OH2 4061   5.251   2.777   2.532  0.4379 -0.0921  1.0384
 1352TIP3    H1 4062   5.306   2.850   2.559 -0.3013  0.6260  0.6223
 1352TIP3    H2 4063   5.202   2.810   2.457  0.8952 -1.3654  0.1462
 1353TIP3   OH2 4064   0.619   3.969   1.906  0.1017  0.3897  0.3669
 1353TIP3    H1 4065   0.638   4.049   1.856 -2.5899  0.3779 -0.8192
 1353TIP3    H2 4066   0.528   3.978   1.932 -0.2060 -2.1921  0.3966
 1354TIP3   OH2 4067   3.363   4.004   1.270  0.0533  0.0746  0.7120
 1354TIP3    H1 4068   3.378   3.912   1.292  1.3887  0.0021 -0.3858
 1354TIP3    H2 4069   3.449   4.046   1.280 -0.3404  1.0123  0.3079
 1355TIP3   OH2 4070   1.713   4.890   2.637 -0.0358 -0.0389 -0.2825
 1355TIP3    H1 4071   1.709   4.866   2.545  1.4503  2.5884 -1.1354
 1355TIP3    H2 4072   1.684   4.981   2.639 -1.2280 -0.3901  2.0759
 1356TIP3   OH2 4073   0.043   2.804   2.578 -0.0686  0.2550 -0.1965
 1356TIP3    H1 4074   0.129   2.816   2.618  0.3862 -3.2084  0.1900
 1356TIP3    H2 4075  -0.019   2.826   2.647  0.6687 -2.2265  1.3874
 1357TIP3   OH2 4076   5.163   2.899   0.123 -0.1199  0.4242 -0.0867
 1357TIP3    H1 4077   5.165   2.894   0.027  0.5130 -2.1444  0.0097
 1357TIP3    H2 4078   5.248   2.934   0.147  0.7955 -1.4662 -0.4119
 1358TIP3   OH2 4079   5.863   1.071   0.416  0.3983 -1.1263  0.1652
 1358TIP3    H1 4080   5.840   0.998   0.357 -0.0438 -1.2157  0.4379
 1358TIP3    H2 4081   5.883   1.144   0.358 -0.5062 -1.0773 -0.0977
 1359TIP3   OH2 4082   5.813   1.083   2.681  0.2499 -0.2132 -0.1267
 1359TIP3    H1 4083   5.880   1.039   2.629  0.9943  0.6587  0.0653
 1359TIP3    H2 4084   5.857   1.160   2.716 -1.5415  1.9372 -2.2596
 1360TIP3   OH2 4085   2.727   5.761   0.632 -0.1409  0.6845 -0.5722
 1360TIP3    H1 4086   2.719   5.724   0.544 -2.0258 -0.3201 -0.0284
 1360TIP3    H2 4087   2.794   5.706   0.674 -0.0265  0.4623 -1.0301
 1361TIP3   OH2 4088   3.557   2.856   3.890  0.2214  0.3545  0.5514
 1361TIP3    H1 4089   3.600   2.923   3.943  1.2767 -1.0007  1.5037
 1361TIP3    H2 4090   3.610   2.849   3.811  1.5206 -0.9455  1.4919
 1362TIP3   OH2 4091   4.578   1.197   3.304  0.2716 -0.1402  0.3412
 1362TIP3    H1 4092   4.596   1.228   3.216 -0.6614 -2.0475 -0.5692
 1362TIP3    H2 4093   4.656   1.147   3.328  1.3743  1.9574  1.4432
 1363TIP3   OH2 4094   2.339   2.719   1.439  0.1203  0.1923 -0.3820
 1363TIP3    H1 4095   2.397   2.769   1.497 -0.9416 -0.0144  0.8959
 1363TIP3    H2 4096   2.338   2.631   1.476 -1.5675  0.3672  0.0721
 1364TIP3   OH2 4097   0.939   5.116   3.840 -0.2158 -0.2554  0.0625
 1364TIP3    H1 4098   0.989   5.151   3.913 -0.4664 -0.2845  0.2483
 1364TIP3    H2 4099   0.965   5.025   3.834  0.7674  0.0632 -0.6981
 1365TIP3   OH2 4100   6.218   0.793   4.133  0.8613 -0.2744  0.1927
 1365TIP3    H1 4101   6.138   0.758   4.095  1.3267 -1.1974  0.0220
 1365TIP3    H2 4102   6.190   0.868   4.185 -0.0002 -0.0693 -0.5518
 1366TIP3   OH2 4103   4.512   4.275   2.715 -0.5925 -0.4586  0.0011
 1366TIP3    H1 4104   4.597   4.269   2.673 -0.5460 -0.8950  0.1470
 1366TIP3    H2 4105   4.495   4.369   2.723  0.2007 -0.3647  0.6321
 1367TIP3   OH2 4106   3.428   1.561   4.719 -0.0022 -0.6385 -0.3420
 1367TIP3    H1 4107   3.399   1.473   4.746  1.2819 -1.8488 -2.5940
 1367TIP3    H2 4108   3.502   1.580   4.776 -0.5458 -0.8217  0.4418
 1368TIP3   OH2 4109   4.014   3.740   5.024  0.3039  0.4252 -0.2554
 1368TIP3    H1 4110   4.101   3.759   4.988 -0.3679  1.5331 -1.3570
 1368TIP3    H2 4111   4.031   3.721   5.116  2.1636 -3.1350 -1.1339
 1369TIP3   OH2 4112   0.089   5.150   4.569 -0.6037  0.2892  0.4362
 1369TIP3    H1 4113   0.049   5.063   4.564  0.5345 -0.2978  1.1361
 1369TIP3    H2 4114   0.040   5.195   4.638 -1.0650  0.1379  0.2103
 1370TIP3   OH2 4115   3.656   2.148   1.064 -0.1197  0.0082 -0.2333
 1370TIP3    H1 4116   3.645   2.093   1.142  0.2913  0.3760  0.0887
 1370TIP3    H2 4117   3.749   2.173   1.065  0.0942 -0.6669 -1.3009
 1371TIP3   OH2 4118   4.950   0.876   3.582  0.0880 -0.3904  0.0575
 1371TIP3    H1 4119   5.009   0.872   3.507  0.6524 -0.2003  0.4888
 1371TIP3    H2 4120   4.935   0.785   3.606  0.7103 -0.4185  0.3411
 1372TIP3   OH2 4121   1.586   1.886   3.310  0.0539 -0.0933  0.3298
 1372TIP3    H1 4122   1.612   1.944   3.381 -1.3683  0.7046  0.2325
 1372TIP3    H2 4123   1.571   1.801   3.353  1.8335 -0.3455  0.5152
 1373TIP3   OH2 4124   0.628   1.824   3.468 -0.7571 -0.0517  0.1634
 1373TIP3    H1 4125   0.662   1.866   3.388 -1.6331 -0.6773 -0.5573
 1373TIP3    H2 4126   0.636   1.730   3.451 -2.1901 -0.2163  0.2292
 1374TIP3   OH2 4127   0.847   2.524   2.997  0.0593 -0.4482  0.3434
 1374TIP3    H1 4128   0.910   2.528   3.070  0.5301 -0.4398 -0.0569
 1374TIP3    H2 4129   0.800   2.442   3.011 -0.6185  0.0751  1.2722
 1375TIP3   OH2 4130   4.943   3.467   4.309 -0.0784  0.0912  0.4395
 1375TIP3    H1 4131   4.926   3.376   4.331  1.0079 -0.1654  0.2782
 1375TIP3    H2 4132   4.906   3.517   4.381 -0.5578 -0.4814  0.5951
 1376TIP3   OH2 4133   2.397   0.139   2.872 -0.6108  0.0032  0.3801
 1376TIP3    H1 4134   2.442   0.200   2.931  0.1015  0.4046 -0.5389
 1376TIP3    H2 4135   2.391   0.188   2.789 -0.9225 -0.8135 -0.0849
 1377TIP3   OH2 4136   2.283   5.033   0.215 -0.4411 -0.4449 -0.1654
 1377TIP3    H1 4137   2.286   4.937   0.208 -3.4280 -0.6459 -0.1385
 1377TIP3    H2 4138   2.341   5.064   0.146 -0.7974 -2.3058 -1.3908
 1378TIP3   OH2 4139   4.080   5.304   3.801  0.1860  0.1395 -0.3665
 1378TIP3    H1 4140   4.049   5.339   3.884 -0.1828  1.9008 -1.1938
 1378TIP3    H2 4141   4.137   5.231   3.825 -1.0413 -0.3321  1.3604
 1379TIP3   OH2 4142   4.179   2.736   0.287 -0.1270 -0.0936  0.1705
 1379TIP3    H1 4143   4.122   2.744   0.364 -1.3218  0.1268 -0.7085
 1379TIP3    H2 4144   4.206   2.644   0.286 -1.3501 -0.4637  0.0073
 1380TIP3   OH2 4145   4.729   2.432   5.091 -0.2872  0.4725  0.3347
 1380TIP3    H1 4146   4.753   2.523   5.073 -1.2452  0.6308 -0.2291
 1380TIP3    H2 4147   4.633   2.433   5.100 -0.2418 -0.3537  1.1118
 1381TIP3   OH2 4148   6.295   2.922   0.016 -0.1024  0.1095 -0.1895
 1381TIP3    H1 4149   6.331   2.854  -0.041 -1.4989 -0.9379  0.1448
 1381TIP3    H2 4150   6.368   2.984   0.027  0.2557  0.3210 -3.0027
 1382TIP3   OH2 4151   2.878   4.069   2.316 -0.5157 -0.4097 -0.1412
 1382TIP3    H1 4152   2.905   3.980   2.294  0.3151 -0.1565 -0.1651
 1382TIP3    H2 4153   2.933   4.093   2.391 -1.6625 -0.3915  0.7259
 1383TIP3   OH2 4154   3.817   0.657   1.732  0.3830 -0.0652 -0.5342
 1383TIP3    H1 4155   3.866   0.584   1.693  0.8387  0.3392 -0.7309
 1383TIP3    H2 4156   3.865   0.677   1.812  1.2808  1.1252 -1.3280
 1384TIP3   OH2 4157   2.215   1.144   1.691 -0.3641 -0.5926  0.4915
 1384TIP3    H1 4158   2.259   1.089   1.626  1.3485  0.4369  0.7239
 1384TIP3    H2 4159   2.153   1.196   1.640  0.8708  0.1210 -0.3492
 1385TIP3   OH2 4160   1.588   1.407   5.184 -0.4163 -0.0106 -0.2013
 1385TIP3    H1 4161   1.505   1.455   5.189 -0.7916 -0.5763 -0.8267
 1385TIP3    H2 4162   1.646   1.467   5.137 -0.8912 -0.1598 -1.0070
 1386TIP3   OH2 4163   5.329   4.972   4.543  0.2051 -0.5273  0.0228
 1386TIP3    H1 4164   5.261   4.905   4.544 -0.4965  0.1592 -0.4961
 1386TIP3    H2 4165   5.282   5.055   4.541  1.0572 -0.0246  0.0031
 1387TIP3   OH2 4166   4.011   0.065   1.741  0.8085 -0.0829 -0.0266
 1387TIP3    H1 4167   4.052   0.138   1.787  1.7281  0.0750 -1.0617
 1387TIP3    H2 4168   3.942   0.035   1.801  0.1845  1.8217  0.2878
 1388TIP3   OH2 4169   5.293   2.266   0.836 -0.3166  0.3318  0.3941
 1388TIP3    H1 4170   5.314   2.344   0.887  1.1966 -0.4208  0.9898
 1388TIP3    H2 4171   5.378   2.232   0.808 -0.9908 -0.6790 -0.5213
 1389TIP3   OH2 4172   1.218   1.570   3.767  0.0046  0.0764 -0.3328
 1389TIP3    H1 4173   1.314   1.570   3.770  0.1192 -0.2119 -2.3899
 1389TIP3    H2 4174   1.194   1.479   3.750 -0.5855  0.2620 -0.5371
 1390TIP3   OH2 4175   2.551   5.276   3.651  0.2878 -0.5995 -0.1401
 1390TIP3    H1 4176   2.579   5.196   3.695  0.0899 -0.1083  0.8896
 1390TIP3    H2 4177   2.457   5.264   3.635  0.2794 -0.6097 -0.0796
 1391TIP3   OH2 4178   5.063   2.055   4.090  0.6933 -0.2017 -0.7236
 1391TIP3    H1 4179   5.001   2.009   4.147  0.1827 -0.0139 -1.1172
 1391TIP3    H2 4180   5.130   2.088   4.150 -0.0480  0.3444 -0.1696
 1392TIP3   OH2 4181   5.848   0.869   3.052  0.0731  0.1770  0.4670
 1392TIP3    H1 4182   5.820   0.784   3.086  0.6732  0.2013  1.0246
 1392TIP3    H2 4183   5.939   0.857   3.026 -0.1498  0.3628 -0.4596
 1393TIP3   OH2 4184   0.443   3.546   3.357  0.0638  0.6027 -0.2691
 1393TIP3    H1 4185   0.469   3.466   3.403 -0.3485  0.7466  0.2217
 1393TIP3    H2 4186   0.375   3.585   3.412 -0.0118  1.0939 -0.6979
 1394TIP3   OH2 4187   4.534   4.018   4.924 -0.2797 -0.3579  0.3279
 1394TIP3    H1 4188   4.522   4.039   4.831  0.3045  1.5337  0.6357
 1394TIP3    H2 4189   4.497   3.931   4.934 -1.5491 -0.0683 -1.4229
 1395TIP3   OH2 4190   5.229   4.409   4.023  0.4245 -0.2772 -0.6023
 1395TIP3    H1 4191   5.222   4.347   3.950 -1.1700 -1.0591  0.1744
 1395TIP3    H2 4192   5.206   4.358   4.101 -0.2773  1.1007  0.1376
 1396TIP3   OH2 4193   2.486   3.286   4.637  0.1707 -0.0902  0.1429
 1396TIP3    H1 4194   2.455   3.203   4.600 -0.2187  0.3200 -0.4781
 1396TIP3    H2 4195   2.564   3.262   4.688 -0.6623 -1.0138  1.0218
 1397TIP3   OH2 4196   2.025   1.052   2.091 -0.3065  0.1125 -0.0806
 1397TIP3    H1 4197   1.966   0.977   2.104  0.2168 -0.7947 -2.4122
 1397TIP3    H2 4198   2.108   1.013   2.062  0.6886  1.5015  0.7501
 1398TIP3   OH2 4199   2.868   0.710   2.140 -0.0416 -0.0349 -0.6641
 1398TIP3    H1 4200   2.883   0.626   2.096 -0.0331 -0.3412 -0.0855
 1398TIP3    H2 4201   2.781   0.702   2.179  1.3209 -1.2013  2.4739
 1399TIP3   OH2 4202   3.843   0.587   1.312  0.2870 -0.1743  0.4657
 1399TIP3    H1 4203   3.794   0.621   1.237  2.4886  0.5031 -0.7689
 1399TIP3    H2 4204   3.829   0.651   1.381 -0.9318 -0.2489  0.3016
 1400TIP3   OH2 4205   5.201   3.310   1.806  0.0523 -0.0878 -0.2531
 1400TIP3    H1 4206   5.255   3.378   1.765 -0.2748  0.4182  0.1381
 1400TIP3    H2 4207   5.112   3.330   1.776  0.2256 -1.7906 -2.1071
 1401TIP3   OH2 4208   5.073   4.614   2.102  0.2518 -0.9392  0.2883
 1401TIP3    H1 4209   5.066   4.630   2.008 -2.8749 -0.3214  0.5244
 1401TIP3    H2 4210   5.047   4.697   2.142 -1.4773 -2.0678  1.6308
 1402TIP3   OH2 4211   3.147   1.594   0.836 -0.0787  0.0920 -0.2581
 1402TIP3    H1 4212   3.102   1.675   0.858  1.9136  1.2506 -0.1610
 1402TIP3    H2 4213   3.203   1.576   0.912  1.3443  0.0379 -1.2634
 1403TIP3   OH2 4214   4.820   4.052   0.159 -0.1340 -0.6639 -0.1990
 1403TIP3    H1 4215   4.858   3.968   0.133  1.5140 -0.3302  0.9762
 1403TIP3    H2 4216   4.811   4.046   0.254  0.3873  0.6139 -0.0490
 1404TIP3   OH2 4217   2.654   4.116   1.123 -0.0003 -0.1670 -0.1347
 1404TIP3    H1 4218   2.637   4.188   1.183 -1.3182  0.1967 -0.9119
 1404TIP3    H2 4219   2.621   4.039   1.168  3.1486 -0.6856  1.5476
 1405TIP3   OH2 4220   0.118   5.699   2.014  0.2920  0.0973  0.3677
 1405TIP3    H1 4221   0.210   5.674   2.003  0.3710 -0.0782  1.3159
 1405TIP3    H2 4222   0.072   5.653   1.943  0.9439  0.2592 -0.1700
 1406TIP3   OH2 4223   6.179   0.227   1.015 -0.4918 -0.2339 -0.3102
 1406TIP3    H1 4224   6.269   0.228   1.047 -1.1988  0.7566  1.8535
 1406TIP3    H2 4225   6.167   0.138   0.981  1.1012 -0.5742 -0.0721
 1407TIP3   OH2 4226   0.341   4.649   3.120 -0.2061  0.2460 -0.2406
 1407TIP3    H1 4227   0.344   4.626   3.028  0.2824 -1.3091  0.1332
 1407TIP3    H2 4228   0.412   4.712   3.132  0.5655 -0.5249 -0.6882
 1408TIP3   OH2 4229   5.105   0.224   3.779 -0.2691 -0.0509 -0.1953
 1408TIP3    H1 4230   5.057   0.198   3.858  0.0074 -0.0383 -0.0199
 1408TIP3    H2 4231   5.141   0.310   3.801 -1.0854  0.4461 -0.7321
 1409TIP3   OH2 4232   4.458   3.899   2.308  0.3467  0.2958 -0.1114
 1409TIP3    H1 4233   4.365   3.884   2.289  0.2377 -1.7836  1.6960
 1409TIP3    H2 4234   4.458   3.969   2.372 -0.2796 -1.5532  2.0394
 1410TIP3   OH2 4235   0.042   1.868   2.012  0.3367 -0.4892  0.0549
 1410TIP3    H1 4236   0.039   1.952   1.966 -0.1953  1.5417  3.4328
 1410TIP3    H2 4237  -0.049   1.841   2.019  0.5131 -1.4333 -1.0901
 1411TIP3   OH2 4238   1.818   0.650   1.144  0.3656  0.0490 -0.1109
 1411TIP3    H1 4239   1.767   0.730   1.133  0.7055  0.2346 -0.3492
 1411TIP3    H2 4240   1.897   0.678   1.190 -0.4688 -0.5062  1.7304
 1412TIP3   OH2 4241   4.141   4.500   3.675  0.3426  0.0531 -0.5248
 1412TIP3    H1 4242   4.165   4.571   3.734  2.8808 -0.1451 -1.2244
 1412TIP3    H2 4243   4.062   4.532   3.630  0.4397  1.6796  0.3909
 1413TIP3   OH2 4244   0.717   0.202   2.593  0.3525 -0.0628  0.1880
 1413TIP3    H1 4245   0.800   0.204   2.545  0.4021  0.1757  0.2824
 1413TIP3    H2 4246   0.727   0.268   2.661 -0.1568  0.4399 -0.2079
 1414TIP3   OH2 4247   6.226   0.355   5.179 -0.1731  0.4918 -0.1225
 1414TIP3    H1 4248   6.220   0.445   5.210 -1.2415  1.2443 -2.3332
 1414TIP3    H2 4249   6.303   0.355   5.122 -0.0300 -0.0771  0.0659
 1415TIP3   OH2 4250   5.167   3.572   4.815 -0.6214  0.5896 -0.2097
 1415TIP3    H1 4251   5.232   3.575   4.886 -2.8233  0.0522  1.9732
 1415TIP3    H2 4252   5.194   3.499   4.760  0.1831 -0.1558  1.1330
 1416TIP3   OH2 4253   0.887   3.739   2.159  0.2745 -0.2371  0.0988
 1416TIP3    H1 4254   0.938   3.678   2.212  0.0714 -0.4738  0.0240
 1416TIP3    H2 4255   0.860   3.688   2.083 -0.9483 -0.4224  0.6300
 1417TIP3   OH2 4256   2.454   0.593   0.402 -0.5450 -0.5185 -0.0244
 1417TIP3    H1 4257   2.507   0.519   0.373  1.4212  0.3240  1.1935
 1417TIP3    H2 4258   2.421   0.567   0.488 -1.3823 -0.6782 -0.3848
 1418TIP3   OH2 4259   3.049   2.832   2.805  0.4913  0.2007 -0.2638
 1418TIP3    H1 4260   3.025   2.858   2.894  2.2380  0.2660  0.2167
 1418TIP3    H2 4261   3.144   2.830   2.805  0.5328  0.4033 -2.2073
 1419TIP3   OH2 4262   6.136   5.719   4.992  0.2096 -0.5183  0.3412
 1419TIP3    H1 4263   6.134   5.626   5.018 -0.3113 -0.1777  1.5730
 1419TIP3    H2 4264   6.163   5.765   5.071  0.7652  0.3686 -0.3509
 1420TIP3   OH2 4265   1.382   2.200   1.426  0.1922  0.2588  0.2857
 1420TIP3    H1 4266   1.323   2.150   1.369  2.0658 -0.1473 -1.3961
 1420TIP3    H2 4267   1.347   2.289   1.424 -0.4782 -0.0046 -0.5080
 1421TIP3   OH2 4268   1.418   3.053   1.153  0.3546 -0.1524  0.8584
 1421TIP3    H1 4269   1.325   3.047   1.134  0.3900  1.3381  0.0510
 1421TIP3    H2 4270   1.447   3.132   1.107  1.9651 -0.4493  1.2928
 1422TIP3   OH2 4271   0.107   1.177   2.004  0.3054 -0.5312 -0.1986
 1422TIP3    H1 4272   0.032   1.234   2.022 -0.5608 -1.4482 -0.7797
 1422TIP3    H2 4273   0.096   1.104   2.065  1.5975  0.0633  0.7779
 1423TIP3   OH2 4274   5.994   0.864   0.785 -0.2234 -0.1050  0.0221
 1423TIP3    H1 4275   5.987   0.872   0.880  1.6568  2.2358  0.0666
 1423TIP3    H2 4276   5.916   0.909   0.752 -1.2740 -1.5730  0.3976
 1424TIP3   OH2 4277   5.780   4.667   1.648 -0.4782  0.0970  0.0476
 1424TIP3    H1 4278   5.743   4.579   1.648 -0.4710  0.0752  1.5812
 1424TIP3    H2 4279   5.871   4.656   1.673 -0.8522  0.6550  1.7840
 1425TIP3   OH2 4280   1.103   0.785   2.640  0.1760 -0.5293  0.4279
 1425TIP3    H1 4281   1.162   0.842   2.592 -1.0422  0.2316 -0.2344
 1425TIP3    H2 4282   1.015   0.816   2.616 -0.5049 -0.3541  2.8341
 1426TIP3   OH2 4283   2.307   3.806   0.260 -0.3645 -0.0165  0.2794
 1426TIP3    H1 4284   2.295   3.765   0.346 -0.2485  0.6591  0.6259
 1426TIP3    H2 4285   2.377   3.869   0.274 -0.1237 -0.1278 -0.3979
 1427TIP3   OH2 4286   1.839   2.086   2.858 -0.1989  0.6622  0.1643
 1427TIP3    H1 4287   1.751   2.100   2.825  0.0842  3.2878  0.3074
 1427TIP3    H2 4288   1.831   2.099   2.953  0.1836 -0.2015  0.3312
 1428TIP3   OH2 4289   1.665   3.448   0.765  0.3437  0.4701  0.7901
 1428TIP3    H1 4290   1.712   3.531   0.756  0.8480  0.0990 -0.2746
 1428TIP3    H2 4291   1.662   3.431   0.859 -0.5099  2.0957  1.0831
 1429TIP3   OH2 4292   1.026   0.795   2.228  0.1255 -0.9855 -0.0508
 1429TIP3    H1 4293   1.106   0.815   2.277 -0.3381  0.8754  0.0044
 1429TIP3    H2 4294   1.037   0.840   2.144  0.0194 -2.4632 -0.8933
 1430TIP3   OH2 4295   5.922   3.619   1.721  0.2258  0.2944 -0.0830
 1430TIP3    H1 4296   5.889   3.635   1.810  0.1942 -0.5618  0.0730
 1430TIP3    H2 4297   5.848   3.580   1.675  1.3178 -3.0634  0.6911
 1431TIP3   OH2 4298   1.213   4.158   2.231 -0.3987 -0.3215  0.0045
 1431TIP3    H1 4299   1.193   4.074   2.191  0.5584  0.0880 -1.3868
 1431TIP3    H2 4300   1.128   4.201   2.241 -0.8486 -1.2798  0.3665
 1432TIP3   OH2 4301   0.260   4.800   3.375 -0.5123  0.1631 -0.4670
 1432TIP3    H1 4302   0.295   4.851   3.302  0.3215  0.8995  0.4121
 1432TIP3    H2 4303   0.217   4.726   3.334  0.1243  0.4442 -1.6980
 1433TIP3   OH2 4304   1.077   0.563   3.490 -0.1969 -0.2556  0.4600
 1433TIP3    H1 4305   1.168   0.532   3.495 -0.5948 -1.5398  0.1307
 1433TIP3    H2 4306   1.029   0.506   3.550 -0.7616  0.5770  0.8215
 1434TIP3   OH2 4307   1.718   1.453   3.710  0.6374 -0.6591  0.3070
 1434TIP3    H1 4308   1.714   1.441   3.805 -1.2162  0.4766  0.4103
 1434TIP3    H2 4309   1.722   1.548   3.698 -0.9535 -0.6994 -0.7720
 1435TIP3   OH2 4310   0.055   5.018   1.363  0.0205  0.2456  0.7486
 1435TIP3    H1 4311   0.033   5.076   1.291  1.1488  0.4746  0.5656
 1435TIP3    H2 4312   0.144   5.043   1.388  0.0932 -0.6266  1.4335
 1436TIP3   OH2 4313   2.904   3.049   2.699 -0.3268 -0.3212 -0.2834
 1436TIP3    H1 4314   2.975   3.112   2.685 -0.3572 -0.5595 -1.5761
 1436TIP3    H2 4315   2.945   2.977   2.748  0.2297 -0.2790 -0.6855
 1437TIP3   OH2 4316   6.181   3.429   2.882 -0.4801 -0.8060  0.5618
 1437TIP3    H1 4317   6.098   3.476   2.872 -0.2340 -0.5670 -0.3936
 1437TIP3    H2 4318   6.182   3.365   2.811  1.0147  0.5044 -0.6680
 1438TIP3   OH2 4319   0.909   4.014   2.530  0.2191 -0.0092 -0.1107
 1438TIP3    H1 4320   0.852   3.964   2.472  0.8570  0.4638 -1.1698
 1438TIP3    H2 4321   0.901   4.105   2.499  0.3401  0.2958  0.7353
 1439TIP3   OH2 4322   3.275   4.351   1.899  0.0813  0.2516 -0.1983
 1439TIP3    H1 4323   3.301   4.319   1.813 -0.9595  0.3021 -0.5474
 1439TIP3    H2 4324   3.206   4.415   1.881  0.5968  1.0533  0.6190
 1440TIP3   OH2 4325   2.067   4.549   3.314 -0.4185 -0.1529  0.9798
 1440TIP3    H1 4326   2.071   4.558   3.219  0.5535  3.3577  1.2247
 1440TIP3    H2 4327   2.065   4.454   3.328  4.9768 -1.2457 -2.4168
 1441TIP3   OH2 4328   3.428   2.309   4.017  0.1670  0.1447 -0.0647
 1441TIP3    H1 4329   3.502   2.278   4.071  0.6659  0.6916 -0.4199
 1441TIP3    H2 4330   3.443   2.403   4.009  0.6151 -0.0572 -1.9212
 1442TIP3   OH2 4331   6.017   3.872   2.152  0.3187  0.0625 -0.4234
 1442TIP3    H1 4332   5.989   3.842   2.065  1.0912 -0.7174 -0.4189
 1442TIP3    H2 4333   5.972   3.956   2.164 -0.5599 -0.2850 -1.1617
 1443TIP3   OH2 4334   5.381   1.447   0.618  0.8009  0.0016  0.8654
 1443TIP3    H1 4335   5.320   1.431   0.689  1.7563 -1.7765  1.3392
 1443TIP3    H2 4336   5.342   1.404   0.542  0.6101  0.4383  0.7081
 1444TIP3   OH2 4337   0.273   1.990   0.248 -0.0759 -0.1197  0.0010
 1444TIP3    H1 4338   0.206   1.978   0.181  0.6863 -2.8207 -0.3697
 1444TIP3    H2 4339   0.355   2.000   0.199  0.8270 -4.2549  0.3384
 1445TIP3   OH2 4340   3.150   1.879   4.059 -0.0356 -0.5404 -0.5618
 1445TIP3    H1 4341   3.058   1.890   4.082 -0.2709 -0.4402 -1.5185
 1445TIP3    H2 4342   3.196   1.942   4.115 -0.6430  0.0842 -0.7467
 1446TIP3   OH2 4343   5.258   1.649   1.147 -0.1183 -0.0363  0.5830
 1446TIP3    H1 4344   5.310   1.722   1.180 -2.1588  1.8560 -0.1030
 1446TIP3    H2 4345   5.188   1.639   1.210 -0.9983 -0.0056 -0.3583
 1447TIP3   OH2 4346   5.213   0.321   5.129  0.3634  0.0376 -0.1864
 1447TIP3    H1 4347   5.238   0.357   5.214  0.0448  0.0067 -0.0769
 1447TIP3    H2 4348   5.195   0.229   5.147 -2.0208  0.5173  0.2140
 1448TIP3   OH2 4349   4.202   1.339   2.410 -0.1059 -0.1820 -0.1172
 1448TIP3    H1 4350   4.246   1.366   2.329  1.8711 -1.6667  0.3892
 1448TIP3    H2 4351   4.256   1.376   2.480 -0.2565 -1.1500  0.5326
 1449TIP3   OH2 4352   1.855   5.043   4.512 -0.7418 -0.4987  0.0901
 1449TIP3    H1 4353   1.836   5.112   4.449  1.4631  1.1787  1.1088
 1449TIP3    H2 4354   1.772   4.999   4.526 -2.0245  1.3112 -1.3668
 1450TIP3   OH2 4355   3.073   2.729   1.689 -0.0496  0.1268  0.3999
 1450TIP3    H1 4356   3.052   2.697   1.601  1.3371 -1.7552  0.6921
 1450TIP3    H2 4357   2.991   2.767   1.721 -1.0988 -0.8807 -0.9955
 1451TIP3   OH2 4358   2.545   0.458   4.273  0.9864 -0.3720  0.2799
 1451TIP3    H1 4359   2.639   0.441   4.266  1.1649  0.2711  0.9993
 1451TIP3    H2 4360   2.539   0.535   4.329  0.0518  0.0396 -0.3820
 1452TIP3   OH2 4361   0.846   3.180   1.715 -0.2974 -0.0316  0.1636
 1452TIP3    H1 4362   0.781   3.218   1.774  2.2760  3.9267  0.8274
 1452TIP3    H2 4363   0.818   3.207   1.628 -0.0615  0.9193  0.3704
 1453TIP3   OH2 4364   4.046   0.087   4.816  0.1219  0.0157  0.1588
 1453TIP3    H1 4365   4.141   0.099   4.814  0.4210 -1.9838 -1.9564
 1453TIP3    H2 4366   4.028   0.056   4.905  1.6379 -0.8661  0.1907
 1454TIP3   OH2 4367   4.953   4.252   0.912  0.4391  0.3484  0.0357
 1454TIP3    H1 4368   4.894   4.275   0.984  0.5027 -1.7892  0.8481
 1454TIP3    H2 4369   4.917   4.171   0.876  0.4856  1.2827 -2.3126
 1455TIP3   OH2 4370   2.663   2.786   3.382 -0.0644  0.1926 -0.3073
 1455TIP3    H1 4371   2.690   2.778   3.290  1.4863  2.0254 -0.0583
 1455TIP3    H2 4372   2.599   2.856   3.382 -0.4414 -0.1464 -0.0350
 1456TIP3   OH2 4373   1.978   1.778   3.943 -0.3497  0.2750  0.3604
 1456TIP3    H1 4374   2.036   1.825   4.001  0.4028 -0.0780 -0.0891
 1456TIP3    H2 4375   1.984   1.686   3.971 -1.1224  0.3052  0.6637
 1457TIP3   OH2 4376   0.842   2.338   4.488 -0.0383  0.2995  0.3745
 1457TIP3    H1 4377   0.935   2.338   4.465 -0.3226  0.9183 -0.8359
 1457TIP3    H2 4378   0.833   2.266   4.550  1.0259 -0.5055 -0.3693
 1458TIP3   OH2 4379   3.342   4.671   0.769  0.2391 -0.2382 -0.2197
 1458TIP3    H1 4380   3.394   4.711   0.700  0.7562 -0.2961  0.1319
 1458TIP3    H2 4381   3.279   4.617   0.723  0.8015 -0.5412 -0.6446
 1459TIP3   OH2 4382   0.742   4.743   1.308 -0.6462  0.0798 -0.4383
 1459TIP3    H1 4383   0.784   4.659   1.329 -0.4546  0.6965  2.0544
 1459TIP3    H2 4384   0.669   4.720   1.251  0.3621 -1.5775 -1.1230
 1460TIP3   OH2 4385   3.539   3.890   1.853 -0.0657  0.1274  0.1017
 1460TIP3    H1 4386   3.491   3.917   1.931  1.0483 -0.5879  1.0491
 1460TIP3    H2 4387   3.520   3.797   1.843 -0.3966  0.2611 -0.6459
 1461TIP3   OH2 4388   3.345   0.486   1.686  0.2964  0.1387  0.2028
 1461TIP3    H1 4389   3.441   0.476   1.682  0.2255 -0.2242 -1.1735
 1461TIP3    H2 4390   3.328   0.571   1.646 -0.1332 -1.1888 -2.6463
 1462TIP3   OH2 4391   1.098   5.601   4.949 -0.0053 -0.0335  0.4638
 1462TIP3    H1 4392   1.162   5.628   5.014 -0.2910  0.5550  0.5105
 1462TIP3    H2 4393   1.141   5.618   4.865 -0.1394  0.4902  0.4930
 1463TIP3   OH2 4394   1.592   5.239   2.364  0.1536 -0.1316  0.3576
 1463TIP3    H1 4395   1.515   5.296   2.363 -0.6352 -1.0785 -2.3344
 1463TIP3    H2 4396   1.639   5.260   2.284  1.0317 -1.7035  0.4063
 1464TIP3   OH2 4397   6.131   1.825   2.051  0.1530  0.4030 -0.0533
 1464TIP3    H1 4398   6.077   1.879   1.993 -0.6076  0.0840  0.3494
 1464TIP3    H2 4399   6.072   1.798   2.120  1.1177  1.0227  1.0496
 1465TIP3   OH2 4400   0.532   2.599   0.639  0.1733 -0.1050 -0.1201
 1465TIP3    H1 4401   0.592   2.547   0.586  1.6935  0.3278  1.0605
 1465TIP3    H2 4402   0.578   2.682   0.652  0.4374 -0.5865  2.7423
 1466TIP3   OH2 4403   0.543   0.540   3.815  0.7649  0.6854 -0.1739
 1466TIP3    H1 4404   0.637   0.525   3.823  0.5908  0.0427  0.8579
 1466TIP3    H2 4405   0.513   0.476   3.750  0.7043 -0.6387  1.1179
 1467TIP3   OH2 4406   6.094   5.482   1.287 -0.5060 -0.1260 -0.1834
 1467TIP3    H1 4407   6.002   5.505   1.286 -0.2036  1.1316 -1.1350
 1467TIP3    H2 4408   6.139   5.564   1.310  0.4464 -0.3775 -1.0682
 1468TIP3   OH2 4409   2.269   2.812   1.828 -0.7491 -0.2021 -0.2648
 1468TIP3    H1 4410   2.247   2.797   1.736 -2.8474  0.6738  0.0498
 1468TIP3    H2 4411   2.267   2.907   1.838 -0.8747 -0.3041  0.7627
 1469TIP3   OH2 4412   0.654   3.548   3.702  0.2732  0.1173  0.0683
 1469TIP3    H1 4413   0.743   3.515   3.697  0.2753 -0.0728  1.1514
 1469TIP3    H2 4414   0.646   3.584   3.790 -1.4842 -2.1229  0.9140
 1470TIP3   OH2 4415   3.597   2.828   1.569  0.2451 -0.1018 -0.1187
 1470TIP3    H1 4416   3.652   2.871   1.503 -0.0586  0.1938 -0.1858
 1470TIP3    H2 4417   3.510   2.824   1.529 -0.0719  0.5862  0.4712
 1471TIP3   OH2 4418   4.512   0.577   1.995 -0.2214 -0.0612 -0.2807
 1471TIP3    H1 4419   4.536   0.513   2.062 -1.9512 -0.5368 -0.0686
 1471TIP3    H2 4420   4.541   0.661   2.030 -0.0112 -0.4478  0.4952
 1472TIP3   OH2 4421   1.446   5.279   1.794  0.0478  0.1812  0.0107
 1472TIP3    H1 4422   1.477   5.204   1.844 -2.6813 -1.6753 -0.8380
 1472TIP3    H2 4423   1.507   5.285   1.720  0.8203 -0.6090  0.5629
 1473TIP3   OH2 4424   2.324   5.983   2.564  0.2882 -0.1379  0.0962
 1473TIP3    H1 4425   2.308   5.891   2.582 -0.2238  0.1828  1.3650
 1473TIP3    H2 4426   2.294   5.996   2.474  0.4280 -1.2146 -0.1122
 1474TIP3   OH2 4427   4.423   1.552   1.233 -0.3832  0.1500  0.2872
 1474TIP3    H1 4428   4.445   1.635   1.190 -0.2408  0.9200  1.7807
 1474TIP3    H2 4429   4.427   1.487   1.162  0.1231  1.3030 -0.7963
 1475TIP3   OH2 4430   2.923   0.669   5.054  0.1809  0.6332  0.7501
 1475TIP3    H1 4431   2.945   0.706   4.969  1.6921 -0.5911  0.5605
 1475TIP3    H2 4432   2.926   0.574   5.041  1.2611  0.4061  2.3267
 1476TIP3   OH2 4433   1.904   1.247   0.075 -0.5310 -0.8735  0.4329
 1476TIP3    H1 4434   1.932   1.186   0.007  0.0296  0.9274 -1.0244
 1476TIP3    H2 4435   1.839   1.303   0.033  0.5435  0.9171  1.0262
 1477TIP3   OH2 4436   1.211   4.946   4.860 -0.0893 -0.1395 -0.1420
 1477TIP3    H1 4437   1.142   4.912   4.916 -0.0153  0.2368  0.1844
 1477TIP3    H2 4438   1.201   5.042   4.864  0.5317 -0.0743  0.0301
 1478TIP3   OH2 4439   4.895   2.495   0.852 -0.1692 -0.3361 -0.3232
 1478TIP3    H1 4440   4.872   2.419   0.798  1.3706 -0.2976 -1.0894
 1478TIP3    H2 4441   4.981   2.523   0.819  1.1816 -0.7054  2.5599
 1479TIP3   OH2 4442   3.472   5.154   3.750 -0.0227 -0.1172  0.0374
 1479TIP3    H1 4443   3.479   5.227   3.811  0.9574  0.3774 -0.6609
 1479TIP3    H2 4444   3.467   5.194   3.664  0.0540 -0.8620 -0.3230
 1480TIP3   OH2 4445   5.242   2.586   3.843 -0.8614  0.1326 -0.0451
 1480TIP3    H1 4446   5.219   2.673   3.810  0.9559  1.1947  1.3023
 1480TIP3    H2 4447   5.274   2.540   3.766 -1.1954  0.8824 -0.6535
 1481TIP3   OH2 4448   6.300   4.551   2.601 -0.2959 -0.0166  0.2667
 1481TIP3    H1 4449   6.309   4.456   2.604  0.9783  0.1073  1.1419
 1481TIP3    H2 4450   6.286   4.578   2.692 -1.2079  0.5988 -0.0389
 1482TIP3   OH2 4451   5.797   1.424   0.514 -0.7819 -0.2076 -0.0339
 1482TIP3    H1 4452   5.842   1.475   0.581 -0.2376  0.2750 -0.7433
 1482TIP3    H2 4453   5.866   1.376   0.469 -0.6355  1.9173 -2.3306
 1483TIP3   OH2 4454   0.943   3.057   2.649 -0.4436 -0.0170 -0.0415
 1483TIP3    H1 4455   0.875   3.119   2.676 -0.7054 -0.7602  1.0514
 1483TIP3    H2 4456   0.977   3.022   2.731  0.1876 -0.7955 -0.6318
 1484TIP3   OH2 4457   2.653   2.907   2.846 -0.4796 -0.5587 -0.1186
 1484TIP3    H1 4458   2.749   2.905   2.854 -0.3577 -1.3209 -1.5500
 1484TIP3    H2 4459   2.637   2.957   2.766 -1.3395  0.5464  0.7245
 1485TIP3   OH2 4460   3.303   1.743   2.074  0.0683  0.0394  0.0748
 1485TIP3    H1 4461   3.392   1.766   2.046 -0.1706 -0.5906 -1.2860
 1485TIP3    H2 4462   3.255   1.729   1.992 -0.9720 -0.8063  0.8051
 1486TIP3   OH2 4463   0.228   5.546   4.383 -0.0407 -0.0813 -0.2348
 1486TIP3    H1 4464   0.320   5.520   4.380 -0.6914 -2.4859 -1.1423
 1486TIP3    H2 4465   0.195   5.512   4.466 -0.1930  0.5510 -0.0265
 1487TIP3   OH2 4466   5.921   3.010   0.481  0.0675  0.4173  0.1909
 1487TIP3    H1 4467   5.854   3.065   0.522 -0.3035  0.0935  0.0301
 1487TIP3    H2 4468   5.980   3.072   0.437  0.3009  0.7484  0.9568
 1488TIP3   OH2 4469   3.450   2.760   1.075 -0.6995  0.6726 -0.1562
 1488TIP3    H1 4470   3.543   2.771   1.055 -0.6134  1.5761  0.6690
 1488TIP3    H2 4471   3.449   2.729   1.166 -1.1810 -0.4570 -0.5260
 1489TIP3   OH2 4472   3.086   3.872   0.680  0.1550  0.3274 -0.6543
 1489TIP3    H1 4473   3.031   3.930   0.627  0.1993  0.2408 -0.7949
 1489TIP3    H2 4474   3.052   3.784   0.661 -0.5208  0.3752  0.2561
 1490TIP3   OH2 4475   1.089   1.035   3.136  0.0584 -0.4951  0.1975
 1490TIP3    H1 4476   1.109   1.128   3.150 -1.0881 -0.0237 -1.0597
 1490TIP3    H2 4477   1.042   1.009   3.215 -2.2334  0.8449 -0.6077
 1491TIP3   OH2 4478   5.237   1.324   3.896 -0.2473 -0.1395  0.5386
 1491TIP3    H1 4479   5.322   1.306   3.856 -0.5320 -1.5933  0.5370
 1491TIP3    H2 4480   5.244   1.290   3.985 -0.8978 -0.5443  0.4492
 1492TIP3   OH2 4481   2.533   0.356   1.926 -0.0196  0.3595 -0.1282
 1492TIP3    H1 4482   2.509   0.405   1.847  0.9054  0.3464 -0.4256
 1492TIP3    H2 4483   2.473   0.282   1.927 -0.7137  0.9071 -0.2650
 1493TIP3   OH2 4484   1.383   3.085   0.606  0.0238 -0.3919 -0.1618
 1493TIP3    H1 4485   1.346   3.029   0.537 -1.1890 -0.6598  0.6701
 1493TIP3    H2 4486   1.333   3.062   0.685  1.1390  0.1643  0.7318
 1494TIP3   OH2 4487   1.751   0.300   3.060  0.2519  0.0481 -0.8986
 1494TIP3    H1 4488   1.778   0.209   3.077  0.2705  0.0508 -0.9137
 1494TIP3    H2 4489   1.799   0.325   2.981  1.3310  0.5278 -0.1139
 1495TIP3   OH2 4490   1.870   3.596   4.392 -0.0335 -0.0460  0.2697
 1495TIP3    H1 4491   1.879   3.684   4.427  0.0300  0.4113 -0.8378
 1495TIP3    H2 4492   1.921   3.597   4.310 -0.8445 -0.7965 -0.2682
 1496TIP3   OH2 4493   2.656   4.224   3.086  0.1947 -0.9127 -0.4309
 1496TIP3    H1 4494   2.614   4.148   3.044 -2.6785  1.6325 -2.5682
 1496TIP3    H2 4495   2.644   4.295   3.024  2.4578  1.4543  1.6324
 1497TIP3   OH2 4496   4.018   1.076   0.886 -0.2773 -0.1212 -0.1011
 1497TIP3    H1 4497   4.066   1.039   0.811  0.9004  0.0276  0.5532
 1497TIP3    H2 4498   4.085   1.087   0.954 -1.2063  0.3405  0.7622
 1498TIP3   OH2 4499   3.511   5.890   3.356 -0.1246 -0.2118  0.0586
 1498TIP3    H1 4500   3.577   5.927   3.296  0.4745 -2.4899 -0.8035
 1498TIP3    H2 4501   3.551   5.810   3.389 -0.7601  0.5661  3.0068
 1499TIP3   OH2 4502   3.861   1.629   0.620 -0.6486  0.3843  0.0510
 1499TIP3    H1 4503   3.839   1.647   0.528 -0.6406 -1.4789 -0.3622
 1499TIP3    H2 4504   3.850   1.534   0.629 -0.3496  0.4875  1.9086
 1500TIP3   OH2 4505   0.027   1.874   2.715 -0.1792  0.1253 -0.3109
 1500TIP3    H1 4506  -0.033   1.928   2.766  1.7472  0.5180  1.7312
 1500TIP3    H2 4507   0.098   1.854   2.776  1.3037 -1.0804 -2.3093
 1501TIP3   OH2 4508   2.780   4.160   4.947 -0.2462 -0.6902  0.5037
 1501TIP3    H1 4509   2.703   4.198   4.989 -1.0677 -2.3905  0.5984
 1501TIP3    H2 4510   2.754   4.072   4.922  1.1232 -0.7033 -1.0858
 1502TIP3   OH2 4511   4.851   5.529   3.563 -0.4824 -0.3248 -0.0778
 1502TIP3    H1 4512   4.834   5.461   3.497 -1.0079  0.9747 -1.3213
 1502TIP3    H2 4513   4.766   5.541   3.607 -1.4239  1.9943 -2.2980
 1503TIP3   OH2 4514   0.479   0.146   2.833  0.3742 -0.3179 -0.2648
 1503TIP3    H1 4515   0.569   0.149   2.866  0.4811  1.2715 -0.6348
 1503TIP3    H2 4516   0.484   0.093   2.754  0.6719 -1.5732  0.5548
 1504TIP3   OH2 4517   4.513   4.764   2.377 -0.0652  0.1875  0.6427
 1504TIP3    H1 4518   4.494   4.849   2.337 -2.0969 -1.1113 -1.4086
 1504TIP3    H2 4519   4.595   4.737   2.337  0.7099  1.2204  1.4656
 1505TIP3   OH2 4520   3.652   5.636   3.473  0.4414 -0.4546  0.2771
 1505TIP3    H1 4521   3.715   5.687   3.523  1.2061 -1.2115  0.1113
 1505TIP3    H2 4522   3.594   5.599   3.540  0.9474 -0.7844  0.5414
 1506TIP3   OH2 4523   2.131   2.031   0.964  0.0135  0.4503 -0.1122
 1506TIP3    H1 4524   2.148   2.006   1.054  1.8294  0.2344 -0.4862
 1506TIP3    H2 4525   2.206   2.085   0.939 -0.7543  1.0142 -1.3095
 1507TIP3   OH2 4526   1.300   3.631   0.400  0.0272 -0.3475  0.0202
 1507TIP3    H1 4527   1.289   3.568   0.330 -1.0325  0.2348 -0.3623
 1507TIP3    H2 4528   1.369   3.594   0.455  1.1193 -0.6567 -1.4933
 1508TIP3   OH2 4529   0.965   2.776   0.816  0.3039 -0.6111  0.1668
 1508TIP3    H1 4530   0.983   2.695   0.863 -2.0652 -0.4506  1.4904
 1508TIP3    H2 4531   0.975   2.753   0.724  4.0864 -1.1766  0.5676
 1509TIP3   OH2 4532   6.197   1.413   5.105  0.1378  0.6182 -0.2433
 1509TIP3    H1 4533   6.129   1.371   5.157  0.0655 -0.4890 -1.1711
 1509TIP3    H2 4534   6.155   1.430   5.020  0.5193  1.5147 -0.2630
 1510TIP3   OH2 4535   3.996   2.796   4.840 -0.0111  0.3575  0.0286
 1510TIP3    H1 4536   3.924   2.838   4.887 -3.1557 -2.9348 -1.3497
 1510TIP3    H2 4537   4.022   2.860   4.774 -1.3770  1.8550  0.8666
 1511TIP3   OH2 4538   6.265   3.551   3.819 -0.1474 -0.0664 -0.2329
 1511TIP3    H1 4539   6.356   3.527   3.798  0.0132  0.0085  0.3656
 1511TIP3    H2 4540   6.263   3.646   3.812 -0.6926 -0.1734 -2.2352
 1512TIP3   OH2 4541   4.116   5.626   4.186 -0.1313 -0.4637  0.3258
 1512TIP3    H1 4542   4.210   5.612   4.185  0.0535  0.6479  0.2807
 1512TIP3    H2 4543   4.090   5.611   4.277  0.2232 -0.0368  0.5052
 1513TIP3   OH2 4544   1.360   1.709   1.632  0.1744  0.0135 -0.7557
 1513TIP3    H1 4545   1.337   1.664   1.551 -0.0201  0.9242 -1.2240
 1513TIP3    H2 4546   1.448   1.742   1.617  0.9420 -1.5336  0.1805
 1514TIP3   OH2 4547   1.579   5.654   2.292  0.0067  0.5681 -0.1149
 1514TIP3    H1 4548   1.532   5.578   2.326  0.2432  0.6088  0.2970
 1514TIP3    H2 4549   1.509   5.713   2.262 -0.1627 -0.1906 -1.2806
 1515TIP3   OH2 4550   1.453   4.161   4.620 -0.9972  0.5303 -0.1198
 1515TIP3    H1 4551   1.503   4.145   4.540  1.8596 -3.3931  2.0745
 1515TIP3    H2 4552   1.368   4.120   4.604 -1.5364  2.2262 -1.9547
 1516TIP3   OH2 4553   3.123   4.411   4.383 -0.5341  0.2055  0.1191
 1516TIP3    H1 4554   3.081   4.459   4.312  2.0273  2.3240 -0.0914
 1516TIP3    H2 4555   3.191   4.359   4.339 -1.4990 -1.6219  0.6671
 1517TIP3   OH2 4556   0.106   0.676   3.875 -1.1088 -0.6831  0.2264
 1517TIP3    H1 4557   0.046   0.736   3.831 -0.2985 -0.2140 -0.2516
 1517TIP3    H2 4558   0.144   0.727   3.946 -0.1103 -0.4880 -0.4312
 1518TIP3   OH2 4559   5.289   0.117   0.966  0.3627 -0.1866 -0.3438
 1518TIP3    H1 4560   5.342   0.063   0.909 -1.9560 -2.4624 -0.5382
 1518TIP3    H2 4561   5.268   0.061   1.041  0.2316  1.4421  0.9005
 1519TIP3   OH2 4562   4.985   0.649   5.089  0.1111  0.3175 -0.1315
 1519TIP3    H1 4563   4.948   0.659   5.001 -2.5732  1.7651  1.0393
 1519TIP3    H2 4564   4.960   0.730   5.134 -0.8219 -1.4124  2.6925
 1520TIP3   OH2 4565   0.095   4.156   3.456  0.4240 -0.5888 -0.0475
 1520TIP3    H1 4566   0.150   4.234   3.464  0.2871 -0.5597  0.6671
 1520TIP3    H2 4567   0.153   4.083   3.478  0.7543 -0.7830 -1.4307
 1521TIP3   OH2 4568   0.507   4.369   0.167 -0.6253  0.1962 -0.1737
 1521TIP3    H1 4569   0.436   4.325   0.215 -0.9599 -0.0973 -0.9262
 1521TIP3    H2 4570   0.581   4.368   0.228 -1.0457 -0.1640  0.3406
 1522TIP3   OH2 4571   5.456   0.077   4.372  0.2673 -0.0421  0.0394
 1522TIP3    H1 4572   5.423  -0.005   4.336 -1.2252  0.7831 -0.5710
 1522TIP3    H2 4573   5.403   0.145   4.331  2.0715  1.3267 -0.1720
 1523TIP3   OH2 4574   5.255   0.575   1.216 -0.0309  0.5879  0.3409
 1523TIP3    H1 4575   5.213   0.601   1.134 -0.5729 -0.3104  0.3169
 1523TIP3    H2 4576   5.191   0.519   1.259  0.9143 -0.3588  0.5650
 1524TIP3   OH2 4577   1.991   4.158   3.698  0.5461  0.0321  0.6927
 1524TIP3    H1 4578   2.047   4.235   3.699 -1.2720  1.5631 -2.1887
 1524TIP3    H2 4579   1.902   4.193   3.694 -0.4507 -2.2595  1.1239
 1525TIP3   OH2 4580   1.046   1.364   1.388  0.0159 -0.2662 -0.5769
 1525TIP3    H1 4581   0.959   1.328   1.403 -0.9728  2.1550  0.1663
 1525TIP3    H2 4582   1.098   1.333   1.462 -1.3996  1.4497  1.2609
 1526TIP3   OH2 4583   2.494   3.546   4.726  0.0751  0.8356  0.0935
 1526TIP3    H1 4584   2.464   3.463   4.690  0.1740  0.8257  0.0318
 1526TIP3    H2 4585   2.589   3.545   4.713  0.1504  0.6892  0.6509
 1527TIP3   OH2 4586   5.063   3.849   2.550 -0.4430 -0.1875 -0.2247
 1527TIP3    H1 4587   5.093   3.785   2.487 -0.2726  0.8607 -1.2353
 1527TIP3    H2 4588   4.998   3.901   2.503 -0.1397  0.7659  0.3793
 1528TIP3   OH2 4589   1.468   2.685   1.875  0.7118  0.1128 -0.1665
 1528TIP3    H1 4590   1.424   2.625   1.813  0.4024  1.1625 -0.9984
 1528TIP3    H2 4591   1.427   2.770   1.859  3.1180  1.1917 -1.0705
 1529TIP3   OH2 4592   2.751   5.629   4.972  0.3387 -0.3905  0.1664
 1529TIP3    H1 4593   2.764   5.548   5.021  0.1943 -0.5551 -0.0655
 1529TIP3    H2 4594   2.755   5.603   4.880  0.1883 -0.1517  0.0900
 1530TIP3   OH2 4595   2.406   1.832   0.830 -0.5493  0.7219 -1.1435
 1530TIP3    H1 4596   2.404   1.922   0.862  1.6436  1.2402 -2.2326
 1530TIP3    H2 4597   2.471   1.833   0.759 -1.9498 -1.2985 -2.5749
 1531TIP3   OH2 4598   5.290   1.252   3.515  0.5408 -0.5599 -0.8807
 1531TIP3    H1 4599   5.341   1.252   3.435 -1.2329  1.0634 -2.1252
 1531TIP3    H2 4600   5.261   1.343   3.525  0.3846 -0.7938  1.3990
 1532TIP3   OH2 4601   0.655   0.531   0.400  0.4828 -0.6452  0.3274
 1532TIP3    H1 4602   0.684   0.479   0.324 -0.1889 -1.1999  0.4437
 1532TIP3    H2 4603   0.659   0.469   0.473  0.0099 -0.4317  0.5327
 1533TIP3   OH2 4604   4.524   3.660   1.398  0.2150 -0.5118 -0.2236
 1533TIP3    H1 4605   4.438   3.686   1.433  0.5077  1.8639 -1.0812
 1533TIP3    H2 4606   4.587   3.696   1.461  0.6191 -1.8418  0.1546
 1534TIP3   OH2 4607   5.875   3.800   3.958 -0.5993 -0.0079  0.7358
 1534TIP3    H1 4608   5.846   3.713   3.930  0.1843 -0.1753  0.4270
 1534TIP3    H2 4609   5.944   3.782   4.022 -0.4545  0.3876  0.6908
 1535TIP3   OH2 4610   3.448   5.493   4.422 -0.1051  0.5166 -0.4037
 1535TIP3    H1 4611   3.359   5.485   4.456 -0.4060 -0.5444 -1.4043
 1535TIP3    H2 4612   3.501   5.444   4.485 -0.2350  1.0055  0.1005
 1536TIP3   OH2 4613   0.662   5.869   2.414 -0.4184  0.1702 -0.1977
 1536TIP3    H1 4614   0.651   5.926   2.338  1.5255  1.7117  0.5710
 1536TIP3    H2 4615   0.573   5.852   2.444 -1.1174  2.3491 -0.8161
 1537TIP3   OH2 4616   5.410   2.355   3.047 -0.3259  0.0633  0.1605
 1537TIP3    H1 4617   5.422   2.297   3.123 -1.6328  0.6718  0.8695
 1537TIP3    H2 4618   5.425   2.443   3.081 -2.9483  0.5485  0.2921
 1538TIP3   OH2 4619   5.877   3.359   2.591  0.6716  0.0149 -0.8092
 1538TIP3    H1 4620   5.846   3.308   2.516  1.0768  0.4396 -1.2756
 1538TIP3    H2 4621   5.868   3.450   2.562  0.4312  0.1958 -0.1795
 1539TIP3   OH2 4622   4.037   1.125   0.173 -0.2362  0.7226  0.2914
 1539TIP3    H1 4623   4.042   1.043   0.123  1.5853  0.7651  0.3110
 1539TIP3    H2 4624   4.042   1.194   0.106  0.4856  0.7853  0.3970
 1540TIP3   OH2 4625   5.767   1.663   3.777 -0.0855 -0.3681 -0.0270
 1540TIP3    H1 4626   5.724   1.692   3.857 -0.2999 -1.1789  0.1592
 1540TIP3    H2 4627   5.735   1.574   3.763 -0.2912 -0.1333 -1.1817
 1541TIP3   OH2 4628   5.074   1.403   0.579 -0.2536  0.0858  0.2612
 1541TIP3    H1 4629   5.116   1.486   0.556  1.0583 -0.3933  0.8397
 1541TIP3    H2 4630   5.004   1.428   0.640  0.9499  0.6680  1.4561
 1542TIP3   OH2 4631   5.347   0.219   0.561  0.3791 -0.3222  0.1390
 1542TIP3    H1 4632   5.418   0.275   0.592 -0.4631  0.0698  1.4779
 1542TIP3    H2 4633   5.297   0.275   0.502  0.7649 -0.3589 -0.2230
 1543TIP3   OH2 4634   3.145   3.892   2.286  0.5687  0.8574 -0.2788
 1543TIP3    H1 4635   3.140   3.806   2.329 -0.9849  0.7152 -0.6849
 1543TIP3    H2 4636   3.160   3.954   2.357  2.2901  0.2199 -0.0366
 1544TIP3   OH2 4637   5.073   5.897   1.006  0.6362 -0.5627  0.1707
 1544TIP3    H1 4638   5.134   5.825   0.991 -0.0498 -1.1160 -0.0332
 1544TIP3    H2 4639   5.071   5.908   1.101  0.3332 -1.1975  0.2483
 1545TIP3   OH2 4640   0.405   2.140   0.932  0.0014  0.3960  0.0181
 1545TIP3    H1 4641   0.407   2.150   0.836  0.4853 -1.0263 -0.1483
 1545TIP3    H2 4642   0.497   2.131   0.956 -0.1562  0.1694  0.5393
 1546TIP3   OH2 4643   0.849   3.008   0.696  0.2380 -0.2685 -0.9539
 1546TIP3    H1 4644   0.898   3.066   0.638  0.2817 -0.3211 -0.9701
 1546TIP3    H2 4645   0.915   2.970   0.753 -0.0687  1.6313  0.7723
 1547TIP3   OH2 4646   3.878   5.316   1.224  0.9742  0.0210 -0.6374
 1547TIP3    H1 4647   3.829   5.294   1.304  1.3007 -0.9940 -0.7058
 1547TIP3    H2 4648   3.966   5.337   1.255  0.7408  0.9993 -0.6028
 1548TIP3   OH2 4649   4.989   2.071   2.930 -0.1937 -0.2411  0.0165
 1548TIP3    H1 4650   5.042   2.070   2.850  0.2798 -0.5259  0.3318
 1548TIP3    H2 4651   5.051   2.093   3.000 -0.7875  1.0238  0.1847
 1549TIP3   OH2 4652   0.970   0.019   1.989  0.1148  0.4637  0.1736
 1549TIP3    H1 4653   0.913   0.017   2.066 -0.4538 -0.2016 -0.2434
 1549TIP3    H2 4654   0.957   0.106   1.951 -0.1076  0.5584  0.4626
 1550TIP3   OH2 4655   6.170   2.479   0.814 -0.1643  0.3614  0.6167
 1550TIP3    H1 4656   6.201   2.388   0.810 -0.9084  0.0862  0.9364
 1550TIP3    H2 4657   6.228   2.527   0.754  1.0250 -0.0843  1.3689
 1551TIP3   OH2 4658   2.943   0.649   1.770 -0.2852 -0.3947  0.2711
 1551TIP3    H1 4659   2.864   0.633   1.821 -0.4291 -2.0743 -0.4379
 1551TIP3    H2 4660   2.917   0.717   1.707 -0.7145  0.1394  1.0094
 1552TIP3   OH2 4661   0.757   0.858   4.105  0.1180  0.1850  0.7277
 1552TIP3    H1 4662   0.804   0.802   4.044 -0.3626  0.6921 -0.1371
 1552TIP3    H2 4663   0.785   0.829   4.192 -0.0963 -1.3677  0.3137
 1553TIP3   OH2 4664   5.805   3.050   0.852  0.2560 -0.2246  0.4044
 1553TIP3    H1 4665   5.808   2.957   0.829  3.1618 -0.0757 -0.2117
 1553TIP3    H2 4666   5.787   3.052   0.946 -0.2883 -1.3794  0.3332
 1554TIP3   OH2 4667   2.704   2.767   1.390 -0.1225 -0.2200  0.0622
 1554TIP3    H1 4668   2.662   2.800   1.469  1.1869 -0.8848  1.0949
 1554TIP3    H2 4669   2.690   2.672   1.394  0.0854 -0.2740 -0.4227
 1555TIP3   OH2 4670   4.481   0.693   1.381 -0.1416  0.0749  0.4746
 1555TIP3    H1 4671   4.556   0.682   1.440 -1.1327  1.7595  2.1384
 1555TIP3    H2 4672   4.505   0.768   1.326 -0.9248  1.1577  1.5827
 1556TIP3   OH2 4673   1.516   5.047   5.145 -0.2461  0.4050 -0.1357
 1556TIP3    H1 4674   1.488   4.964   5.107 -2.4504  0.5390  1.0689
 1556TIP3    H2 4675   1.436   5.098   5.154  1.1237  3.0024 -1.4968
 1557TIP3   OH2 4676   3.431   5.667   3.176 -0.0818  0.1350 -0.0310
 1557TIP3    H1 4677   3.510   5.701   3.133  0.4872  0.1371  0.9924
 1557TIP3    H2 4678   3.387   5.745   3.209 -1.2687  0.2680 -1.8021
 1558TIP3   OH2 4679   0.197   1.448   1.923  0.4825 -0.0520 -0.4521
 1558TIP3    H1 4680   0.267   1.447   1.988  1.5200  0.0743 -1.5184
 1558TIP3    H2 4681   0.183   1.356   1.901  0.7014 -0.0494 -0.6151
 1559TIP3   OH2 4682   1.525   4.437   2.389 -0.2706 -0.7892 -0.3426
 1559TIP3    H1 4683   1.579   4.483   2.453 -0.0194  1.3154 -1.9803
 1559TIP3    H2 4684   1.584   4.375   2.347  0.7487  0.9387 -1.5627
 1560TIP3   OH2 4685   4.047   2.255   3.219  0.2819 -0.2994  0.0373
 1560TIP3    H1 4686   4.086   2.212   3.295  0.5720 -1.8317 -0.9393
 1560TIP3    H2 4687   3.983   2.316   3.256 -0.7411 -2.1553  1.4880
 1561TIP3   OH2 4688   1.538   1.532   4.828 -0.4072 -0.1592  0.2683
 1561TIP3    H1 4689   1.573   1.444   4.811 -2.1426 -0.6332 -1.0522
 1561TIP3    H2 4690   1.591   1.590   4.774 -0.1158 -0.5539  0.1255
 1562TIP3   OH2 4691   4.319   5.814   0.385  0.2087 -0.4218  0.5981
 1562TIP3    H1 4692   4.388   5.872   0.354  0.9020 -1.0227  0.9664
 1562TIP3    H2 4693   4.242   5.870   0.395  0.8492  0.4154  0.9097
 1563TIP3   OH2 4694   1.499   5.421   1.312  0.5315  0.1552  0.2312
 1563TIP3    H1 4695   1.549   5.468   1.378  2.5047 -0.0500 -1.0064
 1563TIP3    H2 4696   1.410   5.419   1.345  1.0840  1.6766  1.9654
 1564TIP3   OH2 4697   4.779   4.341   2.598 -0.5154  0.0010 -0.2761
 1564TIP3    H1 4698   4.823   4.305   2.675  0.5662  2.6607  0.4631
 1564TIP3    H2 4699   4.761   4.432   2.621 -1.1798  0.5844 -2.7705
 1565TIP3   OH2 4700   5.774   2.254   4.236  0.4681  0.5590 -0.2093
 1565TIP3    H1 4701   5.854   2.295   4.269  0.6956  0.3258 -0.4645
 1565TIP3    H2 4702   5.709   2.324   4.237  0.4508  0.5395  0.7932
 1566TIP3   OH2 4703   5.116   3.074   1.538 -0.1656  0.2820  0.2390
 1566TIP3    H1 4704   5.089   3.107   1.452  1.6461 -0.1092 -0.5242
 1566TIP3    H2 4705   5.194   3.022   1.520  0.5906  0.6747  2.2004
 1567TIP3   OH2 4706   0.569   5.313   0.547 -0.2888  0.0502 -0.2931
 1567TIP3    H1 4707   0.499   5.264   0.591 -0.9479  1.3806  0.1681
 1567TIP3    H2 4708   0.538   5.403   0.545  1.4316  0.6785 -0.0594
 1568TIP3   OH2 4709   6.302   0.538   4.132 -0.1607 -0.0232 -0.2962
 1568TIP3    H1 4710   6.277   0.628   4.111  0.4559  0.4932  1.0574
 1568TIP3    H2 4711   6.275   0.487   4.055  0.4436  1.4621 -1.5457
 1569TIP3   OH2 4712   4.606   2.808   4.403 -0.1544 -0.0905 -0.1808
 1569TIP3    H1 4713   4.668   2.830   4.333  0.6176  1.0447  0.8206
 1569TIP3    H2 4714   4.586   2.715   4.389  1.6121 -0.4300 -0.6551
 1570TIP3   OH2 4715   1.180   3.907   2.601 -0.6678  0.2614  0.5509
 1570TIP3    H1 4716   1.101   3.958   2.582 -0.8822  0.4703  1.8653
 1570TIP3    H2 4717   1.228   3.960   2.664  0.7709  0.3327 -0.5561
 1571TIP3   OH2 4718   1.612   2.138   5.010  0.1217  0.1602  0.0209
 1571TIP3    H1 4719   1.700   2.169   5.031  1.2016 -2.1136 -0.7700
 1571TIP3    H2 4720   1.618   2.111   4.918 -1.1713 -0.7414  0.1741
 1572TIP3   OH2 4721   3.343   0.594   4.138  0.6143  0.1324  0.1834
 1572TIP3    H1 4722   3.320   0.505   4.109  0.4759  0.7351 -1.6529
 1572TIP3    H2 4723   3.427   0.611   4.097  0.7230  0.7901  0.6765
 1573TIP3   OH2 4724   3.103   0.181   3.253 -0.4740 -0.2882 -0.4707
 1573TIP3    H1 4725   3.049   0.251   3.287 -0.1112 -0.2145 -0.0452
 1573TIP3    H2 4726   3.174   0.172   3.316 -1.2406 -1.9581  0.2355
 1574TIP3   OH2 4727   3.431   3.481   2.080  0.1320 -0.0932 -0.0223
 1574TIP3    H1 4728   3.357   3.431   2.116 -1.5511  1.5858 -0.9121
 1574TIP3    H2 4729   3.438   3.557   2.138 -0.7747  1.2108 -1.5339
 1575TIP3   OH2 4730   3.551   1.545   1.108 -0.1233  0.0851 -0.0233
 1575TIP3    H1 4731   3.617   1.530   1.175 -0.8586  0.1202  0.7335
 1575TIP3    H2 4732   3.592   1.518   1.026  1.2832  1.3310  0.2290
 1576TIP3   OH2 4733   3.686   0.850   4.185  0.4722  0.0627  0.0763
 1576TIP3    H1 4734   3.773   0.868   4.220  0.8697  0.0262 -0.8544
 1576TIP3    H2 4735   3.627   0.862   4.259  1.2737  0.0270  0.7321
 1577TIP3   OH2 4736   1.092   5.697   4.451  0.4142 -0.0301 -0.2211
 1577TIP3    H1 4737   0.996   5.703   4.455  0.3007 -1.9205  1.0942
 1577TIP3    H2 4738   1.109   5.652   4.368  0.1161 -0.2465 -0.1695
 1578TIP3   OH2 4739   3.800   1.148   3.578 -0.3992 -0.3633  0.3191
 1578TIP3    H1 4740   3.736   1.209   3.542  1.4959  1.8266  0.4646
 1578TIP3    H2 4741   3.772   1.134   3.669 -0.5818  0.7308  0.4426
 1579TIP3   OH2 4742   1.234   1.383   4.527  0.3197 -0.1648 -0.0920
 1579TIP3    H1 4743   1.139   1.387   4.517  0.2661 -0.2881  0.3661
 1579TIP3    H2 4744   1.251   1.428   4.610  0.5900 -0.8549  0.2295
 1580TIP3   OH2 4745   5.664   3.114   3.896  0.4742  0.0690 -0.4095
 1580TIP3    H1 4746   5.635   3.039   3.844  0.1661 -1.4047  1.7176
 1580TIP3    H2 4747   5.744   3.083   3.939 -0.6194  0.2406  1.8807
 1581TIP3   OH2 4748   6.126   4.951   1.884 -0.4380 -1.0362  0.0996
 1581TIP3    H1 4749   6.068   4.943   1.960 -0.4605 -0.0516  0.2044
 1581TIP3    H2 4750   6.097   5.032   1.841  0.1315 -1.1297 -0.4742
 1582TIP3   OH2 4751   2.742   0.387   3.555 -0.1952  0.2035  0.4610
 1582TIP3    H1 4752   2.744   0.292   3.541 -0.1025  0.2947 -0.1914
 1582TIP3    H2 4753   2.828   0.417   3.526 -0.7324  0.6641 -0.7206
 1583TIP3   OH2 4754   0.939   3.719   1.572  0.0632  0.2507 -0.1646
 1583TIP3    H1 4755   0.873   3.747   1.636 -0.2918 -1.2286  0.1422
 1583TIP3    H2 4756   0.997   3.662   1.622  1.9378  1.9555 -0.2940
 1584TIP3   OH2 4757   0.405   4.162   1.969 -0.1561 -0.2559  0.4875
 1584TIP3    H1 4758   0.318   4.129   1.946  0.3252 -1.3764  0.2560
 1584TIP3    H2 4759   0.399   4.180   2.063 -0.1293 -1.9531  0.8308
 1585TIP3   OH2 4760   4.366   4.726   0.365  0.2595  0.0705 -0.0780
 1585TIP3    H1 4761   4.447   4.694   0.326  0.6729  0.5780  0.3511
 1585TIP3    H2 4762   4.323   4.775   0.295  0.8213  0.6683 -0.0123
 1586TIP3   OH2 4763   2.564   0.390   0.279 -0.8699 -0.1077  0.2240
 1586TIP3    H1 4764   2.591   0.379   0.188  2.2230 -0.2512  1.0554
 1586TIP3    H2 4765   2.552   0.301   0.312  1.7650 -0.2736  0.9012
 1587TIP3   OH2 4766   0.607   1.870   1.755 -0.2441  0.1239  0.7557
 1587TIP3    H1 4767   0.518   1.843   1.735  0.2246 -0.0574 -1.3756
 1587TIP3    H2 4768   0.655   1.855   1.674  1.9206 -0.5299  2.0813
 1588TIP3   OH2 4769   0.628   2.190   3.997 -0.2769  0.1953 -0.2999
 1588TIP3    H1 4770   0.642   2.170   3.904 -0.4548 -0.0725 -0.2704
 1588TIP3    H2 4771   0.606   2.106   4.036  1.8469 -0.0925  0.3951
 1589TIP3   OH2 4772   4.505   5.965   1.316 -0.3381 -0.1920 -0.3086
 1589TIP3    H1 4773   4.485   5.931   1.229  1.1910 -0.4987 -0.5657
 1589TIP3    H2 4774   4.493   6.060   1.308 -1.3393 -0.3144 -0.5029
 1590TIP3   OH2 4775   3.562   4.666   2.559 -0.1192 -0.1542 -0.0766
 1590TIP3    H1 4776   3.469   4.649   2.541 -0.0383 -0.8888  0.1474
 1590TIP3    H2 4777   3.562   4.742   2.616 -0.6198 -0.4408  0.3184
 1591TIP3   OH2 4778   4.559   1.123   1.904  0.2205  0.3013  0.4942
 1591TIP3    H1 4779   4.464   1.120   1.887 -0.0220  0.5516  1.7034
 1591TIP3    H2 4780   4.599   1.105   1.819 -0.9094  1.5452 -0.3590
 1592TIP3   OH2 4781   5.286   1.230   2.583 -0.0455 -0.1480 -0.3159
 1592TIP3    H1 4782   5.222   1.160   2.594  0.4995 -0.6729 -0.4342
 1592TIP3    H2 4783   5.369   1.192   2.612  0.5476 -0.0561 -1.8033
 1593TIP3   OH2 4784   4.789   3.071   2.438  0.4385 -0.3904 -0.1027
 1593TIP3    H1 4785   4.804   3.040   2.527 -0.3601 -2.6037 -0.6589
 1593TIP3    H2 4786   4.712   3.127   2.445 -0.9526 -2.2330  0.3771
 1594TIP3   OH2 4787   5.670   4.239   2.656 -0.5137 -0.0740  0.0648
 1594TIP3    H1 4788   5.579   4.220   2.633  0.4600 -2.4275 -2.3989
 1594TIP3    H2 4789   5.702   4.292   2.583 -0.0467  1.2801  1.2312
 1595TIP3   OH2 4790   1.460   4.215   1.143  0.1544 -0.1219 -0.1087
 1595TIP3    H1 4791   1.389   4.181   1.198  0.4414  0.4952  0.6633
 1595TIP3    H2 4792   1.519   4.140   1.131 -0.0840 -0.3533  0.1526
 1596TIP3   OH2 4793   2.410   0.598   0.667 -0.0069  0.0758 -1.3302
 1596TIP3    H1 4794   2.460   0.525   0.703 -2.1597 -0.9090 -0.0854
 1596TIP3    H2 4795   2.427   0.671   0.727  1.1825  0.2512 -1.8665
 1597TIP3   OH2 4796   4.743   1.005   3.446  0.4736 -0.0882  0.0499
 1597TIP3    H1 4797   4.793   0.991   3.526 -0.4581 -1.4384  0.4189
 1597TIP3    H2 4798   4.725   0.917   3.412  0.2057  0.4362 -1.2412
 1598TIP3   OH2 4799   3.465   0.299   2.937 -0.4899 -0.3102  0.2861
 1598TIP3    H1 4800   3.486   0.259   3.022 -1.4221  0.3050  0.8177
 1598TIP3    H2 4801   3.526   0.257   2.876  0.8559 -0.0582  1.4103
 1599TIP3   OH2 4802   3.706   0.589   3.380 -0.5356 -0.2325 -0.5418
 1599TIP3    H1 4803   3.684   0.552   3.295 -1.7583 -0.5043 -0.1297
 1599TIP3    H2 4804   3.652   0.541   3.442 -0.2280  0.4810  0.3089
 1600TIP3   OH2 4805   0.827   4.608   4.992 -0.3599 -0.1775  0.4577
 1600TIP3    H1 4806   0.742   4.641   5.020 -1.3210 -2.4999  0.5529
 1600TIP3    H2 4807   0.809   4.565   4.908  1.4439  2.1992 -1.2723
 1601TIP3   OH2 4808   0.548   4.888   0.796 -0.2629 -0.4687  0.0729
 1601TIP3    H1 4809   0.541   4.910   0.889 -0.5866 -1.0738  0.2014
 1601TIP3    H2 4810   0.617   4.944   0.763 -1.1638  0.8329  0.3424
 1602TIP3   OH2 4811   2.537   3.872   5.175  0.0520 -0.1857 -0.2811
 1602TIP3    H1 4812   2.624   3.903   5.200  0.3325 -0.0458 -1.3762
 1602TIP3    H2 4813   2.552   3.819   5.096 -0.8551 -0.1330 -0.4967
 1603TIP3   OH2 4814   5.839   4.829   1.426  0.5089 -0.2225  0.2041
 1603TIP3    H1 4815   5.920   4.871   1.454  0.2751  1.4986 -1.4968
 1603TIP3    H2 4816   5.796   4.802   1.508  1.1050  2.0862  1.3482
 1604TIP3   OH2 4817   0.409   3.179   2.786 -0.2075  0.1252  0.6979
 1604TIP3    H1 4818   0.435   3.117   2.855  1.6485 -1.1670 -1.0574
 1604TIP3    H2 4819   0.391   3.124   2.710 -0.2161  1.6546 -0.4479
 1605TIP3   OH2 4820   1.856   4.895   4.956  0.6036  0.2400 -0.2365
 1605TIP3    H1 4821   1.878   4.910   4.864 -1.4576 -1.2420 -1.0416
 1605TIP3    H2 4822   1.764   4.922   4.964  0.9365  1.0199  1.5881
 1606TIP3   OH2 4823   3.954   4.486   1.323  0.1171  0.0214 -0.3146
 1606TIP3    H1 4824   3.965   4.441   1.240 -0.2495  0.4334 -0.5884
 1606TIP3    H2 4825   3.882   4.548   1.308  0.4337  0.5094  0.1309
 1607TIP3   OH2 4826   1.987   3.787   3.379  0.2424  0.5187  0.2259
 1607TIP3    H1 4827   1.974   3.828   3.293  0.5907 -0.7186 -0.4376
 1607TIP3    H2 4828   2.050   3.844   3.423  2.0527 -0.1444 -1.3300
 1608TIP3   OH2 4829   3.881   2.259   4.651  0.2323 -0.6059  0.3465
 1608TIP3    H1 4830   3.938   2.316   4.598 -1.6000  0.0316 -1.0501
 1608TIP3    H2 4831   3.801   2.310   4.662 -0.6298 -2.0597  0.9896
 1609TIP3   OH2 4832   4.263   0.982   4.590  0.1679  0.2336  0.0382
 1609TIP3    H1 4833   4.342   1.018   4.630  0.7117 -1.9033  1.0495
 1609TIP3    H2 4834   4.294   0.936   4.512 -0.2509  0.4175 -0.2378
 1610TIP3   OH2 4835   3.371   3.177   0.845 -0.2937  0.4154 -1.0959
 1610TIP3    H1 4836   3.372   3.208   0.755  1.4659  0.8101 -0.9734
 1610TIP3    H2 4837   3.410   3.090   0.842  0.0052  0.5315 -0.6880
 1611TIP3   OH2 4838   3.167   1.268   4.227  0.2373 -0.1502 -0.1872
 1611TIP3    H1 4839   3.200   1.253   4.315  1.3689 -2.1036 -0.8793
 1611TIP3    H2 4840   3.092   1.326   4.239  0.6057 -0.0505  1.9993
 1612TIP3   OH2 4841   2.768   0.224   1.894  0.4812  0.0429  0.5562
 1612TIP3    H1 4842   2.688   0.271   1.918  0.0591 -0.6554  0.5620
 1612TIP3    H2 4843   2.800   0.189   1.977 -0.4976 -1.6321  0.2808
 1613TIP3   OH2 4844   2.101   0.026   3.422 -0.3870 -0.5640  0.1661
 1613TIP3    H1 4845   2.118   0.091   3.353  0.6988 -0.6313  0.3444
 1613TIP3    H2 4846   2.030  -0.027   3.388  0.5813 -1.0192 -1.2188
 1614TIP3   OH2 4847   2.895   4.451   0.825  0.1232 -0.0388  0.6655
 1614TIP3    H1 4848   2.804   4.419   0.818 -0.9588  2.6635  1.1995
 1614TIP3    H2 4849   2.909   4.461   0.919  1.9369 -2.7374  0.7739
 1615TIP3   OH2 4850   5.097   5.836   0.653  0.1719  0.2414  0.7760
 1615TIP3    H1 4851   5.003   5.854   0.663 -0.4194 -2.0058 -0.1395
 1615TIP3    H2 4852   5.139   5.892   0.719 -1.6184  2.6368  0.0163
 1616TIP3   OH2 4853   3.834   0.753   4.755  0.4706 -0.0276  0.2704
 1616TIP3    H1 4854   3.854   0.702   4.677  2.1496 -2.0132  1.8884
 1616TIP3    H2 4855   3.917   0.795   4.778 -0.0397  0.6482  0.9156
 1617TIP3   OH2 4856   2.732   4.381   0.185 -0.2110 -0.3481  0.2606
 1617TIP3    H1 4857   2.757   4.289   0.183  1.1863  0.0269 -0.4879
 1617TIP3    H2 4858   2.745   4.407   0.276  4.2040  0.3080 -0.3383
 1618TIP3   OH2 4859   1.340   5.787   3.787 -0.3228 -0.1138  0.2690
 1618TIP3    H1 4860   1.268   5.755   3.842 -0.7810  1.1290  0.4083
 1618TIP3    H2 4861   1.308   5.868   3.749  1.2442  0.8428  0.8769
 1619TIP3   OH2 4862   3.711   2.219   3.836 -0.4251 -0.9508  0.0454
 1619TIP3    H1 4863   3.732   2.312   3.844  1.2529 -1.2216 -0.8100
 1619TIP3    H2 4864   3.781   2.174   3.883 -2.2113 -1.7740  2.0666
 1620TIP3   OH2 4865   3.251   4.020   3.930 -0.5264  0.0354  0.1595
 1620TIP3    H1 4866   3.166   4.057   3.907  0.4149  2.0262 -0.2780
 1620TIP3    H2 4867   3.312   4.055   3.864  1.2436  1.4540  2.3987
 1621TIP3   OH2 4868   2.773   2.155   4.155 -0.1985 -0.0456 -0.3649
 1621TIP3    H1 4869   2.725   2.236   4.173 -0.7451 -0.0898 -1.5197
 1621TIP3    H2 4870   2.825   2.140   4.234 -1.1527  0.6652  0.4213
 1622TIP3   OH2 4871   2.215   2.350   2.938 -0.6767  0.1415  0.2589
 1622TIP3    H1 4872   2.185   2.259   2.933 -0.7017  0.2126 -1.5126
 1622TIP3    H2 4873   2.265   2.354   3.019 -0.9447 -1.3698  0.5328
 1623TIP3   OH2 4874   2.961   1.824   3.429 -0.1172  0.0157 -0.3671
 1623TIP3    H1 4875   3.016   1.899   3.451  0.5339 -0.3931 -0.5511
 1623TIP3    H2 4876   3.003   1.786   3.351 -1.5294  0.5844 -1.4565
 1624TIP3   OH2 4877   4.992   4.450   0.667  0.3836  0.5040 -0.0508
 1624TIP3    H1 4878   5.002   4.388   0.738 -0.3222  3.2926  2.7195
 1624TIP3    H2 4879   5.080   4.461   0.631  1.1200  0.3138  1.6033
 1625TIP3   OH2 4880   4.841   0.035   0.723  0.3413 -0.0744 -0.3157
 1625TIP3    H1 4881   4.829  -0.044   0.671  1.5046 -0.5212  0.0686
 1625TIP3    H2 4882   4.925   0.071   0.693  0.2830  0.4950  0.1768
 1626TIP3   OH2 4883   3.032   3.225   5.135  0.4341  0.2385 -0.4192
 1626TIP3    H1 4884   3.077   3.143   5.152  1.1632  1.0532  2.1377
 1626TIP3    H2 4885   3.101   3.291   5.137 -0.4034  1.1358 -0.2018
 1627TIP3   OH2 4886   4.505   5.396   0.874 -0.1650 -0.1373 -0.3165
 1627TIP3    H1 4887   4.563   5.409   0.949  1.2931 -1.0089 -1.2506
 1627TIP3    H2 4888   4.437   5.462   0.886  0.0076 -0.2533  1.7696
 1628TIP3   OH2 4889   5.284   4.530   3.726 -0.0479  0.3895  0.6328
 1628TIP3    H1 4890   5.297   4.506   3.818 -0.1818  0.6162  0.7101
 1628TIP3    H2 4891   5.349   4.599   3.710  0.3868 -0.0669  0.3887
 1629TIP3   OH2 4892   5.208   2.725   4.089 -0.2044  0.1582 -0.2490
 1629TIP3    H1 4893   5.131   2.696   4.138 -0.0755 -0.0930 -0.1930
 1629TIP3    H2 4894   5.210   2.668   4.012  0.2276 -0.1952  0.0199
 1630TIP3   OH2 4895   0.372   5.524   0.625  0.1378  0.5356 -0.2398
 1630TIP3    H1 4896   0.280   5.505   0.605 -0.0706  1.2913 -0.0368
 1630TIP3    H2 4897   0.389   5.607   0.580  0.8304  0.2178 -0.5709
 1631TIP3   OH2 4898   4.252   5.874   2.980  0.1243 -0.0121 -0.5038
 1631TIP3    H1 4899   4.167   5.841   3.009  0.3325  0.6902  0.9896
 1631TIP3    H2 4900   4.231   5.952   2.929 -0.1694 -0.3826 -0.9603
 1632TIP3   OH2 4901   2.598   5.627   2.670 -0.1400  0.1264 -0.2030
 1632TIP3    H1 4902   2.506   5.655   2.674 -0.3237 -0.3428 -0.9726
 1632TIP3    H2 4903   2.605   5.580   2.587  0.1462 -2.1171  1.0167
 1633TIP3   OH2 4904   1.928   5.083   1.381 -0.1274 -0.1873  0.0930
 1633TIP3    H1 4905   1.902   5.174   1.392  0.7335  0.1094 -0.2766
 1633TIP3    H2 4906   1.878   5.036   1.448 -0.9627  0.4741 -0.0431
 1634TIP3   OH2 4907   2.285   2.629   2.970 -0.4624 -0.3139  0.4207
 1634TIP3    H1 4908   2.235   2.548   2.965 -1.6490  0.0438  4.0032
 1634TIP3    H2 4909   2.282   2.654   3.062 -0.5218  4.0473 -0.5509
 1635TIP3   OH2 4910   1.354   2.605   3.400  0.0962  0.3504 -0.0037
 1635TIP3    H1 4911   1.375   2.555   3.479  0.3115  0.8517  0.2630
 1635TIP3    H2 4912   1.277   2.657   3.425  0.2365  0.5981 -0.0810
 1636TIP3   OH2 4913   5.281   3.675   2.453  0.0975  0.8149  0.1295
 1636TIP3    H1 4914   5.272   3.633   2.368 -0.5910  0.0261  0.5802
 1636TIP3    H2 4915   5.337   3.751   2.437 -1.3083  1.5960 -1.3327
 1637TIP3   OH2 4916   3.666   0.352   1.061 -0.7435 -0.4060  0.1371
 1637TIP3    H1 4917   3.630   0.269   1.030  0.5217 -1.8400  2.2936
 1637TIP3    H2 4918   3.759   0.347   1.043 -0.6028  0.4219  0.5631
 1638TIP3   OH2 4919   5.988   5.324   2.809  0.1798 -0.4056 -0.2016
 1638TIP3    H1 4920   5.958   5.372   2.886  1.1674  0.8069 -0.5401
 1638TIP3    H2 4921   6.044   5.255   2.843  2.1707  1.2610  0.1705
 1639TIP3   OH2 4922   0.917   3.656   2.706 -0.5599  0.2320  0.8252
 1639TIP3    H1 4923   0.976   3.581   2.695 -0.6751  0.3886 -1.2842
 1639TIP3    H2 4924   0.974   3.733   2.694 -0.8588  0.4120  0.5193
 1640TIP3   OH2 4925   3.781   1.723   2.286  0.4858  0.1945 -0.0079
 1640TIP3    H1 4926   3.856   1.668   2.310  0.4720  0.5594  0.9174
 1640TIP3    H2 4927   3.725   1.723   2.364  0.0714  0.8267 -0.2984
 1641TIP3   OH2 4928   2.472   0.877   3.831  0.6239  0.1163  0.1379
 1641TIP3    H1 4929   2.538   0.916   3.889  1.0863  1.9123 -1.4851
 1641TIP3    H2 4930   2.448   0.795   3.874  2.2612  0.4918  1.9228
 1642TIP3   OH2 4931   4.653   0.877   1.292 -0.4892 -0.0600  0.0323
 1642TIP3    H1 4932   4.701   0.811   1.341  1.1988  0.8050 -0.3752
 1642TIP3    H2 4933   4.721   0.931   1.251 -1.8097  0.0019 -2.2504
 1643TIP3   OH2 4934   0.676   4.920   3.282  0.1412 -0.3361 -0.0446
 1643TIP3    H1 4935   0.711   4.877   3.361  0.6290 -0.3023 -0.2404
 1643TIP3    H2 4936   0.638   4.849   3.231 -2.6665 -0.0565  1.4601
 1644TIP3   OH2 4937   1.576   3.930   0.239  0.8318  0.5626  0.1861
 1644TIP3    H1 4938   1.524   3.905   0.162 -0.5237 -1.4171  1.6533
 1644TIP3    H2 4939   1.658   3.882   0.229  0.6128  0.2153  0.0306
 1645TIP3   OH2 4940   5.065   3.749   3.340  0.0969 -0.3386  0.3009
 1645TIP3    H1 4941   5.074   3.811   3.413  0.9182  0.0908 -0.1464
 1645TIP3    H2 4942   5.045   3.804   3.264 -2.0805 -0.8938  0.4148
 1646TIP3   OH2 4943   5.592   1.146   5.151 -0.0633  0.4580 -0.1554
 1646TIP3    H1 4944   5.550   1.188   5.226  2.2375  0.1576  1.4147
 1646TIP3    H2 4945   5.648   1.214   5.113  0.6096 -0.0391 -0.0846
 1647TIP3   OH2 4946   2.595   2.634   2.568 -0.7511  0.2905 -0.0107
 1647TIP3    H1 4947   2.689   2.653   2.576 -0.2280 -1.8870 -0.3029
 1647TIP3    H2 4948   2.570   2.604   2.656 -0.7309 -0.7801 -0.3543
 1648TIP3   OH2 4949   5.209   2.967   2.270  0.4859 -0.3671  0.0838
 1648TIP3    H1 4950   5.139   2.938   2.328  0.3796  0.2710  0.2928
 1648TIP3    H2 4951   5.187   2.930   2.184 -1.0971  1.2318 -0.2740
 1649TIP3   OH2 4952   6.333   2.029   1.071 -0.3910  0.0177 -0.1422
 1649TIP3    H1 4953   6.394   1.991   1.008 -0.6827 -1.9497  0.6867
 1649TIP3    H2 4954   6.251   1.981   1.057 -0.5150 -0.3309  1.5735
 1650TIP3   OH2 4955   2.280   2.693   3.236  0.3518 -0.6830 -0.4493
 1650TIP3    H1 4956   2.312   2.624   3.295 -2.0042 -0.0889  1.7118
 1650TIP3    H2 4957   2.229   2.751   3.293  1.4771  2.3975 -2.3424
 1651TIP3   OH2 4958   0.792   5.137   0.543 -0.1120 -0.6226 -0.5548
 1651TIP3    H1 4959   0.809   5.095   0.627 -1.3669 -1.5027 -0.7239
 1651TIP3    H2 4960   0.715   5.191   0.558 -2.2681 -3.1440 -1.8499
 1652TIP3   OH2 4961   5.960   0.298   4.156  0.2865 -0.6662  0.5703
 1652TIP3    H1 4962   6.025   0.341   4.211  0.5139  0.7678 -0.7434
 1652TIP3    H2 4963   5.940   0.362   4.088 -1.3735 -1.6579  0.0591
 1653TIP3   OH2 4964   4.145   0.849   3.612 -0.1890 -0.3120  0.0643
 1653TIP3    H1 4965   4.151   0.754   3.622  1.3548 -0.4364 -1.4823
 1653TIP3    H2 4966   4.203   0.884   3.680 -0.6905 -0.4591  0.5779
 1654TIP3   OH2 4967   3.317   3.277   4.545  0.7999 -0.6927  0.9617
 1654TIP3    H1 4968   3.335   3.194   4.589  1.6751 -1.3804 -0.6446
 1654TIP3    H2 4969   3.397   3.328   4.557  0.1453  0.1055  2.2378
 1655TIP3   OH2 4970   1.009   1.125   4.709 -0.8306  0.6032 -0.2539
 1655TIP3    H1 4971   1.022   1.157   4.798  1.1091  1.0859 -0.6675
 1655TIP3    H2 4972   1.020   1.201   4.653 -0.4651  0.0217 -1.0005
 1656TIP3   OH2 4973   1.287   1.665   3.073 -0.6159 -0.1606 -0.2135
 1656TIP3    H1 4974   1.268   1.616   3.152  0.7888 -1.4690 -0.6386
 1656TIP3    H2 4975   1.319   1.750   3.104  1.7496 -1.3150  0.7449
 1657TIP3   OH2 4976   0.963   0.226   2.394  0.0073 -0.4080 -0.1338
 1657TIP3    H1 4977   1.006   0.242   2.310 -0.0935 -2.6848 -0.6751
 1657TIP3    H2 4978   1.036   0.218   2.456  0.0863  1.1317  0.0303
 1658TIP3   OH2 4979   4.760   3.801   1.947  1.0263 -0.1075 -0.1962
 1658TIP3    H1 4980   4.691   3.851   1.902 -0.3049 -3.2015 -1.8713
 1658TIP3    H2 4981   4.725   3.786   2.035  1.1088  1.1740  0.0760
 1659TIP3   OH2 4982   3.263   2.605   2.590 -0.2952  0.1136  0.1254
 1659TIP3    H1 4983   3.264   2.613   2.685  0.8697  0.9932  0.0670
 1659TIP3    H2 4984   3.337   2.659   2.561  1.2021 -2.4323 -1.1138
 1660TIP3   OH2 4985   3.343   2.482   4.387 -0.3371  0.1375 -0.0543
 1660TIP3    H1 4986   3.430   2.444   4.396 -1.1919 -2.4205 -1.6049
 1660TIP3    H2 4987   3.298   2.459   4.469  0.6353  2.2703  1.1584
 1661TIP3   OH2 4988   0.372   0.903   0.493 -0.1694 -0.2324 -0.4097
 1661TIP3    H1 4989   0.300   0.928   0.550  0.4251 -1.3047  0.8594
 1661TIP3    H2 4990   0.350   0.942   0.408 -2.3515 -0.7471 -0.1363
 1662TIP3   OH2 4991   1.695   2.719   3.332 -0.2132  0.1381 -0.6903
 1662TIP3    H1 4992   1.704   2.774   3.410 -0.0529 -0.2030 -0.4620
 1662TIP3    H2 4993   1.614   2.670   3.347  0.7929 -1.3604  0.2010
 1663TIP3   OH2 4994   5.484   0.531   5.047  0.2373 -0.1905  0.3155
 1663TIP3    H1 4995   5.526   0.612   5.019  0.2427  0.3047  1.6912
 1663TIP3    H2 4996   5.403   0.559   5.088 -0.6584 -1.0290 -0.8127
 1664TIP3   OH2 4997   4.971   2.565   2.302 -0.4926 -0.4155  0.4877
 1664TIP3    H1 4998   4.962   2.496   2.367 -0.6769 -0.2937  0.5932
 1664TIP3    H2 4999   4.885   2.570   2.260 -0.0975 -1.1380 -0.4202
 1665TIP3   OH2 5000   2.615   2.797   0.892  0.2983  0.8949 -0.6478
 1665TIP3    H1 5001   2.613   2.888   0.863  0.8451  0.5394 -1.8927
 1665TIP3    H2 5002   2.651   2.800   0.980  0.8566  1.8446 -0.8984
 1666TIP3   OH2 5003   5.778   5.202   1.267  0.4545 -0.3653  0.3144
 1666TIP3    H1 5004   5.830   5.219   1.345  2.0250 -0.3773 -0.6921
 1666TIP3    H2 5005   5.815   5.259   1.200 -1.6212  0.5251 -0.1605
 1667TIP3   OH2 5006   2.256   4.454   0.058  0.1830 -0.3230 -0.1933
 1667TIP3    H1 5007   2.320   4.461   0.129 -1.4609 -1.1551  1.4565
 1667TIP3    H2 5008   2.197   4.384   0.086 -1.5070  0.4658 -1.5945
 1668TIP3   OH2 5009   4.557   3.363   1.335 -0.0701 -0.2582 -0.2411
 1668TIP3    H1 5010   4.614   3.344   1.260 -0.2749  1.2253 -0.8043
 1668TIP3    H2 5011   4.563   3.458   1.346 -0.1312 -0.4260  1.5699
 1669TIP3   OH2 5012   6.324   3.403   3.384  0.3682 -0.2337  0.1503
 1669TIP3    H1 5013   6.276   3.455   3.319 -1.2715  0.1175  1.5735
 1669TIP3    H2 5014   6.309   3.312   3.356 -1.0990 -0.1303  0.4941
 1670TIP3   OH2 5015   1.605   4.905   1.324  0.4426 -0.4083  0.3081
 1670TIP3    H1 5016   1.616   5.000   1.324  0.6847 -0.4369 -0.3183
 1670TIP3    H2 5017   1.551   4.886   1.248  1.0435 -0.8482 -0.0153
 1671TIP3   OH2 5018   2.251   1.065   2.602 -0.5569  0.3317 -0.1175
 1671TIP3    H1 5019   2.177   1.048   2.543  0.8681 -1.3366 -1.5668
 1671TIP3    H2 5020   2.210   1.095   2.683 -3.1008 -3.0384  0.1166
 1672TIP3   OH2 5021   4.556   1.671   2.849  0.3309 -0.2089 -0.3261
 1672TIP3    H1 5022   4.479   1.692   2.796  2.1000  3.1400 -1.8787
 1672TIP3    H2 5023   4.548   1.725   2.927  0.8458 -0.2661 -0.2303
 1673TIP3   OH2 5024   5.163   2.340   0.606 -0.1888 -0.5220  0.6110
 1673TIP3    H1 5025   5.212   2.378   0.679 -2.3586  1.1061  1.3301
 1673TIP3    H2 5026   5.140   2.252   0.635 -0.7192 -0.0238  1.7924
 1674TIP3   OH2 5027   3.431   5.891   1.698 -0.0742 -0.2705  0.2074
 1674TIP3    H1 5028   3.463   5.962   1.644  0.2537 -0.2252  0.4588
 1674TIP3    H2 5029   3.477   5.813   1.667  0.9743 -0.0526  1.1666
 1675TIP3   OH2 5030   1.190   1.910   4.757  0.1659 -0.2507 -0.4935
 1675TIP3    H1 5031   1.127   1.879   4.692  0.3554  0.0061 -0.8029
 1675TIP3    H2 5032   1.275   1.904   4.713  0.3641 -0.6519 -0.0585
 1676TIP3   OH2 5033   6.254   4.725   1.931  0.0854 -0.4796 -0.3706
 1676TIP3    H1 5034   6.254   4.743   2.025  0.5219  0.3358 -0.5168
 1676TIP3    H2 5035   6.214   4.803   1.893 -0.4238 -0.9607 -0.8417
 1677TIP3   OH2 5036   3.650   5.291   0.735 -0.0094  0.5111 -0.2784
 1677TIP3    H1 5037   3.618   5.321   0.649 -0.1398 -0.5789 -0.6213
 1677TIP3    H2 5038   3.583   5.320   0.796  0.2034  1.5165 -0.5037
 1678TIP3   OH2 5039   4.107   1.202   2.935 -0.0601  0.4925  0.1289
 1678TIP3    H1 5040   4.181   1.246   2.976  0.7774 -1.1077  0.4468
 1678TIP3    H2 5041   4.073   1.144   3.004 -0.8453  0.3178 -0.3882
 1679TIP3   OH2 5042   3.855   5.514   1.051 -0.2314  0.5074  0.2291
 1679TIP3    H1 5043   3.776   5.520   0.997  0.7530  0.9942 -1.2179
 1679TIP3    H2 5044   3.852   5.426   1.087 -1.0554  0.2458 -0.4270
 1680TIP3   OH2 5045   0.655   4.396   1.846  0.2859 -0.1618 -0.3102
 1680TIP3    H1 5046   0.703   4.437   1.918 -1.1674  1.6734 -0.3219
 1680TIP3    H2 5047   0.686   4.440   1.767 -1.3036  0.9973 -0.3242
 1681TIP3   OH2 5048   5.640   4.624   4.038 -0.5426 -0.1618  0.1690
 1681TIP3    H1 5049   5.681   4.541   4.012  2.3818  0.7258  1.5508
 1681TIP3    H2 5050   5.634   4.618   4.133 -1.8467  0.5760  0.1429
 1682TIP3   OH2 5051   2.779   0.448   0.984  0.0950 -0.7659 -0.0071
 1682TIP3    H1 5052   2.871   0.472   0.970 -0.0119 -0.3051  0.0713
 1682TIP3    H2 5053   2.778   0.405   1.069 -0.0123  0.6815  0.7614
 1683TIP3   OH2 5054   4.868   3.636   4.516 -0.0579  0.1015 -0.1678
 1683TIP3    H1 5055   4.781   3.672   4.504 -0.5696 -0.8063  0.6480
 1683TIP3    H2 5056   4.924   3.711   4.535 -0.7087  0.6571 -0.4408
 1684TIP3   OH2 5057   3.201   4.364   3.176 -0.0102 -0.0412  0.3264
 1684TIP3    H1 5058   3.194   4.305   3.251  2.5742  1.6939  2.0725
 1684TIP3    H2 5059   3.195   4.307   3.100 -1.4416 -2.0221  1.8158
 1685TIP3   OH2 5060   3.361   4.829   4.660 -0.4427  0.2608  0.4520
 1685TIP3    H1 5061   3.341   4.791   4.746 -0.0857  1.1407  0.9326
 1685TIP3    H2 5062   3.297   4.789   4.601 -0.4266 -0.6761  1.0395
 1686TIP3   OH2 5063   0.739   3.959   2.272 -0.1680 -0.2585  0.4018
 1686TIP3    H1 5064   0.730   4.037   2.218  1.7402  2.3529  3.4630
 1686TIP3    H2 5065   0.763   3.890   2.211 -1.3332  1.6125 -2.4000
 1687TIP3   OH2 5066   0.565   1.453   0.304 -0.3436  0.3091 -0.1186
 1687TIP3    H1 5067   0.639   1.450   0.365  0.5273  0.6113 -1.1133
 1687TIP3    H2 5068   0.513   1.376   0.326  0.5324 -0.1893  0.3050
 1688TIP3   OH2 5069   5.799   1.071   4.432  0.0414 -0.4560  0.4217
 1688TIP3    H1 5070   5.746   0.992   4.442  1.2326 -1.5942 -1.6956
 1688TIP3    H2 5071   5.885   1.046   4.466 -0.3077  0.9190  2.4827
 1689TIP3   OH2 5072   1.037   1.475   3.038 -0.0334  0.1978  0.7286
 1689TIP3    H1 5073   1.012   1.565   3.016  1.2542  0.4193  0.1465
 1689TIP3    H2 5074   1.033   1.428   2.955  1.1586  0.1709  0.6735
 1690TIP3   OH2 5075   4.914   1.095   4.063  0.8141 -0.3819  0.0291
 1690TIP3    H1 5076   4.856   1.117   3.990 -0.6350  1.4433  1.5956
 1690TIP3    H2 5077   5.002   1.104   4.028  0.2068  2.6711 -1.0119
 1691TIP3   OH2 5078   3.648   1.040   4.910  0.8890 -0.4789  0.2365
 1691TIP3    H1 5079   3.662   1.121   4.861  0.9320 -0.6668 -0.0655
 1691TIP3    H2 5080   3.570   1.058   4.963  1.2377 -0.0405  0.6083
 1692TIP3   OH2 5081   6.213   4.546   0.876 -0.3784 -0.5687 -0.0820
 1692TIP3    H1 5082   6.157   4.472   0.857  0.0581 -0.5099 -1.7728
 1692TIP3    H2 5083   6.277   4.513   0.939 -1.1014 -1.1796  0.3439
 1693TIP3   OH2 5084   1.225   4.698   3.182 -0.0898 -0.6413  0.2335
 1693TIP3    H1 5085   1.232   4.603   3.192 -1.6648 -0.6541  1.7414
 1693TIP3    H2 5086   1.132   4.717   3.193  0.1647  1.0630 -0.2248
 1694TIP3   OH2 5087   1.655   2.085   4.074 -0.1369 -0.0937 -0.0338
 1694TIP3    H1 5088   1.608   2.123   4.148  0.8300  0.7517  0.1647
 1694TIP3    H2 5089   1.627   2.138   3.999  1.4960  1.3114  0.3027
 1695TIP3   OH2 5090   3.737   5.719   4.962 -0.3354 -0.3861  0.0924
 1695TIP3    H1 5091   3.755   5.677   4.878 -2.1074 -0.7392 -0.1418
 1695TIP3    H2 5092   3.732   5.647   5.025 -3.2527 -0.6517 -0.2890
 1696TIP3   OH2 5093   0.459   2.247   4.545  0.1978 -0.0635  0.4586
 1696TIP3    H1 5094   0.534   2.206   4.588 -0.4818 -1.5997  0.2407
 1696TIP3    H2 5095   0.471   2.341   4.562  2.8179 -0.1080 -0.6213
 1697TIP3   OH2 5096   4.595   1.085   4.914 -0.1441  0.0978 -0.1848
 1697TIP3    H1 5097   4.583   1.173   4.879 -3.0562  0.3611  1.1170
 1697TIP3    H2 5098   4.506   1.049   4.918  0.8162 -2.4056  0.5927
 1698TIP3   OH2 5099   4.148   2.801   5.132 -0.2578  0.2563 -0.1264
 1698TIP3    H1 5100   4.112   2.793   5.043 -2.1663 -2.0546  0.7504
 1698TIP3    H2 5101   4.090   2.863   5.176 -0.5572 -0.1562  0.0658
 1699TIP3   OH2 5102   5.571   5.323   0.849 -0.0591  0.3705 -0.6334
 1699TIP3    H1 5103   5.638   5.385   0.821  0.3918  0.2763  0.2166
 1699TIP3    H2 5104   5.530   5.364   0.925  0.7341 -0.6779  0.3897
 1700TIP3   OH2 5105   4.261   4.600   1.082  0.0608  0.4465  0.1513
 1700TIP3    H1 5106   4.237   4.693   1.076 -2.1559 -0.0275  0.7348
 1700TIP3    H2 5107   4.203   4.556   1.020  0.8297 -0.5991  0.1458
 1701TIP3   OH2 5108   5.769   0.184   3.503 -0.5109  0.1540 -0.1635
 1701TIP3    H1 5109   5.679   0.171   3.533 -0.2153 -0.7190  0.3813
 1701TIP3    H2 5110   5.783   0.116   3.438 -0.6856  1.1628 -1.2944
 1702TIP3   OH2 5111   4.241   4.062   1.719 -0.3294 -0.0119  0.0892
 1702TIP3    H1 5112   4.288   4.100   1.645  0.9780  0.7674  1.2655
 1702TIP3    H2 5113   4.160   4.112   1.725  1.0511  2.2695  1.1804
 1703TIP3   OH2 5114   1.756   2.627   1.683  0.0852 -0.5117 -0.1253
 1703TIP3    H1 5115   1.669   2.620   1.722 -0.7893 -0.5853 -1.9682
 1703TIP3    H2 5116   1.746   2.693   1.614  1.6395 -0.1216 -0.0158
 1704TIP3   OH2 5117   2.872   1.903   4.073  0.4572  0.1852 -0.7971
 1704TIP3    H1 5118   2.867   1.910   3.977  0.7867  1.1671 -0.7591
 1704TIP3    H2 5119   2.830   1.983   4.104 -1.7279 -1.1614 -0.0375
 1705TIP3   OH2 5120   3.863   3.024   4.984 -0.2115 -0.1399  0.0346
 1705TIP3    H1 5121   3.801   3.091   4.954 -1.7119 -0.5201  2.0316
 1705TIP3    H2 5122   3.948   3.057   4.956 -1.0260  1.8924 -0.3069
 1706TIP3   OH2 5123   3.023   0.264   4.511 -0.5036  0.6862  0.3001
 1706TIP3    H1 5124   3.053   0.206   4.442 -0.3287  2.4592 -1.1923
 1706TIP3    H2 5125   3.035   0.214   4.592  1.3162 -0.6637 -0.7427
 1707TIP3   OH2 5126   0.513   2.123   4.955  0.5807  0.1484  0.4339
 1707TIP3    H1 5127   0.528   2.050   4.895 -1.3048  0.4697 -0.5149
 1707TIP3    H2 5128   0.571   2.192   4.922 -0.0874  0.1631 -0.7820
 1708TIP3   OH2 5129   2.907   0.797   1.540  0.4331  0.1544 -0.6787
 1708TIP3    H1 5130   2.983   0.746   1.511  0.9321  1.0363 -0.9633
 1708TIP3    H2 5131   2.911   0.877   1.489 -1.7921 -0.5575 -2.0990
 1709TIP3   OH2 5132   6.334   2.136   4.217  0.2140 -0.5574 -0.6118
 1709TIP3    H1 5133   6.348   2.043   4.236 -0.5304 -0.4037  0.8910
 1709TIP3    H2 5134   6.320   2.175   4.304 -0.6605  0.7494 -1.3168
 1710TIP3   OH2 5135   0.492   0.686   1.131 -0.3071  0.0364 -0.1030
 1710TIP3    H1 5136   0.541   0.767   1.147  2.5297 -1.5446 -0.1775
 1710TIP3    H2 5137   0.421   0.688   1.196  1.4764  1.1925  1.9567
 1711TIP3   OH2 5138   2.626   3.635   0.200 -0.2208  0.2445 -0.3597
 1711TIP3    H1 5139   2.665   3.645   0.286 -2.1131 -1.7450  0.8335
 1711TIP3    H2 5140   2.559   3.703   0.196  1.6162  2.1014 -1.4455
 1712TIP3   OH2 5141   2.455   3.650   4.164 -0.3861 -0.7365 -0.2685
 1712TIP3    H1 5142   2.519   3.654   4.092  0.2825  0.2681  0.3532
 1712TIP3    H2 5143   2.410   3.567   4.151  1.0604 -1.4840 -0.7253
 1713TIP3   OH2 5144   2.804   3.146   0.730 -0.6306 -0.2593  0.3959
 1713TIP3    H1 5145   2.832   3.237   0.737  0.4686 -0.4491 -1.1539
 1713TIP3    H2 5146   2.878   3.101   0.690 -1.8303 -1.4940 -0.5180
 1714TIP3   OH2 5147   2.688   0.646   2.948 -0.5993 -0.1529  0.3719
 1714TIP3    H1 5148   2.713   0.738   2.939 -0.7509 -0.0647  0.8138
 1714TIP3    H2 5149   2.677   0.615   2.858  1.2744 -0.2586  0.1433
 1715TIP3   OH2 5150   0.045   1.605   2.541  0.0802 -0.0866  0.4277
 1715TIP3    H1 5151   0.025   1.695   2.565 -2.5856 -0.1336 -1.2460
 1715TIP3    H2 5152  -0.029   1.554   2.574  1.6420 -1.7797  1.5513
 1716TIP3   OH2 5153   4.876   5.233   3.545 -0.2383  0.1103 -0.2756
 1716TIP3    H1 5154   4.832   5.153   3.515 -1.2361  0.7637 -0.5691
 1716TIP3    H2 5155   4.878   5.225   3.640 -2.1018  0.6377 -0.1700
 1717TIP3   OH2 5156   6.044   5.139   0.301 -0.1167 -0.6698 -0.1204
 1717TIP3    H1 5157   5.955   5.137   0.336 -0.2289 -1.5895 -0.4570
 1717TIP3    H2 5158   6.036   5.107   0.211  0.0848  2.1795 -1.2654
 1718TIP3   OH2 5159   3.003   1.004   1.398  0.2076 -0.4704 -0.0763
 1718TIP3    H1 5160   2.997   1.095   1.425  0.6940  0.0735 -1.7574
 1718TIP3    H2 5161   3.070   1.002   1.331 -1.0274 -1.7558 -1.3448
 1719TIP3   OH2 5162   5.871   4.100   2.186  0.0505  0.3739 -0.2572
 1719TIP3    H1 5163   5.950   4.147   2.214  0.0953 -0.7885  1.7640
 1719TIP3    H2 5164   5.811   4.109   2.260  0.8028 -4.3512  1.2133
 1720TIP3   OH2 5165   0.243   5.952   3.090  0.1766  0.3923 -0.5546
 1720TIP3    H1 5166   0.269   5.863   3.067  2.7459  0.8792  0.1983
 1720TIP3    H2 5167   0.273   6.006   3.017 -0.2010  0.8109 -0.4059
 1721TIP3   OH2 5168   4.163   0.646   3.055 -0.0353  0.0234 -0.0324
 1721TIP3    H1 5169   4.244   0.596   3.057 -1.1754 -2.0134 -1.0420
 1721TIP3    H2 5170   4.190   0.736   3.068  2.4211 -0.5336 -0.7065
 1722TIP3   OH2 5171   2.230   3.418   0.777 -0.3914  0.3640  0.1582
 1722TIP3    H1 5172   2.140   3.386   0.773 -0.0604 -0.5567 -0.2704
 1722TIP3    H2 5173   2.225   3.499   0.829 -1.2764 -0.3419  1.2175
 1723TIP3   OH2 5174   3.159   0.404   2.155  0.7432  0.2954 -0.0477
 1723TIP3    H1 5175   3.209   0.335   2.198  1.5502  0.3214 -0.9039
 1723TIP3    H2 5176   3.068   0.375   2.160  0.7929  0.3728  1.7651
 1724TIP3   OH2 5177   4.773   4.791   0.904  0.1880  0.5399 -0.0683
 1724TIP3    H1 5178   4.812   4.834   0.980 -0.2272  3.2769 -1.2744
 1724TIP3    H2 5179   4.838   4.801   0.835 -1.0073  1.7283 -1.0838
 1725TIP3   OH2 5180   2.994   1.671   2.225 -0.1591 -0.0667 -0.3649
 1725TIP3    H1 5181   3.064   1.703   2.282 -0.2922  0.5380 -0.5368
 1725TIP3    H2 5182   2.990   1.577   2.243  0.1981  0.0178  0.1859
 1726TIP3   OH2 5183   1.798   1.225   2.287  0.1295  0.5969 -0.0536
 1726TIP3    H1 5184   1.862   1.254   2.352  2.5042 -1.7831 -1.1862
 1726TIP3    H2 5185   1.715   1.227   2.334  1.4881  0.5662  2.5411
 1727TIP3   OH2 5186   3.617   4.120   1.257 -0.2047 -0.0073  0.6148
 1727TIP3    H1 5187   3.617   4.208   1.295  0.4144  1.5057 -2.5838
 1727TIP3    H2 5188   3.704   4.086   1.277 -0.6332 -0.1721  2.3422
 1728TIP3   OH2 5189   1.492   3.544   4.752  0.9100  0.3479 -0.1233
 1728TIP3    H1 5190   1.557   3.491   4.799  2.6065  0.4100 -2.2544
 1728TIP3    H2 5191   1.540   3.621   4.723 -0.3237  0.7918 -1.0842
 1729TIP3   OH2 5192   5.710   0.237   0.349  0.1067  1.3449  0.4832
 1729TIP3    H1 5193   5.652   0.165   0.375 -0.4667  0.7857 -2.0396
 1729TIP3    H2 5194   5.796   0.196   0.342 -0.6839 -0.1853 -4.0617
 1730TIP3   OH2 5195   6.167   2.909   3.041  0.0416 -0.0616 -0.6872
 1730TIP3    H1 5196   6.091   2.949   3.083  1.7867  1.9097  0.8252
 1730TIP3    H2 5197   6.210   2.860   3.111  1.1665  0.4415 -0.9981
 1731TIP3   OH2 5198   0.111   0.762   3.168  0.1813  0.5319 -0.1719
 1731TIP3    H1 5199   0.181   0.714   3.125 -0.1299 -0.6634  0.6081
 1731TIP3    H2 5200   0.119   0.739   3.260 -1.3678  0.1764 -0.0931
 1732TIP3   OH2 5201   0.204   1.107   3.835  0.1484  0.2220 -0.2303
 1732TIP3    H1 5202   0.164   1.054   3.904  0.2294 -1.4424 -1.4075
 1732TIP3    H2 5203   0.278   1.150   3.879 -0.3318 -0.0950  0.9267
 1733TIP3   OH2 5204   6.368   1.870   0.446  0.3969 -0.1319  0.5706
 1733TIP3    H1 5205   6.275   1.849   0.447  0.3630  0.0196  0.5625
 1733TIP3    H2 5206   6.385   1.903   0.357  0.4283 -0.0223  0.6174
 1734TIP3   OH2 5207   2.740   1.437   2.594  0.1218 -0.2090  0.3813
 1734TIP3    H1 5208   2.809   1.485   2.549  0.2475 -0.6121  0.1432
 1734TIP3    H2 5209   2.774   1.423   2.683 -1.0169  2.5217  1.3370
 1735TIP3   OH2 5210   6.180   5.513   3.639  0.1896 -0.3543  0.6857
 1735TIP3    H1 5211   6.134   5.597   3.648 -0.3163 -0.4501 -0.7515
 1735TIP3    H2 5212   6.261   5.525   3.689  0.0943  0.9690  0.5688
 1736TIP3   OH2 5213   4.892   5.422   1.194 -0.4307 -0.4572  0.0131
 1736TIP3    H1 5214   4.885   5.474   1.114  2.0204 -0.3292 -0.2007
 1736TIP3    H2 5215   4.900   5.487   1.264 -0.4647 -0.5583  0.1118
 1737TIP3   OH2 5216   6.258   0.820   3.764 -0.1808  0.1316  0.3637
 1737TIP3    H1 5217   6.203   0.896   3.782 -0.2582 -0.0078  0.7162
 1737TIP3    H2 5218   6.211   0.773   3.695 -0.4320  0.0890  0.5636
 1738TIP3   OH2 5219   5.601   3.055   1.478 -0.0938  0.2442 -0.0216
 1738TIP3    H1 5220   5.670   3.118   1.456  0.2464 -0.0284  0.2481
 1738TIP3    H2 5221   5.530   3.109   1.512  0.6779  0.4168  1.4279
 1739TIP3   OH2 5222   5.444   3.655   3.254  0.4701 -0.1635 -0.6535
 1739TIP3    H1 5223   5.455   3.728   3.314 -1.3143  0.1448 -0.6315
 1739TIP3    H2 5224   5.381   3.686   3.189 -4.0787 -2.9445  1.8862
 1740TIP3   OH2 5225   3.381   1.563   1.345 -0.3316 -0.2719 -0.4628
 1740TIP3    H1 5226   3.330   1.641   1.365  0.1917  0.1405 -0.7384
 1740TIP3    H2 5227   3.441   1.590   1.276  0.5524 -0.6388  0.1574
 1741TIP3   OH2 5228   2.970   0.358   3.851 -0.5593  0.4114 -0.6636
 1741TIP3    H1 5229   3.012   0.393   3.772  0.1350  0.6490 -0.1971
 1741TIP3    H2 5230   2.949   0.435   3.903  0.7133  0.1859  0.2375
 1742TIP3   OH2 5231   0.784   0.618   1.729 -0.0486 -0.0096 -0.0896
 1742TIP3    H1 5232   0.743   0.657   1.806 -0.3156 -1.3021  0.4350
 1742TIP3    H2 5233   0.876   0.643   1.735 -0.0120 -0.3478  0.7940
 1743TIP3   OH2 5234   2.391   0.680   5.055 -0.1787 -0.3191  0.3346
 1743TIP3    H1 5235   2.424   0.626   4.984 -2.4177 -0.4648 -0.6932
 1743TIP3    H2 5236   2.406   0.629   5.134  0.2794 -1.1786 -0.3010
 1744TIP3   OH2 5237   6.132   1.601   4.314 -0.2292  0.4318  0.0653
 1744TIP3    H1 5238   6.080   1.524   4.292  1.4756 -0.3876 -1.3101
 1744TIP3    H2 5239   6.184   1.575   4.389  1.7727 -0.5099 -1.5629
 1745TIP3   OH2 5240   3.737   0.534   0.481 -0.0497  0.6848  0.1601
 1745TIP3    H1 5241   3.826   0.568   0.477  0.0110  0.6485  1.0873
 1745TIP3    H2 5242   3.703   0.545   0.392  1.3472 -0.5788 -0.5716
 1746TIP3   OH2 5243   3.905   2.410   3.412  0.0225  0.3401  0.1664
 1746TIP3    H1 5244   3.820   2.372   3.436 -0.0521 -1.8976 -3.0745
 1746TIP3    H2 5245   3.894   2.504   3.427 -3.1982  0.1769 -0.4795
 1747TIP3   OH2 5246   3.562   2.059   3.681  0.2580 -0.2450  0.3933
 1747TIP3    H1 5247   3.625   2.088   3.615 -0.4320  0.1000 -0.1174
 1747TIP3    H2 5248   3.596   2.095   3.763  0.7116 -0.0348  0.1191
 1748TIP3   OH2 5249   0.091   0.257   1.109 -0.4797  0.7625  0.0197
 1748TIP3    H1 5250   0.148   0.334   1.114  0.9775 -0.3472  0.8885
 1748TIP3    H2 5251   0.061   0.244   1.198 -0.7181  0.3034 -0.1272
 1749TIP3   OH2 5252   1.352   1.885   4.546  0.1052  0.4169  0.1708
 1749TIP3    H1 5253   1.295   1.934   4.487 -0.6354 -0.7530 -0.1174
 1749TIP3    H2 5254   1.395   1.820   4.489  0.4960  0.2372  0.6619
 1750TIP3   OH2 5255   2.262   1.624   1.146 -0.2534  0.2757 -0.3581
 1750TIP3    H1 5256   2.329   1.691   1.130 -0.5099  0.5076 -0.4835
 1750TIP3    H2 5257   2.202   1.665   1.208 -0.3962  0.1503 -0.4114
 1751TIP3   OH2 5258   2.161   4.683   4.618 -0.0969  0.6561  0.1518
 1751TIP3    H1 5259   2.229   4.751   4.618  0.3303  0.2459  0.8134
 1751TIP3    H2 5260   2.197   4.614   4.562 -0.6161  1.0433 -0.6803
 1752TIP3   OH2 5261   2.789   3.101   1.581 -0.3288  0.4779  0.4155
 1752TIP3    H1 5262   2.703   3.107   1.539  0.1712  2.0899 -0.4519
 1752TIP3    H2 5263   2.787   3.166   1.651  0.3852  0.9765 -0.0128
 1753TIP3   OH2 5264   5.067   3.218   0.182 -0.1182  0.3632  0.1543
 1753TIP3    H1 5265   5.046   3.306   0.150 -0.8908  0.2496  0.3348
 1753TIP3    H2 5266   5.156   3.226   0.217 -0.5298  1.3265  1.0517
 1754TIP3   OH2 5267   0.581   1.376   3.139 -0.4563 -0.7975 -0.5374
 1754TIP3    H1 5268   0.616   1.287   3.152 -0.9034 -0.8732  0.2202
 1754TIP3    H2 5269   0.558   1.379   3.046 -0.5259 -1.5158 -0.5553
 1755TIP3   OH2 5270   2.106   5.400   2.858  0.4083 -0.1185  0.3372
 1755TIP3    H1 5271   2.063   5.322   2.892  1.5074 -1.7764 -1.8646
 1755TIP3    H2 5272   2.116   5.384   2.764  0.8976  2.5808 -0.1642
 1756TIP3   OH2 5273   0.389   2.625   0.090  0.0224  0.1124 -0.3511
 1756TIP3    H1 5274   0.422   2.698   0.037 -3.1693 -0.4605 -3.5607
 1756TIP3    H2 5275   0.433   2.548   0.056 -1.5643 -0.1713 -1.9631
 1757TIP3   OH2 5276   3.662   1.901   4.968  0.1691 -0.0800 -0.3664
 1757TIP3    H1 5277   3.655   1.944   4.883 -0.1949  0.7132  0.0581
 1757TIP3    H2 5278   3.573   1.906   5.004  0.4670  0.1516  0.3333
 1758TIP3   OH2 5279   5.892   5.665   1.066  0.0028 -0.4361  0.8083
 1758TIP3    H1 5280   5.872   5.574   1.045 -2.3311  0.4610 -1.2203
 1758TIP3    H2 5281   5.966   5.687   1.010  0.2521 -0.9212  0.9405
 1759TIP3   OH2 5282   2.074   1.958   1.801  0.4581  0.2821  0.4019
 1759TIP3    H1 5283   2.015   1.886   1.824  0.9467 -0.4510 -0.5704
 1759TIP3    H2 5284   2.118   1.929   1.721  1.3698  1.2614  0.5204
 1760TIP3   OH2 5285   2.273   3.850   4.920 -0.3443  0.8826 -0.1547
 1760TIP3    H1 5286   2.240   3.798   4.847  0.7954 -0.4709  0.2589
 1760TIP3    H2 5287   2.195   3.882   4.964 -1.0747 -0.4688 -0.4353
 1761TIP3   OH2 5288   3.448   5.815   4.997 -0.1095  0.1779  0.4358
 1761TIP3    H1 5289   3.475   5.759   5.070  2.2941  0.2217 -0.3328
 1761TIP3    H2 5290   3.528   5.861   4.971 -1.6883  3.0081  0.1520
 1762TIP3   OH2 5291   6.309   1.639   0.866 -0.0821 -0.2066  0.0179
 1762TIP3    H1 5292   6.258   1.708   0.823 -1.8086 -0.9196  0.8421
 1762TIP3    H2 5293   6.259   1.559   0.851  1.6276 -1.2426 -0.4775
 1763TIP3   OH2 5294   5.743   1.370   2.786 -0.3674  0.2728 -0.4646
 1763TIP3    H1 5295   5.680   1.405   2.723 -1.7965 -0.1636  0.6648
 1763TIP3    H2 5296   5.790   1.447   2.817  0.8320  0.4300 -2.4870
 1764TIP3   OH2 5297   0.357   2.736   4.885 -0.4300 -0.0030  0.0058
 1764TIP3    H1 5298   0.425   2.795   4.853  0.4898 -0.4866  1.0008
 1764TIP3    H2 5299   0.298   2.792   4.935 -0.4082  0.3120 -0.3136
 1765TIP3   OH2 5300   1.565  -0.011   0.422  0.3934 -0.3207 -0.0011
 1765TIP3    H1 5301   1.638  -0.065   0.392  0.2693 -0.7630  0.4883
 1765TIP3    H2 5302   1.596   0.079   0.412  1.4846 -0.5053  1.3926
 1766TIP3   OH2 5303   6.016   1.758   2.305 -0.2199 -0.1367  0.4332
 1766TIP3    H1 5304   5.943   1.808   2.340  0.2604  0.9433 -0.0585
 1766TIP3    H2 5305   6.081   1.759   2.376  0.0350  0.4857  0.1965
 1767TIP3   OH2 5306   2.377   5.149   3.093  0.5071 -0.7174  0.5270
 1767TIP3    H1 5307   2.409   5.180   3.008 -0.8142 -0.7075  0.0162
 1767TIP3    H2 5308   2.407   5.058   3.098  3.0576  0.0699  1.3525
 1768TIP3   OH2 5309   3.039   5.685   4.665  0.3596  0.1034  0.1404
 1768TIP3    H1 5310   3.111   5.662   4.725  0.2671 -0.2392  0.1227
 1768TIP3    H2 5311   3.077   5.750   4.606  0.5896  0.0930  0.2734
 1769TIP3   OH2 5312   2.421   3.367   3.664 -0.1077  0.1352 -0.5280
 1769TIP3    H1 5313   2.441   3.275   3.677  1.1565  0.4117 -0.4224
 1769TIP3    H2 5314   2.441   3.408   3.748 -2.4567  0.2592  0.0584
 1770TIP3   OH2 5315   4.239   4.851   1.743  0.2485  0.0886 -0.2021
 1770TIP3    H1 5316   4.183   4.885   1.813 -1.3336 -0.4786 -1.1258
 1770TIP3    H2 5317   4.179   4.836   1.669  1.7040 -0.1695 -1.3870
 1771TIP3   OH2 5318   1.292   4.621   3.890  0.2406  0.1742  0.0547
 1771TIP3    H1 5319   1.220   4.646   3.948  1.0007  0.3915  0.9259
 1771TIP3    H2 5320   1.368   4.612   3.948  0.8482 -0.3709 -0.7984
 1772TIP3   OH2 5321   1.924   5.412   4.105  0.0429  0.5114 -0.2391
 1772TIP3    H1 5322   1.932   5.341   4.169  0.3979 -0.1830 -1.0325
 1772TIP3    H2 5323   1.979   5.385   4.032 -2.2969  0.0565 -1.9414
 1773TIP3   OH2 5324   3.613   3.953   3.742 -0.0321 -0.2437 -0.2570
 1773TIP3    H1 5325   3.642   3.966   3.651  0.8815 -1.6469 -0.1876
 1773TIP3    H2 5326   3.531   3.904   3.734 -0.6203  0.7347 -0.3482
 1774TIP3   OH2 5327   2.157   0.801   1.865 -0.6019 -0.2697 -0.2407
 1774TIP3    H1 5328   2.185   0.800   1.957 -1.0321 -1.7795 -0.0953
 1774TIP3    H2 5329   2.225   0.851   1.820 -0.6033  0.8777  0.9525
 1775TIP3   OH2 5330   1.479   3.113   1.718 -0.1629 -0.0339  0.3405
 1775TIP3    H1 5331   1.481   3.191   1.774  0.1998  0.2067  0.0040
 1775TIP3    H2 5332   1.569   3.107   1.683 -1.3205  2.6450 -3.9895
 1776TIP3   OH2 5333   4.491   2.108   0.348  0.0206 -0.4749 -0.0517
 1776TIP3    H1 5334   4.430   2.136   0.280 -0.4389  0.8196  0.8529
 1776TIP3    H2 5335   4.517   2.020   0.322 -0.7645 -0.3218 -1.4631
 1777TIP3   OH2 5336   3.590   2.705   2.141  0.2040 -0.3041 -0.3668
 1777TIP3    H1 5337   3.645   2.778   2.169 -0.2029  0.3596 -1.2412
 1777TIP3    H2 5338   3.551   2.735   2.059 -0.1629 -1.4172 -0.6106
 1778TIP3   OH2 5339   5.991   4.411   4.475  0.3358 -0.0320  0.8561
 1778TIP3    H1 5340   6.037   4.392   4.556 -0.3886 -2.8839  0.7122
 1778TIP3    H2 5341   5.910   4.360   4.481  0.3432 -0.4822 -1.7194
 1779TIP3   OH2 5342   5.152   5.649   0.012  0.3503  0.1845  0.3575
 1779TIP3    H1 5343   5.070   5.697   0.015  0.6301  0.6110  1.7042
 1779TIP3    H2 5344   5.216   5.706   0.054  0.8261 -1.0789  1.4464
 1780TIP3   OH2 5345   6.120   0.401   0.201 -0.1648  0.1797 -0.0536
 1780TIP3    H1 5346   6.202   0.391   0.250  0.9408  0.7103 -1.7036
 1780TIP3    H2 5347   6.110   0.496   0.191 -0.1949  0.0784 -1.0898
 1781TIP3   OH2 5348   1.455   0.528   0.357  0.0339  0.6429 -0.1454
 1781TIP3    H1 5349   1.479   0.620   0.369 -0.5354  1.0267 -1.6865
 1781TIP3    H2 5350   1.491   0.505   0.271  0.5750 -0.7341  0.4183
 1782TIP3   OH2 5351   2.197   4.161   2.797  0.5250  0.2286 -0.2256
 1782TIP3    H1 5352   2.163   4.072   2.809  0.1249  0.1449 -1.7714
 1782TIP3    H2 5353   2.126   4.218   2.826 -0.2795  0.0360 -1.6982
 1783TIP3   OH2 5354   1.865   0.500   3.869  0.6667  0.0890  0.6088
 1783TIP3    H1 5355   1.840   0.590   3.892  0.6512  0.0603  0.7051
 1783TIP3    H2 5356   1.952   0.509   3.828 -0.7020  0.5354 -2.4592
 1784TIP3   OH2 5357   3.503   3.787   1.393 -0.4450  0.3255 -0.0571
 1784TIP3    H1 5358   3.538   3.829   1.472  0.2747  0.1942 -0.2926
 1784TIP3    H2 5359   3.499   3.694   1.415  1.1751  0.0689 -0.6344
 1785TIP3   OH2 5360   1.852   3.370   0.498  0.0780 -0.3116  0.0240
 1785TIP3    H1 5361   1.811   3.435   0.442  0.2884  0.9475  1.2890
 1785TIP3    H2 5362   1.781   3.312   0.524 -0.5776  0.7687  0.7123
 1786TIP3   OH2 5363   1.855   5.248   3.021 -0.4856 -0.0191  0.0543
 1786TIP3    H1 5364   1.832   5.228   2.930 -2.3056  0.2631  0.4046
 1786TIP3    H2 5365   1.820   5.174   3.071  0.6726 -0.2652  0.5134
 1787TIP3   OH2 5366   6.249   4.390   0.591  0.0010 -0.0193  0.2956
 1787TIP3    H1 5367   6.208   4.304   0.591  0.5146 -0.2823  1.4835
 1787TIP3    H2 5368   6.277   4.404   0.501  1.7910 -2.0220  0.4699
 1788TIP3   OH2 5369   2.727   2.229   1.319  0.8400 -0.0407  0.4028
 1788TIP3    H1 5370   2.788   2.215   1.247  0.7717  0.4098  0.2519
 1788TIP3    H2 5371   2.751   2.164   1.384  2.2965  0.9261  0.8789
 1789TIP3   OH2 5372   3.384   4.410   0.935 -0.4984  0.2969  0.2732
 1789TIP3    H1 5373   3.428   4.475   0.880 -2.4689  1.4620 -0.0195
 1789TIP3    H2 5374   3.414   4.429   1.024  0.1646  0.5699 -0.0079
 1790TIP3   OH2 5375   4.852   0.907   2.199 -0.3271 -0.2653 -0.1969
 1790TIP3    H1 5376   4.890   0.842   2.139  1.0974  0.3293  0.0351
 1790TIP3    H2 5377   4.854   0.864   2.285  2.9151  0.8667  0.4348
 1791TIP3   OH2 5378   0.459   4.684   3.566 -0.5487 -0.0135  0.1374
 1791TIP3    H1 5379   0.492   4.769   3.593 -0.0974 -0.9644  2.9920
 1791TIP3    H2 5380   0.417   4.699   3.482  4.1810  1.9285 -2.2170
 1792TIP3   OH2 5381   3.298   2.621   0.161  0.8403 -0.2735 -0.1007
 1792TIP3    H1 5382   3.280   2.660   0.247  0.4357 -0.9003  0.1058
 1792TIP3    H2 5383   3.364   2.678   0.122 -1.0839  1.7636 -0.5898
 1793TIP3   OH2 5384   3.461   4.633   1.414 -0.4192  0.4071  0.5261
 1793TIP3    H1 5385   3.433   4.708   1.468  0.4652 -0.4232  2.2325
 1793TIP3    H2 5386   3.392   4.568   1.426 -1.3586  1.0250 -1.2320
 1794TIP3   OH2 5387   1.720   4.711   3.407 -0.1111 -0.3938 -0.3262
 1794TIP3    H1 5388   1.715   4.739   3.315 -2.2170 -2.8912 -1.0860
 1794TIP3    H2 5389   1.652   4.762   3.450  0.8967  0.8016 -0.0779
 1795TIP3   OH2 5390   3.010   1.353   4.568  0.4088  0.1854 -0.0969
 1795TIP3    H1 5391   2.980   1.437   4.602  0.6546  0.3678 -0.3251
 1795TIP3    H2 5392   2.956   1.339   4.490  0.6650  0.3403 -0.3034
 1796TIP3   OH2 5393   6.212   2.957   5.147 -0.5150 -0.2283  0.1940
 1796TIP3    H1 5394   6.256   2.884   5.191 -1.2758  0.0925  1.5622
 1796TIP3    H2 5395   6.138   2.917   5.101 -0.3199 -0.4446  0.0686
 1797TIP3   OH2 5396   1.118   5.455   3.605 -0.1949 -1.0051 -0.3274
 1797TIP3    H1 5397   1.144   5.489   3.519  1.2548 -1.1876  0.0171
 1797TIP3    H2 5398   1.190   5.480   3.663 -2.1234  1.0315  1.3476
 1798TIP3   OH2 5399   4.844   0.000   4.464 -0.3667 -0.0167  0.7072
 1798TIP3    H1 5400   4.756  -0.035   4.477 -1.6034  2.7528  0.4918
 1798TIP3    H2 5401   4.865   0.047   4.545  0.1585  0.7937  0.1297
 1799TIP3   OH2 5402   0.819   5.198   1.986 -0.3058 -0.3651 -0.0481
 1799TIP3    H1 5403   0.790   5.192   1.895  0.2150  0.6603 -0.2984
 1799TIP3    H2 5404   0.909   5.231   1.981  0.4252 -2.1353  0.7770
 1800TIP3   OH2 5405   6.346   4.256   0.362 -0.0117 -0.2195 -0.2659
 1800TIP3    H1 5406   6.316   4.167   0.381 -1.4707  0.4682  0.7947
 1800TIP3    H2 5407   6.295   4.283   0.286 -1.7335  0.7141  1.1483
 1801TIP3   OH2 5408   3.632   2.552   1.891 -0.3758  0.0212  0.2826
 1801TIP3    H1 5409   3.679   2.531   1.972 -1.0435 -0.0360  0.6633
 1801TIP3    H2 5410   3.565   2.483   1.884  0.1092 -0.3697 -0.6795
 1802TIP3   OH2 5411   3.212   0.709   0.301 -0.7748  0.3170 -0.2059
 1802TIP3    H1 5412   3.238   0.784   0.355  0.5702  0.9448 -1.6444
 1802TIP3    H2 5413   3.189   0.641   0.364 -0.2924  1.3581  1.1532
 1803TIP3   OH2 5414   4.474   1.024   2.594  0.1926  0.0286  0.0493
 1803TIP3    H1 5415   4.443   0.976   2.517  0.9853  0.2828 -0.4414
 1803TIP3    H2 5416   4.496   1.110   2.561 -0.0059  0.3334  0.6850
 1804TIP3   OH2 5417   2.339   2.711   0.983  0.1028  0.0688 -0.0610
 1804TIP3    H1 5418   2.428   2.721   0.950  0.4989  0.8910  1.2125
 1804TIP3    H2 5419   2.285   2.709   0.903  1.2467 -0.5756 -0.8494
 1805TIP3   OH2 5420   1.131   2.301   2.231  0.5477  0.1958 -0.0296
 1805TIP3    H1 5421   1.050   2.285   2.280  0.7663  0.8576  0.5773
 1805TIP3    H2 5422   1.102   2.350   2.154  0.3241  0.1265  0.0085
 1806TIP3   OH2 5423   5.361   1.598   3.234  0.9481 -0.2152 -0.9004
 1806TIP3    H1 5424   5.450   1.626   3.215  1.2134  0.5335  1.1866
 1806TIP3    H2 5425   5.370   1.537   3.307 -0.3354  1.4427  0.7437
 1807TIP3   OH2 5426   2.225   3.623   3.423  0.4836  0.1229 -0.1877
 1807TIP3    H1 5427   2.156   3.650   3.362  1.8177  0.2962 -1.6784
 1807TIP3    H2 5428   2.282   3.700   3.430  1.0492 -0.3302  0.2618
 1808TIP3   OH2 5429   3.477   3.386   1.006 -0.5336 -0.8744 -0.4877
 1808TIP3    H1 5430   3.484   3.315   0.943  3.5448 -0.5204 -0.6596
 1808TIP3    H2 5431   3.513   3.462   0.961 -1.9165  0.5964  0.7473
 1809TIP3   OH2 5432   6.039   3.335   4.807 -0.3345 -0.5208 -0.1670
 1809TIP3    H1 5433   6.007   3.364   4.892  1.6302 -0.2203  0.5274
 1809TIP3    H2 5434   6.076   3.413   4.766 -0.9622 -0.7259 -1.1831
 1810TIP3   OH2 5435   4.277   3.270   4.127  0.3145  0.2261  0.5765
 1810TIP3    H1 5436   4.308   3.183   4.101 -0.2351 -0.6907  2.7535
 1810TIP3    H2 5437   4.356   3.316   4.156  0.9127  1.2130 -2.2799
 1811TIP3   OH2 5438   0.420   4.535   1.697  0.4550  0.4442  0.0986
 1811TIP3    H1 5439   0.386   4.582   1.620  0.1997 -1.5078 -1.0588
 1811TIP3    H2 5440   0.499   4.583   1.721  1.0555  0.5963 -1.9670
 1812TIP3   OH2 5441   4.899   5.809   4.853 -0.0420  0.1457  0.7375
 1812TIP3    H1 5442   4.846   5.861   4.914  1.3491 -0.3233  2.4462
 1812TIP3    H2 5443   4.920   5.730   4.902  0.7542 -0.4673 -0.5476
 1813TIP3   OH2 5444   2.287   4.926   2.200  0.8342  0.3826 -0.0301
 1813TIP3    H1 5445   2.255   5.000   2.149 -2.1462 -0.2372  0.7131
 1813TIP3    H2 5446   2.304   4.962   2.287  0.8046  0.4666 -0.0593
 1814TIP3   OH2 5447   5.308   4.954   3.970  0.0724  0.3305  0.6673
 1814TIP3    H1 5448   5.239   4.930   3.907  0.1958 -0.3907  0.7924
 1814TIP3    H2 5449   5.286   5.043   3.997 -1.1355 -0.0835  1.1201
 1815TIP3   OH2 5450   1.066   1.915   2.521  0.3206  0.1545  0.1035
 1815TIP3    H1 5451   1.014   1.943   2.446  2.3330  0.0201 -1.3958
 1815TIP3    H2 5452   1.085   1.996   2.569  0.5540  0.4880 -0.5456
 1816TIP3   OH2 5453   1.814   5.648   1.216 -0.0838 -0.3927 -0.1479
 1816TIP3    H1 5454   1.732   5.685   1.183  1.1813  3.1584  0.2651
 1816TIP3    H2 5455   1.795   5.626   1.307 -0.9870 -1.0857 -0.4905
 1817TIP3   OH2 5456   2.208   3.063   1.900  0.0038  0.2445  0.4708
 1817TIP3    H1 5457   2.233   3.039   1.990 -2.0781 -2.2717  0.4743
 1817TIP3    H2 5458   2.115   3.083   1.906 -0.8047 -2.4205 -1.4507
 1818TIP3   OH2 5459   1.564   3.849   4.430  0.0938  0.6397  0.9769
 1818TIP3    H1 5460   1.567   3.784   4.359  0.4817  1.1054  0.5536
 1818TIP3    H2 5461   1.487   3.902   4.411  1.1227  1.8360 -0.0934
 1819TIP3   OH2 5462   4.890   0.118   1.694  0.7440 -0.2102  0.5635
 1819TIP3    H1 5463   4.914   0.148   1.781 -0.1138  0.6724  0.5109
 1819TIP3    H2 5464   4.800   0.148   1.682  0.6677 -0.7812 -0.4232
 1820TIP3   OH2 5465   5.717   3.691   0.656 -0.4593  0.2785  0.8077
 1820TIP3    H1 5466   5.642   3.636   0.679  0.1519 -0.5688  0.8174
 1820TIP3    H2 5467   5.793   3.635   0.669  0.2036  1.1936  1.0164
 1821TIP3   OH2 5468   1.642   3.430   2.057  0.0076  0.1840 -0.0713
 1821TIP3    H1 5469   1.682   3.363   2.112  0.4681  0.2243 -0.3503
 1821TIP3    H2 5470   1.600   3.491   2.118  1.1296  0.6303  0.2753
 1822TIP3   OH2 5471   2.979   4.505   4.989  0.0622  0.2830 -0.4270
 1822TIP3    H1 5472   3.022   4.494   5.074  1.8161 -1.5868 -1.4789
 1822TIP3    H2 5473   2.887   4.484   5.007  0.7049 -1.9079  0.7114
 1823TIP3   OH2 5474   4.565   1.125   4.268  0.0338  0.3719 -0.3634
 1823TIP3    H1 5475   4.475   1.093   4.260 -0.3196  1.0781  0.5383
 1823TIP3    H2 5476   4.615   1.074   4.205 -1.2376  0.8634 -1.8345
 1824TIP3   OH2 5477   1.918   0.900   3.234 -0.5701 -0.1814 -0.6757
 1824TIP3    H1 5478   1.965   0.862   3.308 -0.8750 -0.0503 -0.4083
 1824TIP3    H2 5479   1.827   0.904   3.264 -0.3613  1.9894 -0.1740
 1825TIP3   OH2 5480   4.168   5.450   2.355  0.1280 -0.0412 -0.1017
 1825TIP3    H1 5481   4.205   5.524   2.402  1.0165 -0.5549  0.0209
 1825TIP3    H2 5482   4.243   5.405   2.317 -0.3648 -1.0742  0.1119
 1826TIP3   OH2 5483   2.080   2.316   0.321  0.1561 -0.4561 -0.0227
 1826TIP3    H1 5484   2.163   2.362   0.312  0.1453 -0.7973 -2.5730
 1826TIP3    H2 5485   2.014   2.383   0.303 -0.0468 -0.6188  0.1122
 1827TIP3   OH2 5486   4.827   1.220   5.040  0.0719 -0.5823  0.4156
 1827TIP3    H1 5487   4.749   1.168   5.022 -0.5499  0.0325  1.2438
 1827TIP3    H2 5488   4.889   1.157   5.078  0.5452 -1.3787 -1.5753
 1828TIP3   OH2 5489   1.146   3.463   4.474  0.3292  0.5717  0.1261
 1828TIP3    H1 5490   1.139   3.370   4.495 -0.2474  0.6319  0.2048
 1828TIP3    H2 5491   1.065   3.502   4.505  0.9647  1.2845  0.9712
 1829TIP3   OH2 5492   3.208   4.591   3.443 -0.2790  0.5039  0.3133
 1829TIP3    H1 5493   3.173   4.622   3.359  1.6129 -0.8354 -1.0387
 1829TIP3    H2 5494   3.268   4.521   3.420  1.9890  1.5221  2.6170
 1830TIP3   OH2 5495   5.403   0.146   2.682  0.1911 -0.2019  0.0660
 1830TIP3    H1 5496   5.466   0.137   2.610  0.0403  1.8167 -0.3756
 1830TIP3    H2 5497   5.413   0.066   2.732  0.5011 -1.5758 -2.0530
 1831TIP3   OH2 5498   3.048   3.203   3.953 -0.4249 -0.1795 -0.2759
 1831TIP3    H1 5499   3.062   3.132   4.016 -0.7197 -0.9754 -1.0966
 1831TIP3    H2 5500   2.960   3.188   3.919  0.1765 -0.4728 -1.7704
 1832TIP3   OH2 5501   6.291   2.294   1.155  0.0570  0.3559 -0.2674
 1832TIP3    H1 5502   6.280   2.199   1.152 -0.2312  0.3725  0.2156
 1832TIP3    H2 5503   6.332   2.310   1.240  0.4484  0.6296 -0.5074
 1833TIP3   OH2 5504   5.214   1.555   0.233  0.2093  0.1302 -0.0032
 1833TIP3    H1 5505   5.172   1.627   0.187 -3.2100 -0.5290  1.7574
 1833TIP3    H2 5506   5.205   1.577   0.326 -0.6848 -2.3368  0.5771
 1834TIP3   OH2 5507   0.488   4.471   3.753  1.0458  0.5754 -0.4525
 1834TIP3    H1 5508   0.416   4.490   3.813  1.6156  0.0256  0.4313
 1834TIP3    H2 5509   0.482   4.538   3.685  0.0775  0.8985 -0.0556
 1835TIP3   OH2 5510   6.267   3.710   1.046  0.6767  0.1506 -0.0637
 1835TIP3    H1 5511   6.281   3.672   1.133 -1.0872 -0.0540  0.1603
 1835TIP3    H2 5512   6.292   3.802   1.056  0.6093  0.0990  0.6362
 1836TIP3   OH2 5513   6.190   3.489   1.784 -0.6761 -0.5888  0.0746
 1836TIP3    H1 5514   6.262   3.512   1.843  0.8731 -0.0900 -1.8818
 1836TIP3    H2 5515   6.124   3.556   1.800  0.0950  0.0683  0.6056
 1837TIP3   OH2 5516   4.478   1.091   0.233  0.3633 -0.1869  0.3129
 1837TIP3    H1 5517   4.500   1.183   0.248  1.5107 -0.1537 -1.3243
 1837TIP3    H2 5518   4.519   1.044   0.306 -0.9968  0.6381  1.6631
 1838TIP3   OH2 5519   1.758   3.098   3.392 -0.0880 -0.1526  0.2117
 1838TIP3    H1 5520   1.790   3.181   3.427 -0.1313  0.2349 -0.6608
 1838TIP3    H2 5521   1.750   3.042   3.469 -1.7256  1.1835  1.0865
 1839TIP3   OH2 5522   2.266   2.280   0.765 -0.1069  0.1378  0.4685
 1839TIP3    H1 5523   2.294   2.353   0.710 -3.6054  1.3931  0.0518
 1839TIP3    H2 5524   2.208   2.320   0.830  0.1727 -1.9417  2.1174
 1840TIP3   OH2 5525   4.368   0.827   4.115 -0.0130  0.3754  0.2207
 1840TIP3    H1 5526   4.365   0.734   4.095  1.5011  0.2019  0.6873
 1840TIP3    H2 5527   4.316   0.868   4.045  0.4816 -0.6876 -0.8136
 1841TIP3   OH2 5528   3.918   2.691   2.114 -0.3663 -0.2823  0.1040
 1841TIP3    H1 5529   3.876   2.773   2.090 -1.0911 -0.1797  1.6220
 1841TIP3    H2 5530   3.851   2.624   2.099  0.4762 -0.7635 -1.9103
 1842TIP3   OH2 5531   4.743   4.480   1.489  0.2095 -0.2378  0.4237
 1842TIP3    H1 5532   4.827   4.439   1.510  0.9354  0.3798 -1.0761
 1842TIP3    H2 5533   4.678   4.426   1.533  1.4537 -0.0877  2.5490
 1843TIP3   OH2 5534   2.705   1.553   4.453 -0.2199 -0.3947 -0.0882
 1843TIP3    H1 5535   2.740   1.566   4.541  0.1327  1.8450 -0.5078
 1843TIP3    H2 5536   2.751   1.617   4.398 -2.9953  0.8260 -1.1805
 1844TIP3   OH2 5537   1.271   1.343   1.225  0.2208 -0.3975 -0.0029
 1844TIP3    H1 5538   1.223   1.344   1.142  0.7310  0.9186 -0.3176
 1844TIP3    H2 5539   1.203   1.356   1.291 -0.1539 -1.1345 -0.2307
 1845TIP3   OH2 5540   3.373   4.342   4.211 -0.1166 -0.1208  0.1209
 1845TIP3    H1 5541   3.396   4.423   4.167  0.2499 -1.1885 -1.7623
 1845TIP3    H2 5542   3.457   4.301   4.232 -0.2788  0.3904  1.9628
 1846TIP3   OH2 5543   5.641   3.325   4.314 -0.2326  0.2390 -0.5178
 1846TIP3    H1 5544   5.596   3.278   4.244 -1.1459  1.6382 -0.9146
 1846TIP3    H2 5545   5.604   3.413   4.312  1.2098  0.9191  0.3801
 1847TIP3   OH2 5546   4.600   5.814   0.245 -0.0555 -0.1976  0.3403
 1847TIP3    H1 5547   4.614   5.833   0.338  0.0195 -0.7573  0.4457
 1847TIP3    H2 5548   4.671   5.755   0.222 -0.5681 -0.7416  0.1442
 1848TIP3   OH2 5549   0.104   2.901   4.961 -0.4464  0.5755 -0.2743
 1848TIP3    H1 5550   0.099   2.818   5.007 -2.6696  0.7592 -0.1063
 1848TIP3    H2 5551   0.059   2.963   5.018  1.5527  2.0526 -0.1764
 1849TIP3   OH2 5552   2.409   2.876   5.008  0.2392 -0.0747 -0.1434
 1849TIP3    H1 5553   2.384   2.790   4.973  0.0407  1.0320 -2.9674
 1849TIP3    H2 5554   2.336   2.900   5.065 -0.5085 -1.0745 -0.6350
 1850TIP3   OH2 5555   4.942   0.606   3.405 -0.6312  0.5718  0.2558
 1850TIP3    H1 5556   5.031   0.619   3.371 -0.2639  0.1027  1.0041
 1850TIP3    H2 5557   4.916   0.521   3.370  0.1526 -0.4017  1.9335
 1851TIP3   OH2 5558   3.044   2.949   1.363  0.0563  0.0025 -0.2599
 1851TIP3    H1 5559   3.138   2.964   1.351  0.1911 -1.1855 -0.9338
 1851TIP3    H2 5560   3.002   3.019   1.314  0.5126  2.1381  2.1776
 1852TIP3   OH2 5561   3.596   0.286   4.876 -0.0059  0.0851  0.2615
 1852TIP3    H1 5562   3.541   0.340   4.821  0.3677 -0.4382 -0.6563
 1852TIP3    H2 5563   3.535   0.230   4.925 -0.3099 -0.5019 -0.7570
 1853TIP3   OH2 5564   4.355   3.837   1.609 -0.2594 -0.4792 -0.1373
 1853TIP3    H1 5565   4.306   3.905   1.655 -0.2105 -0.1404 -0.5673
 1853TIP3    H2 5566   4.304   3.757   1.620  0.9418 -0.9734  2.5172
 1854TIP3   OH2 5567   1.056   2.319   1.495  0.4569  0.9439 -0.1456
 1854TIP3    H1 5568   1.040   2.287   1.584  1.0310  0.7321 -0.1170
 1854TIP3    H2 5569   1.138   2.368   1.502  0.5746  0.8133 -0.5878
 1855TIP3   OH2 5570   3.929   1.062   2.738  0.0090  0.2381 -0.7641
 1855TIP3    H1 5571   3.969   1.077   2.824  0.6728  0.7623 -1.1579
 1855TIP3    H2 5572   3.844   1.106   2.744 -0.3836 -0.6032 -0.0325
 1856TIP3   OH2 5573   1.877   4.775   1.915  0.1330 -0.1335 -0.4498
 1856TIP3    H1 5574   1.881   4.714   1.841 -1.2400 -1.3007  0.3929
 1856TIP3    H2 5575   1.786   4.804   1.917  0.4452  0.8390  0.0471
 1857TIP3   OH2 5576   5.932   1.288   2.093  0.3474 -0.1790 -0.8326
 1857TIP3    H1 5577   6.028   1.290   2.100  0.2952  1.4779 -0.1563
 1857TIP3    H2 5578   5.914   1.212   2.037  2.0333 -0.6666 -0.7847
 1858TIP3   OH2 5579   5.090   4.544   2.977  0.0443 -0.1305  0.4728
 1858TIP3    H1 5580   5.032   4.593   3.036 -0.3201  1.0412 -0.8106
 1858TIP3    H2 5581   5.165   4.521   3.031 -1.5212 -1.6212  2.1719
 1859TIP3   OH2 5582   0.663   3.083   0.986 -0.2449 -0.2065  0.9515
 1859TIP3    H1 5583   0.640   3.155   1.045 -2.4583 -0.4218  0.4373
 1859TIP3    H2 5584   0.737   3.116   0.936 -1.8700  2.2491 -0.0434
 1860TIP3   OH2 5585   1.829   4.092   3.427 -0.6590  0.3903  0.2230
 1860TIP3    H1 5586   1.751   4.119   3.475 -0.5183  0.3543  0.4712
 1860TIP3    H2 5587   1.845   4.002   3.457  0.1990  0.8205  1.0996
 1861TIP3   OH2 5588   4.199   3.935   0.404 -0.4773 -0.4461 -0.0863
 1861TIP3    H1 5589   4.155   3.999   0.461 -0.7523 -0.2231 -0.5484
 1861TIP3    H2 5590   4.293   3.952   0.419 -0.5164  0.9097 -1.0935
 1862TIP3   OH2 5591   1.009   4.371   0.346 -0.2040  0.3261  0.0812
 1862TIP3    H1 5592   0.963   4.442   0.302 -0.3434 -0.0471 -0.3740
 1862TIP3    H2 5593   0.947   4.340   0.412 -1.3292 -1.3497 -1.6858
 1863TIP3   OH2 5594   3.222   0.271   3.522 -0.7408  0.4703  0.4721
 1863TIP3    H1 5595   3.301   0.277   3.576 -0.2075  0.8656 -0.3261
 1863TIP3    H2 5596   3.176   0.195   3.555  0.2113 -0.0446  0.6544
 1864TIP3   OH2 5597   0.814   2.640   4.901  0.2072 -0.3251 -0.5315
 1864TIP3    H1 5598   0.805   2.615   4.810 -2.0286  1.0706 -0.7629
 1864TIP3    H2 5599   0.843   2.731   4.898 -2.0419  0.4686  0.0459
 1865TIP3   OH2 5600   1.353   0.511   0.841  0.4977 -0.2534  0.1759
 1865TIP3    H1 5601   1.373   0.504   0.934 -0.1020  1.0582  0.4281
 1865TIP3    H2 5602   1.321   0.600   0.830  0.3714 -0.4477 -1.2596
 1866TIP3   OH2 5603   0.766   4.233   2.162  0.1243  0.2620 -0.1968
 1866TIP3    H1 5604   0.825   4.229   2.237 -1.2785 -1.3643  0.9058
 1866TIP3    H2 5605   0.710   4.308   2.178  0.9127  0.9277 -0.5018
 1867TIP3   OH2 5606   0.404   1.530   1.391 -0.8351  0.5248 -0.2345
 1867TIP3    H1 5607   0.393   1.532   1.486 -0.2804  1.1923 -0.1842
 1867TIP3    H2 5608   0.470   1.596   1.372 -2.1681  1.6372 -1.2589
 1868TIP3   OH2 5609   4.152   5.140   3.299  0.7822 -0.6740  0.2092
 1868TIP3    H1 5610   4.210   5.155   3.224 -1.4145  0.4968 -1.3507
 1868TIP3    H2 5611   4.165   5.217   3.354  1.6055 -1.0231  0.5238
 1869TIP3   OH2 5612   4.727   1.808   4.828  0.0677 -0.0471 -0.6329
 1869TIP3    H1 5613   4.800   1.751   4.800 -0.4662 -1.6048  0.9406
 1869TIP3    H2 5614   4.669   1.811   4.752  0.5363 -0.9282 -1.0480
 1870TIP3   OH2 5615   2.598   3.788   1.533  0.0043 -0.3118  0.2096
 1870TIP3    H1 5616   2.686   3.795   1.570  0.1962 -0.5064 -0.2082
 1870TIP3    H2 5617   2.603   3.713   1.474  0.1747  1.0464 -1.5746
 1871TIP3   OH2 5618   1.045   3.329   4.091  0.4046 -0.1921 -0.0989
 1871TIP3    H1 5619   0.984   3.298   4.023  1.6300 -1.0408 -0.8421
 1871TIP3    H2 5620   0.993   3.327   4.171 -0.7955 -0.1065 -0.8350
 1872TIP3   OH2 5621   3.094   0.745   4.162 -0.0154 -0.0733 -0.2964
 1872TIP3    H1 5622   3.035   0.713   4.231  0.8093 -0.5877  0.1812
 1872TIP3    H2 5623   3.182   0.731   4.197  0.4096 -0.0917 -1.3496
 1873TIP3   OH2 5624   0.448   1.179   4.608  0.4321 -0.3373 -0.0707
 1873TIP3    H1 5625   0.501   1.160   4.531 -0.1234 -1.3100 -0.2407
 1873TIP3    H2 5626   0.447   1.096   4.657 -1.4217 -0.5628 -0.4022
 1874TIP3   OH2 5627   3.554   4.880   1.120 -0.0697  0.2324 -0.8775
 1874TIP3    H1 5628   3.608   4.886   1.041 -0.5524  1.5328 -1.1154
 1874TIP3    H2 5629   3.464   4.886   1.089 -0.3493 -0.9295 -0.3737
 1875TIP3   OH2 5630   6.151   0.527   4.967  0.6339  0.1763  0.2591
 1875TIP3    H1 5631   6.058   0.529   4.943  0.9054 -0.5253 -0.9139
 1875TIP3    H2 5632   6.156   0.467   5.041  0.1010  0.5377  0.5935
 1876TIP3   OH2 5633   3.989   0.601   0.160 -0.3398 -0.2184  0.4589
 1876TIP3    H1 5634   3.975   0.507   0.164 -0.9754 -0.1562 -0.1747
 1876TIP3    H2 5635   4.065   0.612   0.103 -0.5961 -0.3249  0.0936
 1877TIP3   OH2 5636   1.203   0.126   0.396 -0.1319 -0.0690  0.0667
 1877TIP3    H1 5637   1.240   0.092   0.315 -0.3179  0.7714 -0.3851
 1877TIP3    H2 5638   1.177   0.216   0.375  1.1875  0.6805  1.4828
 1878TIP3   OH2 5639   2.180   5.090   4.488  0.1026 -0.0736 -0.3806
 1878TIP3    H1 5640   2.218   5.011   4.450 -0.1602 -1.1958  1.5799
 1878TIP3    H2 5641   2.090   5.092   4.455 -0.0761 -0.9376  0.0321
 1879TIP3   OH2 5642   4.263   3.022   0.296  0.2739  0.0314  0.4577
 1879TIP3    H1 5643   4.355   2.998   0.306  0.4981  0.2701 -0.9017
 1879TIP3    H2 5644   4.217   2.939   0.285  0.0811 -0.2117  2.6777
 1880TIP3   OH2 5645   5.835   5.364   1.038  0.8959 -0.1197  0.0349
 1880TIP3    H1 5646   5.762   5.320   0.993  1.5645  0.5414 -1.7852
 1880TIP3    H2 5647   5.911   5.346   0.983  2.1022 -0.5699  1.7643
 1881TIP3   OH2 5648   0.598   1.545   3.398 -0.7097  0.1249 -0.1971
 1881TIP3    H1 5649   0.554   1.522   3.480  2.1284 -1.9315  0.9442
 1881TIP3    H2 5650   0.593   1.465   3.345  0.8091  0.1016 -0.3572
 1882TIP3   OH2 5651   3.669   4.093   5.177  0.5183 -0.1455  0.0481
 1882TIP3    H1 5652   3.619   4.174   5.178  1.5768  0.5478 -1.0419
 1882TIP3    H2 5653   3.604   4.024   5.162 -0.2984  0.5752  0.2722
 1883TIP3   OH2 5654   2.813   3.706   4.664 -0.5801 -0.2322 -0.3179
 1883TIP3    H1 5655   2.794   3.634   4.725 -2.6065 -0.1495 -0.7731
 1883TIP3    H2 5656   2.758   3.778   4.695  1.7651  1.3551  0.4283
 1884TIP3   OH2 5657   5.630   4.187   1.795 -0.3605  0.3427 -0.3260
 1884TIP3    H1 5658   5.665   4.106   1.832  1.0636  1.6442  1.3586
 1884TIP3    H2 5659   5.538   4.187   1.823 -0.8392 -1.3995 -1.7130
 1885TIP3   OH2 5660   2.232   4.357   3.712 -0.0657  0.5745  0.0603
 1885TIP3    H1 5661   2.298   4.409   3.758 -0.8079  1.1027  0.5519
 1885TIP3    H2 5662   2.176   4.421   3.669 -1.9737  0.3452  1.9885
 1886TIP3   OH2 5663   0.798   0.683   0.606  0.5129  0.1998 -0.7821
 1886TIP3    H1 5664   0.799   0.619   0.678 -3.0960  0.0366 -0.6734
 1886TIP3    H2 5665   0.782   0.630   0.528  0.1043  0.7428 -1.0693
 1887TIP3   OH2 5666   0.112   4.440   0.744 -0.6267  0.0635 -0.3858
 1887TIP3    H1 5667   0.171   4.458   0.671  0.4258 -0.0352  0.4130
 1887TIP3    H2 5668   0.025   4.432   0.704 -0.0979  0.1863 -1.5902
 1888TIP3   OH2 5669   4.679   4.905   1.833 -0.4491  0.7103  0.3211
 1888TIP3    H1 5670   4.723   4.976   1.786 -1.5145  1.3647  0.2846
 1888TIP3    H2 5671   4.627   4.860   1.767 -0.8297  0.7369  0.5962
 1889TIP3   OH2 5672   4.954   3.215   1.346 -0.3085  0.4262  0.6740
 1889TIP3    H1 5673   4.998   3.298   1.329  0.1352 -0.1658 -1.2763
 1889TIP3    H2 5674   4.877   3.216   1.289 -0.3875 -0.4436  0.7555
 1890TIP3   OH2 5675   0.550   2.669   3.371 -0.0480  0.4974  0.8707
 1890TIP3    H1 5676   0.612   2.596   3.368 -0.7047 -0.0705  0.6549
 1890TIP3    H2 5677   0.478   2.641   3.314  0.2919  1.9028 -0.3013
 1891TIP3   OH2 5678   3.863   3.098   1.547  0.0375 -0.3108  0.2926
 1891TIP3    H1 5679   3.828   3.019   1.506  1.2810 -0.3557 -0.7333
 1891TIP3    H2 5680   3.951   3.107   1.511 -0.4138  2.0967 -0.4242
 1892TIP3   OH2 5681   4.618   5.510   3.684  0.1080 -0.0021  0.4011
 1892TIP3    H1 5682   4.584   5.598   3.698  0.1966  0.5958 -2.4234
 1892TIP3    H2 5683   4.540   5.456   3.670  0.1103  0.0421  0.2135
 1893TIP3   OH2 5684   5.119   3.259   3.279  0.0524  0.1317 -0.2633
 1893TIP3    H1 5685   5.158   3.172   3.278 -0.9480 -0.3341 -1.5936
 1893TIP3    H2 5686   5.038   3.250   3.230  0.5992  2.1031 -1.7043
 1894TIP3   OH2 5687   5.218   2.642   2.039 -0.3981 -0.0662  0.0258
 1894TIP3    H1 5688   5.221   2.615   1.947 -0.7329 -0.4134  0.1148
 1894TIP3    H2 5689   5.243   2.734   2.037  0.8873 -0.4015 -0.2631
 1895TIP3   OH2 5690   6.001   4.195   2.801 -0.4268 -0.2081 -0.1036
 1895TIP3    H1 5691   5.968   4.169   2.714 -2.4626 -0.2414  0.6258
 1895TIP3    H2 5692   6.014   4.112   2.847 -0.6587 -0.1424  0.0786
 1896TIP3   OH2 5693   3.502   4.235   1.630  0.2598  0.1764  0.3553
 1896TIP3    H1 5694   3.414   4.213   1.599  0.3043  0.7863 -0.2135
 1896TIP3    H2 5695   3.539   4.290   1.562  2.5605 -3.0946 -1.2741
 1897TIP3   OH2 5696   2.451   4.886   3.119 -0.7101  0.0465 -1.0891
 1897TIP3    H1 5697   2.366   4.877   3.160  0.0384  1.7839  0.9987
 1897TIP3    H2 5698   2.479   4.796   3.101 -2.6683 -0.5699 -1.2513
 1898TIP3   OH2 5699   1.138   0.961   4.916 -0.1575  0.1161  0.5171
 1898TIP3    H1 5700   1.211   0.989   4.972 -0.3436  2.6859 -0.4047
 1898TIP3    H2 5701   1.073   1.030   4.925 -1.2704 -0.6994 -0.9105
 1899TIP3   OH2 5702   4.522   4.230   1.266  0.2953 -0.3453 -0.0623
 1899TIP3    H1 5703   4.452   4.296   1.268  0.2803 -0.3663  1.3163
 1899TIP3    H2 5704   4.540   4.213   1.359  0.3654 -2.2140 -0.3902
 1900TIP3   OH2 5705   0.968   2.423   2.013  0.1411  0.8827 -0.8494
 1900TIP3    H1 5706   0.888   2.396   2.057  2.0280 -3.6913  0.3430
 1900TIP3    H2 5707   0.941   2.445   1.924 -2.5062  0.5314 -0.2106
 1901TIP3   OH2 5708   6.267   0.841   2.622 -0.2279  0.2521  0.0974
 1901TIP3    H1 5709   6.311   0.755   2.627 -0.6048  0.0695  0.2782
 1901TIP3    H2 5710   6.311   0.894   2.689 -2.6848 -1.0297  2.9775
 1902TIP3   OH2 5711   4.659   0.602   0.412  0.3535 -0.3714  0.1316
 1902TIP3    H1 5712   4.576   0.580   0.372  0.9379 -2.2045 -0.1822
 1902TIP3    H2 5713   4.692   0.676   0.362 -1.2115  0.5811  0.4675
 1903TIP3   OH2 5714   2.352   4.184   1.961  0.6201  0.4413  0.1491
 1903TIP3    H1 5715   2.329   4.100   1.922  1.3689  0.1497  0.3378
 1903TIP3    H2 5716   2.268   4.229   1.970  0.3538  0.2345 -1.1354
 1904TIP3   OH2 5717   6.052   0.811   2.855 -0.0800 -0.4819  0.0185
 1904TIP3    H1 5718   6.130   0.776   2.813 -0.2945 -0.8213 -0.1059
 1904TIP3    H2 5719   5.979   0.763   2.815 -0.2649 -1.0851  1.0242
 1905TIP3   OH2 5720   0.586   1.199   0.813  0.1016  0.0395  0.4125
 1905TIP3    H1 5721   0.502   1.180   0.855 -0.5584  1.3458 -0.2663
 1905TIP3    H2 5722   0.567   1.195   0.719  0.4976  1.4751  0.2496
 1906TIP3   OH2 5723   0.421   3.078   4.070  0.3405 -0.0321  0.2646
 1906TIP3    H1 5724   0.426   3.128   3.988 -0.0778 -0.5918 -0.1107
 1906TIP3    H2 5725   0.328   3.061   4.082  0.5469 -1.8701 -0.3404
 1907TIP3   OH2 5726   4.600   2.978   2.922 -0.0045 -0.4036  0.0847
 1907TIP3    H1 5727   4.671   2.924   2.956  0.7585 -0.1830 -1.0890
 1907TIP3    H2 5728   4.595   3.052   2.983  3.7047  1.8476 -1.8965
 1908TIP3   OH2 5729   6.124   1.006   2.123 -0.1594 -0.6635  0.4957
 1908TIP3    H1 5730   6.044   1.007   2.174  0.1112  0.0807  0.9117
 1908TIP3    H2 5731   6.194   1.024   2.186  0.1074  0.9899 -0.2351
 1909TIP3   OH2 5732   2.160   4.598   1.182  0.2465 -0.4249 -0.3945
 1909TIP3    H1 5733   2.167   4.692   1.201  0.0104 -0.2917 -0.9479
 1909TIP3    H2 5734   2.225   4.557   1.239 -0.2541 -0.0127  0.5032
 1910TIP3   OH2 5735   0.715   4.815   2.120  0.1254 -0.1153 -0.1627
 1910TIP3    H1 5736   0.717   4.777   2.208  1.1878 -0.0081 -0.1305
 1910TIP3    H2 5737   0.803   4.851   2.107  0.2942 -0.9638 -1.6351
 1911TIP3   OH2 5738   0.100   5.565   4.659 -0.4403 -0.1947 -0.1166
 1911TIP3    H1 5739   0.058   5.638   4.704 -0.1692  0.6652 -1.2156
 1911TIP3    H2 5740   0.036   5.494   4.664 -0.4290 -0.1090  1.5531
 1912TIP3   OH2 5741   5.418   0.569   0.026 -0.0449 -0.9050 -0.8252
 1912TIP3    H1 5742   5.371   0.570   0.109  1.5409 -1.9254  0.1241
 1912TIP3    H2 5743   5.452   0.480   0.019  1.1422 -0.4021 -1.8128
 1913TIP3   OH2 5744   4.606   0.584   0.989  0.2613 -0.2466  0.6557
 1913TIP3    H1 5745   4.657   0.504   0.981 -0.9851 -1.1043  1.0788
 1913TIP3    H2 5746   4.568   0.598   0.902  1.1664  0.3838  0.3448
 1914TIP3   OH2 5747   5.650   0.460   4.340  0.3796 -0.1864 -0.0642
 1914TIP3    H1 5748   5.648   0.395   4.271 -2.0314 -1.6664  1.2730
 1914TIP3    H2 5749   5.627   0.543   4.297 -2.5988 -1.3246 -0.8825
 1915TIP3   OH2 5750   2.680   0.918   2.956  0.0131  0.8408 -0.5139
 1915TIP3    H1 5751   2.632   0.908   2.874  0.7318 -0.1434 -0.8260
 1915TIP3    H2 5752   2.611   0.933   3.022 -0.7055 -0.1351 -1.0201
 1916TIP3   OH2 5753   0.343   4.840   3.895 -0.1493  0.1094 -0.0451
 1916TIP3    H1 5754   0.436   4.863   3.901 -0.0115  0.0064 -1.4129
 1916TIP3    H2 5755   0.337   4.755   3.937  0.3376  0.2233  0.2685
 1917TIP3   OH2 5756   5.021   1.609   4.985 -0.9945  0.2749  0.0317
 1917TIP3    H1 5757   4.952   1.609   5.052 -1.4435 -2.9105 -0.3030
 1917TIP3    H2 5758   5.093   1.560   5.024  0.0622  1.2169 -0.6573
 1918TIP3   OH2 5759   5.678   2.350   1.795  0.0968  0.4431 -0.5065
 1918TIP3    H1 5760   5.644   2.437   1.817  0.3923  0.8703 -1.6222
 1918TIP3    H2 5761   5.768   2.366   1.768 -0.1108 -0.0744 -1.5591
 1919TIP3   OH2 5762   3.684   3.631   4.390 -0.2695  0.1941  0.1318
 1919TIP3    H1 5763   3.676   3.704   4.329 -1.6024 -0.2461 -0.2573
 1919TIP3    H2 5764   3.625   3.564   4.354 -1.0043 -0.1144  1.8395
 1920TIP3   OH2 5765   2.262   0.453   0.224  0.4465 -0.1151  0.0501
 1920TIP3    H1 5766   2.351   0.487   0.213  0.9448 -0.8693  1.4221
 1920TIP3    H2 5767   2.205   0.527   0.202  1.4515  0.9908  0.9957
 1921TIP3   OH2 5768   2.489   4.525   1.169  0.4924  0.0476  0.1283
 1921TIP3    H1 5769   2.447   4.461   1.113 -0.8942  0.7811  0.2877
 1921TIP3    H2 5770   2.458   4.504   1.258 -1.1313  1.7186  0.0361
 1922TIP3   OH2 5771   5.611   2.280   2.567 -0.3476  0.3627 -0.0934
 1922TIP3    H1 5772   5.699   2.248   2.586  0.2310  0.7148 -1.9973
 1922TIP3    H2 5773   5.567   2.280   2.652  0.9501 -1.3877  0.6408
 1923TIP3   OH2 5774   3.619   4.161   1.878  0.2702  0.0478 -0.1293
 1923TIP3    H1 5775   3.605   4.068   1.865 -0.5473  0.2936 -1.1741
 1923TIP3    H2 5776   3.578   4.202   1.802  1.2196  1.2188 -0.0434
 1924TIP3   OH2 5777   0.448   5.153   4.402  0.4756 -0.1634  0.0510
 1924TIP3    H1 5778   0.420   5.072   4.444  0.9824 -0.3428  0.0485
 1924TIP3    H2 5779   0.429   5.140   4.309  0.0374 -0.0544  0.1205
 1925TIP3   OH2 5780   4.132   2.572   4.665 -0.8992 -0.1042  0.9046
 1925TIP3    H1 5781   4.217   2.584   4.707 -1.0559 -0.5186  1.3424
 1925TIP3    H2 5782   4.089   2.657   4.673  0.0042  0.5341 -0.5407
 1926TIP3   OH2 5783   2.477   4.248   2.271  0.2714 -0.1726 -0.0337
 1926TIP3    H1 5784   2.423   4.299   2.332  0.5596 -0.8028  0.7667
 1926TIP3    H2 5785   2.424   4.171   2.252 -0.1247  0.3666 -1.1692
 1927TIP3   OH2 5786   0.709   0.719   1.976 -0.0120 -0.0079  0.2293
 1927TIP3    H1 5787   0.701   0.814   1.991  1.1520  0.0876  0.3238
 1927TIP3    H2 5788   0.753   0.686   2.054 -1.8071 -0.9012  0.9303
 1928TIP3   OH2 5789   4.703   0.289   4.491  0.1271  0.1171 -0.4821
 1928TIP3    H1 5790   4.724   0.378   4.519  0.3691  0.0367 -0.4010
 1928TIP3    H2 5791   4.777   0.264   4.435 -0.1345  0.1137 -0.8277
 1929TIP3   OH2 5792   5.821   3.108   2.049 -0.2739 -0.0611 -0.1366
 1929TIP3    H1 5793   5.740   3.059   2.034 -0.5346  0.9096 -2.3039
 1929TIP3    H2 5794   5.791   3.198   2.065  0.3634  0.1835 -0.3196
 1930TIP3   OH2 5795   4.570   4.792   4.616 -0.0031  0.6082  0.5844
 1930TIP3    H1 5796   4.498   4.854   4.607 -0.5719 -0.1715 -0.5164
 1930TIP3    H2 5797   4.647   4.847   4.634 -0.4568  1.6516 -0.4977
 1931TIP3   OH2 5798   4.903   1.969   3.819 -0.4221 -0.0665 -0.5361
 1931TIP3    H1 5799   4.961   1.906   3.776  1.1669  1.5231 -0.8482
 1931TIP3    H2 5800   4.929   1.966   3.911  1.4242  1.8339 -0.9250
 1932TIP3   OH2 5801   2.006   4.984   2.031  0.0014 -0.1279  0.8565
 1932TIP3    H1 5802   1.987   5.074   2.004 -0.4186 -0.3412  0.4438
 1932TIP3    H2 5803   1.958   4.929   1.969  0.9134 -0.6506  0.5952
 1933TIP3   OH2 5804   3.720   1.398   2.997  0.6623 -0.2980  0.2248
 1933TIP3    H1 5805   3.810   1.387   3.028  0.8482  1.5526  0.4718
 1933TIP3    H2 5806   3.719   1.486   2.958 -0.6370 -0.9195 -1.2526
 1934TIP3   OH2 5807   1.158   1.753   2.209  0.0109  0.1662 -0.1110
 1934TIP3    H1 5808   1.158   1.839   2.250 -3.6163 -0.3177  1.3111
 1934TIP3    H2 5809   1.082   1.754   2.151  1.7515 -1.0863 -2.6251
 1935TIP3   OH2 5810   2.415   2.395   2.124  0.7593  0.4636 -0.0917
 1935TIP3    H1 5811   2.462   2.433   2.198  0.0387  0.4525  0.3821
 1935TIP3    H2 5812   2.475   2.405   2.049  1.1130  1.3241  0.2968
 1936TIP3   OH2 5813   2.637   3.000   2.348 -1.1764  0.1092 -0.2812
 1936TIP3    H1 5814   2.630   2.905   2.340  0.3717 -0.3030  2.0843
 1936TIP3    H2 5815   2.613   3.034   2.262 -1.2953 -2.4489 -1.3328
 1937TIP3   OH2 5816   1.530   2.039   1.066  0.1134 -0.2545 -0.0795
 1937TIP3    H1 5817   1.559   2.105   1.128  2.5073 -0.7527 -0.5766
 1937TIP3    H2 5818   1.575   1.958   1.093 -1.9933 -1.4999 -0.0504
 1938TIP3   OH2 5819   2.295   3.719   3.052 -0.4880  0.6453  0.1028
 1938TIP3    H1 5820   2.257   3.800   3.019 -0.5406  0.0873 -1.2875
 1938TIP3    H2 5821   2.264   3.652   2.991 -1.3922 -0.6157  1.8603
 1939TIP3   OH2 5822   2.433   5.433   2.293 -0.2157 -0.0862  0.7599
 1939TIP3    H1 5823   2.442   5.517   2.248  1.6065 -0.1034  1.0088
 1939TIP3    H2 5824   2.479   5.370   2.237 -0.6128 -0.7123  1.1187
 1940TIP3   OH2 5825   5.315   0.868   1.160  0.1727  0.5019  0.1804
 1940TIP3    H1 5826   5.296   0.962   1.151  2.3767  0.9804 -0.0926
 1940TIP3    H2 5827   5.310   0.834   1.071 -0.6676  0.3270  0.2844
 1941TIP3   OH2 5828   5.513   4.747   0.861 -0.1505 -0.3792  0.4075
 1941TIP3    H1 5829   5.435   4.757   0.915 -0.6751  0.3069 -0.4638
 1941TIP3    H2 5830   5.483   4.765   0.772  1.0609  0.1739  0.0985
 1942TIP3   OH2 5831   5.867   2.239   3.281 -0.2859 -0.0622  0.5877
 1942TIP3    H1 5832   5.938   2.179   3.305  1.1381  1.0502 -0.6069
 1942TIP3    H2 5833   5.831   2.203   3.200 -0.2435  0.0330  0.5258
 1943TIP3   OH2 5834   2.981   4.770   0.962 -0.0946  0.3626 -0.0983
 1943TIP3    H1 5835   2.936   4.742   1.042  0.4822  0.1043  0.1432
 1943TIP3    H2 5836   2.950   4.709   0.894  2.2494 -1.9509  0.7126
 1944TIP3   OH2 5837   3.110   2.727   3.823 -0.8724  0.8242  0.0957
 1944TIP3    H1 5838   3.071   2.755   3.905  0.7655  2.7749  0.2837
 1944TIP3    H2 5839   3.099   2.801   3.764  0.6291  0.6282 -0.4774
 1945TIP3   OH2 5840   1.830   0.046   2.903  0.2788  0.0088  0.2221
 1945TIP3    H1 5841   1.743   0.013   2.880  0.3696 -0.8779  1.0591
 1945TIP3    H2 5842   1.875   0.055   2.819 -0.1003 -1.0503 -0.1110
 1946TIP3   OH2 5843   4.526   3.582   0.479  0.2153 -0.2922 -0.2019
 1946TIP3    H1 5844   4.606   3.605   0.431  0.1181 -0.3026 -0.3690
 1946TIP3    H2 5845   4.538   3.490   0.503  0.4670 -0.1586  0.1936
 1947TIP3   OH2 5846   3.107   2.975   3.708  0.0737 -0.1643  0.0867
 1947TIP3    H1 5847   3.188   3.024   3.715 -0.1753  0.0663  1.9964
 1947TIP3    H2 5848   3.038   3.041   3.713 -0.3007 -0.2205 -2.7441
 1948TIP3   OH2 5849   5.795   5.614   2.341  0.1071 -1.0389 -0.0103
 1948TIP3    H1 5850   5.718   5.669   2.358  0.0999 -1.5242  1.6875
 1948TIP3    H2 5851   5.800   5.610   2.246 -1.2376  0.0251 -0.1643
 1949TIP3   OH2 5852   2.896   1.021   4.176  0.3221  0.0307 -0.1799
 1949TIP3    H1 5853   2.957   1.057   4.112  0.4400  0.1962  0.0226
 1949TIP3    H2 5854   2.911   0.926   4.173  0.3352  0.0394 -0.3880
 1950TIP3   OH2 5855   3.957   4.087   3.312  0.5609  0.0254 -0.2238
 1950TIP3    H1 5856   4.034   4.056   3.361  1.4100  0.0378 -1.5122
 1950TIP3    H2 5857   3.924   4.008   3.269  1.1866  0.4076 -1.4397
 1951TIP3   OH2 5858   3.762   0.109   2.420 -0.3744 -0.2829 -0.0437
 1951TIP3    H1 5859   3.811   0.147   2.493  0.5359  0.8549 -1.1993
 1951TIP3    H2 5860   3.708   0.181   2.388  1.5371  0.2014 -2.4185
 1952TIP3   OH2 5861   5.965   3.107   4.590  0.2836 -0.4643  0.0768
 1952TIP3    H1 5862   5.919   3.047   4.649  1.9997 -1.1786  0.7523
 1952TIP3    H2 5863   5.947   3.194   4.627  0.5414 -0.8331  1.1092
 1953TIP3   OH2 5864   4.295   1.354   0.302 -0.0032  0.0505  0.3815
 1953TIP3    H1 5865   4.266   1.266   0.322  2.3681 -0.9461 -0.2199
 1953TIP3    H2 5866   4.319   1.392   0.387 -1.0950  0.1772  0.6467
 1954TIP3   OH2 5867   5.521   1.693   0.628  0.2191 -0.1357  0.2546
 1954TIP3    H1 5868   5.489   1.606   0.606  1.9420 -1.0733  1.2589
 1954TIP3    H2 5869   5.461   1.724   0.696  0.0962 -0.8948  0.4935
 1955TIP3   OH2 5870   3.583   2.331   4.431 -0.4089  0.5512 -0.4618
 1955TIP3    H1 5871   3.624   2.338   4.344  0.1369  0.9941 -0.1712
 1955TIP3    H2 5872   3.574   2.237   4.445  1.5371  0.3732 -0.0715
 1956TIP3   OH2 5873   6.064   0.110   1.890  0.1156 -0.1878  0.4490
 1956TIP3    H1 5874   6.035   0.042   1.951  1.4144 -0.5867  0.6570
 1956TIP3    H2 5875   5.987   0.166   1.879 -0.4556 -0.6924  1.6465
 1957TIP3   OH2 5876   1.922   0.116   0.366 -0.0245 -0.7958 -0.0919
 1957TIP3    H1 5877   1.941   0.095   0.274  1.5575 -0.8973  0.2268
 1957TIP3    H2 5878   1.921   0.212   0.369 -2.6978 -0.7381 -0.6760
 1958TIP3   OH2 5879   5.687   1.339   4.481  0.6977  0.2045 -0.6208
 1958TIP3    H1 5880   5.651   1.337   4.569 -0.8140 -1.5471 -1.2095
 1958TIP3    H2 5881   5.732   1.255   4.471 -0.6781 -0.4224 -2.0547
 1959TIP3   OH2 5882   0.209   5.424   3.416  0.3521  0.3124 -0.0194
 1959TIP3    H1 5883   0.288   5.383   3.379  0.6214 -1.4266  2.3057
 1959TIP3    H2 5884   0.234   5.450   3.504 -1.4073  0.6603  0.4126
 1960TIP3   OH2 5885   2.418   1.998   3.904 -0.3435  0.0351  0.7250
 1960TIP3    H1 5886   2.363   1.988   3.826 -2.5503  0.3245  2.1442
 1960TIP3    H2 5887   2.468   1.916   3.910 -0.1430  0.0167 -0.9596
 1961TIP3   OH2 5888   1.543   1.382   3.941  0.1747  0.3139  0.1992
 1961TIP3    H1 5889   1.531   1.466   3.895 -1.2415  1.0902  1.8643
 1961TIP3    H2 5890   1.457   1.363   3.979  0.6746 -1.5263  0.4893
 1962TIP3   OH2 5891   4.747   3.380   5.198  0.1296 -0.5011  0.0406
 1962TIP3    H1 5892   4.813   3.324   5.158 -0.3371  0.1687 -1.7526
 1962TIP3    H2 5893   4.778   3.469   5.182 -1.4000 -0.1505 -1.2667
 1963TIP3   OH2 5894   4.339   2.734   3.001 -0.5860  0.2099  0.1782
 1963TIP3    H1 5895   4.376   2.739   3.089 -0.9149  1.1684  0.2803
 1963TIP3    H2 5896   4.342   2.825   2.969 -0.9112 -0.0463 -0.6102
 1964TIP3   OH2 5897   4.104   1.763   3.840 -0.0195  0.3010 -0.4739
 1964TIP3    H1 5898   4.057   1.686   3.808 -0.1024  0.5987 -1.0926
 1964TIP3    H2 5899   4.052   1.794   3.914 -0.5417  0.3433 -0.8496
 1965TIP3   OH2 5900   2.634   5.761   3.645 -0.2029  0.0396 -0.1344
 1965TIP3    H1 5901   2.668   5.673   3.660 -0.1635  0.2014  0.7963
 1965TIP3    H2 5902   2.540   5.749   3.630 -0.6664  0.0144  2.3850
 1966TIP3   OH2 5903   5.562   1.132   2.581  0.6706  0.0378 -0.4941
 1966TIP3    H1 5904   5.562   1.077   2.503 -0.3769 -0.2000 -0.3457
 1966TIP3    H2 5905   5.645   1.111   2.625  0.8691 -0.4695 -1.0960
 1967TIP3   OH2 5906   5.548   0.082   3.726 -0.6907 -0.3137 -0.0172
 1967TIP3    H1 5907   5.487   0.075   3.652 -0.0130  1.9794 -0.8741
 1967TIP3    H2 5908   5.504   0.141   3.787 -0.8337 -1.4724  1.0446
 1968TIP3   OH2 5909   0.902   2.130   1.361  0.5263 -0.6768  0.0647
 1968TIP3    H1 5910   0.911   2.205   1.420 -0.7064 -0.3298 -0.1405
 1968TIP3    H2 5911   0.892   2.054   1.420  1.0990 -0.5908  0.2777
 1969TIP3   OH2 5912   0.771   3.934   3.531 -0.7819 -0.3731 -0.2003
 1969TIP3    H1 5913   0.857   3.927   3.572 -0.6414  0.1380 -0.3977
 1969TIP3    H2 5914   0.767   3.859   3.472 -1.3765 -1.6854  1.4250
 1970TIP3   OH2 5915   3.807   2.405   2.116 -0.4738 -0.0159 -0.5895
 1970TIP3    H1 5916   3.729   2.350   2.110 -0.6471 -0.0464  1.3466
 1970TIP3    H2 5917   3.880   2.347   2.091 -0.8922 -0.4366 -0.8456
 1971TIP3   OH2 5918   0.266   3.823   2.027  0.0880 -0.6644  0.0973
 1971TIP3    H1 5919   0.284   3.875   1.949 -0.8040 -0.0145  0.3105
 1971TIP3    H2 5920   0.346   3.828   2.079 -0.0830  0.7260  0.2412
 1972TIP3   OH2 5921   6.277   4.862   1.567  0.3862 -0.0180 -0.4291
 1972TIP3    H1 5922   6.345   4.918   1.528 -1.3767  1.3802 -1.6466
 1972TIP3    H2 5923   6.283   4.879   1.661  0.1720  1.9606 -0.7398
 1973TIP3   OH2 5924   1.816   5.360   1.710  0.3509  0.0371  0.6391
 1973TIP3    H1 5925   1.740   5.401   1.669  0.0375 -1.0822  0.0548
 1973TIP3    H2 5926   1.887   5.373   1.647  0.1792 -0.5529  0.3139
 1974TIP3   OH2 5927   5.251   2.540   2.400  0.1458 -0.2699 -1.0131
 1974TIP3    H1 5928   5.170   2.544   2.349  0.7138  1.6347 -1.8557
 1974TIP3    H2 5929   5.263   2.629   2.432  1.4014 -0.7561 -0.0579
 1975TIP3   OH2 5930   2.033   4.493   2.196  0.1029 -0.0906 -0.5476
 1975TIP3    H1 5931   2.012   4.480   2.288 -0.8566 -0.6774 -0.8417
 1975TIP3    H2 5932   1.955   4.533   2.158 -0.3560 -1.8052 -1.5422
 1976TIP3   OH2 5933   1.725   0.359   1.976  0.3316 -0.8060 -0.1714
 1976TIP3    H1 5934   1.688   0.294   1.917  0.7820 -1.0847 -0.1558
 1976TIP3    H2 5935   1.680   0.345   2.059 -1.1808  0.3964 -0.7546
 1977TIP3   OH2 5936   0.481   5.685   4.459 -0.1684  0.4021 -0.7526
 1977TIP3    H1 5937   0.400   5.726   4.429  0.0513  1.0085 -0.5306
 1977TIP3    H2 5938   0.536   5.680   4.380 -0.7736 -0.9100 -1.1225
 1978TIP3   OH2 5939   0.634   5.503   4.155 -0.0968  0.3336  0.1771
 1978TIP3    H1 5940   0.578   5.576   4.130  0.8902  2.2858  3.1126
 1978TIP3    H2 5941   0.583   5.454   4.220  0.8116  1.0654  1.5002
 1979TIP3   OH2 5942   1.728   5.822   2.435 -0.6820 -0.2752  0.5381
 1979TIP3    H1 5943   1.688   5.904   2.408 -0.2710 -0.0040  0.7526
 1979TIP3    H2 5944   1.697   5.758   2.371 -0.0061  0.2788 -0.3640
 1980TIP3   OH2 5945   3.979   0.679   1.964 -0.6544 -0.2933 -0.1128
 1980TIP3    H1 5946   4.039   0.621   1.917  0.4682 -0.5291  1.5561
 1980TIP3    H2 5947   3.959   0.633   2.045 -0.6914  1.1290  0.7086
 1981TIP3   OH2 5948   3.729   0.211   1.420 -0.8464 -0.4750  0.4832
 1981TIP3    H1 5949   3.674   0.179   1.492 -1.4387 -0.0689  0.2219
 1981TIP3    H2 5950   3.676   0.279   1.379  0.4055  0.9038  1.0704
 1982TIP3   OH2 5951   3.875   1.179   4.227 -0.3206 -0.4684  0.0185
 1982TIP3    H1 5952   3.803   1.183   4.290  0.0921 -0.4053  0.4921
 1982TIP3    H2 5953   3.910   1.090   4.237 -0.7632 -0.7344 -0.7013
 1983TIP3   OH2 5954   6.317   2.266   3.992  0.2563  0.2648 -0.1239
 1983TIP3    H1 5955   6.241   2.213   3.970  0.1366  0.4621 -0.1829
 1983TIP3    H2 5956   6.358   2.219   4.064  0.4137 -0.1577 -0.4834
 1984TIP3   OH2 5957   1.298   2.157   3.971  0.1454  0.0736 -0.6140
 1984TIP3    H1 5958   1.210   2.191   3.985  0.6963  1.3617 -0.1388
 1984TIP3    H2 5959   1.288   2.062   3.973 -1.1396  0.2075  0.0003
 1985TIP3   OH2 5960   0.130   1.285   4.104 -0.2476  0.5228 -0.2779
 1985TIP3    H1 5961   0.211   1.250   4.141 -0.8120  0.4169  0.9202
 1985TIP3    H2 5962   0.110   1.227   4.030  0.8973  0.7202 -0.7578
 1986TIP3   OH2 5963   4.438   2.389   4.856  0.0653  0.1841  0.2372
 1986TIP3    H1 5964   4.522   2.362   4.820 -0.0827 -0.3312  0.2669
 1986TIP3    H2 5965   4.424   2.477   4.822 -0.7120 -0.7650 -2.1233
 1987TIP3   OH2 5966   2.926   5.750   3.707 -0.3270  0.4482  0.0870
 1987TIP3    H1 5967   2.905   5.769   3.616  0.3952  1.6846  0.1578
 1987TIP3    H2 5968   2.847   5.776   3.756 -0.2964  0.8572 -0.0779
 1988TIP3   OH2 5969   3.756   2.466   2.980  0.1105 -0.2172 -0.3783
 1988TIP3    H1 5970   3.826   2.453   3.043 -1.6906  2.2367  2.4062
 1988TIP3    H2 5971   3.782   2.542   2.929 -1.1538  1.9399  1.9622
 1989TIP3   OH2 5972   2.147   1.733   4.172 -0.1042  0.3865 -0.0941
 1989TIP3    H1 5973   2.195   1.705   4.250  1.1764 -0.5764 -1.1788
 1989TIP3    H2 5974   2.121   1.652   4.129  0.1228  0.8638 -1.1934
 1990TIP3   OH2 5975   5.561   4.370   4.655 -0.2043 -0.4198 -0.2679
 1990TIP3    H1 5976   5.478   4.337   4.622 -0.1855 -1.7140  0.8961
 1990TIP3    H2 5977   5.537   4.434   4.722 -0.2522  0.0641 -0.7447
 1991TIP3   OH2 5978   1.445   2.929   4.338  0.2075 -0.2387 -0.3443
 1991TIP3    H1 5979   1.444   3.023   4.317 -0.9933 -0.3993 -1.1180
 1991TIP3    H2 5980   1.446   2.926   4.434 -1.7149  0.6166 -0.2388
 1992TIP3   OH2 5981   0.058   1.217   5.048 -0.5087 -0.3715  0.3295
 1992TIP3    H1 5982   0.027   1.155   5.114 -0.4972 -1.2712 -0.4783
 1992TIP3    H2 5983   0.000   1.293   5.058 -0.5999 -0.5487  1.2622
 1993TIP3   OH2 5984   2.282   4.061   2.205  0.5194  0.4617 -0.1628
 1993TIP3    H1 5985   2.336   4.003   2.151  0.3138  0.3441 -0.2449
 1993TIP3    H2 5986   2.245   4.125   2.143  0.1745  0.2441 -0.1860
 1994TIP3   OH2 5987   3.257   5.476   1.337 -0.1200 -0.2668  0.1940
 1994TIP3    H1 5988   3.195   5.498   1.407 -1.0705  1.9972 -1.2239
 1994TIP3    H2 5989   3.202   5.438   1.268  0.3190  0.1963 -0.4236
 1995TIP3   OH2 5990   1.670   0.910   2.674 -0.1858  0.0187  0.7811
 1995TIP3    H1 5991   1.650   0.818   2.693  0.4775  0.0258  1.5583
 1995TIP3    H2 5992   1.665   0.953   2.759  1.1618  0.3801  0.6967
 1996TIP3   OH2 5993   2.644   4.765   1.344  0.2165 -0.2076  0.2151
 1996TIP3    H1 5994   2.690   4.811   1.274  1.1851 -0.1565  0.8564
 1996TIP3    H2 5995   2.579   4.712   1.299 -0.7699  1.5751 -0.5596
 1997TIP3   OH2 5996   5.511   2.845   4.751  0.5762  0.4548  0.7936
 1997TIP3    H1 5997   5.574   2.810   4.814  1.1009  1.9638  1.1738
 1997TIP3    H2 5998   5.493   2.934   4.782 -2.2142 -0.0940  1.0165
 1998TIP3   OH2 5999   1.193   3.229   2.597 -0.5064 -0.5615 -0.3789
 1998TIP3    H1 6000   1.191   3.277   2.514  2.4958  0.0227 -0.2614
 1998TIP3    H2 6001   1.156   3.289   2.661  0.3069  0.4059 -0.7812
 1999TIP3   OH2 6002   5.128   2.664   2.952 -0.7041 -0.1119 -0.0453
 1999TIP3    H1 6003   5.081   2.599   3.005 -0.5217 -1.0641 -1.0365
 1999TIP3    H2 6004   5.103   2.748   2.991 -3.7274 -0.5258 -0.8929
 2000TIP3   OH2 6005   2.565   5.368   4.473  0.5469 -0.0315 -0.0790
 2000TIP3    H1 6006   2.559   5.319   4.391 -0.0040  0.9052 -0.6170
 2000TIP3    H2 6007   2.590   5.303   4.538  0.8593 -0.8200 -0.9652
 2001TIP3   OH2 6008   1.106   4.102   1.630  0.0353  0.1873 -0.7475
 2001TIP3    H1 6009   1.075   4.064   1.712  0.3149 -0.0438 -0.7476
 2001TIP3    H2 6010   1.098   4.032   1.566  0.3129  0.2045 -0.8036
 2002TIP3   OH2 6011   3.047   4.133   3.769  0.3647  0.4644 -0.2767
 2002TIP3    H1 6012   3.086   4.185   3.698 -0.0029  0.1274 -0.7226
 2002TIP3    H2 6013   2.978   4.189   3.805 -0.2864  0.1420 -1.0071
 2003TIP3   OH2 6014   3.019   3.867   4.435 -0.0915  0.1390  0.0293
 2003TIP3    H1 6015   2.937   3.819   4.423 -0.1431 -0.0900  1.1679
 2003TIP3    H2 6016   2.997   3.934   4.500  0.4266  0.5701 -0.2448
 2004TIP3   OH2 6017   2.538   0.917   3.570  0.3827 -0.0974  0.2454
 2004TIP3    H1 6018   2.530   0.893   3.662  0.4024  0.6978  0.4623
 2004TIP3    H2 6019   2.449   0.917   3.537  0.4771 -1.7857 -0.1247
 2005TIP3   OH2 6020   4.850   2.496   1.423  0.4461 -0.1123  0.8191
 2005TIP3    H1 6021   4.824   2.408   1.452 -0.7284  0.0975  0.4518
 2005TIP3    H2 6022   4.772   2.550   1.440  0.4546  0.4457 -0.7856
 2006TIP3   OH2 6023   2.541   0.350   3.003  0.4422 -0.0167 -0.4393
 2006TIP3    H1 6024   2.628   0.311   3.011  0.6402  0.1071 -1.8897
 2006TIP3    H2 6025   2.546   0.406   2.926 -1.2719 -0.9777 -1.2999
 2007TIP3   OH2 6026   3.349   3.557   0.234 -0.1661 -0.6217  0.3932
 2007TIP3    H1 6027   3.367   3.627   0.296 -0.1731 -0.0678 -0.2150
 2007TIP3    H2 6028   3.258   3.571   0.208  0.2650  0.0571 -0.8414
 2008TIP3   OH2 6029   5.689   2.960   2.817  0.3660  0.1460 -0.1365
 2008TIP3    H1 6030   5.749   2.985   2.888 -0.2143  1.4911 -0.0782
 2008TIP3    H2 6031   5.638   2.887   2.853  0.6415  0.2732  0.5404
 2009TIP3   OH2 6032   1.412   1.225   3.145  0.0578 -0.1826 -0.8683
 2009TIP3    H1 6033   1.458   1.309   3.136 -0.3284 -0.0178 -1.3552
 2009TIP3    H2 6034   1.397   1.196   3.055 -0.9969 -0.1186 -0.7260
 2010TIP3   OH2 6035   3.833   4.323   2.773  0.5222 -0.4744  0.2229
 2010TIP3    H1 6036   3.788   4.407   2.776  1.1862 -0.1123  0.0429
 2010TIP3    H2 6037   3.773   4.266   2.725  0.4777  0.1502 -0.4810
 2011TIP3   OH2 6038   1.204   3.687   4.678  0.4460  0.6942 -0.5284
 2011TIP3    H1 6039   1.181   3.780   4.685  1.4862  0.8900  0.6001
 2011TIP3    H2 6040   1.211   3.672   4.583  1.8570  2.2038 -0.7200
 2012TIP3   OH2 6041   0.772   3.662   1.355 -0.1354 -0.2145 -0.5289
 2012TIP3    H1 6042   0.753   3.745   1.311 -1.0411  0.3250  0.7908
 2012TIP3    H2 6043   0.831   3.687   1.427 -1.0225 -0.5577  0.3487
 2013TIP3   OH2 6044   2.222   3.592   4.760 -0.1262 -0.1636 -0.2590
 2013TIP3    H1 6045   2.190   3.547   4.838  0.1050  0.0755 -0.0254
 2013TIP3    H2 6046   2.307   3.553   4.743 -0.6064 -0.9202 -0.9802
 2014TIP3   OH2 6047   0.328   1.139   4.233  0.3754 -0.6572  0.2649
 2014TIP3    H1 6048   0.333   1.046   4.258  2.0362 -1.1944 -1.7042
 2014TIP3    H2 6049   0.373   1.185   4.304  1.5940 -1.6622  0.1964
 2015TIP3   OH2 6050   6.331   2.848   2.075  0.6877 -0.2422  0.3279
 2015TIP3    H1 6051   6.273   2.830   2.000  0.6281  0.5958  0.1562
 2015TIP3    H2 6052   6.291   2.924   2.118  0.9913 -0.4186  0.9289
 2016TIP3   OH2 6053   3.737   0.990   0.997  0.5301  0.2343 -0.2970
 2016TIP3    H1 6054   3.742   0.902   0.959  0.3629  0.1205 -0.0586
 2016TIP3    H2 6055   3.644   1.002   1.017  0.4796  0.6493 -0.7589
 2017TIP3   OH2 6056   4.798   0.357   3.226 -0.2368  0.1106  0.3265
 2017TIP3    H1 6057   4.794   0.302   3.304 -2.4433 -0.2490  0.0055
 2017TIP3    H2 6058   4.823   0.297   3.156  1.7890  0.4418  0.7038
 2018TIP3   OH2 6059   3.378   3.017   0.014 -0.2464 -0.2528  0.8343
 2018TIP3    H1 6060   3.408   3.013   0.105 -1.1696  2.3170  1.3372
 2018TIP3    H2 6061   3.433   3.084  -0.027 -1.3860  0.3170  0.1662
 2019TIP3   OH2 6062   6.287   5.909   1.084  0.0837  0.0481  0.0173
 2019TIP3    H1 6063   6.212   5.877   1.034  0.6748 -1.2175 -0.1094
 2019TIP3    H2 6064   6.337   5.963   1.022 -1.4186  2.0812  0.4952
 2020TIP3   OH2 6065   6.065   1.848   4.167 -0.1251 -0.3845 -0.1376
 2020TIP3    H1 6066   6.069   1.863   4.262  0.0359 -0.4456 -0.1329
 2020TIP3    H2 6067   5.972   1.849   4.146 -0.1616 -0.3719  0.0226
 2021TIP3   OH2 6068   4.396   3.878   3.440  0.0639 -0.0773  0.7008
 2021TIP3    H1 6069   4.414   3.784   3.446 -0.2889 -0.2169 -0.1570
 2021TIP3    H2 6070   4.464   3.911   3.382 -1.0171 -0.1973 -0.6944
 2022TIP3   OH2 6071   1.437   2.367   5.006  0.7450  0.0747 -0.6119
 2022TIP3    H1 6072   1.348   2.332   5.013 -0.2025  1.9898 -2.1028
 2022TIP3    H2 6073   1.493   2.293   5.026 -1.1654 -1.1028  0.7779
 2023TIP3   OH2 6074   1.275   0.553   0.105  0.0158  0.0115 -0.5027
 2023TIP3    H1 6075   1.306   0.482   0.161 -0.3131 -0.6701 -1.1816
 2023TIP3    H2 6076   1.247   0.621   0.167 -0.5312 -0.8054  0.1716
 2024TIP3   OH2 6077   1.973   4.869   4.696  0.0120  0.2234  0.3143
 2024TIP3    H1 6078   2.028   4.798   4.662 -1.2113 -0.9419  0.6493
 2024TIP3    H2 6079   1.937   4.911   4.618  0.4615  0.2298  0.1120
 2025TIP3   OH2 6080   5.077   4.210   5.030  0.0581  0.3771 -0.0483
 2025TIP3    H1 6081   5.033   4.244   5.108 -0.2198  0.6189 -0.3082
 2025TIP3    H2 6082   5.038   4.124   5.015  2.1852 -0.9976  1.8044
 2026TIP3   OH2 6083   2.040   5.844   0.297 -0.1389  0.0342  0.4182
 2026TIP3    H1 6084   1.950   5.857   0.326  0.2757  0.6320  1.5010
 2026TIP3    H2 6085   2.092   5.851   0.377  0.7899 -1.2606 -0.0442
 2027TIP3   OH2 6086   3.730   3.777   2.158  0.0316 -0.2079 -0.0774
 2027TIP3    H1 6087   3.771   3.862   2.176  1.9205 -1.3962  1.7965
 2027TIP3    H2 6088   3.804   3.718   2.145 -1.2514 -1.4290 -2.4203
 2028TIP3   OH2 6089   1.214   4.374   1.274  0.4612 -0.4075  0.4517
 2028TIP3    H1 6090   1.203   4.313   1.202  0.1715  0.9180 -0.6849
 2028TIP3    H2 6091   1.254   4.451   1.234  1.6231 -0.1583  1.9951
 2029TIP3   OH2 6092   0.115   5.047   3.367 -0.6006 -0.1307 -0.1783
 2029TIP3    H1 6093   0.021   5.031   3.370 -0.5376 -1.0994 -1.9038
 2029TIP3    H2 6094   0.153   4.969   3.409 -0.5468  0.2830  0.5635
 2030TIP3   OH2 6095   1.994   1.937   2.189  0.2096  0.2124 -0.4583
 2030TIP3    H1 6096   2.040   1.888   2.257  2.3599  1.9454 -0.5491
 2030TIP3    H2 6097   1.955   1.869   2.133 -1.4247 -1.2765  2.2515
 2031TIP3   OH2 6098   5.180   3.410   3.989  0.1748  0.0537 -0.4215
 2031TIP3    H1 6099   5.219   3.338   3.938 -0.3665  1.8860 -3.7430
 2031TIP3    H2 6100   5.110   3.444   3.932 -1.0129  1.8668  1.9464
 2032TIP3   OH2 6101   3.386   4.151   2.904  0.3141  0.5714 -0.3548
 2032TIP3    H1 6102   3.473   4.114   2.920  0.2904  1.2725  1.7129
 2032TIP3    H2 6103   3.403   4.240   2.873  0.3277  0.4633 -0.6630
 2033TIP3   OH2 6104   2.696   4.421   4.727  0.0753  0.2302 -0.0283
 2033TIP3    H1 6105   2.636   4.416   4.801  1.0630  0.4733  0.8177
 2033TIP3    H2 6106   2.780   4.393   4.763 -0.1117 -3.3678 -1.9303
 2034TIP3   OH2 6107   5.448   1.333   3.746  0.0683 -0.1768 -0.3907
 2034TIP3    H1 6108   5.406   1.353   3.662 -0.6318 -0.1135 -0.0345
 2034TIP3    H2 6109   5.517   1.271   3.724 -0.2663 -0.3480 -0.9904
 2035TIP3   OH2 6110   3.287   2.544   4.773  0.6420  0.6840 -0.3003
 2035TIP3    H1 6111   3.345   2.488   4.824  0.0716 -0.0482 -0.4471
 2035TIP3    H2 6112   3.203   2.499   4.773  0.3906  1.1230 -1.1159
 2036TIP3   OH2 6113   1.768   1.287   3.325  0.8664  0.4810 -0.2354
 2036TIP3    H1 6114   1.698   1.317   3.384 -0.6589 -0.0342 -1.7015
 2036TIP3    H2 6115   1.736   1.308   3.238  2.1876 -0.5462 -0.9970
 2037TIP3   OH2 6116   1.438   2.256   1.728 -0.3445 -0.0827  0.1280
 2037TIP3    H1 6117   1.361   2.231   1.779  0.4927 -0.3410  1.3232
 2037TIP3    H2 6118   1.419   2.227   1.639 -0.6538 -2.3723  0.8678
 2038TIP3   OH2 6119   0.416   2.476   3.887 -0.1699 -0.1687  0.3729
 2038TIP3    H1 6120   0.444   2.428   3.809  0.5845  0.2991  0.3461
 2038TIP3    H2 6121   0.345   2.532   3.857 -1.4387 -1.6258  0.5140
 2039TIP3   OH2 6122   1.583   5.168   1.253  0.1004 -0.3670  0.0710
 2039TIP3    H1 6123   1.558   5.259   1.266 -2.4255 -0.9914  0.1995
 2039TIP3    H2 6124   1.605   5.161   1.161 -3.0752 -0.2185 -0.8380
 2040TIP3   OH2 6125   1.079   5.026   4.511  0.4318  0.4372 -0.5326
 2040TIP3    H1 6126   1.156   4.968   4.513 -0.6090 -1.0277  1.9336
 2040TIP3    H2 6127   1.113   5.111   4.538  1.1203 -0.4166  1.5330
 2041TIP3   OH2 6128   5.793   1.039   1.593  0.1795 -0.2755  0.4223
 2041TIP3    H1 6129   5.832   1.113   1.546 -1.4821 -0.5646 -1.5486
 2041TIP3    H2 6130   5.858   0.969   1.586  0.1287 -0.1990 -1.2082
 2042TIP3   OH2 6131   0.084   0.354   0.221 -0.3835  0.2619  0.0242
 2042TIP3    H1 6132   0.096   0.435   0.269 -1.3557  1.7067 -2.0001
 2042TIP3    H2 6133   0.170   0.335   0.182 -0.1010  0.1814  0.6808
 2043TIP3   OH2 6134   5.562   0.092   2.447  0.2752  0.2552 -0.1255
 2043TIP3    H1 6135   5.589   0.184   2.448 -0.1219  0.4165 -1.7740
 2043TIP3    H2 6136   5.644   0.044   2.437  0.4113  0.4843 -0.1263
 2044TIP3   OH2 6137   2.431   5.601   1.563  0.3174  0.1878 -0.1792
 2044TIP3    H1 6138   2.366   5.662   1.598  0.9341  0.2136  0.9870
 2044TIP3    H2 6139   2.471   5.649   1.490  1.9182  1.9340  1.7089
 2045TIP3   OH2 6140   2.156   5.763   0.059  0.5125 -0.3842  0.0397
 2045TIP3    H1 6141   2.120   5.767   0.148 -2.0477 -1.3599 -0.8607
 2045TIP3    H2 6142   2.223   5.695   0.063  0.6785 -0.1660  1.2912
 2046TIP3   OH2 6143   0.886   2.190   0.840 -0.4032 -0.2018 -0.1527
 2046TIP3    H1 6144   0.896   2.164   0.749 -0.6303  1.1622 -0.5910
 2046TIP3    H2 6145   0.814   2.253   0.839  0.0994  0.4139  0.8527
 2047TIP3   OH2 6146   2.675   4.221   2.462  0.2753 -1.2216 -0.0583
 2047TIP3    H1 6147   2.743   4.189   2.403 -0.0705 -1.5116 -0.3070
 2047TIP3    H2 6148   2.604   4.249   2.403  0.1411 -1.0093  0.1992
 2048TIP3   OH2 6149   5.382   2.950   3.542 -0.2443  0.1327  0.4372
 2048TIP3    H1 6150   5.432   2.900   3.477 -0.1020  1.5440 -0.5732
 2048TIP3    H2 6151   5.332   2.883   3.590  3.2642 -1.5139  2.1997
 2049TIP3   OH2 6152   1.369   0.067   3.889  0.0276 -0.0829 -0.0861
 2049TIP3    H1 6153   1.392   0.156   3.862  1.7002 -0.7463 -1.0165
 2049TIP3    H2 6154   1.333   0.027   3.810 -1.9919  0.1460  0.6850
 2050TIP3   OH2 6155   3.623   0.382   0.089  0.5699  0.3542  0.3772
 2050TIP3    H1 6156   3.584   0.379   0.176 -1.1899  1.0888 -0.3149
 2050TIP3    H2 6157   3.646   0.291   0.069  0.1311  0.0450  1.2394
 2051TIP3   OH2 6158   4.519   5.717   2.242  0.0421  0.0158  0.7626
 2051TIP3    H1 6159   4.508   5.670   2.325 -1.7772 -0.7423  0.1364
 2051TIP3    H2 6160   4.431   5.722   2.205  0.5823  1.6969 -0.4174
 2052TIP3   OH2 6161   0.704   1.642   2.617  0.0087  0.1717 -0.3253
 2052TIP3    H1 6162   0.788   1.673   2.584 -0.0358  0.6657  0.0144
 2052TIP3    H2 6163   0.639   1.684   2.561 -0.0423  0.4901 -0.0298
 2053TIP3   OH2 6164   1.259   4.492   4.671 -0.3547  0.1458 -0.3368
 2053TIP3    H1 6165   1.187   4.555   4.666 -0.4981 -0.0495 -0.8003
 2053TIP3    H2 6166   1.225   4.413   4.629  0.4192  0.3296 -1.3474
 2054TIP3   OH2 6167   1.269   4.273   2.551  0.2589 -0.0456  0.4051
 2054TIP3    H1 6168   1.228   4.263   2.465 -0.5739  0.0021  0.7822
 2054TIP3    H2 6169   1.362   4.256   2.536  1.0061  4.2033 -1.4313
 2055TIP3   OH2 6170   6.006   1.384   3.576 -0.0189  0.1329 -0.1905
 2055TIP3    H1 6171   5.981   1.383   3.484 -1.6698 -1.0616  0.2251
 2055TIP3    H2 6172   6.053   1.301   3.589 -0.5826 -0.1228  0.2329
 2056TIP3   OH2 6173   6.087   5.618   2.678 -0.6268 -0.1744  0.3182
 2056TIP3    H1 6174   6.129   5.699   2.650  0.2044 -0.5538  0.4234
 2056TIP3    H2 6175   6.075   5.568   2.597  0.2752 -0.5811  0.4183
 2057TIP3   OH2 6176   2.256   0.430   4.006 -0.9595  0.7018  0.1332
 2057TIP3    H1 6177   2.192   0.468   3.946 -0.5110 -0.7816 -1.3707
 2057TIP3    H2 6178   2.339   0.472   3.982 -0.5137 -0.9019 -1.3439
 2058TIP3   OH2 6179   3.508   0.893   3.219 -0.4084  0.2641  0.2609
 2058TIP3    H1 6180   3.561   0.824   3.179  0.5776  1.2851 -0.2715
 2058TIP3    H2 6181   3.465   0.850   3.293 -0.7382 -1.1873 -0.7270
 2059TIP3   OH2 6182   3.673   4.024   0.884  0.1350 -0.3836  0.3166
 2059TIP3    H1 6183   3.725   3.945   0.881 -1.3160 -1.3907  0.6993
 2059TIP3    H2 6184   3.585   3.995   0.907 -0.0408  1.5212  2.5332
 2060TIP3   OH2 6185   2.516   1.660   3.309  0.2262  0.4761 -0.2927
 2060TIP3    H1 6186   2.524   1.581   3.361  0.2184  2.3363  2.8163
 2060TIP3    H2 6187   2.428   1.655   3.271  0.0119 -0.7067  0.3315
 2061TIP3   OH2 6188   3.850   4.498   2.123 -0.2968  0.1019  0.1026
 2061TIP3    H1 6189   3.824   4.554   2.196  0.5129 -0.1077  0.5617
 2061TIP3    H2 6190   3.925   4.542   2.083 -0.6938  0.1844 -0.5712
 2062TIP3   OH2 6191   3.604   1.932   0.528  0.2653  0.1662  0.5035
 2062TIP3    H1 6192   3.578   2.013   0.573  0.0737 -0.7471  2.1092
 2062TIP3    H2 6193   3.644   1.962   0.447 -0.4586  1.8461  0.7258
 2063TIP3   OH2 6194   0.634   2.138   2.071 -0.5181 -0.2929 -0.5858
 2063TIP3    H1 6195   0.564   2.125   2.134 -0.1905 -1.0836 -0.3776
 2063TIP3    H2 6196   0.598   2.198   2.006 -1.8226 -1.6571 -1.1736
 2064TIP3   OH2 6197   4.684   5.366   2.127 -0.1122  0.4015 -0.2431
 2064TIP3    H1 6198   4.739   5.437   2.161 -1.1920  0.6954  0.9326
 2064TIP3    H2 6199   4.740   5.321   2.064  2.2914 -0.6566  2.4279
 2065TIP3   OH2 6200   3.624   4.121   0.081 -0.0168 -0.0826  0.6328
 2065TIP3    H1 6201   3.678   4.188   0.040  0.3968 -0.7734  0.0161
 2065TIP3    H2 6202   3.649   4.040   0.036 -1.1385 -0.5055  0.7582
 2066TIP3   OH2 6203   4.636   1.361   4.386  0.1440  0.8122 -0.0729
 2066TIP3    H1 6204   4.665   1.325   4.470 -0.1667 -0.3617 -0.4518
 2066TIP3    H2 6205   4.646   1.289   4.324 -1.7847  0.9245 -0.5947
 2067TIP3   OH2 6206   5.822   1.748   0.131 -0.6218  0.1097  0.1412
 2067TIP3    H1 6207   5.810   1.783   0.043 -0.4409 -0.7506 -0.2326
 2067TIP3    H2 6208   5.823   1.653   0.119 -1.1221 -0.0267  1.1362
 2068TIP3   OH2 6209   0.066   1.064   2.741  0.3376 -0.4755  0.0036
 2068TIP3    H1 6210   0.158   1.089   2.746  0.8266 -2.0985 -0.2975
 2068TIP3    H2 6211   0.022   1.122   2.802  1.7966 -0.6601  1.2944
 2069TIP3   OH2 6212   2.411   1.033   4.477 -0.2387  0.2402  0.2351
 2069TIP3    H1 6213   2.404   1.038   4.382 -1.0260 -2.0624  0.1086
 2069TIP3    H2 6214   2.502   1.009   4.494 -0.2682 -0.0229  0.0161
 2070TIP3   OH2 6215   3.666   2.451   3.528 -0.8997 -0.0520 -0.3750
 2070TIP3    H1 6216   3.684   2.522   3.467 -0.1555  1.1693  1.2042
 2070TIP3    H2 6217   3.598   2.486   3.586 -2.0262 -1.4026 -0.8107
 2071TIP3   OH2 6218   2.655   5.091   1.692 -0.1944  0.5796 -0.7210
 2071TIP3    H1 6219   2.646   5.184   1.671 -1.0217  0.5333 -0.6070
 2071TIP3    H2 6220   2.691   5.052   1.612 -1.3207  0.7503 -1.3355
 2072TIP3   OH2 6221   3.184   5.968   2.356 -0.2995 -0.2662 -0.4907
 2072TIP3    H1 6222   3.270   5.983   2.394 -0.9346 -0.3249  1.0180
 2072TIP3    H2 6223   3.201   5.910   2.281  0.7578 -1.9956  1.0086
 2073TIP3   OH2 6224   3.580   2.678   4.723 -0.8111  0.0171 -0.1277
 2073TIP3    H1 6225   3.613   2.732   4.796  0.7904  0.3392 -1.0480
 2073TIP3    H2 6226   3.496   2.719   4.700 -0.2108  1.3987 -0.0001
 2074TIP3   OH2 6227   4.159   1.085   0.433 -0.1205 -0.1033  0.0544
 2074TIP3    H1 6228   4.136   1.165   0.480  2.7347  1.9369 -1.7117
 2074TIP3    H2 6229   4.091   1.076   0.366  0.1734  1.6157 -0.5165
 2075TIP3   OH2 6230   0.797   0.635   2.215 -0.3045 -0.1264 -0.3633
 2075TIP3    H1 6231   0.866   0.700   2.225  0.5135 -0.9810 -0.3936
 2075TIP3    H2 6232   0.800   0.583   2.295 -1.4252  0.3073 -0.0272
 2076TIP3   OH2 6233   5.311   3.950   4.608  0.5051  0.4668  0.4992
 2076TIP3    H1 6234   5.301   3.876   4.547  0.2244  2.2411 -1.7420
 2076TIP3    H2 6235   5.388   3.928   4.660  1.0537 -0.9498 -0.8231
 2077TIP3   OH2 6236   1.570   5.231   0.654 -0.8195 -0.1873  0.3015
 2077TIP3    H1 6237   1.614   5.287   0.719  0.0444 -1.5634  0.9661
 2077TIP3    H2 6238   1.477   5.242   0.673 -0.6214  0.1663  1.1516
 2078TIP3   OH2 6239   0.700   4.284   3.712  0.2847 -0.0529  0.0749
 2078TIP3    H1 6240   0.674   4.218   3.775  1.1659 -0.2977  0.1910
 2078TIP3    H2 6241   0.626   4.345   3.709  0.2029 -0.0839  1.2704
 2079TIP3   OH2 6242   4.473   4.699   1.717 -0.8079 -0.6660  0.0645
 2079TIP3    H1 6243   4.474   4.666   1.807 -0.0995 -0.0042  0.3042
 2079TIP3    H2 6244   4.405   4.766   1.716 -0.0365  0.1436  0.4183
 2080TIP3   OH2 6245   0.736   5.903   0.967  0.7367 -0.3939 -0.3041
 2080TIP3    H1 6246   0.761   5.817   0.933  0.1825 -0.8281  0.3750
 2080TIP3    H2 6247   0.678   5.885   1.041 -0.5489  0.5599 -1.0220
 2081TIP3   OH2 6248   1.756   5.752   4.685  0.1650 -0.3702  0.1280
 2081TIP3    H1 6249   1.715   5.749   4.772  0.0833 -0.1583  0.0974
 2081TIP3    H2 6250   1.700   5.811   4.635  0.4211 -0.2024  0.0403
 2082TIP3   OH2 6251   4.162   2.534   3.295 -0.3652  0.0551 -0.0069
 2082TIP3    H1 6252   4.183   2.506   3.384  1.1294 -0.1060 -0.3866
 2082TIP3    H2 6253   4.148   2.629   3.303 -0.3912  0.0194  0.4151
 2083TIP3   OH2 6254   3.228   2.114   1.242 -0.1724 -0.4140 -0.1409
 2083TIP3    H1 6255   3.165   2.073   1.301  1.1193 -1.6933  0.4241
 2083TIP3    H2 6256   3.291   2.157   1.301  0.0726 -0.0528 -0.6545
 2084TIP3   OH2 6257   2.124   2.500   4.492 -0.4993  0.1674 -0.3957
 2084TIP3    H1 6258   2.161   2.522   4.578 -0.4743  1.1494 -0.6444
 2084TIP3    H2 6259   2.195   2.455   4.446 -1.1492 -2.2994  0.8066
 2085TIP3   OH2 6260   3.823   3.663   0.437  0.0413 -0.1669  0.4769
 2085TIP3    H1 6261   3.801   3.746   0.394  1.3754  0.0394  0.1639
 2085TIP3    H2 6262   3.810   3.597   0.369  3.3067  0.2792 -0.7231
 2086TIP3   OH2 6263   5.810   0.590   3.033 -0.7300  0.0766  0.4027
 2086TIP3    H1 6264   5.850   0.506   3.011  0.5691  0.4806  1.0985
 2086TIP3    H2 6265   5.716   0.575   3.026 -0.4829 -0.8017 -1.6854
 2087TIP3   OH2 6266   1.721   2.778   0.164 -0.9129  0.5106  0.0142
 2087TIP3    H1 6267   1.710   2.701   0.221  0.5277  0.4927  0.2998
 2087TIP3    H2 6268   1.705   2.744   0.076  0.4043 -0.2998  0.0670
 2088TIP3   OH2 6269   2.155   3.782   2.118  0.3587 -0.6234  0.0064
 2088TIP3    H1 6270   2.165   3.693   2.151  1.3473 -0.9418 -1.1055
 2088TIP3    H2 6271   2.135   3.834   2.196  2.7749 -1.3204  1.1994
 2089TIP3   OH2 6272   1.291   4.473   0.405  0.2503  0.2171 -0.0108
 2089TIP3    H1 6273   1.215   4.422   0.377  0.1583  0.6463 -0.5439
 2089TIP3    H2 6274   1.303   4.538   0.337  1.5322 -0.2813 -0.2857
 2090TIP3   OH2 6275   3.880   2.262   4.969  0.0067  0.4000 -0.6325
 2090TIP3    H1 6276   3.953   2.303   5.015 -0.7657  1.7809 -0.5840
 2090TIP3    H2 6277   3.886   2.297   4.880 -0.7213  0.7271 -0.5634
 2091TIP3   OH2 6278   6.009   1.934   1.517 -0.3499 -0.0901  0.2059
 2091TIP3    H1 6279   6.086   1.991   1.518  0.9080 -1.7079  0.2124
 2091TIP3    H2 6280   6.044   1.847   1.498 -2.2800 -0.7617 -0.4836
 2092TIP3   OH2 6281   4.894   0.971   1.242 -0.2902  0.5036 -0.4913
 2092TIP3    H1 6282   4.956   0.902   1.265  0.5262  1.7169  1.1239
 2092TIP3    H2 6283   4.949   1.040   1.205 -0.6968  1.4581  0.6410
 2093TIP3   OH2 6284   1.317   3.871   0.296 -0.5975 -0.2124 -0.1031
 2093TIP3    H1 6285   1.410   3.891   0.305 -0.4953 -0.0205 -1.3817
 2093TIP3    H2 6286   1.309   3.780   0.324 -0.1702  0.0149  0.7799
 2094TIP3   OH2 6287   5.658   1.350   0.289 -0.3196 -0.2343  0.0371
 2094TIP3    H1 6288   5.701   1.395   0.362  1.5086 -2.4946  0.5100
 2094TIP3    H2 6289   5.711   1.371   0.213 -0.1718 -0.6079  0.0341
 2095TIP3   OH2 6290   5.744   0.258   4.522  0.5204  0.6970  0.0150
 2095TIP3    H1 6291   5.727   0.317   4.449 -0.3543 -0.1179 -0.4658
 2095TIP3    H2 6292   5.711   0.305   4.599 -0.6941  0.6280 -0.4343
 2096TIP3   OH2 6293   6.238   2.837   4.169  0.2600  0.0757 -0.5686
 2096TIP3    H1 6294   6.146   2.864   4.167  0.5070  1.0615  0.6067
 2096TIP3    H2 6295   6.276   2.875   4.090 -0.4805 -0.9483 -1.4544
 2097TIP3   OH2 6296   5.178   3.078   2.513  0.2727  0.5287 -0.7958
 2097TIP3    H1 6297   5.238   3.145   2.547  0.1604 -0.2294  1.0495
 2097TIP3    H2 6298   5.153   3.109   2.427  2.8868  1.1480 -1.4112
 2098TIP3   OH2 6299   1.566   0.263   0.422 -0.5444  0.1554 -0.1869
 2098TIP3    H1 6300   1.512   0.298   0.350 -0.9934  1.3928  0.7088
 2098TIP3    H2 6301   1.544   0.318   0.497  1.4957  0.2817  0.3812
 2099TIP3   OH2 6302   1.546   0.660   2.736  0.5371 -0.1263 -0.5582
 2099TIP3    H1 6303   1.481   0.597   2.703  0.5740  0.0503 -0.9661
 2099TIP3    H2 6304   1.513   0.684   2.823  0.5381 -0.7284 -0.3885
 2100TIP3   OH2 6305   1.398   5.667   4.482  0.3240 -0.2901  0.2260
 2100TIP3    H1 6306   1.466   5.705   4.428  0.8887 -0.9397  0.4637
 2100TIP3    H2 6307   1.325   5.651   4.422  0.9930 -1.1429 -0.3852
 2101TIP3   OH2 6308  -0.002   3.968   1.076 -0.4718 -0.8095  0.5602
 2101TIP3    H1 6309  -0.034   4.055   1.099 -1.2497 -0.4755 -1.5994
 2101TIP3    H2 6310   0.090   3.981   1.056 -0.0892 -0.8886  2.1015
 2102TIP3   OH2 6311   2.465   3.196   5.050 -0.1304  0.9344 -0.5546
 2102TIP3    H1 6312   2.400   3.197   4.980  1.3271  2.3925 -1.9512
 2102TIP3    H2 6313   2.537   3.249   5.017  0.9192  1.0682  1.7713
 2103TIP3   OH2 6314   3.169   2.317   4.592 -0.0091 -0.0996 -0.4934
 2103TIP3    H1 6315   3.207   2.229   4.588  0.1261  0.0003 -1.8067
 2103TIP3    H2 6316   3.134   2.332   4.504 -2.2276  0.2020  0.3752
 2104TIP3   OH2 6317   3.753   1.833   1.376 -0.6027 -1.0693  0.0296
 2104TIP3    H1 6318   3.803   1.799   1.302 -0.0642 -0.9538  0.3382
 2104TIP3    H2 6319   3.812   1.895   1.418 -1.9496  1.1945 -1.2128
 2105TIP3   OH2 6320   2.231   1.775   4.442 -0.1343 -0.4233 -0.1771
 2105TIP3    H1 6321   2.274   1.724   4.510  1.7900  1.5358  0.1845
 2105TIP3    H2 6322   2.274   1.861   4.445 -2.1972  0.7677 -1.7201
 2106TIP3   OH2 6323   2.830   3.342   1.484 -0.1168  0.3327 -0.1719
 2106TIP3    H1 6324   2.836   3.247   1.482  0.6663  0.3379 -3.1126
 2106TIP3    H2 6325   2.918   3.371   1.512 -0.2161  0.2053  0.2765
 2107TIP3   OH2 6326   1.649   5.571   3.901  0.2396 -0.3032  0.5492
 2107TIP3    H1 6327   1.595   5.492   3.904 -2.0752  1.1451  0.0822
 2107TIP3    H2 6328   1.636   5.605   3.813  1.1541  0.6127  0.7509
 2108TIP3   OH2 6329   5.745   5.564   4.632  0.3888 -0.3209  0.4570
 2108TIP3    H1 6330   5.712   5.623   4.699 -0.8275  0.3653 -0.6924
 2108TIP3    H2 6331   5.795   5.620   4.573  1.8713 -0.9971  1.0190
 2109TIP3   OH2 6332   3.114   1.687   3.241 -0.3018  0.0923  0.0951
 2109TIP3    H1 6333   3.060   1.608   3.241  0.3801 -0.3886 -0.3859
 2109TIP3    H2 6334   3.203   1.656   3.260  0.1932  0.5573 -1.2980
 2110TIP3   OH2 6335   1.086   5.665   3.882 -0.5880  0.6425 -0.0503
 2110TIP3    H1 6336   1.049   5.643   3.796 -0.8052  2.1649 -0.3721
 2110TIP3    H2 6337   1.012   5.660   3.942 -0.9969  2.0507 -0.4073
 2111TIP3   OH2 6338   4.010   4.543   0.608 -0.1451 -0.1373 -0.4842
 2111TIP3    H1 6339   3.923   4.519   0.638 -0.4560  0.1433 -1.1351
 2111TIP3    H2 6340   4.065   4.540   0.686 -1.0667  1.2694  0.2551
 2112TIP3   OH2 6341   5.861   0.010   2.546 -0.2353  0.5481  0.1254
 2112TIP3    H1 6342   5.898   0.099   2.547  1.3634 -0.0579  2.0942
 2112TIP3    H2 6343   5.915  -0.036   2.482  1.3060  0.1658  1.6126
 2113TIP3   OH2 6344   0.130   2.161   2.379  0.0856  0.4701  0.9421
 2113TIP3    H1 6345   0.088   2.118   2.305  1.7694  0.0085  0.2086
 2113TIP3    H2 6346   0.061   2.214   2.419 -0.9434  0.4459 -0.7389
 2114TIP3   OH2 6347   6.096   0.831   3.259  0.0551  0.2032  0.4293
 2114TIP3    H1 6348   6.089   0.924   3.238  3.2690  0.2942 -0.7888
 2114TIP3    H2 6349   6.080   0.827   3.353 -0.0567  1.9978  0.5322
 2115TIP3   OH2 6350   1.981   4.785   0.768  0.3892  0.7141  0.2235
 2115TIP3    H1 6351   1.913   4.752   0.826 -0.5559 -0.0174 -1.2221
 2115TIP3    H2 6352   2.034   4.843   0.823  0.6332 -1.2988  2.2633
 2116TIP3   OH2 6353   5.774   3.045   4.362 -0.2907 -0.4386  0.1640
 2116TIP3    H1 6354   5.852   3.057   4.416 -1.8555 -2.1674  3.1018
 2116TIP3    H2 6355   5.725   3.126   4.372 -0.5757 -0.7488  1.4607
 2117TIP3   OH2 6356   1.692   4.541   1.543 -0.5729 -0.0032  0.0603
 2117TIP3    H1 6357   1.685   4.476   1.474 -0.9975  0.5040 -0.3784
 2117TIP3    H2 6358   1.616   4.598   1.532  1.4741  2.6347 -1.7248
 2118TIP3   OH2 6359   4.738   3.804   2.796 -0.2578 -0.4003  0.1096
 2118TIP3    H1 6360   4.659   3.834   2.750 -1.9632 -1.1549  2.3102
 2118TIP3    H2 6361   4.771   3.883   2.839 -1.2765 -0.4930  1.1205
 2119TIP3   OH2 6362   2.836   4.879   0.581 -0.0319 -0.1873 -0.7915
 2119TIP3    H1 6363   2.770   4.838   0.636 -0.5112  0.7999 -0.6077
 2119TIP3    H2 6364   2.798   4.880   0.493 -0.6384  1.1145 -0.5411
 2120TIP3   OH2 6365   5.209   5.764   3.541  0.0170  0.4611  0.7655
 2120TIP3    H1 6366   5.124   5.776   3.499  0.2310  0.0421  0.1912
 2120TIP3    H2 6367   5.270   5.812   3.485  0.0703  1.2973  1.5304
 2121TIP3   OH2 6368   1.756   2.365   2.628 -0.2634 -0.3808  0.1500
 2121TIP3    H1 6369   1.731   2.408   2.710  0.9421 -0.7450  0.7309
 2121TIP3    H2 6370   1.678   2.317   2.601 -0.4653 -0.8249  1.4593
 2122TIP3   OH2 6371   0.042   2.791   4.402 -0.3632 -0.0834  0.2749
 2122TIP3    H1 6372   0.117   2.849   4.395  0.5750 -1.3614 -1.2440
 2122TIP3    H2 6373  -0.010   2.810   4.324 -0.9876 -0.0165  0.7080
 2123TIP3   OH2 6374   0.668   0.058   3.486  0.4350  0.4236  0.3745
 2123TIP3    H1 6375   0.698   0.133   3.435  1.9978 -0.6714 -0.4071
 2123TIP3    H2 6376   0.746   0.004   3.498 -0.9163 -1.9602 -0.6171
 2124TIP3   OH2 6377   4.835   0.929   4.896 -0.3034  0.4355 -0.2537
 2124TIP3    H1 6378   4.891   0.982   4.953 -1.4108  0.4458  0.8560
 2124TIP3    H2 6379   4.750   0.973   4.897 -0.7850 -0.4638 -0.6228
 2125TIP3   OH2 6380   3.774   0.107   0.040 -0.0623  0.4956 -0.2771
 2125TIP3    H1 6381   3.695   0.063   0.009  0.3399 -0.5664  0.1611
 2125TIP3    H2 6382   3.835   0.100  -0.033 -0.2490  1.0038 -0.4852
 2126TIP3   OH2 6383   3.044   3.606   0.653  0.0272  0.0292 -0.4036
 2126TIP3    H1 6384   3.131   3.571   0.638 -0.6038 -1.6810 -0.2589
 2126TIP3    H2 6385   2.987   3.529   0.658 -1.1194  0.9285  2.0942
 2127TIP3   OH2 6386   2.474   1.394   0.542 -0.5067 -0.6004 -0.4768
 2127TIP3    H1 6387   2.381   1.417   0.544 -0.5430 -0.7313 -0.6981
 2127TIP3    H2 6388   2.499   1.391   0.634 -0.4489  0.5592 -0.4360
 2128TIP3   OH2 6389   3.168   1.830   2.465  0.7568  0.2811 -0.1686
 2128TIP3    H1 6390   3.198   1.917   2.489  0.8747  0.2236 -0.1029
 2128TIP3    H2 6391   3.218   1.771   2.522  0.6604  0.1727 -0.1953
 2129TIP3   OH2 6392   0.050   3.230   0.465 -0.1918  0.2644  0.1216
 2129TIP3    H1 6393   0.060   3.318   0.429 -1.8925  0.0420 -1.0427
 2129TIP3    H2 6394   0.000   3.243   0.546 -1.2799  0.3373 -0.5337
 2130TIP3   OH2 6395   0.234   4.059   2.862  0.4629 -0.1438 -0.3173
 2130TIP3    H1 6396   0.270   3.973   2.840  0.8868 -0.2635  0.7963
 2130TIP3    H2 6397   0.311   4.112   2.885  0.0491 -0.0064  0.7888
 2131TIP3   OH2 6398   3.034   0.138   4.754  0.2266  0.4748 -0.2501
 2131TIP3    H1 6399   3.106   0.079   4.777 -0.9280 -0.9807 -0.2572
 2131TIP3    H2 6400   2.986   0.149   4.837 -2.1158 -2.2466 -1.0683
 2132TIP3   OH2 6401   1.607   2.833   4.891  0.2915  0.1202  0.5539
 2132TIP3    H1 6402   1.600   2.928   4.898 -0.2443  0.0722  0.7754
 2132TIP3    H2 6403   1.568   2.800   4.972  1.2114 -0.2729  0.8482
 2133TIP3   OH2 6404   4.959   4.067   4.072  0.0921 -0.5842  0.2301
 2133TIP3    H1 6405   4.882   4.083   4.018 -0.1756  0.1436  0.8131
 2133TIP3    H2 6406   5.016   4.013   4.017  0.1578  0.7599 -1.0663
 2134TIP3   OH2 6407   3.153   5.880   3.539  0.0691  0.4512  0.0515
 2134TIP3    H1 6408   3.081   5.877   3.602 -0.8106  2.2330 -0.7724
 2134TIP3    H2 6409   3.139   5.803   3.484 -1.5200  0.9847 -0.3663
 2135TIP3   OH2 6410   0.590   5.059   2.123 -0.4496  0.0430 -0.3164
 2135TIP3    H1 6411   0.602   4.965   2.136  0.9708  0.5112  2.3790
 2135TIP3    H2 6412   0.662   5.085   2.065  1.7877  0.0632  2.3000
 2136TIP3   OH2 6413   2.656   1.619   1.242 -0.4710 -0.3823 -0.8882
 2136TIP3    H1 6414   2.658   1.540   1.188  2.5318 -0.4476 -0.8425
 2136TIP3    H2 6415   2.645   1.586   1.331 -0.2511 -0.6847 -0.9709
 2137TIP3   OH2 6416   6.191   5.720   3.935  0.1246 -0.0835  0.2978
 2137TIP3    H1 6417   6.188   5.816   3.940 -1.1475 -0.0802 -0.1746
 2137TIP3    H2 6418   6.204   5.692   4.026 -0.9108  0.5082  0.6441
 2138TIP3   OH2 6419   2.933   0.814   3.143  0.2505 -0.3103 -0.3114
 2138TIP3    H1 6420   2.851   0.816   3.193 -0.8838 -0.1867 -2.0544
 2138TIP3    H2 6421   2.924   0.887   3.081  3.0804  1.7109  1.4438
 2139TIP3   OH2 6422   1.990   4.629   4.059  0.2170 -0.4071  0.4094
 2139TIP3    H1 6423   1.961   4.556   4.005  0.6232 -1.2499  1.3215
 2139TIP3    H2 6424   1.920   4.643   4.122 -0.2546  0.5758 -0.3059
 2140TIP3   OH2 6425   4.106   4.606   2.059 -0.3113 -0.7334  0.0495
 2140TIP3    H1 6426   4.132   4.528   2.108 -0.6736 -0.4508  0.7048
 2140TIP3    H2 6427   4.117   4.581   1.967  2.6295 -0.5289  0.2486
 2141TIP3   OH2 6428   6.017   0.947   2.530  0.1596  0.0434  0.2891
 2141TIP3    H1 6429   6.093   0.923   2.583  0.1146  0.6012  0.6067
 2141TIP3    H2 6430   6.035   0.906   2.445  0.6268 -0.1624  0.4789
 2142TIP3   OH2 6431   2.413   0.659   3.028  0.6015 -0.4752 -0.2757
 2142TIP3    H1 6432   2.502   0.652   2.994  0.8386  0.2780  0.1471
 2142TIP3    H2 6433   2.361   0.600   2.973  1.2363 -0.4101 -0.9661
 2143TIP3   OH2 6434   0.193   2.082   4.663 -0.0370  0.3859  0.3507
 2143TIP3    H1 6435   0.195   2.130   4.580 -2.1043  1.5200  0.9061
 2143TIP3    H2 6436   0.239   2.000   4.644  2.1379  1.8143 -1.0847
 2144TIP3   OH2 6437   2.216   3.215   0.989 -0.0966  0.2928 -0.5270
 2144TIP3    H1 6438   2.207   3.267   0.910  2.3370  2.9453  0.7404
 2144TIP3    H2 6439   2.135   3.232   1.039 -0.7897  0.1355 -1.5738
 2145TIP3   OH2 6440   1.533   0.295   3.512 -0.1046 -0.3416 -0.0452
 2145TIP3    H1 6441   1.561   0.206   3.535  2.3446  1.0154  2.9110
 2145TIP3    H2 6442   1.583   0.316   3.433  0.2597 -1.1632 -0.0439
 2146TIP3   OH2 6443   4.093   3.404   0.820  0.0285 -0.3897 -0.4323
 2146TIP3    H1 6444   4.031   3.446   0.879 -0.4016 -0.0713 -1.0904
 2146TIP3    H2 6445   4.072   3.311   0.824  0.3543 -0.4370  0.3113
 2147TIP3   OH2 6446   5.482   0.768   0.950  0.0182 -0.2375  0.3640
 2147TIP3    H1 6447   5.551   0.717   0.993  1.3715 -0.1945 -1.5991
 2147TIP3    H2 6448   5.437   0.704   0.895 -0.5746  0.0312  0.5345
 2148TIP3   OH2 6449   2.732   3.176   0.020  0.7559 -0.1034 -0.0695
 2148TIP3    H1 6450   2.746   3.265   0.053 -0.6352 -0.1983  0.8676
 2148TIP3    H2 6451   2.778   3.119   0.082 -0.2471 -0.1572  0.6522
 2149TIP3   OH2 6452   0.540   2.743   2.073 -0.0697  0.7176  0.2852
 2149TIP3    H1 6453   0.489   2.671   2.038  0.4971 -0.2196  1.3032
 2149TIP3    H2 6454   0.475   2.811   2.094 -0.6083  0.5151 -0.6792
 2150TIP3   OH2 6455   3.002   5.800   2.223  0.0420  0.3678 -0.2038
 2150TIP3    H1 6456   2.977   5.877   2.275 -2.3951  0.0405 -0.7604
 2150TIP3    H2 6457   2.941   5.732   2.251  0.9067 -0.8020 -1.0884
 2151TIP3   OH2 6458   1.949   2.915   0.284 -0.6281 -0.1555  0.1331
 2151TIP3    H1 6459   1.881   2.857   0.250 -0.2651 -1.2623  1.2629
 2151TIP3    H2 6460   2.019   2.857   0.314  0.9954  0.9433 -1.2504
 2152TIP3   OH2 6461   4.316   1.421   5.069  0.1520 -0.3452 -0.0869
 2152TIP3    H1 6462   4.293   1.381   4.985 -0.2980  0.5045 -0.3738
 2152TIP3    H2 6463   4.333   1.513   5.048  0.3573 -0.1977  0.6998
 2153TIP3   OH2 6464   4.817   3.506   0.350 -0.7330 -0.2318 -0.5633
 2153TIP3    H1 6465   4.802   3.413   0.365  1.3475 -0.3860  0.9849
 2153TIP3    H2 6466   4.861   3.537   0.429  1.1865  1.4062 -2.1406
 2154TIP3   OH2 6467   0.274   3.104   1.083 -0.5766 -0.2079 -0.0470
 2154TIP3    H1 6468   0.339   3.058   1.030  0.5623  0.8084  0.4085
 2154TIP3    H2 6469   0.223   3.035   1.126  0.1015 -1.0233 -0.5402
 2155TIP3   OH2 6470   0.357   1.131   3.610  0.2766 -0.2716  0.7323
 2155TIP3    H1 6471   0.272   1.106   3.647  0.4436 -2.5922 -0.2799
 2155TIP3    H2 6472   0.417   1.125   3.684 -0.0036 -1.3180  0.8979
 2156TIP3   OH2 6473   5.348   0.877   2.289 -0.9072  1.1695  0.3957
 2156TIP3    H1 6474   5.325   0.784   2.285 -0.5918  1.0587  1.0883
 2156TIP3    H2 6475   5.278   0.917   2.341 -1.1248  1.3521 -0.0288
 2157TIP3   OH2 6476   3.761   5.710   0.674 -0.3126  0.0909  0.1208
 2157TIP3    H1 6477   3.706   5.642   0.634 -0.4000  0.2796 -0.0844
 2157TIP3    H2 6478   3.701   5.760   0.730  0.0444 -0.8841  1.3993
 2158TIP3   OH2 6479   2.050   0.903   0.093  0.1793 -0.2508 -0.2452
 2158TIP3    H1 6480   2.018   0.934   0.008  0.9811  1.0731 -0.0878
 2158TIP3    H2 6481   2.110   0.832   0.071 -0.0989 -0.3365 -0.7532
 2159TIP3   OH2 6482   3.310   1.386   3.924 -0.1094  0.0147 -0.5264
 2159TIP3    H1 6483   3.318   1.422   3.836  1.4652  0.3711 -0.2648
 2159TIP3    H2 6484   3.250   1.312   3.915 -0.6668  0.5826 -1.7121
 2160TIP3   OH2 6485   2.425   3.658   1.980  0.2252  0.5287 -0.2201
 2160TIP3    H1 6486   2.350   3.634   2.035  0.6263 -0.4280 -0.0629
 2160TIP3    H2 6487   2.388   3.675   1.894 -0.0916 -0.6925 -0.3348
 2161TIP3   OH2 6488   6.001   0.165   0.266  0.1537 -0.6149  0.0379
 2161TIP3    H1 6489   5.962   0.156   0.179 -1.3333  0.7303  0.5221
 2161TIP3    H2 6490   6.036   0.254   0.267  1.0854 -0.9789  0.4676
 2162TIP3   OH2 6491   0.666   5.963   4.003 -0.3799  0.2009 -0.0283
 2162TIP3    H1 6492   0.639   6.042   4.049 -0.0102 -0.4068  1.2929
 2162TIP3    H2 6493   0.599   5.898   4.024  1.6024 -1.1550  2.8249
 2163TIP3   OH2 6494   0.855   5.328   0.333  0.3550  0.0919 -0.0494
 2163TIP3    H1 6495   0.831   5.251   0.385 -1.6017 -0.3556 -1.4786
 2163TIP3    H2 6496   0.848   5.401   0.394 -0.7017 -0.5473  0.6332
 2164TIP3   OH2 6497   0.411   4.881   1.820 -0.1968 -1.1996 -0.2703
 2164TIP3    H1 6498   0.379   4.971   1.822  1.2482 -0.5332 -2.8120
 2164TIP3    H2 6499   0.353   4.834   1.880  0.2046  1.7204  2.7075
 2165TIP3   OH2 6500   2.918   5.455   2.605 -0.1557 -0.1547  0.4758
 2165TIP3    H1 6501   2.845   5.452   2.543 -1.2889 -0.3401  1.7723
 2165TIP3    H2 6502   2.970   5.530   2.577 -1.2586  0.4419 -0.0401
 2166TIP3   OH2 6503   1.630   2.804   1.097 -0.2968 -0.2119  0.2429
 2166TIP3    H1 6504   1.658   2.887   1.135  0.9972  0.5102 -2.0259
 2166TIP3    H2 6505   1.571   2.829   1.025 -0.9376 -1.3391  0.3520
 2167TIP3   OH2 6506   6.205   2.580   5.147 -0.3447 -0.2022  0.6831
 2167TIP3    H1 6507   6.267   2.653   5.139  0.0395 -0.7101 -1.6334
 2167TIP3    H2 6508   6.123   2.621   5.174  0.4258  0.7706  1.6395
 2168TIP3   OH2 6509   3.227   1.318   2.437 -0.4780  0.2262 -0.1133
 2168TIP3    H1 6510   3.285   1.253   2.396 -0.3122 -1.5615  2.6848
 2168TIP3    H2 6511   3.254   1.401   2.400  0.5760 -1.0715 -2.4815
 2169TIP3   OH2 6512   3.062   3.353   1.188 -0.0677  0.0579 -0.1916
 2169TIP3    H1 6513   3.114   3.419   1.143 -0.4039  1.9783  2.0317
 2169TIP3    H2 6514   2.980   3.397   1.208 -0.4498 -1.1395  1.0319
 2170TIP3   OH2 6515   1.975   2.168   2.554  0.1837 -0.4188  0.2644
 2170TIP3    H1 6516   1.927   2.101   2.505 -0.3450 -0.3625  0.6943
 2170TIP3    H2 6517   1.922   2.183   2.632  0.4326  0.3168  0.2990
 2171TIP3   OH2 6518   1.807   3.043   4.456  0.3619  0.0271 -0.0672
 2171TIP3    H1 6519   1.794   2.982   4.384 -2.9246 -0.5009  0.8421
 2171TIP3    H2 6520   1.752   3.118   4.435 -0.7050 -0.1554  1.8592
 2172TIP3   OH2 6521   1.318   4.943   1.735 -0.3084 -0.2975 -0.0962
 2172TIP3    H1 6522   1.283   5.000   1.667 -1.2467  0.4063  0.9525
 2172TIP3    H2 6523   1.269   4.966   1.814  1.9050  0.1044  1.2421
 2173TIP3   OH2 6524   3.502   2.944   0.829  0.1582 -0.0827  0.8298
 2173TIP3    H1 6525   3.571   2.878   0.819  0.7564  0.7142 -0.5744
 2173TIP3    H2 6526   3.466   2.928   0.916  0.6507 -1.9071  0.7350
 2174TIP3   OH2 6527   2.643   0.830   1.619  0.3937 -0.4923 -0.2198
 2174TIP3    H1 6528   2.731   0.814   1.586  0.7875 -2.4230  1.5672
 2174TIP3    H2 6529   2.654   0.900   1.683  0.6682 -0.8253  0.1010
 2175TIP3   OH2 6530   4.292   1.342   1.608  0.1439 -0.6721  0.3208
 2175TIP3    H1 6531   4.254   1.426   1.631  0.8549 -0.6493  1.4759
 2175TIP3    H2 6532   4.276   1.286   1.683  1.9057 -0.7988  0.6616
 2176TIP3   OH2 6533   5.809   0.071   3.214 -0.4858 -0.0277  0.4947
 2176TIP3    H1 6534   5.733   0.097   3.161 -0.6545 -1.1311  0.1512
 2176TIP3    H2 6535   5.885   0.098   3.162 -0.6568 -0.3549  0.0598
 2177TIP3   OH2 6536   5.095   5.058   1.533 -0.4128 -0.0454  0.1646
 2177TIP3    H1 6537   5.072   5.013   1.451 -1.2632  0.7549 -0.0585
 2177TIP3    H2 6538   5.183   5.026   1.554 -0.5518 -0.9597 -0.5682
 2178TIP3   OH2 6539   1.890   3.050   2.604 -0.1028 -0.0991  0.1314
 2178TIP3    H1 6540   1.927   2.967   2.573 -0.7470 -0.2857 -0.1628
 2178TIP3    H2 6541   1.846   3.028   2.686 -1.8930 -0.4628 -0.8792
 2179TIP3   OH2 6542   1.994   4.665   0.036  0.2319  0.1799 -0.4067
 2179TIP3    H1 6543   2.002   4.620   0.120  1.6141 -0.8368 -1.0270
 2179TIP3    H2 6544   1.992   4.595  -0.029 -0.4505  0.9542 -1.2570
 2180TIP3   OH2 6545   2.776   1.246   4.965  0.0898  0.1147  0.5259
 2180TIP3    H1 6546   2.744   1.332   4.938  0.3820 -0.1280 -0.6295
 2180TIP3    H2 6547   2.708   1.211   5.022 -0.7860  0.4415 -0.3064
 2181TIP3   OH2 6548   4.477   0.049   4.200 -0.3965  0.8966  0.1230
 2181TIP3    H1 6549   4.521  -0.013   4.141  1.1393  0.7731  1.3512
 2181TIP3    H2 6550   4.391   0.011   4.215  0.2422 -0.5611  0.2367
 2182TIP3   OH2 6551   0.516   2.978   3.226  0.5212 -0.2051  0.5734
 2182TIP3    H1 6552   0.469   3.061   3.217 -1.2602 -1.0965  1.0219
 2182TIP3    H2 6553   0.512   2.959   3.320  1.3339 -0.5679  0.5365
 2183TIP3   OH2 6554   0.687   5.673   3.332 -0.0450  0.1508 -0.2776
 2183TIP3    H1 6555   0.738   5.595   3.354  0.8827  0.2768 -1.8452
 2183TIP3    H2 6556   0.693   5.679   3.237 -0.3477  1.9783 -0.2054
 2184TIP3   OH2 6557   3.121   2.324   0.120 -0.5623  0.0594 -0.1371
 2184TIP3    H1 6558   3.119   2.228   0.115  1.2640 -0.1259  1.5538
 2184TIP3    H2 6559   3.177   2.343   0.195 -0.2013  2.4778 -0.9296
 2185TIP3   OH2 6560   2.931   4.160   1.346  0.4887 -0.3222  0.0623
 2185TIP3    H1 6561   2.991   4.161   1.271  1.3577  1.1909  0.7388
 2185TIP3    H2 6562   2.964   4.227   1.405  0.1811 -1.8738  2.1235
 2186TIP3   OH2 6563   2.258   4.794   3.672  0.0900 -0.3062 -0.3050
 2186TIP3    H1 6564   2.213   4.871   3.639 -1.2785 -0.3232  1.4093
 2186TIP3    H2 6565   2.338   4.789   3.619  0.0318  2.0366 -0.7318
 2187TIP3   OH2 6566   6.294   3.514   2.229 -0.1979  0.1588  0.1908
 2187TIP3    H1 6567   6.215   3.463   2.246 -0.1092  0.3507  1.2735
 2187TIP3    H2 6568   6.366   3.453   2.246 -0.0973  0.5008  1.0480
 2188TIP3   OH2 6569   5.268   1.845   0.177  0.3300  0.3575 -0.6445
 2188TIP3    H1 6570   5.280   1.867   0.270 -0.7517  0.6535 -0.5653
 2188TIP3    H2 6571   5.352   1.806   0.151  0.6822  0.3611  0.4281
 2189TIP3   OH2 6572   5.997   3.032   4.972 -0.3480 -0.6035 -0.2460
 2189TIP3    H1 6573   5.948   3.038   4.891 -0.9969  1.3538  0.2409
 2189TIP3    H2 6574   6.066   3.098   4.963  0.2111 -1.0816  0.3934
 2190TIP3   OH2 6575   2.935   2.045   3.189 -0.0179 -0.1985  0.3914
 2190TIP3    H1 6576   2.842   2.025   3.184 -0.5333  2.2211 -1.6216
 2190TIP3    H2 6577   2.948   2.077   3.279 -1.6009  1.3022  0.1268
 2191TIP3   OH2 6578   0.568   1.887   4.827  0.4156 -0.9569 -0.4821
 2191TIP3    H1 6579   0.553   1.844   4.743  1.7297 -0.2662 -1.1011
 2191TIP3    H2 6580   0.629   1.828   4.873 -1.0817 -1.8546  0.4546
 2192TIP3   OH2 6581   2.589   4.392   5.003 -0.4430  0.2276  0.5522
 2192TIP3    H1 6582   2.639   4.428   5.077 -0.9160 -0.4821  1.2355
 2192TIP3    H2 6583   2.499   4.389   5.035 -0.6845  0.0945 -0.1365
 2193TIP3   OH2 6584   4.262   5.677   0.170  0.2341 -0.3312  0.0936
 2193TIP3    H1 6585   4.347   5.634   0.170  0.8661  0.8872  0.1525
 2193TIP3    H2 6586   4.264   5.734   0.247 -1.1017 -1.1512  0.7946
 2194TIP3   OH2 6587   4.046   1.781   1.479 -0.5279 -0.2954  0.3238
 2194TIP3    H1 6588   4.073   1.872   1.485 -2.5897  0.4104 -0.2119
 2194TIP3    H2 6589   4.097   1.745   1.406 -2.2434  1.4858 -1.9011
 2195TIP3   OH2 6590   3.618   4.372   1.360 -0.3296  0.7525  0.0436
 2195TIP3    H1 6591   3.528   4.387   1.333 -0.0072  2.6326 -0.1418
 2195TIP3    H2 6592   3.668   4.442   1.317  1.2771 -0.4346 -0.1364
 2196TIP3   OH2 6593   6.059   2.690   1.155  0.1391 -0.4169  0.3582
 2196TIP3    H1 6594   6.147   2.700   1.192  0.9545 -1.8717 -1.0818
 2196TIP3    H2 6595   6.016   2.774   1.173  1.1937 -0.2983  2.6639
 2197TIP3   OH2 6596   4.347   2.004   3.361  0.3487  0.0144  0.7753
 2197TIP3    H1 6597   4.293   1.975   3.288  0.0942  0.3599  0.8238
 2197TIP3    H2 6598   4.307   1.963   3.438  1.4857 -1.5456  0.5699
 2198TIP3   OH2 6599   2.342   3.675   3.825 -0.4965 -0.4036 -0.2031
 2198TIP3    H1 6600   2.384   3.606   3.877  0.0078 -0.5528 -0.7790
 2198TIP3    H2 6601   2.383   3.756   3.854 -1.4774 -0.2733  0.8544
 2199TIP3   OH2 6602   3.192   1.623   1.858  0.5477 -0.0577 -0.3318
 2199TIP3    H1 6603   3.125   1.640   1.792 -0.2641 -2.3340 -0.1939
 2199TIP3    H2 6604   3.274   1.621   1.809  0.0921 -0.5700 -1.1004
 2200TIP3   OH2 6605   5.449   0.762   2.644 -0.2756 -0.0786 -0.6698
 2200TIP3    H1 6606   5.382   0.829   2.627 -1.1768 -0.5757  0.7334
 2200TIP3    H2 6607   5.504   0.801   2.713  0.6973  0.1726 -1.5516
 2201TIP3   OH2 6608   1.758   2.466   3.885 -0.6577 -0.3652 -0.2343
 2201TIP3    H1 6609   1.698   2.537   3.909  0.0105 -0.2555  1.2063
 2201TIP3    H2 6610   1.704   2.387   3.885 -1.0929 -0.0672 -0.3356
 2202TIP3   OH2 6611   0.059   5.492   0.635 -0.0019  0.0534 -0.2785
 2202TIP3    H1 6612   0.006   5.420   0.667 -0.2519  0.0696 -0.6537
 2202TIP3    H2 6613   0.082   5.468   0.545  0.5839  0.0691 -0.1366
 2203TIP3   OH2 6614   0.368   0.164   3.148 -0.1596  0.2233  0.4320
 2203TIP3    H1 6615   0.331   0.080   3.123 -1.2843  0.3527  1.5473
 2203TIP3    H2 6616   0.338   0.178   3.238 -0.4413  2.0576  0.1011
 2204TIP3   OH2 6617   4.601   4.751   2.972 -0.1451 -0.0023  0.5827
 2204TIP3    H1 6618   4.574   4.812   2.904  0.0079 -0.3988  0.1535
 2204TIP3    H2 6619   4.625   4.805   3.047 -1.7208  0.3805  0.8367
 2205TIP3   OH2 6620   3.377   3.115   3.627  0.4935 -1.1379 -0.4086
 2205TIP3    H1 6621   3.350   3.190   3.575 -1.2130 -2.0479 -0.8857
 2205TIP3    H2 6622   3.457   3.145   3.672  0.7094  0.4278 -1.7399
 2206TIP3   OH2 6623   6.059   1.437   1.831  0.6451  0.0899 -0.0101
 2206TIP3    H1 6624   6.026   1.439   1.741  0.1627  1.7797  0.1664
 2206TIP3    H2 6625   6.025   1.356   1.867 -1.4391  0.6633 -0.5428
 2207TIP3   OH2 6626   5.409   4.470   4.246  0.0343 -0.7206 -0.0237
 2207TIP3    H1 6627   5.359   4.451   4.166  0.8143 -0.3979 -0.6001
 2207TIP3    H2 6628   5.372   4.552   4.279 -0.7124 -1.1793  0.3040
 2208TIP3   OH2 6629   1.442   5.429   0.446  0.0524  0.4633 -0.3554
 2208TIP3    H1 6630   1.512   5.423   0.382 -1.1794  0.1221 -1.7096
 2208TIP3    H2 6631   1.467   5.367   0.515 -0.4103 -2.1006 -2.3391
 2209TIP3   OH2 6632   0.588   2.915   4.944  0.1623  0.2466  0.3498
 2209TIP3    H1 6633   0.645   2.902   4.868  0.6990 -0.1702  0.8065
 2209TIP3    H2 6634   0.624   2.856   5.010 -1.3263 -0.6708  0.3902
 2210TIP3   OH2 6635   2.336   4.908   0.766  0.3429 -0.7009 -0.0680
 2210TIP3    H1 6636   2.337   4.844   0.838  0.3409  1.1572  1.6737
 2210TIP3    H2 6637   2.311   4.857   0.689 -2.7091 -2.2920  1.7833
 2211TIP3   OH2 6638   1.074   3.628   3.210  0.2760 -0.2383 -0.3144
 2211TIP3    H1 6639   1.144   3.583   3.258  0.1921  0.8416  0.8608
 2211TIP3    H2 6640   1.047   3.699   3.268  0.0517  1.0153 -1.9039
 2212TIP3   OH2 6641   3.694   2.473   0.073 -1.1150 -0.0997  0.0365
 2212TIP3    H1 6642   3.768   2.440   0.022 -0.3213  1.6428 -0.0307
 2212TIP3    H2 6643   3.669   2.400   0.129  0.3132 -0.9107 -0.3316
 2213TIP3   OH2 6644   6.048   0.647   0.162 -0.3501 -0.1656  0.1130
 2213TIP3    H1 6645   5.990   0.689   0.226 -2.1564 -0.4451 -1.2611
 2213TIP3    H2 6646   6.019   0.682   0.077  2.1459  0.4100 -0.5877
 2214TIP3   OH2 6647   4.738   3.814   4.755  0.2549  0.4293  0.2971
 2214TIP3    H1 6648   4.704   3.773   4.675  0.1961 -2.0300  1.4870
 2214TIP3    H2 6649   4.681   3.889   4.770 -1.1071 -0.3391 -0.7863
 2215TIP3   OH2 6650   2.933   0.084   0.195  0.0514 -0.6627 -0.2550
 2215TIP3    H1 6651   2.980   0.001   0.185 -0.6935 -1.1601  0.2371
 2215TIP3    H2 6652   2.898   0.103   0.108  1.7364  0.0929 -0.8067
 2216TIP3   OH2 6653   1.214   2.959   4.936  0.5387 -0.4176  0.0034
 2216TIP3    H1 6654   1.179   2.953   4.847 -0.1448  1.5634  0.0944
 2216TIP3    H2 6655   1.141   2.993   4.988  1.7048  0.9634  0.7908
 2217TIP3   OH2 6656   4.679   2.275   1.248 -0.1373  0.0365  0.0248
 2217TIP3    H1 6657   4.618   2.313   1.310 -0.4294  1.4863 -1.0913
 2217TIP3    H2 6658   4.705   2.348   1.192  2.0148 -0.6912 -0.0380
 2218TIP3   OH2 6659   5.291   0.823   4.624  0.2125  0.0020 -0.6803
 2218TIP3    H1 6660   5.331   0.821   4.537 -0.1898  2.8908 -1.0213
 2218TIP3    H2 6661   5.207   0.865   4.611  0.1541  0.5325  1.1128
 2219TIP3   OH2 6662   4.539   3.309   4.254  0.2042  0.5509  0.1846
 2219TIP3    H1 6663   4.630   3.297   4.227  0.0544  0.0402 -0.1093
 2219TIP3    H2 6664   4.535   3.272   4.342 -0.0703 -0.9085 -0.4091
 2220TIP3   OH2 6665   2.029   2.592   5.015 -0.3861 -0.0928  0.0200
 2220TIP3    H1 6666   1.994   2.680   4.999 -0.3389 -0.1591 -0.4552
 2220TIP3    H2 6667   1.987   2.564   5.096  0.7702  0.9908  1.0318
 2221TIP3   OH2 6668   6.009   2.919   0.044  0.7686  0.0430 -0.4110
 2221TIP3    H1 6669   5.973   3.003   0.015 -0.8098  0.9760  3.5455
 2221TIP3    H2 6670   6.104   2.934   0.046  0.6604  1.0669 -1.4971
 2222TIP3   OH2 6671   4.881   4.799   3.640 -0.1911  0.3244  0.8193
 2222TIP3    H1 6672   4.789   4.826   3.636 -0.2209  0.2411  0.9297
 2222TIP3    H2 6673   4.894   4.771   3.730 -0.1494  0.0137  0.7180
 2223TIP3   OH2 6674   5.654   0.883   2.799 -0.0158 -0.3425  0.4814
 2223TIP3    H1 6675   5.717   0.936   2.752 -0.1632  0.9833  1.6961
 2223TIP3    H2 6676   5.701   0.853   2.877 -0.2894 -1.0508  0.3853
 2224TIP3   OH2 6677   0.287   1.972   1.440 -0.4733  0.1526  0.3581
 2224TIP3    H1 6678   0.281   2.024   1.360 -0.8762  0.4925  0.6038
 2224TIP3    H2 6679   0.276   1.882   1.412 -0.4292  0.2566  0.0074
 2225TIP3   OH2 6680   5.231   2.400   4.520  0.3242  0.4959  0.4061
 2225TIP3    H1 6681   5.237   2.475   4.462 -1.4192  0.0627 -0.4029
 2225TIP3    H2 6682   5.310   2.348   4.502 -0.6435 -0.1493 -2.3637
 2226TIP3   OH2 6683   0.387   1.826   0.667  0.1587 -0.3916 -0.2551
 2226TIP3    H1 6684   0.324   1.870   0.611  0.8224 -0.7714 -1.3137
 2226TIP3    H2 6685   0.347   1.741   0.686 -0.6990  0.2498  1.0363
 2227TIP3   OH2 6686   5.404   4.925   0.236 -0.2600 -0.0792  0.0020
 2227TIP3    H1 6687   5.475   4.905   0.297 -0.7637  0.2923  0.7297
 2227TIP3    H2 6688   5.425   5.012   0.203 -0.3865  0.0444  0.2425
 2228TIP3   OH2 6689   2.759   3.684   0.422 -0.3792 -0.9221  0.0389
 2228TIP3    H1 6690   2.829   3.636   0.466  0.8254  0.6591 -0.0481
 2228TIP3    H2 6691   2.678   3.655   0.465  0.4623 -1.7459  1.1070
 2229TIP3   OH2 6692   5.284   3.304   1.311  0.3574  0.1912 -0.2421
 2229TIP3    H1 6693   5.223   3.328   1.381  0.0234 -0.7174 -0.2009
 2229TIP3    H2 6694   5.255   3.354   1.235  0.4571  0.8582  0.1492
 2230TIP3   OH2 6695   4.438   0.160   5.082  0.5448 -0.1347  0.3619
 2230TIP3    H1 6696   4.494   0.130   5.153  0.4190  0.6935  0.8231
 2230TIP3    H2 6697   4.401   0.242   5.113  1.1573  0.6899 -1.0054
 2231TIP3   OH2 6698   4.204   2.973   3.730  0.1651  0.2508 -0.2609
 2231TIP3    H1 6699   4.214   2.885   3.693  0.8934  0.1486  0.1641
 2231TIP3    H2 6700   4.138   3.014   3.675 -0.9435 -0.9008  0.1350
 2232TIP3   OH2 6701   0.630   3.105   1.498 -0.5681  0.4849  0.4797
 2232TIP3    H1 6702   0.663   3.195   1.509 -0.8272  0.8184 -1.1935
 2232TIP3    H2 6703   0.535   3.115   1.493 -0.4851  0.5252 -2.5520
 2233TIP3   OH2 6704   2.222   3.756   0.003 -0.1017  0.1598 -0.1018
 2233TIP3    H1 6705   2.273   3.760   0.084 -0.5282  0.7868  0.1378
 2233TIP3    H2 6706   2.288   3.750  -0.066  0.2872  0.4846  0.2346
 2234TIP3   OH2 6707   1.321   0.827   3.163 -0.5309 -0.0232 -0.2601
 2234TIP3    H1 6708   1.248   0.885   3.140  0.2205  1.2233  0.3854
 2234TIP3    H2 6709   1.350   0.858   3.248 -0.4755 -1.7611  0.3914
 2235TIP3   OH2 6710   1.371   2.039   2.558 -0.5460  0.1510 -0.4341
 2235TIP3    H1 6711   1.393   2.119   2.510 -0.7969  2.1255  2.4547
 2235TIP3    H2 6712   1.454   1.993   2.567 -0.2664  0.3986 -1.5847
 2236TIP3   OH2 6713   0.355   4.506   2.869  0.1659  0.5960  0.4947
 2236TIP3    H1 6714   0.346   4.559   2.790 -0.9971 -0.2662  0.0216
 2236TIP3    H2 6715   0.291   4.436   2.858  2.1741 -1.3888  0.7143
 2237TIP3   OH2 6716   5.106   4.124   2.908  0.3454 -0.0460 -0.2964
 2237TIP3    H1 6717   5.072   4.162   2.990 -0.3304 -2.0151  0.4047
 2237TIP3    H2 6718   5.047   4.051   2.890  1.9274 -1.1522 -1.2189
 2238TIP3   OH2 6719   0.735   3.022   3.494  0.3252  0.1998 -0.1231
 2238TIP3    H1 6720   0.768   2.957   3.432 -0.1978 -1.4839  1.2959
 2238TIP3    H2 6721   0.641   3.005   3.499  0.2571  0.7375  0.6407
 2239TIP3   OH2 6722   2.852   5.507   2.882 -0.1872  0.1911  0.1121
 2239TIP3    H1 6723   2.858   5.505   2.787  0.6791  0.8484  0.1330
 2239TIP3    H2 6724   2.798   5.584   2.901  1.1373  1.1443  0.1694
 2240TIP3   OH2 6725   1.408   1.311   0.044  0.6228 -0.0067 -0.4425
 2240TIP3    H1 6726   1.424   1.403   0.065  1.7018 -0.2145 -0.2791
 2240TIP3    H2 6727   1.318   1.296   0.070  0.6372  0.8393  0.1385
 2241TIP3   OH2 6728   5.718   3.880   4.199 -0.1090 -0.3131  0.6927
 2241TIP3    H1 6729   5.640   3.828   4.184 -1.2824  1.4911  0.1468
 2241TIP3    H2 6730   5.780   3.849   4.133 -1.1158 -0.3748 -0.2506
 2242TIP3   OH2 6731   1.862   2.960   3.604  0.0849  0.0133  0.4676
 2242TIP3    H1 6732   1.923   2.888   3.590  0.4292  0.4682 -0.4796
 2242TIP3    H2 6733   1.833   2.950   3.695  0.0211 -1.3867  0.3235
 2243TIP3   OH2 6734   2.736   5.768   2.897 -0.4630 -0.2840  0.5899
 2243TIP3    H1 6735   2.700   5.762   2.808 -1.2696 -0.2741  0.9102
 2243TIP3    H2 6736   2.804   5.834   2.890 -0.3726 -0.4393 -0.0727
 2244TIP3   OH2 6737   5.788   0.990   0.663  0.0145  0.3712 -0.0000
 2244TIP3    H1 6738   5.740   1.062   0.703  0.4487 -0.4059  2.0194
 2244TIP3    H2 6739   5.821   1.026   0.581 -0.8339  2.0660  0.3580
 2245TIP3   OH2 6740   0.293   4.466   3.938 -0.2307 -0.2719  0.0684
 2245TIP3    H1 6741   0.209   4.511   3.948 -0.1991 -0.0374 -0.6891
 2245TIP3    H2 6742   0.282   4.384   3.987 -0.4662  0.3094  1.0148
 2246TIP3   OH2 6743   0.701   0.322   3.411 -0.2352 -0.6327  0.1115
 2246TIP3    H1 6744   0.793   0.300   3.427 -0.5065 -1.0758  1.1331
 2246TIP3    H2 6745   0.705   0.393   3.347  1.0280  2.1858  3.0572
 2247TIP3   OH2 6746   3.055   0.120   1.474  0.0393  0.0366 -0.2197
 2247TIP3    H1 6747   3.053   0.215   1.471  0.2905  0.0272 -1.3591
 2247TIP3    H2 6748   3.139   0.099   1.516  0.5419  0.3323 -1.0362
 2248TIP3   OH2 6749   0.614   3.617   2.397 -0.4892  0.4669 -0.6694
 2248TIP3    H1 6750   0.531   3.647   2.358 -0.1825 -0.1075 -1.8148
 2248TIP3    H2 6751   0.658   3.571   2.326  0.4487  0.0355  0.1733
 2249TIP3   OH2 6752   4.152   4.897   2.693  0.8857  0.4166  0.0857
 2249TIP3    H1 6753   4.207   4.842   2.637  0.0689 -0.1882 -0.1377
 2249TIP3    H2 6754   4.092   4.940   2.632  1.1046  1.0767  0.3279
 2250TIP3   OH2 6755   4.546   4.042   2.090 -0.5052  0.0850 -0.1303
 2250TIP3    H1 6756   4.461   4.087   2.086  0.4277  2.0510  0.6247
 2250TIP3    H2 6757   4.541   3.987   2.168 -1.1624  0.0260 -0.2128
 2251TIP3   OH2 6758   2.065   3.970   4.090  0.1458  0.2709 -0.4880
 2251TIP3    H1 6759   1.978   3.992   4.056  0.0743 -0.8132 -1.0473
 2251TIP3    H2 6760   2.125   4.027   4.042 -0.2658  1.2272  0.0988
 2252TIP3   OH2 6761   5.383   0.650   1.654 -0.4446  0.4108  0.6042
 2252TIP3    H1 6762   5.423   0.629   1.570 -0.5700 -0.9654  0.8628
 2252TIP3    H2 6763   5.343   0.736   1.641  2.3326  1.7458  0.2612
 2253TIP3   OH2 6764   4.385   5.611   0.549  0.0634  0.4666 -0.6233
 2253TIP3    H1 6765   4.301   5.591   0.590  0.4257 -2.2987 -1.0462
 2253TIP3    H2 6766   4.366   5.683   0.488 -2.5307 -1.4287 -2.2635
 2254TIP3   OH2 6767   0.711   5.946   1.451  0.7243 -0.0890  0.6484
 2254TIP3    H1 6768   0.659   5.975   1.526  0.7363 -1.5460  1.2482
 2254TIP3    H2 6769   0.793   5.995   1.459 -0.0138  1.2168  0.4555
 2255TIP3   OH2 6770   5.984   5.456   3.053 -0.5042 -0.0954 -0.3111
 2255TIP3    H1 6771   5.899   5.462   3.009 -1.2272 -0.3473  0.9949
 2255TIP3    H2 6772   6.005   5.546   3.077  0.2878  0.1613 -1.8200
 2256TIP3   OH2 6773   3.813   5.153   3.995 -0.2022  0.2093  0.2096
 2256TIP3    H1 6774   3.857   5.215   3.937  2.1622 -1.8327 -0.3091
 2256TIP3    H2 6775   3.781   5.084   3.938 -3.7543  1.2533  0.6475
 2257TIP3   OH2 6776   0.134   2.711   1.570 -0.1359  0.5093 -0.0148
 2257TIP3    H1 6777   0.075   2.761   1.514 -1.6913 -1.5430 -0.3070
 2257TIP3    H2 6778   0.097   2.718   1.657  0.2826  0.7781  0.1458
 2258TIP3   OH2 6779   1.836   3.514   3.859 -0.6330  0.5352  0.1739
 2258TIP3    H1 6780   1.929   3.523   3.880 -0.4775  2.1215 -1.0571
 2258TIP3    H2 6781   1.794   3.498   3.943  0.6610  0.5184  0.8417
 2259TIP3   OH2 6782   1.174   1.280   0.970  0.1747  0.1118  0.0924
 2259TIP3    H1 6783   1.147   1.188   0.963 -0.1555  0.1808  0.4093
 2259TIP3    H2 6784   1.253   1.286   0.916 -0.9607  0.1067 -1.6455
 2260TIP3   OH2 6785   3.174   5.216   3.628 -0.2345 -0.5000 -0.1293
 2260TIP3    H1 6786   3.154   5.141   3.684  2.5571 -0.7252  0.6888
 2260TIP3    H2 6787   3.268   5.211   3.613 -0.1636  2.1670 -1.0820
 2261TIP3   OH2 6788   6.133   1.423   0.872 -0.3941  0.6351  0.8554
 2261TIP3    H1 6789   6.055   1.376   0.901  0.8406 -1.3511  1.1476
 2261TIP3    H2 6790   6.200   1.356   0.864  0.2578  1.4956 -3.5529
 2262TIP3   OH2 6791   6.289   1.536   1.324 -0.2336 -0.0648  0.1563
 2262TIP3    H1 6792   6.344   1.574   1.256 -0.8809  1.4253  0.4285
 2262TIP3    H2 6793   6.343   1.467   1.363  0.8143  0.2664 -0.6660
 2263TIP3   OH2 6794   1.011   1.707   3.591  0.7716 -0.0596  0.1892
 2263TIP3    H1 6795   1.087   1.753   3.555  0.3036  0.4434 -0.1720
 2263TIP3    H2 6796   1.047   1.649   3.658  1.3579  0.9120  0.7236
 2264TIP3   OH2 6797   2.766   1.758   1.741 -0.2077 -0.0829 -0.1057
 2264TIP3    H1 6798   2.807   1.778   1.825 -0.0937  0.0534 -0.1942
 2264TIP3    H2 6799   2.700   1.691   1.762 -0.2091 -0.0185  0.0981
 2265TIP3   OH2 6800   0.517   1.167   0.542 -0.3655 -0.0471  0.4346
 2265TIP3    H1 6801   0.488   1.240   0.486 -0.9210  0.7101  1.6758
 2265TIP3    H2 6802   0.462   1.094   0.516  0.7585 -0.3193 -1.4250
 2266TIP3   OH2 6803   4.231   2.016   4.839 -0.0761 -0.4390  0.4854
 2266TIP3    H1 6804   4.265   2.078   4.903  2.4990 -0.9420 -0.2926
 2266TIP3    H2 6805   4.244   1.930   4.880 -2.5313 -0.6137  1.0644
 2267TIP3   OH2 6806   1.506   0.216   2.530 -0.5127 -0.3175 -0.0730
 2267TIP3    H1 6807   1.464   0.166   2.460  0.6422  0.0550 -1.0907
 2267TIP3    H2 6808   1.588   0.169   2.547  0.2229  0.7455 -0.5076
 2268TIP3   OH2 6809   1.236   0.956   0.715 -0.3448  0.0714  0.6164
 2268TIP3    H1 6810   1.155   0.966   0.765  0.1405  2.6112  0.9982
 2268TIP3    H2 6811   1.214   0.988   0.627  0.1366  0.4017  0.6137
 2269TIP3   OH2 6812   0.585   4.583   1.162 -0.1996  0.3581  0.0181
 2269TIP3    H1 6813   0.569   4.532   1.083  0.0205  1.4434 -0.7467
 2269TIP3    H2 6814   0.498   4.593   1.201 -0.1816 -1.0146  0.4642
 2270TIP3   OH2 6815   5.061   5.556   0.827  0.2469 -0.8951 -0.6070
 2270TIP3    H1 6816   5.136   5.590   0.778  1.5674 -1.9039  0.6443
 2270TIP3    H2 6817   5.060   5.462   0.806 -0.6523 -0.9005 -0.5663
 2271TIP3   OH2 6818   3.468   2.475   3.059  0.3984 -0.3541  0.1678
 2271TIP3    H1 6819   3.563   2.468   3.052  0.5131  1.1725 -0.0142
 2271TIP3    H2 6820   3.436   2.458   2.971  0.6549  1.1160 -0.2296
 2272TIP3   OH2 6821   5.586   2.438   4.294  0.4157  0.6942 -0.2984
 2272TIP3    H1 6822   5.637   2.519   4.290 -1.2962  2.0898  3.0117
 2272TIP3    H2 6823   5.495   2.467   4.300 -0.2738 -1.4726  0.6146
 2273TIP3   OH2 6824   2.189   2.445   3.699 -0.0451 -0.4679 -0.0046
 2273TIP3    H1 6825   2.272   2.453   3.745 -0.7388  0.2696  1.1637
 2273TIP3    H2 6826   2.134   2.393   3.757 -0.9699  0.5660  0.0661
 2274TIP3   OH2 6827   0.807   5.890   1.793  0.1827  0.2706 -0.8182
 2274TIP3    H1 6828   0.831   5.808   1.751 -0.5273  0.0532 -0.8105
 2274TIP3    H2 6829   0.731   5.921   1.744  1.2418  1.6199 -1.6773
 2275TIP3   OH2 6830   1.360   4.537   0.672 -0.1644  0.2202  0.4115
 2275TIP3    H1 6831   1.342   4.547   0.579 -0.9935 -1.5280  0.3391
 2275TIP3    H2 6832   1.276   4.511   0.710 -0.0828  1.8834  1.8470
 2276TIP3   OH2 6833   5.918   5.824   0.110 -0.0505  0.4440 -0.0430
 2276TIP3    H1 6834   5.946   5.809   0.200 -0.8407  0.3836  0.1949
 2276TIP3    H2 6835   5.932   5.740   0.066  0.6496  0.5657 -0.0709
 2277TIP3   OH2 6836   1.322   5.112   3.462 -0.6423  0.5011  0.3734
 2277TIP3    H1 6837   1.375   5.128   3.540  0.2317 -2.6342  0.5515
 2277TIP3    H2 6838   1.234   5.141   3.488 -0.1717  0.4909  2.1664
 2278TIP3   OH2 6839  -0.000   1.885   4.312 -0.0307 -0.2688 -0.0991
 2278TIP3    H1 6840   0.082   1.848   4.345 -0.0860  0.1407  0.5173
 2278TIP3    H2 6841  -0.044   1.920   4.390 -0.5227  0.0342 -0.5043
 2279TIP3   OH2 6842   3.731   1.521   3.253 -0.2584  0.0543  0.0153
 2279TIP3    H1 6843   3.717   1.510   3.160  2.2134  0.8459 -0.5448
 2279TIP3    H2 6844   3.700   1.610   3.272  1.1800  0.7120 -0.5645
 2280TIP3   OH2 6845   1.565   5.520   0.071 -0.4383 -0.0006 -0.4917
 2280TIP3    H1 6846   1.579   5.552   0.160 -2.2645 -0.7194  0.0879
 2280TIP3    H2 6847   1.482   5.559   0.044 -1.7315 -2.5469 -0.5111
 2281TIP3   OH2 6848   3.366   3.663   3.294 -0.3340  0.6244  0.6573
 2281TIP3    H1 6849   3.351   3.585   3.348 -0.1108  0.7075  0.8402
 2281TIP3    H2 6850   3.461   3.666   3.284 -0.3626  0.7223  0.4256
 2282TIP3   OH2 6851   2.352   0.320   0.003 -0.0414  0.2132 -0.0077
 2282TIP3    H1 6852   2.320   0.351   0.088 -0.0912  1.5455 -0.4812
 2282TIP3    H2 6853   2.446   0.339   0.004 -0.0953  0.5214 -0.3528
 2283TIP3   OH2 6854   4.103   4.257   3.833  0.4488 -0.3674  0.3681
 2283TIP3    H1 6855   4.117   4.172   3.791 -1.4157  0.4154 -2.1015
 2283TIP3    H2 6856   4.133   4.321   3.769  1.0160  0.8973  1.8283
 2284TIP3   OH2 6857   4.398   5.828   1.553 -0.2668  0.0868  0.0871
 2284TIP3    H1 6858   4.307   5.840   1.526 -0.0689  0.4890 -0.4268
 2284TIP3    H2 6859   4.448   5.889   1.498  0.2703  0.1693  0.6433
 2285TIP3   OH2 6860   4.216   3.615   1.279 -0.0601  0.0687  0.0653
 2285TIP3    H1 6861   4.176   3.649   1.359  0.1279  0.8566 -0.1656
 2285TIP3    H2 6862   4.248   3.528   1.303 -0.3356  0.1471  0.7402
 2286TIP3   OH2 6863   3.148   1.074   5.046  0.6247 -0.7371  0.2753
 2286TIP3    H1 6864   3.140   0.987   5.084 -3.7706 -1.2251 -1.1552
 2286TIP3    H2 6865   3.115   1.133   5.113  1.0761 -0.5100  0.2985
 2287TIP3   OH2 6866   4.026   5.157   1.543  0.4079  0.1922 -0.4053
 2287TIP3    H1 6867   4.096   5.135   1.605  0.8493 -1.1690 -1.3395
 2287TIP3    H2 6868   4.053   5.117   1.461 -1.4986 -0.4114 -0.7855
 2288TIP3   OH2 6869   0.766   2.415   3.981  0.1413  0.0759 -0.3398
 2288TIP3    H1 6870   0.726   2.481   4.037  2.2368  1.7179 -0.6500
 2288TIP3    H2 6871   0.727   2.332   4.010 -1.9877  1.3226  0.6008
 2289TIP3   OH2 6872   0.112   5.783   4.439  0.3718 -0.4711  0.5525
 2289TIP3    H1 6873   0.147   5.695   4.430  0.4219 -0.2856 -1.6359
 2289TIP3    H2 6874   0.018   5.773   4.424  0.5128 -0.0613 -0.7556
 2290TIP3   OH2 6875   4.165   3.609   1.623  0.2190 -0.1882 -0.0608
 2290TIP3    H1 6876   4.216   3.543   1.576 -0.2552 -0.5570 -0.0616
 2290TIP3    H2 6877   4.115   3.560   1.688 -0.2723  0.1435 -0.1764
 2291TIP3   OH2 6878   1.517   3.112   2.930  0.2291  1.1110  1.0070
 2291TIP3    H1 6879   1.590   3.053   2.911  0.7744  1.9668  0.3626
 2291TIP3    H2 6880   1.443   3.076   2.880  0.7425  1.3557  0.0353
 2292TIP3   OH2 6881   5.459   2.597   3.191  0.1855 -0.2121  0.1961
 2292TIP3    H1 6882   5.466   2.664   3.123 -0.5754  0.3038  0.6108
 2292TIP3    H2 6883   5.496   2.637   3.269  2.3489 -1.2875 -0.1950
 2293TIP3   OH2 6884   2.486   5.860   4.533 -0.4007 -0.3832 -0.2827
 2293TIP3    H1 6885   2.495   5.787   4.595  1.3547 -0.6322 -0.7637
 2293TIP3    H2 6886   2.452   5.932   4.586  2.4694 -0.1232  1.4411
 2294TIP3   OH2 6887   5.714   2.537   4.000 -0.3574 -0.0106 -0.3529
 2294TIP3    H1 6888   5.734   2.625   3.967  2.7214 -0.9511 -1.3485
 2294TIP3    H2 6889   5.759   2.533   4.084 -0.7056 -0.5571 -0.1939
 2295TIP3   OH2 6890   6.237   2.797   3.280 -0.1334  0.2632  0.0436
 2295TIP3    H1 6891   6.280   2.716   3.305 -0.8015  0.2211  1.1357
 2295TIP3    H2 6892   6.267   2.861   3.345 -1.0376  0.4377  0.2963
 2296TIP3   OH2 6893   4.686   4.561   4.490 -0.0737  0.2583  0.4691
 2296TIP3    H1 6894   4.613   4.614   4.520  0.1931  0.8367  0.1022
 2296TIP3    H2 6895   4.675   4.555   4.395  1.5219  2.1762  0.1014
 2297TIP3   OH2 6896   2.012   3.127   2.236 -0.4586 -0.1371 -0.0686
 2297TIP3    H1 6897   2.106   3.143   2.237 -0.5922  0.9970 -1.6321
 2297TIP3    H2 6898   2.002   3.036   2.266  1.0624 -0.0761  0.6801
 2298TIP3   OH2 6899   2.895   5.571   0.721  0.4393  0.4360  0.2638
 2298TIP3    H1 6900   2.894   5.554   0.627 -0.7043  0.1657  0.3103
 2298TIP3    H2 6901   2.833   5.508   0.757  1.0788  0.3370  1.2476
 2299TIP3   OH2 6902   2.672   2.691   1.871  0.5351  0.1737  0.4904
 2299TIP3    H1 6903   2.729   2.653   1.938 -1.2518 -0.2678  1.8404
 2299TIP3    H2 6904   2.583   2.678   1.905 -0.3485  1.6531 -1.0939
 2300TIP3   OH2 6905   4.259   0.955   2.218  0.1547  0.4167 -0.6335
 2300TIP3    H1 6906   4.353   0.936   2.210  0.1659  0.7784 -1.5156
 2300TIP3    H2 6907   4.231   0.908   2.296  0.4236 -2.1942 -2.0168
 2301TIP3   OH2 6908   5.081   5.365   3.690  0.3764  0.1924  0.1757
 2301TIP3    H1 6909   5.130   5.421   3.629 -0.6458  2.3502  1.2476
 2301TIP3    H2 6910   5.004   5.337   3.640  1.3900 -1.1716 -0.6962
 2302TIP3   OH2 6911   0.456   1.677   2.932  0.0099  0.3688 -0.1695
 2302TIP3    H1 6912   0.444   1.584   2.915  1.5003  0.3559 -1.3812
 2302TIP3    H2 6913   0.511   1.681   3.009  2.2813  0.1184 -1.6892
 2303TIP3   OH2 6914   1.334   1.795   0.790  0.2085 -0.2285 -0.1350
 2303TIP3    H1 6915   1.249   1.781   0.748  0.4684 -0.9672 -0.4226
 2303TIP3    H2 6916   1.342   1.723   0.852  0.5052 -0.0051  0.0873
 2304TIP3   OH2 6917   5.444   0.953   0.531 -0.3320  0.0834 -0.5279
 2304TIP3    H1 6918   5.440   1.022   0.464 -1.6608  1.1453  0.5850
 2304TIP3    H2 6919   5.508   0.984   0.595 -0.8188  0.2234 -0.1021
 2305TIP3   OH2 6920   5.987   5.154   4.005 -0.1906  0.6099 -0.2320
 2305TIP3    H1 6921   5.975   5.160   4.099  2.9599 -0.7720  0.3885
 2305TIP3    H2 6922   6.022   5.239   3.979  0.2309  0.5320  0.0863
 2306TIP3   OH2 6923   2.253   5.363   0.919  0.6027  0.6250  0.0385
 2306TIP3    H1 6924   2.336   5.332   0.883  0.0486  0.6609 -1.3301
 2306TIP3    H2 6925   2.191   5.293   0.900 -0.1598  1.5537 -1.0088
 2307TIP3   OH2 6926   3.921   5.412   2.591  0.3539 -0.1041  0.1345
 2307TIP3    H1 6927   3.920   5.366   2.506  0.7400 -1.2364  0.7171
 2307TIP3    H2 6928   3.892   5.346   2.654  0.6610  0.5465  0.9687
 2308TIP3   OH2 6929  -0.032   1.253   0.818 -0.2547 -0.7167  0.1957
 2308TIP3    H1 6930   0.011   1.213   0.743 -1.1282  0.1684 -0.7979
 2308TIP3    H2 6931   0.035   1.251   0.887  1.4319  0.6033 -1.3041
 2309TIP3   OH2 6932   3.502   0.349   0.334  0.4399  0.4254 -0.0333
 2309TIP3    H1 6933   3.555   0.287   0.385  0.9015  1.3600  0.6768
 2309TIP3    H2 6934   3.432   0.375   0.394  0.6113  1.0454 -0.0922
 2310TIP3   OH2 6935   2.239   0.758   4.507  0.0506 -0.3685 -0.0722
 2310TIP3    H1 6936   2.233   0.830   4.571  0.8921  0.3412 -0.7692
 2310TIP3    H2 6937   2.281   0.687   4.555  1.9147  0.6096 -0.1733
 2311TIP3   OH2 6938   1.465   3.097   4.960 -0.3319  0.4106 -0.1422
 2311TIP3    H1 6939   1.498   3.118   4.872 -0.9795  0.3581 -0.4019
 2311TIP3    H2 6940   1.376   3.067   4.946 -0.8282  1.4420  0.6355
 2312TIP3   OH2 6941   2.777   4.111   1.799 -0.1233  0.2427  0.0991
 2312TIP3    H1 6942   2.863   4.154   1.803  0.8526 -1.5560 -0.4853
 2312TIP3    H2 6943   2.725   4.157   1.865  1.1235  1.6990  0.1346
 2313TIP3   OH2 6944   3.033   4.342   2.388  0.3261  0.0039 -0.1177
 2313TIP3    H1 6945   3.099   4.359   2.320 -0.3428 -0.7922 -0.9977
 2313TIP3    H2 6946   3.066   4.387   2.466  1.4930  0.3030 -0.7645
 2314TIP3   OH2 6947   0.457   1.926   4.500  0.7065  0.2543  0.2431
 2314TIP3    H1 6948   0.501   2.009   4.485  0.4798  0.1475 -1.1678
 2314TIP3    H2 6949   0.495   1.867   4.434 -1.8653  0.2977 -1.4318
 2315TIP3   OH2 6950   4.850   5.820   4.582 -0.0198 -0.4511 -0.1263
 2315TIP3    H1 6951   4.930   5.782   4.546  0.0399 -0.0566 -0.4080
 2315TIP3    H2 6952   4.870   5.832   4.675  0.0270 -0.9350 -0.0721
 2316TIP3   OH2 6953   4.160   2.922   1.573  0.0264 -0.3754  0.1887
 2316TIP3    H1 6954   4.209   2.916   1.491 -0.4699  0.0472 -0.1453
 2316TIP3    H2 6955   4.121   3.009   1.572  1.2406  0.2234  1.5830
 2317TIP3   OH2 6956   5.455   2.302   0.377 -0.1667  0.3287  0.4376
 2317TIP3    H1 6957   5.523   2.242   0.347  0.0195  0.2190  1.0536
 2317TIP3    H2 6958   5.481   2.388   0.342  1.6612  0.7797  2.6599
 2318TIP3   OH2 6959   1.247   1.971   4.303 -0.0519 -0.3881  0.0477
 2318TIP3    H1 6960   1.244   2.066   4.292 -6.1508 -0.2478 -1.1564
 2318TIP3    H2 6961   1.283   1.938   4.221  0.6214  0.8796 -0.1785
 2319TIP3   OH2 6962   0.374   3.056   2.527  0.1373 -0.1970  0.7527
 2319TIP3    H1 6963   0.335   3.035   2.443  0.6762  1.4136  0.0653
 2319TIP3    H2 6964   0.468   3.046   2.513  0.5567  3.2368  0.0738
 2320TIP3   OH2 6965   3.385   1.911   3.471  0.5735 -0.6481  0.0697
 2320TIP3    H1 6966   3.332   1.971   3.524 -0.8988 -2.3414  0.5915
 2320TIP3    H2 6967   3.368   1.939   3.381 -0.6151 -0.6689  0.2724
 2321TIP3   OH2 6968   3.328   5.284   4.108 -0.1385  0.1301  0.3598
 2321TIP3    H1 6969   3.246   5.299   4.061 -0.5330  1.0024  1.2768
 2321TIP3    H2 6970   3.397   5.301   4.043 -0.6616 -0.9827 -0.5241
 2322TIP3   OH2 6971   2.774   0.707   4.211  0.0595 -0.3244  0.1275
 2322TIP3    H1 6972   2.685   0.692   4.243  0.2529  2.4849  2.4021
 2322TIP3    H2 6973   2.831   0.671   4.279  0.6349 -0.2779 -0.3203
 2323TIP3   OH2 6974   4.843   4.051   1.779 -0.3596  0.1586 -0.1018
 2323TIP3    H1 6975   4.759   4.017   1.749 -1.0639  2.0037 -0.3557
 2323TIP3    H2 6976   4.837   4.051   1.874 -0.5559  0.0637 -0.1144
 2324TIP3   OH2 6977   1.636   2.478   0.239 -0.5020 -0.2767  0.0830
 2324TIP3    H1 6978   1.623   2.386   0.215 -1.0155 -0.3434  0.5685
 2324TIP3    H2 6979   1.696   2.475   0.313 -0.3294 -0.2057 -0.0550
 2325TIP3   OH2 6980   2.135   3.511   1.488 -0.1262  0.0522 -0.0655
 2325TIP3    H1 6981   2.154   3.564   1.411 -0.6599  1.2155  0.5846
 2325TIP3    H2 6982   2.063   3.556   1.532  0.2250 -0.5423  1.1704
 2326TIP3   OH2 6983   3.851   5.135   4.281 -0.3234 -0.3891  0.4221
 2326TIP3    H1 6984   3.794   5.068   4.317  0.4848 -0.8872  0.8172
 2326TIP3    H2 6985   3.825   5.142   4.189  0.3925 -2.1646  0.0400
 2327TIP3   OH2 6986   3.188   5.235   2.693 -0.3485  0.0656 -0.3002
 2327TIP3    H1 6987   3.217   5.215   2.604  0.6332 -0.6045  0.1545
 2327TIP3    H2 6988   3.182   5.330   2.695  0.3461  0.1325 -0.8765
 2328TIP3   OH2 6989   6.314   3.836   3.876  0.2381 -0.1865  0.6507
 2328TIP3    H1 6990   6.407   3.844   3.855  0.0909 -1.2800 -0.5652
 2328TIP3    H2 6991   6.269   3.877   3.802 -0.2471 -0.6233  0.6952
 2329TIP3   OH2 6992   2.434   1.730   1.683  0.4751 -0.4693 -0.3585
 2329TIP3    H1 6993   2.508   1.711   1.626  0.0358  1.1627 -1.5509
 2329TIP3    H2 6994   2.473   1.764   1.763  1.0337  0.8704 -1.1734
 2330TIP3   OH2 6995   3.873   1.255   2.543  0.2857  0.0436 -0.8304
 2330TIP3    H1 6996   3.906   1.170   2.511  0.2661  0.4273 -1.9202
 2330TIP3    H2 6997   3.945   1.290   2.596 -0.5487 -1.6484  1.6108
 2331TIP3   OH2 6998   0.489   5.800   4.156 -0.2581  0.4224  0.6247
 2331TIP3    H1 6999   0.428   5.803   4.082 -0.2184  1.0713  0.6119
 2331TIP3    H2 7000   0.447   5.854   4.223  0.3194  0.8985  0.6029
 2332TIP3   OH2 7001   2.612   5.038   4.428 -0.5639  0.6891 -0.2120
 2332TIP3    H1 7002   2.616   5.028   4.523  2.4906 -2.5759 -0.4603
 2332TIP3    H2 7003   2.573   4.955   4.398  2.3707 -0.2463 -1.8370
 2333TIP3   OH2 7004   2.516   4.003   2.929 -0.0198 -0.1862  0.0525
 2333TIP3    H1 7005   2.478   4.026   2.844  0.4939  0.8679  0.0874
 2333TIP3    H2 7006   2.534   3.909   2.923 -2.5851 -0.7420  0.0380
 2334TIP3   OH2 7007   2.101   5.029   2.809  0.0414  0.4041  0.3023
 2334TIP3    H1 7008   2.152   4.990   2.880 -0.9689  1.0425  1.4219
 2334TIP3    H2 7009   2.050   4.956   2.773  0.9669 -0.0335 -0.1570
 2335TIP3   OH2 7010   3.230   3.560   0.987 -0.0250  0.0351  0.5451
 2335TIP3    H1 7011   3.228   3.567   0.892  1.8106 -0.7349  0.4095
 2335TIP3    H2 7012   3.284   3.482   1.004  0.3321  0.6083  2.2105
 2336TIP3   OH2 7013   1.928   1.087   3.019  0.2015 -0.3854  0.1802
 2336TIP3    H1 7014   1.981   1.159   3.053 -0.0696 -0.3689  0.5723
 2336TIP3    H2 7015   1.914   1.029   3.094  0.3246 -0.7909 -0.1074
 2337TIP3   OH2 7016   3.364   4.741   2.041 -0.5482  0.0607 -0.3504
 2337TIP3    H1 7017   3.283   4.748   1.992 -0.0024  1.1159 -1.1484
 2337TIP3    H2 7018   3.412   4.670   1.998 -0.1443  0.8698 -1.2792
 2338TIP3   OH2 7019   5.611   3.375   3.834  0.8997  0.7099  0.1271
 2338TIP3    H1 7020   5.617   3.366   3.739 -2.2883  1.7578 -0.3208
 2338TIP3    H2 7021   5.616   3.285   3.867 -0.6560  0.0204 -1.3356
 2339TIP3   OH2 7022   0.203   2.292   0.687  0.1044  0.1088 -0.1799
 2339TIP3    H1 7023   0.113   2.323   0.688 -0.1704 -0.6589 -0.0431
 2339TIP3    H2 7024   0.256   2.371   0.688 -0.5577  0.5599  1.2746
 2340TIP3   OH2 7025   5.710   5.507   4.316 -0.4603  0.7130 -0.5450
 2340TIP3    H1 7026   5.766   5.497   4.239  1.6562  1.2556  0.8338
 2340TIP3    H2 7027   5.683   5.598   4.315 -0.8109  0.6044 -0.8935
 2341TIP3   OH2 7028   3.888   2.004   3.549  0.5731  0.2429  0.3436
 2341TIP3    H1 7029   3.817   2.065   3.529  0.0080 -0.6840 -0.6110
 2341TIP3    H2 7030   3.959   2.059   3.581 -0.8239  1.1485  2.0809
 2342TIP3   OH2 7031   1.246   4.910   3.991 -0.1952  0.0817 -0.1083
 2342TIP3    H1 7032   1.214   4.926   3.902 -0.0819  1.3097  0.0613
 2342TIP3    H2 7033   1.167   4.908   4.044 -0.1584  0.9958 -0.0043
 2343TIP3   OH2 7034   0.229   2.111   2.656  0.1076  0.1436 -0.0175
 2343TIP3    H1 7035   0.154   2.119   2.714 -1.3694  2.0026 -2.0479
 2343TIP3    H2 7036   0.192   2.115   2.568  2.5158  0.3531 -1.0971
 2344TIP3   OH2 7037   1.529   2.945   2.314  0.0496  0.1689 -0.2793
 2344TIP3    H1 7038   1.496   3.002   2.384 -1.1300  0.7950 -1.2868
 2344TIP3    H2 7039   1.502   2.857   2.340  1.0158  0.1624  0.8054
 2345TIP3   OH2 7040   5.372   0.387   2.892  0.0335 -0.0468 -0.1668
 2345TIP3    H1 7041   5.289   0.371   2.938  0.1162  1.0621  0.4065
 2345TIP3    H2 7042   5.394   0.303   2.852  1.3777 -1.9723  4.0764
 2346TIP3   OH2 7043   3.606   0.477   1.747  0.4917 -0.3244 -0.8693
 2346TIP3    H1 7044   3.649   0.391   1.746  2.2133  0.5030 -1.5849
 2346TIP3    H2 7045   3.676   0.539   1.729 -0.4975  1.3590  0.7353
 2347TIP3   OH2 7046   5.463   4.994   4.274  0.3889  0.1513 -0.6186
 2347TIP3    H1 7047   5.466   4.911   4.227 -0.3382 -0.0155 -0.3840
 2347TIP3    H2 7048   5.405   4.978   4.349  2.5239  0.0294  1.1043
 2348TIP3   OH2 7049   2.752   0.385   4.528  0.4098  0.0298 -0.5483
 2348TIP3    H1 7050   2.834   0.337   4.514  1.0281 -0.1769  2.8974
 2348TIP3    H2 7051   2.687   0.316   4.543  0.4579  0.1923  0.4808
 2349TIP3   OH2 7052   2.889   5.345   4.257  0.1072 -0.5112 -0.3109
 2349TIP3    H1 7053   2.901   5.272   4.197 -0.4440 -0.8093 -0.0635
 2349TIP3    H2 7054   2.890   5.306   4.344 -0.9636 -0.3372 -0.2104
 2350TIP3   OH2 7055   3.883   2.203   4.059 -0.3610 -0.5049 -0.0058
 2350TIP3    H1 7056   3.938   2.267   4.105 -1.8390  0.8086 -0.0061
 2350TIP3    H2 7057   3.944   2.132   4.037  1.2834  0.7588  0.2250
 2351TIP3   OH2 7058   0.592   1.746   0.369 -0.0011  0.2077 -0.6665
 2351TIP3    H1 7059   0.609   1.658   0.403  0.9181  1.4130  2.2191
 2351TIP3    H2 7060   0.611   1.739   0.275  1.4727 -2.3099 -0.2583
 2352TIP3   OH2 7061   1.826   0.765   4.467 -0.4162 -0.1244 -0.5481
 2352TIP3    H1 7062   1.872   0.817   4.401 -0.2147  0.9374  0.3932
 2352TIP3    H2 7063   1.808   0.682   4.424  3.4982 -1.1125 -0.6138
 2353TIP3   OH2 7064   6.281   1.953   1.391  0.2384  0.2658 -0.0072
 2353TIP3    H1 7065   6.274   1.879   1.452  0.2775 -1.6486 -2.1626
 2353TIP3    H2 7066   6.246   1.919   1.309  1.4148  2.2733 -1.4300
 2354TIP3   OH2 7067   3.866   0.300   4.715  0.2401 -0.5490  0.3261
 2354TIP3    H1 7068   3.822   0.337   4.792  0.6294 -0.9456  0.7466
 2354TIP3    H2 7069   3.874   0.206   4.735  1.5523 -0.4347  0.3955
 2355TIP3   OH2 7070   0.554   3.443   4.797  0.0618 -0.6998  0.2195
 2355TIP3    H1 7071   0.525   3.423   4.886 -0.6646  0.6364  0.3029
 2355TIP3    H2 7072   0.635   3.394   4.786  0.7191 -0.0570  1.9838
 2356TIP3   OH2 7073   5.059   2.420   4.741 -0.0648 -0.6430  0.2378
 2356TIP3    H1 7074   5.112   2.417   4.662  1.2213 -0.6653  1.0632
 2356TIP3    H2 7075   5.071   2.333   4.781 -0.9997 -0.7642  0.2748
 2357TIP3   OH2 7076   0.685   5.115   1.760  1.0600  0.0413 -0.6031
 2357TIP3    H1 7077   0.700   5.153   1.674  1.4625  0.6548 -0.2652
 2357TIP3    H2 7078   0.649   5.028   1.742  2.4248 -0.3802 -1.4130
 2358TIP3   OH2 7079   2.449   0.090   2.001  0.1217 -0.5717  0.5343
 2358TIP3    H1 7080   2.491   0.028   2.060 -0.1595 -2.0104 -0.6990
 2358TIP3    H2 7081   2.373   0.122   2.049  0.2451 -1.2188  1.1769
 2359TIP3   OH2 7082   3.871   1.191   1.159  0.3005 -0.2177  0.2028
 2359TIP3    H1 7083   3.949   1.165   1.207  2.1185  0.9933 -1.9055
 2359TIP3    H2 7084   3.857   1.121   1.096  1.0866  0.6141 -0.9266
 2360TIP3   OH2 7085   3.423   0.607   3.504  0.8715 -0.6290  0.2407
 2360TIP3    H1 7086   3.434   0.641   3.593 -0.6080 -1.1424  0.6541
 2360TIP3    H2 7087   3.415   0.685   3.449  1.4085 -0.3075  0.6084
 2361TIP3   OH2 7088   2.554   0.284   1.619  0.2609  0.5683 -0.2469
 2361TIP3    H1 7089   2.471   0.251   1.584  0.3663  0.2805 -0.2332
 2361TIP3    H2 7090   2.560   0.374   1.588 -2.1034  2.1374  3.1745
 2362TIP3   OH2 7091   5.369   0.168   3.187  0.0015  1.0992 -0.1440
 2362TIP3    H1 7092   5.409   0.161   3.274  0.0082 -0.5535 -0.2429
 2362TIP3    H2 7093   5.275   0.176   3.204  0.1156  2.0853  0.0361
 2363TIP3   OH2 7094   5.279   4.915   1.793 -0.2856 -0.1522 -0.3586
 2363TIP3    H1 7095   5.256   4.823   1.779  0.6821 -0.5786  0.7015
 2363TIP3    H2 7096   5.347   4.932   1.727  1.3618 -0.9787  1.0369
 2364TIP3   OH2 7097   4.685   4.491   4.234 -0.5185 -0.7576 -0.0040
 2364TIP3    H1 7098   4.624   4.423   4.207  1.6277 -3.7124  1.9959
 2364TIP3    H2 7099   4.752   4.492   4.166  0.1644 -1.6752  0.6407
 2365TIP3   OH2 7100   0.706   3.828   2.596 -0.1427 -0.2837  0.0129
 2365TIP3    H1 7101   0.698   3.769   2.521  0.5021  0.3832 -0.5882
 2365TIP3    H2 7102   0.779   3.793   2.646 -0.9717 -1.1044  0.6985
 2366TIP3   OH2 7103   1.378   1.044   3.988 -0.3168  0.4339  0.0141
 2366TIP3    H1 7104   1.311   1.097   3.945 -1.1247 -0.5281  0.0632
 2366TIP3    H2 7105   1.453   1.046   3.928 -0.9413  0.2457 -0.7857
 2367TIP3   OH2 7106   2.039   5.831   4.079 -0.0759  0.0205 -0.2584
 2367TIP3    H1 7107   1.963   5.785   4.114  0.2283  0.2085  0.6846
 2367TIP3    H2 7108   2.049   5.908   4.135  0.6306  0.1506 -0.5494
 2368TIP3   OH2 7109   4.494   3.808   0.658 -0.5023 -0.4926  0.4577
 2368TIP3    H1 7110   4.457   3.888   0.621  0.8073 -0.6322 -1.2620
 2368TIP3    H2 7111   4.492   3.745   0.586  0.9770 -1.1748  0.9705
 2369TIP3   OH2 7112   1.565   1.866   3.596 -0.0980  0.1652  0.2944
 2369TIP3    H1 7113   1.547   1.873   3.690 -1.0384  1.7907  0.0331
 2369TIP3    H2 7114   1.607   1.949   3.573 -2.4256  1.0483 -1.2032
 2370TIP3   OH2 7115   2.245   1.384   0.160 -0.4191 -0.2407 -0.4350
 2370TIP3    H1 7116   2.168   1.369   0.105 -0.7172 -1.5749  0.2908
 2370TIP3    H2 7117   2.209   1.419   0.242 -0.4525 -2.1280  0.4159
 2371TIP3   OH2 7118   5.123   0.225   2.676 -0.9496 -0.2836  0.1561
 2371TIP3    H1 7119   5.218   0.219   2.671 -0.8574  1.0854  0.1215
 2371TIP3    H2 7120   5.104   0.241   2.769 -0.9813  1.7250 -0.1576
 2372TIP3   OH2 7121   1.406   3.523   2.627 -0.7858  0.0879  0.2231
 2372TIP3    H1 7122   1.350   3.594   2.659 -0.8959 -0.0987  0.4434
 2372TIP3    H2 7123   1.384   3.515   2.534 -1.2870 -0.1404  0.3617
 2373TIP3   OH2 7124   1.390   1.557   0.132 -0.4001 -0.2551  0.1345
 2373TIP3    H1 7125   1.439   1.634   0.160  0.0325 -1.0153  1.5920
 2373TIP3    H2 7126   1.329   1.540   0.204  0.4340 -2.0206  0.5080
 2374TIP3   OH2 7127   4.983   1.453   2.553 -0.2310 -0.7931  0.5907
 2374TIP3    H1 7128   5.052   1.442   2.487 -0.8468  1.7339 -0.6093
 2374TIP3    H2 7129   4.902   1.441   2.505 -0.7197  1.9242  0.5792
 2375TIP3   OH2 7130   3.824   1.981   3.042 -0.2593 -0.3277 -0.4151
 2375TIP3    H1 7131   3.906   2.016   3.007  0.1863 -0.4349  0.4891
 2375TIP3    H2 7132   3.758   2.046   3.018 -0.4112 -1.3944 -3.3364
 2376TIP3   OH2 7133   0.713   0.143   4.690  0.2814 -0.2615  0.0672
 2376TIP3    H1 7134   0.808   0.144   4.702  0.1654 -0.2038  1.0616
 2376TIP3    H2 7135   0.678   0.133   4.779 -0.6321 -0.7543 -0.3353
 2377TIP3   OH2 7136   0.865   0.425   4.710  0.1189  0.2683  0.2340
 2377TIP3    H1 7137   0.880   0.355   4.647 -0.2683  0.7831 -0.4442
 2377TIP3    H2 7138   0.944   0.479   4.705 -0.2694  0.7957 -0.4698
 2378TIP3   OH2 7139   3.908   4.974   4.732 -0.4615 -0.2583  0.2703
 2378TIP3    H1 7140   3.815   4.984   4.716 -0.0007  0.3093 -2.5178
 2378TIP3    H2 7141   3.932   4.892   4.690  0.4368  0.0040  0.2359
 2379TIP3   OH2 7142   1.827   4.724   1.024  0.2444 -0.1717 -0.3424
 2379TIP3    H1 7143   1.842   4.659   1.093  1.1358 -0.1639 -0.5204
 2379TIP3    H2 7144   1.852   4.807   1.063  0.1147 -0.0737 -0.4640
 2380TIP3   OH2 7145   5.759   1.936   1.249 -0.1625  0.1239  0.4884
 2380TIP3    H1 7146   5.712   1.916   1.169 -0.3366  1.4726  0.2272
 2380TIP3    H2 7147   5.800   1.854   1.274  1.6986  0.1043 -2.1790
 2381TIP3   OH2 7148   1.776   1.426   1.539  0.2581  0.0609  0.5726
 2381TIP3    H1 7149   1.847   1.487   1.559  0.7347 -0.3483  0.1913
 2381TIP3    H2 7150   1.749   1.392   1.624  0.1702  0.6013  0.7634
 2382TIP3   OH2 7151   2.975   5.474   3.837  0.0210 -0.2363 -0.1483
 2382TIP3    H1 7152   2.959   5.568   3.842 -0.1968 -0.1867 -1.4959
 2382TIP3    H2 7153   2.891   5.434   3.857 -0.3992 -0.0882 -1.5362
 2383TIP3   OH2 7154   4.148   5.801   1.438  0.3871  0.5121  0.4845
 2383TIP3    H1 7155   4.077   5.858   1.468 -0.9853 -0.1300 -1.3211
 2383TIP3    H2 7156   4.156   5.821   1.345  1.5891 -0.4971  0.3535
 2384TIP3   OH2 7157   4.195   2.610   1.018 -0.2673  0.1806  0.0247
 2384TIP3    H1 7158   4.233   2.580   1.100  1.2585  0.8358 -0.4176
 2384TIP3    H2 7159   4.233   2.554   0.951 -0.6235  0.3987 -0.3665
 2385TIP3   OH2 7160   5.135   5.760   3.896  0.1944  0.1020  0.0656
 2385TIP3    H1 7161   5.166   5.817   3.825  1.4903 -0.4580  0.1370
 2385TIP3    H2 7162   5.172   5.798   3.975  0.0140 -0.1321  0.2624
 2386TIP3   OH2 7163   2.898   2.911   4.945 -0.4981  0.4462  0.0831
 2386TIP3    H1 7164   2.937   2.890   4.860 -1.2438  1.8329 -0.6383
 2386TIP3    H2 7165   2.805   2.889   4.936 -0.4732  0.0296  0.7529
 2387TIP3   OH2 7166   0.426   1.228   3.935 -0.1808 -0.1550  0.7677
 2387TIP3    H1 7167   0.433   1.322   3.946  0.4256  0.2897 -2.4016
 2387TIP3    H2 7168   0.482   1.191   4.002  2.1013  1.9173  0.1239
 2388TIP3   OH2 7169   1.833   5.355   3.347  0.7136 -0.1421 -0.2324
 2388TIP3    H1 7170   1.880   5.400   3.416 -0.2486  0.5287  0.0021
 2388TIP3    H2 7171   1.806   5.272   3.386  0.6818 -0.0169  0.0102
 2389TIP3   OH2 7172   5.213   3.905   2.200  0.3590 -0.0149  0.6956
 2389TIP3    H1 7173   5.125   3.896   2.163  1.5220 -0.6585 -2.1163
 2389TIP3    H2 7174   5.224   4.000   2.212 -0.5816  0.0990  0.7285
 2390TIP3   OH2 7175   2.950   5.443   4.863  0.1525 -0.3840  0.3580
 2390TIP3    H1 7176   3.012   5.416   4.795 -1.2243  0.9676 -1.5550
 2390TIP3    H2 7177   3.006   5.476   4.934  1.6574  0.0320 -0.9440
 2391TIP3   OH2 7178   4.312   5.010   4.879  0.1330 -0.4147  0.1446
 2391TIP3    H1 7179   4.319   4.938   4.816  0.4508  0.7168 -1.1649
 2391TIP3    H2 7180   4.296   5.088   4.825 -1.9279  0.2794  1.6260
 2392TIP3   OH2 7181   5.449   1.959   1.090 -0.6176  0.2627 -0.2607
 2392TIP3    H1 7182   5.502   2.039   1.095 -0.8227  0.5474 -1.9091
 2392TIP3    H2 7183   5.506   1.894   1.049 -0.7877 -0.1410  0.1287
 2393TIP3   OH2 7184   1.647   3.136   5.205  0.1737  0.4609  0.4400
 2393TIP3    H1 7185   1.565   3.167   5.167 -0.3237 -0.4843  0.7192
 2393TIP3    H2 7186   1.707   3.129   5.131 -0.6747 -1.0068 -0.1425
 2394TIP3   OH2 7187   2.869   4.831   4.604  0.0480 -0.2110 -0.1836
 2394TIP3    H1 7188   2.887   4.807   4.695  0.1274 -2.7608 -0.7780
 2394TIP3    H2 7189   2.774   4.828   4.597 -0.1028  2.0143  0.2446
 2395TIP3   OH2 7190   6.169   3.611   4.641 -0.5304  0.1092  0.4244
 2395TIP3    H1 7191   6.104   3.682   4.639 -0.0233  0.7014  2.5306
 2395TIP3    H2 7192   6.135   3.545   4.580 -1.2167  1.9538 -1.3183
 2396TIP3   OH2 7193   3.800   4.404   1.773 -0.4762 -0.0523 -0.1771
 2396TIP3    H1 7194   3.730   4.339   1.767  1.0040 -1.9078  1.4134
 2396TIP3    H2 7195   3.756   4.483   1.806 -1.6420 -1.6571  2.4864
 2397TIP3   OH2 7196   1.456   4.803   4.729 -0.3539 -0.3305 -0.2824
 2397TIP3    H1 7197   1.395   4.829   4.798 -1.2738 -1.0242 -0.8110
 2397TIP3    H2 7198   1.533   4.770   4.776 -0.2304  0.8564  0.3931
 2398TIP3   OH2 7199   2.860   0.962   0.936 -0.3620  0.5541 -0.7574
 2398TIP3    H1 7200   2.950   0.994   0.938 -0.1057 -0.1466 -0.4951
 2398TIP3    H2 7201   2.843   0.943   0.844  0.9464 -2.4636 -0.4872
 2399TIP3   OH2 7202   6.220   5.658   1.519  0.4902  0.7191  0.1089
 2399TIP3    H1 7203   6.217   5.623   1.608  1.3014 -1.1945 -0.5625
 2399TIP3    H2 7204   6.130   5.685   1.501 -0.5308 -2.1825  0.3074
 2400TIP3   OH2 7205   2.626   3.865   2.342  0.1060  0.1767 -0.4705
 2400TIP3    H1 7206   2.700   3.805   2.331 -0.9536 -1.1955 -0.3520
 2400TIP3    H2 7207   2.600   3.887   2.253 -1.4336 -2.0642 -0.6693
 2401TIP3   OH2 7208   1.316   4.894   4.486 -0.5720 -0.6979 -0.1173
 2401TIP3    H1 7209   1.356   4.978   4.464 -0.2929 -0.4977  1.0665
 2401TIP3    H2 7210   1.367   4.862   4.561 -0.0344 -2.3905 -1.1319
 2402TIP3   OH2 7211   0.689   5.900   4.580 -0.9394 -0.5377  0.0345
 2402TIP3    H1 7212   0.683   5.932   4.490 -2.1604  0.9875  0.6092
 2402TIP3    H2 7213   0.647   5.969   4.632  3.3085  0.7151  2.2813
 2403TIP3   OH2 7214   6.028   2.651   3.496  0.0755  0.0472  0.1895
 2403TIP3    H1 7215   6.071   2.590   3.556  0.4953  0.5599  0.4251
 2403TIP3    H2 7216   6.018   2.602   3.415 -0.6416 -0.7111  0.7240
 2404TIP3   OH2 7217   4.694   1.613   4.441  0.2480 -0.3192  0.5997
 2404TIP3    H1 7218   4.674   1.524   4.411 -0.0059 -0.3401  0.8318
 2404TIP3    H2 7219   4.620   1.665   4.411  0.3025 -0.2218  0.6360
 2405TIP3   OH2 7220   5.006   0.365   4.065  0.1404  0.1197 -0.5750
 2405TIP3    H1 7221   5.021   0.301   4.134 -1.5199 -0.3107 -0.5692
 2405TIP3    H2 7222   4.918   0.345   4.032  0.3354  1.2082 -1.8553
 2406TIP3   OH2 7223   2.296   5.955   2.289 -0.1176 -0.3756  0.1588
 2406TIP3    H1 7224   2.391   5.950   2.303 -0.1967  0.4714  1.0652
 2406TIP3    H2 7225   2.274   5.872   2.248  0.9533 -0.7612  0.3281
 2407TIP3   OH2 7226   3.772   3.605   1.878  0.2786 -0.2224  0.4384
 2407TIP3    H1 7227   3.734   3.527   1.919 -0.2331  1.8141  4.3433
 2407TIP3    H2 7228   3.697   3.651   1.842 -0.1448  0.5698  2.2148
 2408TIP3   OH2 7229   3.995   5.587   3.425 -0.1242 -0.6878 -0.1704
 2408TIP3    H1 7230   4.010   5.612   3.516  1.6552  2.2753 -1.1225
 2408TIP3    H2 7231   4.069   5.626   3.377 -2.1901 -0.1138 -3.1688
 2409TIP3   OH2 7232   5.994   2.420   1.776 -0.6989  0.1235  0.1024
 2409TIP3    H1 7233   6.073   2.378   1.810 -1.2741 -1.0913 -0.0093
 2409TIP3    H2 7234   6.021   2.459   1.693 -0.1824 -0.1728  0.1310
 2410TIP3   OH2 7235   3.286   5.952   0.673 -0.0667 -0.3285  0.2976
 2410TIP3    H1 7236   3.202   5.918   0.705 -0.6723 -0.0457 -0.9275
 2410TIP3    H2 7237   3.262   6.020   0.611  0.9467 -2.2033 -2.3249
 2411TIP3   OH2 7238   4.617   4.590   3.861 -0.0240 -0.0894  0.0568
 2411TIP3    H1 7239   4.558   4.515   3.850  0.4631 -0.1011 -3.4330
 2411TIP3    H2 7240   4.702   4.551   3.880 -0.1824 -0.3188  0.3011
 2412TIP3   OH2 7241   1.769   3.382   2.946  0.3994  0.3703  0.6865
 2412TIP3    H1 7242   1.773   3.463   2.997  2.1507  1.1650 -0.6058
 2412TIP3    H2 7243   1.685   3.343   2.970 -0.8703  2.9514  0.7895
 2413TIP3   OH2 7244   5.530   5.213   0.280  0.2850 -0.3654  0.2205
 2413TIP3    H1 7245   5.492   5.301   0.274 -1.7583 -0.9522  2.5458
 2413TIP3    H2 7246   5.569   5.209   0.367 -0.0593 -1.8857  0.3443
 2414TIP3   OH2 7247   4.350   1.353   3.373 -0.5106 -0.8479  0.1694
 2414TIP3    H1 7248   4.416   1.294   3.339 -1.5824 -1.7651 -0.3634
 2414TIP3    H2 7249   4.270   1.331   3.326 -1.1418  0.4465  0.5689
 2415TIP3   OH2 7250   2.845   1.565   0.780  0.6046 -0.1604  0.0046
 2415TIP3    H1 7251   2.860   1.621   0.704 -0.8692 -0.5224 -0.5758
 2415TIP3    H2 7252   2.932   1.530   0.802  1.3860  1.5396 -0.2289
 2416TIP3   OH2 7253   1.852   2.710   0.481  0.0266 -0.2017  0.8310
 2416TIP3    H1 7254   1.943   2.723   0.505 -0.0698  0.7596  0.6887
 2416TIP3    H2 7255   1.816   2.798   0.471 -0.0145 -0.4503 -2.4785
 2417TIP3   OH2 7256   2.482   2.743   0.382  0.1232 -0.0428 -0.4588
 2417TIP3    H1 7257   2.538   2.666   0.385  0.2273  0.0376  2.1053
 2417TIP3    H2 7258   2.539   2.816   0.406 -0.4959  0.4547 -0.4531
 2418TIP3   OH2 7259   0.028   2.511   4.321 -0.2234  0.2525  0.1692
 2418TIP3    H1 7260  -0.040   2.487   4.384 -3.9164  2.7343 -2.4821
 2418TIP3    H2 7261   0.042   2.604   4.334  1.9804  0.0291 -0.1225
 2419TIP3   OH2 7262   4.390   2.986   4.870  0.3315  0.2037 -0.2205
 2419TIP3    H1 7263   4.473   2.956   4.907  0.3243  0.9310  0.4034
 2419TIP3    H2 7264   4.386   2.944   4.784  0.8921 -0.5960  0.1296
 2420TIP3   OH2 7265   0.238   5.109   2.114  0.3721 -0.0339 -0.0466
 2420TIP3    H1 7266   0.217   5.035   2.172  0.4386 -0.6795 -0.8241
 2420TIP3    H2 7267   0.152   5.144   2.089  0.3620  0.9373  1.2899
 2421TIP3   OH2 7268   0.055   2.524   2.593 -0.1325 -0.2522 -0.1283
 2421TIP3    H1 7269   0.117   2.522   2.666 -0.2174 -0.9065 -0.0699
 2421TIP3    H2 7270   0.036   2.617   2.581  0.9332 -0.0334 -0.2161
 2422TIP3   OH2 7271   0.760   3.124   4.527  0.3489 -0.2893  0.6594
 2422TIP3    H1 7272   0.692   3.142   4.461  2.2046 -2.0345 -1.9037
 2422TIP3    H2 7273   0.754   3.030   4.543  1.4520 -0.2791  1.2431
 2423TIP3   OH2 7274   5.200   0.843   2.934  0.2840 -0.1514  0.0190
 2423TIP3    H1 7275   5.261   0.806   2.997  1.2121  0.7781 -0.3118
 2423TIP3    H2 7276   5.135   0.889   2.988  1.0347  0.5836  0.3265
 2424TIP3   OH2 7277   1.068   0.001   0.760  0.1633  0.0056  0.4161
 2424TIP3    H1 7278   1.068   0.056   0.839 -0.5411  0.2204  0.2752
 2424TIP3    H2 7279   1.159   0.001   0.731  0.1433  1.3412  0.2604
 2425TIP3   OH2 7280   4.017   4.216   1.741  0.5616  0.3113  0.6560
 2425TIP3    H1 7281   3.993   4.243   1.653 -1.9086 -0.7417  0.9079
 2425TIP3    H2 7282   3.947   4.252   1.797  0.1145 -1.9077  1.6625
 2426TIP3   OH2 7283   4.872   4.684   1.362  0.1958 -0.0775 -0.0238
 2426TIP3    H1 7284   4.825   4.760   1.326  1.3132  1.4855  1.6326
 2426TIP3    H2 7285   4.806   4.637   1.412 -0.3652  0.1746 -0.5096
 2427TIP3   OH2 7286   4.605   1.566   3.158 -0.2571  0.3426 -0.1600
 2427TIP3    H1 7287   4.619   1.569   3.253 -0.6327 -0.6466 -0.0696
 2427TIP3    H2 7288   4.568   1.652   3.137  1.0296  1.0558  0.3808
 2428TIP3   OH2 7289   1.107   5.923   4.855 -0.3236  0.2753  0.3838
 2428TIP3    H1 7290   1.117   5.849   4.795 -1.5224  0.0603  0.4176
 2428TIP3    H2 7291   1.034   5.898   4.912  1.0360  0.2738  2.2556
 2429TIP3   OH2 7292   0.992   3.058   2.157 -0.6212  0.1945 -0.3413
 2429TIP3    H1 7293   1.010   3.048   2.250  0.5284 -1.9686 -0.7199
 2429TIP3    H2 7294   1.046   3.132   2.130 -0.3559  0.3428  0.5511
 2430TIP3   OH2 7295   5.801   5.684   3.149 -0.0457 -0.7124  0.0655
 2430TIP3    H1 7296   5.721   5.657   3.103 -1.1557  0.2676  1.3252
 2430TIP3    H2 7297   5.849   5.736   3.085 -0.6857 -0.8747 -0.5582
 2431TIP3   OH2 7298   3.273   5.653   4.842  0.3298 -0.1634 -0.6143
 2431TIP3    H1 7299   3.314   5.698   4.916 -3.0389  0.0796  1.2980
 2431TIP3    H2 7300   3.267   5.562   4.869  0.2631 -0.3468 -1.2163
 2432TIP3   OH2 7301   3.500   1.431   2.661 -0.3664 -0.1772  0.2223
 2432TIP3    H1 7302   3.590   1.427   2.694  0.8127  0.0550 -2.6852
 2432TIP3    H2 7303   3.469   1.341   2.665 -0.2314 -0.1718  1.7634
 2433TIP3   OH2 7304   4.689   0.018   2.656  0.0822 -0.5140 -0.4209
 2433TIP3    H1 7305   4.747  -0.018   2.589 -0.0389 -1.1440 -0.1933
 2433TIP3    H2 7306   4.601   0.006   2.620 -0.0237 -1.4329  0.1116
 2434TIP3   OH2 7307   1.861   2.165   4.450  0.0756 -0.3728  0.1691
 2434TIP3    H1 7308   1.865   2.247   4.499  0.5885  0.3159 -0.9777
 2434TIP3    H2 7309   1.801   2.183   4.378 -0.4099 -1.2596  0.3377
 2435TIP3   OH2 7310   4.843   0.205   2.992 -0.0600  0.3462 -0.6118
 2435TIP3    H1 7311   4.767   0.149   3.004 -0.0883  0.6302  0.6396
 2435TIP3    H2 7312   4.868   0.192   2.900  1.0342 -3.1181  0.0324
 2436TIP3   OH2 7313   5.600   3.521   3.457  0.2228 -0.2251  0.6186
 2436TIP3    H1 7314   5.526   3.498   3.513 -0.3608  3.8056  1.8611
 2436TIP3    H2 7315   5.561   3.573   3.386  1.7445  1.7242  1.1390
 2437TIP3   OH2 7316   0.532   1.402   2.871 -0.5253  0.1930  0.0754
 2437TIP3    H1 7317   0.488   1.400   2.786 -0.5677  1.4888  0.0492
 2437TIP3    H2 7318   0.625   1.412   2.849 -0.5940  1.1146  0.1808
 2438TIP3   OH2 7319   5.241   1.875   5.056  0.0932  0.0854 -0.6036
 2438TIP3    H1 7320   5.263   1.789   5.090  1.7415  0.7251  0.0565
 2438TIP3    H2 7321   5.191   1.858   4.977  0.3163 -1.4743 -0.4285
 2439TIP3   OH2 7322   3.202   3.186   3.388  0.0810  0.2716 -0.3633
 2439TIP3    H1 7323   3.116   3.154   3.414  0.0173  1.3811  0.8795
 2439TIP3    H2 7324   3.227   3.130   3.314 -1.0316 -1.0546  0.2258
 2440TIP3   OH2 7325   4.778   0.853   2.476 -0.1855  0.1541  0.6799
 2440TIP3    H1 7326   4.772   0.883   2.566  1.8496 -0.9273  1.2503
 2440TIP3    H2 7327   4.780   0.757   2.482  0.2507  0.0642 -0.4720
 2441TIP3   OH2 7328   4.490   5.700   0.822 -0.5137  0.0756 -0.1032
 2441TIP3    H1 7329   4.570   5.652   0.801  0.1326  1.0268  0.1151
 2441TIP3    H2 7330   4.441   5.703   0.740 -0.4222 -0.6921 -0.1870
 2442TIP3   OH2 7331   5.284   5.021   4.949 -0.2687 -0.2464  0.5170
 2442TIP3    H1 7332   5.196   5.058   4.941 -0.5300 -0.7198  1.1222
 2442TIP3    H2 7333   5.337   5.071   4.887 -0.7021  0.8901  1.0382
 2443TIP3   OH2 7334   3.950   3.216   3.504  0.0549  0.7810  0.3813
 2443TIP3    H1 7335   3.967   3.122   3.509 -1.5479  0.5002  1.1788
 2443TIP3    H2 7336   4.005   3.254   3.573  1.4837  0.5815 -0.6100
 2444TIP3   OH2 7337   5.703   5.561   0.810  0.2470 -0.5176 -0.1451
 2444TIP3    H1 7338   5.771   5.605   0.759  0.4159 -1.5061 -0.7851
 2444TIP3    H2 7339   5.658   5.632   0.856  1.5908  0.1660  0.1495
 2445TIP3   OH2 7340   1.185   5.469   3.055  0.1728 -0.0452 -0.6320
 2445TIP3    H1 7341   1.198   5.454   2.961  2.7992  1.0365 -0.5346
 2445TIP3    H2 7342   1.234   5.549   3.074 -1.2507  0.4113  1.4808
 2446TIP3   OH2 7343   4.184   3.951   3.685 -0.1882  0.3635 -0.5656
 2446TIP3    H1 7344   4.273   3.981   3.701  0.2929 -1.5209  0.5557
 2446TIP3    H2 7345   4.181   3.936   3.591  0.5135  0.8936 -0.6840
 2447TIP3   OH2 7346   0.203   1.020   1.696  0.2511  0.2853  0.2149
 2447TIP3    H1 7347   0.218   1.029   1.791 -1.6180 -0.7799  0.6489
 2447TIP3    H2 7348   0.161   0.935   1.686 -1.5193  1.2594 -1.3120
 2448TIP3   OH2 7349   0.013   3.613   1.976  0.7922 -0.0960 -0.3788
 2448TIP3    H1 7350   0.097   3.658   1.973  0.2964  0.8318 -0.6283
 2448TIP3    H2 7351  -0.000   3.592   2.069  0.4036  1.5065 -0.0429
 2449TIP3   OH2 7352   1.158   5.528   4.250  0.0337 -0.5663 -0.3042
 2449TIP3    H1 7353   1.146   5.433   4.244  1.5157 -0.9778  1.8993
 2449TIP3    H2 7354   1.237   5.545   4.199 -0.2292 -0.5174 -0.6953
 2450TIP3   OH2 7355   4.652   0.803   1.667  0.5007  0.1626 -0.4375
 2450TIP3    H1 7356   4.605   0.720   1.667  1.6285 -0.5663  1.7972
 2450TIP3    H2 7357   4.585   0.869   1.650 -1.6153 -0.7539  3.1762
 2451TIP3   OH2 7358   2.242   1.609   0.866  0.4464 -0.0897  0.2399
 2451TIP3    H1 7359   2.254   1.614   0.961 -1.5622  0.9355  0.4898
 2451TIP3    H2 7360   2.290   1.685   0.832 -2.4106  2.1788  0.9203
 2452TIP3   OH2 7361   1.964   5.539   3.529  0.0196 -0.6562 -0.2043
 2452TIP3    H1 7362   2.029   5.495   3.583  1.1375  0.9401 -0.1993
 2452TIP3    H2 7363   1.936   5.614   3.581 -2.2200 -1.5245 -0.0002
 2453TIP3   OH2 7364   0.513   3.949   1.019  0.4410  0.7750 -0.5123
 2453TIP3    H1 7365   0.553   3.880   1.073  0.2961 -0.2250 -1.6470
 2453TIP3    H2 7366   0.551   4.030   1.053  0.1365  0.2219  1.2844
 2454TIP3   OH2 7367   2.934   2.943   2.334  0.4459  0.1372  0.2482
 2454TIP3    H1 7368   2.903   2.943   2.243 -2.3231 -0.7508  1.0901
 2454TIP3    H2 7369   3.002   2.876   2.336 -0.6049 -1.0063 -0.8391
 2455TIP3   OH2 7370   3.094   0.590   0.512 -0.0234 -0.1968 -0.6453
 2455TIP3    H1 7371   3.066   0.500   0.496  0.4212 -0.4371 -0.1001
 2455TIP3    H2 7372   3.022   0.630   0.561  0.9823 -1.1573  1.8153
 2456TIP3   OH2 7373   3.150   1.779   4.389 -0.2798 -0.2051 -0.3643
 2456TIP3    H1 7374   3.239   1.804   4.410 -0.8219  0.7410  0.9560
 2456TIP3    H2 7375   3.147   1.684   4.406  0.8350 -0.5529 -1.9023
 2457TIP3   OH2 7376   4.401   2.094   4.304 -0.2116  0.1463  0.3077
 2457TIP3    H1 7377   4.488   2.094   4.264 -0.1798  0.2477  0.3756
 2457TIP3    H2 7378   4.413   2.142   4.386 -0.2139 -0.3008  0.5726
 2458TIP3   OH2 7379   0.347   2.542   3.235  0.5514 -0.4869 -0.6955
 2458TIP3    H1 7380   0.259   2.544   3.273 -0.4857  1.0462 -3.0145
 2458TIP3    H2 7381   0.361   2.449   3.214 -0.3523 -0.8012  0.0119
 2459TIP3   OH2 7382   0.882   4.247   4.970  0.0697 -0.8183  0.0668
 2459TIP3    H1 7383   0.969   4.218   4.998  0.0346 -1.2567 -0.2686
 2459TIP3    H2 7384   0.845   4.288   5.048  0.9997  0.3640 -0.0807
 2460TIP3   OH2 7385   4.403   4.992   3.472 -0.4688  0.1868 -0.1960
 2460TIP3    H1 7386   4.412   5.006   3.378  1.8815 -1.8271 -0.3607
 2460TIP3    H2 7387   4.333   4.927   3.481  0.3352 -0.7670 -0.7017
 2461TIP3   OH2 7388   1.474   3.475   4.437  0.1037 -0.3039  0.4197
 2461TIP3    H1 7389   1.540   3.487   4.506  0.0941 -1.3487  0.6191
 2461TIP3    H2 7390   1.393   3.509   4.477 -0.2158 -2.1994  1.4889
 2462TIP3   OH2 7391   5.146   0.909   4.238 -0.0276 -0.0641 -0.2595
 2462TIP3    H1 7392   5.135   0.977   4.172  1.6655  0.4414 -0.0760
 2462TIP3    H2 7393   5.239   0.915   4.263 -0.6008 -0.2812  2.1154
 2463TIP3   OH2 7394   6.009   3.347   3.286 -0.0038 -0.2297 -0.3892
 2463TIP3    H1 7395   6.004   3.414   3.355  1.3384 -0.3919 -0.1078
 2463TIP3    H2 7396   6.001   3.396   3.205  0.7406  0.2625 -0.1776
 2464TIP3   OH2 7397   2.209   5.684   2.241 -0.1544 -0.3467 -0.0372
 2464TIP3    H1 7398   2.228   5.633   2.320 -0.3406  1.2424  1.0985
 2464TIP3    H2 7399   2.132   5.736   2.265  1.1169  1.8423 -0.4059
 2465TIP3   OH2 7400   3.528   3.466   1.307  0.7778  0.4492  0.0338
 2465TIP3    H1 7401   3.607   3.418   1.333  0.0881  0.0404  1.4743
 2465TIP3    H2 7402   3.493   3.416   1.234  1.3228  0.0725  0.0230
 2466TIP3   OH2 7403   2.104   1.349   4.773 -0.7467  0.1345  0.1292
 2466TIP3    H1 7404   2.123   1.406   4.847  0.1562 -0.5104  0.4136
 2466TIP3    H2 7405   2.176   1.365   4.711  0.2876 -1.6397  0.7963
 2467TIP3   OH2 7406   1.916   0.733   3.525  0.2672 -0.7178  0.7881
 2467TIP3    H1 7407   2.009   0.734   3.501  0.6412 -1.5475  2.1149
 2467TIP3    H2 7408   1.898   0.641   3.545 -1.4195 -0.9676 -1.5106
 2468TIP3   OH2 7409   0.559   0.734   4.409  0.0657 -0.2176  0.3103
 2468TIP3    H1 7410   0.510   0.691   4.479 -1.1389 -2.1523 -1.6033
 2468TIP3    H2 7411   0.625   0.669   4.382  0.6979  0.6001 -0.1625
 2469TIP3   OH2 7412   2.133   0.053   4.550  0.8508 -0.0928  0.2549
 2469TIP3    H1 7413   2.196  -0.019   4.554  0.4114 -0.5020 -0.0345
 2469TIP3    H2 7414   2.105   0.065   4.641  0.4629 -0.7100  0.2203
 2470TIP3   OH2 7415   3.075   2.030   0.161 -0.1908 -0.0474 -0.5917
 2470TIP3    H1 7416   2.989   2.000   0.131 -1.3075  1.1665  1.1646
 2470TIP3    H2 7417   3.119   1.950   0.190 -1.2841 -0.5524 -0.2438
 2471TIP3   OH2 7418   3.007   4.233   0.659 -0.0933  0.1450 -0.0224
 2471TIP3    H1 7419   2.986   4.315   0.703  0.1119  2.0970 -3.2669
 2471TIP3    H2 7420   3.093   4.208   0.694 -1.8059 -1.0904  3.9927
 2472TIP3   OH2 7421   3.432   0.538   1.976  0.6206 -0.1395  0.7939
 2472TIP3    H1 7422   3.441   0.499   1.889 -1.2166 -3.7354  2.0231
 2472TIP3    H2 7423   3.522   0.549   2.007  1.2739  0.1799 -1.0847
 2473TIP3   OH2 7424   3.104   5.838   4.468  0.0486  0.0023  0.2058
 2473TIP3    H1 7425   3.083   5.932   4.471  0.1312  0.1015 -1.3024
 2473TIP3    H2 7426   3.023   5.796   4.442  0.2368 -0.2330 -0.0100
 2474TIP3   OH2 7427   4.780   5.515   0.059 -0.5904  0.0498 -0.4728
 2474TIP3    H1 7428   4.812   5.456   0.127  0.7187  1.6585  0.3694
 2474TIP3    H2 7429   4.837   5.499  -0.016  0.4632  0.9278  0.1038
 2475TIP3   OH2 7430   0.194   1.582   2.282 -0.1045 -0.0611  0.5568
 2475TIP3    H1 7431   0.107   1.599   2.319 -0.0630  1.2253  0.0964
 2475TIP3    H2 7432   0.220   1.665   2.243  1.1809 -0.5420  0.3587
 2476TIP3   OH2 7433   3.011   3.127   4.308  0.0416 -0.1620 -0.0427
 2476TIP3    H1 7434   2.981   3.216   4.327  1.4354  0.4646 -0.6614
 2476TIP3    H2 7435   2.996   3.079   4.390 -0.2779  0.7601  0.4524
 2477TIP3   OH2 7436   0.950   0.226   3.439 -0.3196 -0.4998  0.1600
 2477TIP3    H1 7437   0.994   0.157   3.487 -0.5792 -0.4786  0.4329
 2477TIP3    H2 7438   0.990   0.225   3.352  0.9679  0.2311  0.7224
 2478TIP3   OH2 7439   1.843   1.945   4.609  0.2733 -0.0907  0.2573
 2478TIP3    H1 7440   1.845   2.031   4.567 -2.4141  0.1601  0.4784
 2478TIP3    H2 7441   1.796   1.889   4.547 -1.7762 -0.2812  1.8977
 2479TIP3   OH2 7442   1.791   1.658   3.454  0.0355 -0.4735 -0.1060
 2479TIP3    H1 7443   1.696   1.649   3.457  0.0066 -0.6561 -1.0470
 2479TIP3    H2 7444   1.806   1.720   3.382  0.5982  0.2785  0.6327
 2480TIP3   OH2 7445   5.468   1.627   4.810 -0.1427 -0.4089  0.0615
 2480TIP3    H1 7446   5.457   1.596   4.900  0.4888  2.3134  1.1688
 2480TIP3    H2 7447   5.562   1.620   4.794  0.1694  1.6805  0.7048
 2481TIP3   OH2 7448   2.604   5.111   0.260 -0.3829  0.5736 -0.0777
 2481TIP3    H1 7449   2.583   5.133   0.169  0.0359 -0.9152 -0.5603
 2481TIP3    H2 7450   2.628   5.195   0.300  0.0006  1.1703 -1.5017
 2482TIP3   OH2 7451   1.292   1.599   4.224 -0.0177  0.4518  0.2503
 2482TIP3    H1 7452   1.337   1.518   4.247  0.7036  0.7138 -0.1916
 2482TIP3    H2 7453   1.242   1.622   4.303 -0.1704 -0.3753  0.3978
 2483TIP3   OH2 7454   5.584   4.000   2.134  0.7111  0.1904  0.6641
 2483TIP3    H1 7455   5.544   4.069   2.187 -0.3175  0.6405 -0.6275
 2483TIP3    H2 7456   5.678   4.017   2.139  0.5415  1.0314  1.2548
 2484TIP3   OH2 7457   2.433   5.973   0.129 -0.3767 -0.0088 -0.1964
 2484TIP3    H1 7458   2.433   5.903   0.194 -1.3483  0.2413  0.0836
 2484TIP3    H2 7459   2.350   6.020   0.143  0.1944  1.1207 -0.4640
 2485TIP3   OH2 7460   4.997   2.890   4.321  0.0161 -0.0613  0.4383
 2485TIP3    H1 7461   4.929   2.855   4.263 -0.3737 -1.1018  1.4797
 2485TIP3    H2 7462   4.966   2.977   4.345 -0.7318 -0.3471  0.5319
 2486TIP3   OH2 7463   2.387   5.581   3.166  0.8733 -0.3581  0.3376
 2486TIP3    H1 7464   2.398   5.499   3.214  1.4068  0.6138  1.9716
 2486TIP3    H2 7465   2.411   5.649   3.229  0.0921  1.0829 -0.8424
 2487TIP3   OH2 7466   4.600   4.383   0.614 -0.1967  0.1932  0.3158
 2487TIP3    H1 7467   4.649   4.449   0.663  0.1502  0.4541 -0.3674
 2487TIP3    H2 7468   4.513   4.423   0.602  0.0936  0.6562 -0.3283
 2488TIP3   OH2 7469   0.152   2.577   1.087 -0.6769 -0.2409 -0.3772
 2488TIP3    H1 7470   0.094   2.595   1.013 -2.1059  0.0399  0.7553
 2488TIP3    H2 7471   0.188   2.490   1.069 -1.1603 -0.2629 -1.2924
 2489TIP3   OH2 7472   5.391   1.787   0.846 -0.0777 -0.2713  0.0249
 2489TIP3    H1 7473   5.315   1.734   0.868 -0.7415  0.4297 -0.5429
 2489TIP3    H2 7474   5.388   1.861   0.906  1.6149 -1.5178  1.7605
 2490TIP3   OH2 7475   5.884   5.291   4.467  0.0478  0.1662  0.0613
 2490TIP3    H1 7476   5.895   5.236   4.389 -0.3940  1.8959 -1.2708
 2490TIP3    H2 7477   5.948   5.256   4.529  1.2940 -0.4964 -1.5044
 2491TIP3   OH2 7478   2.329   0.122   4.913  0.3489 -0.2895  0.3219
 2491TIP3    H1 7479   2.327   0.027   4.907 -0.1295 -0.2295 -0.7151
 2491TIP3    H2 7480   2.252   0.151   4.864  0.3153  0.6213  0.8929
 2492TIP3   OH2 7481   5.426   1.365   1.370 -0.0224  0.7434  0.1936
 2492TIP3    H1 7482   5.501   1.352   1.429 -0.5217 -1.0200  0.5016
 2492TIP3    H2 7483   5.349   1.356   1.427 -0.5712 -2.6013 -0.8869
 2493TIP3   OH2 7484   2.019   3.578   3.096  0.2700 -0.1592 -0.4439
 2493TIP3    H1 7485   2.061   3.663   3.110 -0.1065  0.0663 -0.6580
 2493TIP3    H2 7486   1.937   3.599   3.051  0.9667 -0.7693 -2.0623
 2494TIP3   OH2 7487   2.313   0.673   2.703  0.2177  0.3782  0.2818
 2494TIP3    H1 7488   2.382   0.723   2.746 -0.9102  0.3016  2.3318
 2494TIP3    H2 7489   2.305   0.593   2.755 -2.0854  0.8673  0.8242
 2495TIP3   OH2 7490   1.958   1.539   4.089  0.1465 -0.1610 -0.4550
 2495TIP3    H1 7491   1.878   1.544   4.142  0.2608 -0.3829 -0.2661
 2495TIP3    H2 7492   2.017   1.483   4.138  0.9072  1.0183  0.0392
 2496TIP3   OH2 7493   0.266   4.483   1.461  0.4288 -0.0898 -0.0665
 2496TIP3    H1 7494   0.330   4.541   1.420  0.0513  0.9792  0.7916
 2496TIP3    H2 7495   0.312   4.444   1.535  0.2336  0.3474  0.2936
 2497TIP3   OH2 7496   6.026   4.181   1.493 -0.2934 -0.3577  0.0704
 2497TIP3    H1 7497   6.010   4.196   1.586 -1.2453  0.5068 -0.2153
 2497TIP3    H2 7498   5.987   4.096   1.475  1.4461 -1.3682  0.8134
 2498TIP3   OH2 7499   2.305   0.480   3.488  0.1937 -0.5287  0.0719
 2498TIP3    H1 7500   2.342   0.491   3.401  2.9450 -0.3373  1.1570
 2498TIP3    H2 7501   2.282   0.387   3.493  0.2700 -0.5963 -0.7269
 2499TIP3   OH2 7502   1.542   3.658   2.222  0.3588 -0.9058  0.0782
 2499TIP3    H1 7503   1.623   3.708   2.208  0.6270 -1.1711  0.6275
 2499TIP3    H2 7504   1.481   3.692   2.157  0.1567  0.9690  1.1534
 2500TIP3   OH2 7505   1.702   2.379   0.718 -0.4029  0.4517  0.0504
 2500TIP3    H1 7506   1.668   2.445   0.779 -0.2907  0.0218  0.5862
 2500TIP3    H2 7507   1.653   2.300   0.739  0.3978  0.0207  0.3153
 2501TIP3   OH2 7508   0.889   2.204   2.765  0.3669 -0.1303  0.4271
 2501TIP3    H1 7509   0.889   2.279   2.706  0.0955 -0.4589  0.0021
 2501TIP3    H2 7510   0.981   2.178   2.771  0.2778 -0.7559 -0.7141
 2502TIP3   OH2 7511   2.510   1.712   3.852  0.2864 -0.5656  0.1206
 2502TIP3    H1 7512   2.425   1.683   3.820  0.9499 -0.8610 -1.4869
 2502TIP3    H2 7513   2.520   1.669   3.937 -1.3426 -0.1668  0.5434
 2503TIP3   OH2 7514   1.793   2.454   3.626  0.0005 -0.3344 -0.0866
 2503TIP3    H1 7515   1.777   2.457   3.721  0.3237 -0.0961 -0.0377
 2503TIP3    H2 7516   1.863   2.518   3.612  2.3842 -2.7652 -0.0238
 2504TIP3   OH2 7517   3.077   4.640   2.345  0.2572 -0.4516 -0.2021
 2504TIP3    H1 7518   3.013   4.600   2.285  0.2983  2.6488 -2.6011
 2504TIP3    H2 7519   3.024   4.684   2.411  0.1286 -1.6634  0.5322
 2505TIP3   OH2 7520   5.921   4.898   3.342  0.5804  0.2062  0.4484
 2505TIP3    H1 7521   5.832   4.911   3.375 -0.3378 -0.9748 -1.3925
 2505TIP3    H2 7522   5.965   4.848   3.410 -0.6997 -0.6307  0.7015
 2506TIP3   OH2 7523   5.063   1.035   1.831 -0.2865 -0.3509  0.3130
 2506TIP3    H1 7524   5.002   0.973   1.790  0.4348 -1.3916  0.7813
 2506TIP3    H2 7525   5.073   1.004   1.921  0.5018  0.1448  0.4084
 2507TIP3   OH2 7526   3.521   3.367   0.440 -0.7054  0.0768  0.3030
 2507TIP3    H1 7527   3.512   3.460   0.422  0.3741  0.2508  0.5613
 2507TIP3    H2 7528   3.616   3.353   0.443 -0.8585 -1.0506  0.1433
 2508TIP3   OH2 7529   6.082   4.672   4.402  0.1769  0.1176 -0.2140
 2508TIP3    H1 7530   6.000   4.623   4.400 -0.6955  1.5216 -0.1512
 2508TIP3    H2 7531   6.099   4.695   4.310  1.2945 -1.3828 -0.4230
 2509TIP3   OH2 7532   2.073   4.386   4.503 -0.3248 -0.0478 -0.4613
 2509TIP3    H1 7533   1.989   4.394   4.548 -0.2655  1.1960 -0.5342
 2509TIP3    H2 7534   2.114   4.308   4.542 -1.8313 -1.1434 -0.9957
 2510TIP3   OH2 7535   0.255   0.289   2.940  0.2575  0.4113 -0.3492
 2510TIP3    H1 7536   0.327   0.250   2.890  1.9064  2.3295  0.3424
 2510TIP3    H2 7537   0.275   0.266   3.031 -1.9216 -1.8501 -0.3687
 2511TIP3   OH2 7538   3.669   2.210   5.130  0.2649 -0.1875 -0.3438
 2511TIP3    H1 7539   3.659   2.285   5.188 -3.3880  1.2579 -2.5043
 2511TIP3    H2 7540   3.724   2.242   5.058  0.8238 -0.4269 -0.0261
 2512TIP3   OH2 7541   3.258   1.193   4.469 -0.6223 -0.2512 -0.0543
 2512TIP3    H1 7542   3.199   1.231   4.534 -1.5721 -3.1480  0.9674
 2512TIP3    H2 7543   3.276   1.105   4.503  2.7517 -0.2065 -1.3547
 2513TIP3   OH2 7544   4.008   5.454   0.046 -0.1897 -0.1897  0.2201
 2513TIP3    H1 7545   3.947   5.476  -0.025  0.1542 -1.6532 -0.5756
 2513TIP3    H2 7546   3.953   5.418   0.115 -0.4021  0.1680  0.2405
 2514TIP3   OH2 7547   4.992   3.079   5.114 -0.1161 -0.3570 -0.5559
 2514TIP3    H1 7548   5.011   3.170   5.093 -0.5924 -0.4256 -1.3448
 2514TIP3    H2 7549   5.065   3.030   5.076  0.2343 -0.2950  0.0277
 2515TIP3   OH2 7550   4.859   5.609   1.435 -0.4521 -0.1303 -0.7904
 2515TIP3    H1 7551   4.816   5.695   1.432  1.0951  0.6636 -1.0794
 2515TIP3    H2 7552   4.817   5.564   1.509 -2.1430  0.3819 -1.3925
 2516TIP3   OH2 7553   4.514   0.308   4.218  0.3400 -0.2535 -0.5820
 2516TIP3    H1 7554   4.554   0.291   4.303  1.7267 -0.5623 -1.2778
 2516TIP3    H2 7555   4.483   0.222   4.188  0.0820 -0.1881 -0.5047
 2517TIP3   OH2 7556   0.612   1.653   3.144  0.1283  0.2179 -0.3296
 2517TIP3    H1 7557   0.582   1.618   3.228 -3.3124 -2.1420 -2.2845
 2517TIP3    H2 7558   0.649   1.577   3.098 -0.7481  0.7272 -1.9775
 2518TIP3   OH2 7559   5.131   1.467   4.211 -0.3453 -0.0628  0.6330
 2518TIP3    H1 7560   5.122   1.511   4.295 -2.1597 -1.0491  0.9917
 2518TIP3    H2 7561   5.177   1.530   4.156  1.0956  0.5142  2.3906
 2519TIP3   OH2 7562   1.887   0.929   0.321 -0.4231  0.1440 -0.1082
 2519TIP3    H1 7563   1.960   0.918   0.260  0.4138  0.2430  0.8507
 2519TIP3    H2 7564   1.870   1.023   0.322  0.6492  0.3605  0.9974
 2520TIP3   OH2 7565   1.850   4.197   1.108 -0.4789 -0.3012 -0.3836
 2520TIP3    H1 7566   1.818   4.283   1.137 -1.1805 -1.1359  1.4798
 2520TIP3    H2 7567   1.875   4.210   1.017 -0.2725  1.9606 -0.0563
 2521TIP3   OH2 7568   6.040   4.899   0.946  0.1525  0.1262 -0.1298
 2521TIP3    H1 7569   5.960   4.917   0.996 -0.1244 -2.8049  0.6272
 2521TIP3    H2 7570   6.008   4.867   0.861  0.5284 -0.2319 -0.1384
 2522TIP3   OH2 7571   5.204   0.876   1.615  0.0926  0.7512  0.2089
 2522TIP3    H1 7572   5.135   0.894   1.551 -1.0334 -1.9639  0.5157
 2522TIP3    H2 7573   5.175   0.922   1.694 -1.4819 -0.4428  0.3659
 2523TIP3   OH2 7574   4.489   5.015   4.262 -0.6007 -0.3453 -0.4152
 2523TIP3    H1 7575   4.490   4.924   4.233 -1.7867 -0.2960 -0.6660
 2523TIP3    H2 7576   4.581   5.040   4.265 -0.3120 -1.1486 -1.6541
 2524TIP3   OH2 7577  -0.019   5.722   2.942 -0.0980 -0.1693 -0.4178
 2524TIP3    H1 7578   0.004   5.641   2.986  0.5890  0.1542 -0.1645
 2524TIP3    H2 7579   0.065   5.761   2.918 -0.4264  0.3354 -0.7757
 2525TIP3   OH2 7580   5.551   5.628   3.079  0.1744  0.1060 -0.0660
 2525TIP3    H1 7581   5.481   5.630   3.015  0.8058  1.2218 -0.7487
 2525TIP3    H2 7582   5.506   5.616   3.163 -0.6215 -1.9503 -0.7203
 2526TIP3   OH2 7583   2.419   3.438   3.374  0.2000  0.0798  0.3365
 2526TIP3    H1 7584   2.460   3.428   3.460 -0.9097  0.6870  0.9633
 2526TIP3    H2 7585   2.358   3.512   3.385 -0.2575 -0.0971 -0.8532
 2527TIP3   OH2 7586   0.158   3.893   1.658  0.1900  0.1052 -0.3064
 2527TIP3    H1 7587   0.242   3.877   1.701 -0.0730 -0.0275  0.1619
 2527TIP3    H2 7588   0.172   3.866   1.567 -0.1033 -2.4998  0.3298
 2528TIP3   OH2 7589   5.685   4.205   3.505 -0.5307  0.0850 -0.1926
 2528TIP3    H1 7590   5.739   4.138   3.463  0.2148  0.5244  0.0400
 2528TIP3    H2 7591   5.740   4.239   3.576 -1.5911 -0.3310  0.8646
 2529TIP3   OH2 7592   4.773   3.401   2.266  0.0428 -0.1811  0.6137
 2529TIP3    H1 7593   4.838   3.463   2.301  0.2891  0.1994 -0.4832
 2529TIP3    H2 7594   4.804   3.315   2.296  0.6299  0.0692  0.7463
 2530TIP3   OH2 7595   2.263   1.197   0.670 -0.2782 -0.3390  0.3848
 2530TIP3    H1 7596   2.246   1.290   0.680  0.3254 -0.1349 -0.3540
 2530TIP3    H2 7597   2.257   1.161   0.758 -1.1538  0.2784  0.5858
 2531TIP3   OH2 7598   5.305   5.886   3.093 -0.3486 -0.3304  0.2051
 2531TIP3    H1 7599   5.267   5.817   3.037 -0.4532  0.8661 -1.2669
 2531TIP3    H2 7600   5.316   5.960   3.034 -0.0751  0.8706  1.7256
 2532TIP3   OH2 7601   0.751   5.115   4.352 -0.5143 -0.1291 -0.0149
 2532TIP3    H1 7602   0.743   5.029   4.313  1.0927 -1.1270  1.6731
 2532TIP3    H2 7603   0.677   5.122   4.412 -2.2349  0.8818 -2.0956
 2533TIP3   OH2 7604   4.854   0.423   0.918 -0.4159  0.1320 -0.1734
 2533TIP3    H1 7605   4.877   0.337   0.952  0.1794  0.8338  1.2922
 2533TIP3    H2 7606   4.935   0.457   0.880 -1.0820 -0.6574 -2.4472
 2534TIP3   OH2 7607   4.259   1.948   3.092 -0.0150 -0.3251 -0.3261
 2534TIP3    H1 7608   4.231   2.037   3.072 -0.9080 -0.0620  1.7896
 2534TIP3    H2 7609   4.186   1.893   3.065  0.1772 -0.3425 -0.8269
 2535TIP3   OH2 7610   5.447   5.453   4.592  0.1036 -0.0675  0.5610
 2535TIP3    H1 7611   5.409   5.526   4.641  1.0260  0.5121  0.4399
 2535TIP3    H2 7612   5.372   5.404   4.559 -0.5718  1.5072 -0.3544
 2536TIP3   OH2 7613   4.389   5.345   1.441 -0.3200 -0.3938 -0.1689
 2536TIP3    H1 7614   4.388   5.440   1.426  0.1578 -0.4410 -0.5583
 2536TIP3    H2 7615   4.345   5.333   1.524  0.7755  0.2953  0.5456
 2537TIP3   OH2 7616   1.187   1.339   1.940  0.6002 -0.0871  0.4858
 2537TIP3    H1 7617   1.096   1.369   1.943  0.3949 -0.5404 -0.5564
 2537TIP3    H2 7618   1.238   1.419   1.930  0.1250  0.0400 -1.3698
 2538TIP3   OH2 7619   0.137   5.486   4.963  0.2656 -0.3174  0.0010
 2538TIP3    H1 7620   0.178   5.536   4.892  1.3130  2.1679  2.2335
 2538TIP3    H2 7621   0.206   5.425   4.991 -0.6399 -2.3946 -1.9668
 2539TIP3   OH2 7622   4.417   1.395   0.957 -0.3051 -0.0495 -0.3585
 2539TIP3    H1 7623   4.474   1.346   0.898 -0.3639 -0.7810  0.1755
 2539TIP3    H2 7624   4.402   1.478   0.912 -0.6718 -0.7387 -1.5589
 2540TIP3   OH2 7625   4.278   4.959   0.234 -0.5479 -0.1362 -0.2024
 2540TIP3    H1 7626   4.340   5.025   0.263 -1.0122  0.0741  0.3285
 2540TIP3    H2 7627   4.193   4.992   0.262 -0.9533 -0.2134 -1.3000
 2541TIP3   OH2 7628   5.208   1.468   1.496 -0.3356  0.4737 -0.4030
 2541TIP3    H1 7629   5.169   1.538   1.444  1.6518  2.1015  0.1720
 2541TIP3    H2 7630   5.185   1.489   1.586 -1.6284 -0.9260 -0.3710
 2542TIP3   OH2 7631   0.562   4.200   1.164 -0.0704  0.2848 -0.5590
 2542TIP3    H1 7632   0.639   4.192   1.109  0.0532  1.9752 -0.6901
 2542TIP3    H2 7633   0.581   4.274   1.222 -0.3012 -1.2410  1.6010
 2543TIP3   OH2 7634   2.630   4.834   0.762  0.4233 -0.4171 -0.3636
 2543TIP3    H1 7635   2.654   4.764   0.823  1.2350  0.3894  0.2747
 2543TIP3    H2 7636   2.535   4.826   0.751  0.1969 -0.3435  1.3190
 2544TIP3   OH2 7637   2.257   1.639   2.628  0.0865 -0.9144 -0.0393
 2544TIP3    H1 7638   2.352   1.647   2.623  0.1915 -1.9037 -0.0099
 2544TIP3    H2 7639   2.241   1.544   2.632 -0.7862 -0.7523  1.8501
 2545TIP3   OH2 7640   3.113   2.982   5.096  0.4644 -0.4622  0.6926
 2545TIP3    H1 7641   3.170   2.923   5.047  0.8234  0.7954 -0.4488
 2545TIP3    H2 7642   3.024   2.958   5.070  0.5860 -0.7812  0.5752
 2546TIP3   OH2 7643   0.895   0.812   1.241  0.2659  0.0179 -0.4680
 2546TIP3    H1 7644   0.904   0.756   1.164 -0.7612  2.0485 -2.1411
 2546TIP3    H2 7645   0.843   0.760   1.302  1.4845 -1.8100 -0.8953
 2547TIP3   OH2 7646   4.342   3.487   3.286 -0.0477  0.0759 -0.3339
 2547TIP3    H1 7647   4.436   3.507   3.292 -0.1353  0.2431  0.6496
 2547TIP3    H2 7648   4.329   3.416   3.350 -0.5684 -0.0465 -0.5719
 2548TIP3   OH2 7649   0.475   3.562   2.677  0.1964 -0.4478 -0.1859
 2548TIP3    H1 7650   0.504   3.577   2.587 -1.6791  3.6628 -0.2975
 2548TIP3    H2 7651   0.555   3.564   2.729  0.9486  1.8761 -1.3351
 2549TIP3   OH2 7652   2.728   3.210   4.786 -0.2595  0.2684 -0.1838
 2549TIP3    H1 7653   2.788   3.152   4.740  0.1709  1.3297 -1.0034
 2549TIP3    H2 7654   2.750   3.200   4.879  0.6623  0.0603 -0.4168
 2550TIP3   OH2 7655   0.649   1.128   4.069  0.4071 -0.3456 -0.1483
 2550TIP3    H1 7656   0.707   1.189   4.024 -0.0095  0.7062  0.6964
 2550TIP3    H2 7657   0.677   1.041   4.040  3.2801  0.0142  1.2202
 2551TIP3   OH2 7658   2.705   4.752   0.083  0.1271 -0.6654 -0.3608
 2551TIP3    H1 7659   2.684   4.787   0.169  1.1764 -1.1273  0.0968
 2551TIP3    H2 7660   2.651   4.672   0.076 -1.0678  0.1466 -0.7616
 2552TIP3   OH2 7661   0.358   4.980   3.210  0.4614  0.0010 -0.8089
 2552TIP3    H1 7662   0.269   5.012   3.223  0.1788 -1.7144  2.3013
 2552TIP3    H2 7663   0.412   5.059   3.213 -0.6689  0.7804  1.1049
 2553TIP3   OH2 7664   4.396   2.872   4.617 -0.4293  0.1742  0.2441
 2553TIP3    H1 7665   4.477   2.867   4.567 -0.1340  2.3783  0.3885
 2553TIP3    H2 7666   4.326   2.870   4.552 -0.1088  1.3142 -0.1610
 2554TIP3   OH2 7667   5.596   5.130   4.513 -0.0745 -0.2940 -0.0026
 2554TIP3    H1 7668   5.509   5.101   4.542 -0.4148  1.3227  0.6905
 2554TIP3    H2 7669   5.604   5.094   4.424 -1.3485 -0.6907  0.0189
 2555TIP3   OH2 7670   3.839   5.961   5.082  0.5553  0.1779 -0.0034
 2555TIP3    H1 7671   3.807   5.892   5.024  0.9200 -1.1898  1.3289
 2555TIP3    H2 7672   3.760   5.994   5.125  0.5704 -1.1183  1.0985
 2556TIP3   OH2 7673   5.008   3.347   5.095  0.0978  0.2694  0.2071
 2556TIP3    H1 7674   5.102   3.345   5.077 -0.1353 -0.1151 -1.1387
 2556TIP3    H2 7675   4.985   3.440   5.093 -0.1046  0.2553 -2.9798
 2557TIP3   OH2 7676   1.075   5.220   3.469 -0.8002 -0.0304  0.5333
 2557TIP3    H1 7677   1.063   5.309   3.502 -1.0501 -0.2534  1.0587
 2557TIP3    H2 7678   1.030   5.220   3.384 -1.1051  0.2488  0.6895
 2558TIP3   OH2 7679   1.445   3.585   4.011 -0.2101 -1.2725 -0.3675
 2558TIP3    H1 7680   1.479   3.546   3.931 -0.2181 -2.4775  0.1924
 2558TIP3    H2 7681   1.364   3.537   4.029 -0.3791 -0.7965  0.1883
 2559TIP3   OH2 7682   2.560   0.525   4.871  0.5816  0.1439  0.5616
 2559TIP3    H1 7683   2.558   0.438   4.830 -1.2712  1.3427 -2.1747
 2559TIP3    H2 7684   2.640   0.565   4.838  0.1283  0.3684 -0.2975
 2560TIP3   OH2 7685   3.104   2.500   1.864 -0.0800 -0.6915 -0.0214
 2560TIP3    H1 7686   3.034   2.434   1.864  0.6238 -1.6073 -3.0071
 2560TIP3    H2 7687   3.079   2.561   1.794  0.7432  0.5822  0.7553
 2561TIP3   OH2 7688   1.211   3.636   2.424  0.5030 -0.1461 -0.2683
 2561TIP3    H1 7689   1.178   3.560   2.375  0.1529 -1.3081  1.6391
 2561TIP3    H2 7690   1.136   3.663   2.478  1.2729  0.1299  0.6948
 2562TIP3   OH2 7691   3.634   2.208   4.188 -0.2534  0.5541 -0.2237
 2562TIP3    H1 7692   3.620   2.114   4.181  0.9166 -0.2734  4.7294
 2562TIP3    H2 7693   3.719   2.223   4.148 -0.2844 -0.5838 -0.7508
 2563TIP3   OH2 7694   5.820   1.655   4.304  0.2328 -0.3532  0.3033
 2563TIP3    H1 7695   5.877   1.718   4.346 -1.0365  1.6450 -0.8081
 2563TIP3    H2 7696   5.739   1.658   4.355  0.0189 -0.7765 -0.0066
 2564TIP3   OH2 7697   3.543   0.049   1.546 -0.8132  0.7140 -0.0548
 2564TIP3    H1 7698   3.527  -0.016   1.614 -0.2970  1.4651  0.8140
 2564TIP3    H2 7699   3.611   0.010   1.491  0.2893  0.9430  1.1005
 2565TIP3   OH2 7700   4.722   2.641   3.833  0.3953 -0.0427  0.1142
 2565TIP3    H1 7701   4.639   2.641   3.785  0.0786  0.0383  0.6483
 2565TIP3    H2 7702   4.788   2.624   3.767 -0.1996 -1.9365 -0.0562
 2566TIP3   OH2 7703   6.208   1.358   2.061  0.5786  0.4562 -0.2351
 2566TIP3    H1 7704   6.176   1.412   1.988  2.1848  0.0563 -1.3049
 2566TIP3    H2 7705   6.217   1.419   2.134 -2.2427  0.6256  0.0461
 2567TIP3   OH2 7706   5.694   0.445   1.730 -0.1156 -0.1670  0.1537
 2567TIP3    H1 7707   5.731   0.455   1.817 -0.9092 -0.2415  0.5132
 2567TIP3    H2 7708   5.603   0.473   1.739  0.2558  1.6212 -1.0754
 2568TIP3   OH2 7709   2.797   5.603   4.166  0.2218  0.0062 -0.8342
 2568TIP3    H1 7710   2.822   5.658   4.240 -1.4675  0.5275 -0.6106
 2568TIP3    H2 7711   2.815   5.514   4.196 -0.0781  0.2342  0.0613
 2569TIP3   OH2 7712   6.272   1.110   0.038 -0.2757  0.5973 -0.7950
 2569TIP3    H1 7713   6.365   1.105   0.060 -0.2400  0.0113 -1.0654
 2569TIP3    H2 7714   6.236   1.024   0.064 -0.3483  0.1034 -2.4419
 2570TIP3   OH2 7715   6.188   5.675   2.164  0.1237  0.3107  0.0209
 2570TIP3    H1 7716   6.169   5.699   2.255  0.5068  0.7803 -0.0164
 2570TIP3    H2 7717   6.178   5.757   2.115  1.5234  0.4376 -0.1071
 2571TIP3   OH2 7718   4.771   2.063   1.428  0.0183  0.0826  0.3868
 2571TIP3    H1 7719   4.709   1.996   1.401 -2.3555  1.6890  1.4246
 2571TIP3    H2 7720   4.773   2.125   1.355  1.4885 -0.6057 -0.1902
 2572TIP3   OH2 7721   3.169   2.062   4.727 -0.4445 -0.3953 -0.1138
 2572TIP3    H1 7722   3.200   2.099   4.810 -0.6705 -1.0314  0.2645
 2572TIP3    H2 7723   3.214   1.978   4.720 -1.1948 -0.8118 -0.1167
 2573TIP3   OH2 7724   2.940   1.066   2.548  0.4346 -0.4965 -0.6588
 2573TIP3    H1 7725   3.033   1.060   2.569  0.4512 -2.9401 -1.1455
 2573TIP3    H2 7726   2.931   1.021   2.465 -0.9028  1.6598 -1.7795
 2574TIP3   OH2 7727   3.121   4.317   3.580  0.2698  0.4089  0.6616
 2574TIP3    H1 7728   3.199   4.265   3.559  0.3860  0.9611 -0.3573
 2574TIP3    H2 7729   3.131   4.397   3.528 -0.4819  0.9386  1.3019
 2575TIP3   OH2 7730   4.392   3.538   4.986 -0.1769 -0.0323 -0.1743
 2575TIP3    H1 7731   4.425   3.465   5.038 -0.2810  1.8463  2.7599
 2575TIP3    H2 7732   4.466   3.597   4.978 -0.0564 -0.4118 -2.6336
 2576TIP3   OH2 7733   4.083   3.298   3.212  0.0714  0.2943  0.3399
 2576TIP3    H1 7734   4.150   3.320   3.278 -0.2750  0.4580  0.6384
 2576TIP3    H2 7735   4.003   3.285   3.263 -0.3368  1.0183 -0.1124
 2577TIP3   OH2 7736   4.336   4.670   0.739  0.2316  0.1267 -0.3521
 2577TIP3    H1 7737   4.408   4.704   0.792  0.4977 -3.9578  2.3664
 2577TIP3    H2 7738   4.257   4.694   0.788  0.1515  0.1493 -0.4928
 2578TIP3   OH2 7739   2.955   2.247   3.958  0.0698  0.3282 -0.8475
 2578TIP3    H1 7740   2.890   2.205   4.015  0.5552 -0.3833 -0.8109
 2578TIP3    H2 7741   3.021   2.281   4.019  0.6462 -0.5302 -0.9745
 2579TIP3   OH2 7742   2.865   3.994   0.564 -0.0960 -0.1182 -0.1842
 2579TIP3    H1 7743   2.848   4.079   0.604  1.2387 -0.3296  0.8994
 2579TIP3    H2 7744   2.847   3.931   0.633  1.1011 -0.5683 -0.2637
 2580TIP3   OH2 7745   5.872   1.275   2.394 -0.5058 -0.2247 -0.0801
 2580TIP3    H1 7746   5.913   1.257   2.479 -3.0859  1.5815  1.7143
 2580TIP3    H2 7747   5.794   1.327   2.416 -1.7113 -0.3387 -3.5279
 2581TIP3   OH2 7748   1.663   3.873   2.659  0.1055 -0.0236 -0.0272
 2581TIP3    H1 7749   1.693   3.823   2.735  0.1285 -2.5011 -1.5702
 2581TIP3    H2 7750   1.593   3.820   2.622  0.6500  0.6900 -2.2055
 2582TIP3   OH2 7751   5.524   0.278   4.939  0.2737  0.2023  0.1242
 2582TIP3    H1 7752   5.497   0.360   4.980 -0.6330  0.2165 -0.4479
 2582TIP3    H2 7753   5.444   0.224   4.939  1.1705 -1.2252  1.7183
 2583TIP3   OH2 7754   4.282   1.887   1.163  0.0326 -0.5437 -0.1793
 2583TIP3    H1 7755   4.318   1.834   1.092 -2.4744 -2.2464 -0.3005
 2583TIP3    H2 7756   4.257   1.823   1.230 -0.5194  0.7557  0.9054
 2584TIP3   OH2 7757   5.068   3.524   2.585 -0.2451  0.5585  0.0626
 2584TIP3    H1 7758   5.145   3.546   2.532 -1.8031  0.1269 -2.5374
 2584TIP3    H2 7759   5.068   3.428   2.590 -0.3248  0.5780  0.5554
 2585TIP3   OH2 7760   4.941   2.928   3.836  0.4981 -0.2379 -0.3266
 2585TIP3    H1 7761   4.895   2.847   3.859 -0.9161 -0.0646 -2.3303
 2585TIP3    H2 7762   4.879   2.997   3.860  1.2662  0.2287  0.3700
 2586TIP3   OH2 7763   4.465   0.050   3.255  0.2128 -0.0449  0.5772
 2586TIP3    H1 7764   4.532   0.056   3.188  1.2217  0.3497  1.5877
 2586TIP3    H2 7765   4.513   0.038   3.337 -1.0025 -3.7486  0.9728
 2587TIP3   OH2 7766   3.489   0.890   2.126  0.1306  0.0001 -0.1559
 2587TIP3    H1 7767   3.555   0.870   2.192 -0.4234 -0.4296  0.2744
 2587TIP3    H2 7768   3.530   0.868   2.043  0.7522  0.3310  0.0579
 2588TIP3   OH2 7769   4.975   1.894   2.344  0.7012 -0.0575  0.2929
 2588TIP3    H1 7770   5.020   1.814   2.315  1.9924 -0.1790  2.4075
 2588TIP3    H2 7771   5.002   1.960   2.280  2.4130 -0.5702  0.4289
 2589TIP3   OH2 7772   3.306   4.203   0.729 -0.0891 -0.2518 -0.2977
 2589TIP3    H1 7773   3.322   4.257   0.806  1.9160 -1.1433 -0.0177
 2589TIP3    H2 7774   3.336   4.255   0.655 -2.0895  0.6373 -0.5541
 2590TIP3   OH2 7775   1.245   4.615   1.060  0.6072 -0.1482  0.2698
 2590TIP3    H1 7776   1.228   4.647   0.972  3.3336  0.5458 -0.0988
 2590TIP3    H2 7777   1.178   4.658   1.114  0.1881  1.0968 -1.1572
 2591TIP3   OH2 7778   0.522   0.913   4.711 -0.2008  0.7147 -0.5283
 2591TIP3    H1 7779   0.611   0.916   4.675  0.8504 -1.0301  1.6395
 2591TIP3    H2 7780   0.484   0.833   4.674  1.1124 -1.4475  2.3638
 2592TIP3   OH2 7781   1.346   5.950   4.284  0.7562  0.0036 -0.0217
 2592TIP3    H1 7782   1.424   6.001   4.305  1.1450 -0.1142 -1.1286
 2592TIP3    H2 7783   1.379   5.872   4.240  0.0065  0.0641 -0.7161
 2593TIP3   OH2 7784   6.328   0.258   3.771  0.0590  0.4297 -0.5534
 2593TIP3    H1 7785   6.398   0.293   3.826 -0.7279  0.7325  0.2789
 2593TIP3    H2 7786   6.298   0.332   3.718  1.7859 -0.1760 -2.5120
 2594TIP3   OH2 7787   3.108   1.431   2.956  0.1567  0.6421  0.1061
 2594TIP3    H1 7788   3.118   1.484   3.035  1.9633  1.5845 -0.6699
 2594TIP3    H2 7789   3.150   1.348   2.978 -0.0403  0.6141  0.3826
 2595TIP3   OH2 7790   5.791   1.987   1.691 -0.4211  0.3738 -0.1289
 2595TIP3    H1 7791   5.852   1.953   1.625 -0.5099 -0.1677  0.0679
 2595TIP3    H2 7792   5.765   2.073   1.657 -0.3603  0.1579 -0.7299
 2596TIP3   OH2 7793   5.374   4.092   1.839 -0.2177  0.3076  0.3411
 2596TIP3    H1 7794   5.297   4.053   1.881  0.1950 -1.1648 -0.2315
 2596TIP3    H2 7795   5.353   4.095   1.746 -0.0194  0.9674  0.3071
 2597TIP3   OH2 7796   6.048   0.550   3.624  0.0396 -0.0256  0.2335
 2597TIP3    H1 7797   6.111   0.490   3.584  1.3509  1.9981 -0.8930
 2597TIP3    H2 7798   5.965   0.503   3.618  1.3849 -2.9578  2.1495
 2598TIP3   OH2 7799   4.889   4.321   2.860  0.0148 -0.5262 -0.1912
 2598TIP3    H1 7800   4.969   4.325   2.913  0.0058 -2.0034 -0.0424
 2598TIP3    H2 7801   4.839   4.398   2.888  0.8788 -0.1965  0.5234
 2599TIP3   OH2 7802   2.203   0.020   5.166  0.2258  0.3263  0.6125
 2599TIP3    H1 7803   2.257  -0.016   5.237  0.9047  0.9059  0.3890
 2599TIP3    H2 7804   2.264   0.064   5.108 -0.2545 -0.5721 -0.6293
 2600TIP3   OH2 7805   6.194   2.391   3.444  0.0089  0.1592 -0.1755
 2600TIP3    H1 7806   6.236   2.422   3.524 -0.9691  2.5129 -0.4965
 2600TIP3    H2 7807   6.220   2.299   3.437  0.9675  0.1809  2.2580
 2601TIP3   OH2 7808   5.869   3.921   0.668  0.2652 -0.1901  0.6988
 2601TIP3    H1 7809   5.944   3.884   0.717  0.9283 -2.3022 -1.6844
 2601TIP3    H2 7810   5.799   3.858   0.682  0.9641 -1.8049 -2.2347
 2602TIP3   OH2 7811   1.119   2.390   2.535 -0.0752 -0.3381  0.2505
 2602TIP3    H1 7812   1.168   2.462   2.575  0.9574 -0.1813 -1.2231
 2602TIP3    H2 7813   1.030   2.401   2.568  0.1429  1.4206  0.3566
 2603TIP3   OH2 7814   5.382   2.059   2.232  0.4265 -0.2548  0.4661
 2603TIP3    H1 7815   5.326   2.010   2.292 -0.9090  0.2130 -0.3630
 2603TIP3    H2 7816   5.409   1.995   2.167  0.2532 -0.3258  0.4630
 2604TIP3   OH2 7817   5.705   4.966   0.159  0.3793  0.3831 -0.0313
 2604TIP3    H1 7818   5.667   5.026   0.095  3.1279  0.6042 -1.6092
 2604TIP3    H2 7819   5.736   5.023   0.230 -1.9083  0.2075  1.2271
 2605TIP3   OH2 7820   0.584   1.045   4.399 -0.4481  0.6228 -0.1488
 2605TIP3    H1 7821   0.548   0.963   4.366 -0.3308  0.3913  0.2815
 2605TIP3    H2 7822   0.671   1.022   4.432 -0.7338  0.7395  0.7254
 2606TIP3   OH2 7823   0.587   4.433   1.393  0.1103  0.0236  0.1254
 2606TIP3    H1 7824   0.678   4.413   1.416  0.2370  0.3996 -0.0437
 2606TIP3    H2 7825   0.593   4.499   1.324 -0.2528 -1.5419 -1.4815
 2607TIP3   OH2 7826   1.592   4.109   3.582  0.0207 -0.4370  0.3327
 2607TIP3    H1 7827   1.508   4.154   3.574  0.1052 -0.4752 -1.0894
 2607TIP3    H2 7828   1.574   4.032   3.635 -0.3904  0.5960  1.7775
 2608TIP3   OH2 7829   2.535   3.064   4.199  0.4785 -1.0655 -0.3283
 2608TIP3    H1 7830   2.579   3.014   4.131  0.3390 -2.6654  0.7098
 2608TIP3    H2 7831   2.492   2.998   4.254  0.1858  0.1949  1.0259
 2609TIP3   OH2 7832   6.016   5.195   1.853  0.2369  0.2312  0.0500
 2609TIP3    H1 7833   5.964   5.215   1.775  0.0225  1.5745  0.5088
 2609TIP3    H2 7834   6.056   5.278   1.877 -1.9105  0.5463  2.9872
 2610TIP3   OH2 7835   3.678   3.356   2.816  0.3812 -0.8146 -0.0138
 2610TIP3    H1 7836   3.688   3.405   2.897  1.2102 -0.9063 -0.0585
 2610TIP3    H2 7837   3.676   3.423   2.747  0.5054 -0.7871  0.0101
 2611TIP3   OH2 7838   4.036   3.874   4.665  0.6094 -0.0575 -0.2871
 2611TIP3    H1 7839   4.059   3.889   4.573  0.2034  0.8694 -0.2445
 2611TIP3    H2 7840   3.953   3.826   4.661  0.8643 -0.5056 -0.3961
 2612TIP3   OH2 7841   1.634   3.313   1.227 -0.4503  0.0269  0.1241
 2612TIP3    H1 7842   1.627   3.367   1.147 -1.2759 -1.9456 -1.2086
 2612TIP3    H2 7843   1.547   3.318   1.266 -1.1544 -1.7986 -1.0664
 2613TIP3   OH2 7844   2.345   1.347   1.227 -0.5196  0.1921 -0.5920
 2613TIP3    H1 7845   2.347   1.441   1.208 -0.4099  0.0839 -1.1179
 2613TIP3    H2 7846   2.287   1.340   1.303 -0.3610  0.7087 -0.4165
 2614TIP3   OH2 7847   5.249   0.400   4.860 -0.5542 -0.3279  0.3502
 2614TIP3    H1 7848   5.254   0.389   4.955 -0.5726  2.0947  0.7171
 2614TIP3    H2 7849   5.231   0.494   4.848  0.8476 -0.2765 -2.0761
 2615TIP3   OH2 7850   2.128   1.082   4.892 -0.2282  0.3353  0.6092
 2615TIP3    H1 7851   2.144   1.042   4.806 -4.0129  0.6654 -0.3963
 2615TIP3    H2 7852   2.152   1.174   4.880  0.9565  0.0390  0.5169
 2616TIP3   OH2 7853   6.084   3.843   2.616 -0.0442 -0.2136 -0.0146
 2616TIP3    H1 7854   6.039   3.927   2.609  0.9502  0.3854  0.4611
 2616TIP3    H2 7855   6.072   3.802   2.530 -1.0620  0.1330 -0.0505
 2617TIP3   OH2 7856   2.904   0.618   3.976  0.1984  0.8019 -0.8534
 2617TIP3    H1 7857   2.973   0.680   3.999 -0.2818  1.3884 -0.9559
 2617TIP3    H2 7858   2.830   0.644   4.032 -0.2899  0.8887 -1.5241
 2618TIP3   OH2 7859   3.170   1.394   1.389  0.6846  0.1357  0.5283
 2618TIP3    H1 7860   3.239   1.459   1.381  0.0365  0.7387 -0.3721
 2618TIP3    H2 7861   3.198   1.321   1.334  0.6692  0.3265  0.2646
 2619TIP3   OH2 7862   3.694   1.644   0.078  0.1568 -0.6718 -0.5363
 2619TIP3    H1 7863   3.615   1.699   0.076  0.1130 -0.6216  1.2912
 2619TIP3    H2 7864   3.766   1.705   0.066 -0.0257 -0.5992 -1.3110
 2620TIP3   OH2 7865   0.331   1.156   2.755 -0.1915  0.0792 -0.0777
 2620TIP3    H1 7866   0.336   1.146   2.850  0.8109 -2.8195 -0.3639
 2620TIP3    H2 7867   0.409   1.112   2.721 -0.3987  1.2505 -2.2706
 2621TIP3   OH2 7868   2.644   2.513   0.330  0.9367  0.6756 -0.1019
 2621TIP3    H1 7869   2.638   2.452   0.403  3.1896 -0.0798 -0.4789
 2621TIP3    H2 7870   2.722   2.485   0.282  0.7957  2.5501 -1.5155
 2622TIP3   OH2 7871   3.201   4.883   2.255 -0.5023 -0.9364  0.3739
 2622TIP3    H1 7872   3.234   4.801   2.291  1.4108 -0.7771 -0.8980
 2622TIP3    H2 7873   3.220   4.877   2.162 -2.1850  0.1307 -0.0850
 2623TIP3   OH2 7874   4.362   2.414   0.056 -0.1440 -0.0794  0.0222
 2623TIP3    H1 7875   4.399   2.485   0.109  1.0061  0.1748 -1.0803
 2623TIP3    H2 7876   4.344   2.455  -0.029 -0.9341 -0.7422 -0.1343
 2624TIP3   OH2 7877   0.836   3.317   0.984 -0.1552 -0.2986  0.4798
 2624TIP3    H1 7878   0.894   3.326   0.908  1.3926 -1.6150  1.4442
 2624TIP3    H2 7879   0.889   3.345   1.058 -1.7129  1.1505  1.1069
 2625TIP3   OH2 7880   4.270   3.829   4.820  0.7615 -0.0424 -0.7727
 2625TIP3    H1 7881   4.197   3.854   4.763  0.5314  1.1624  0.0191
 2625TIP3    H2 7882   4.298   3.744   4.786 -1.3215 -0.7848 -0.8106
 2626TIP3   OH2 7883   2.447   1.050   0.888 -0.5222  0.7052 -0.3267
 2626TIP3    H1 7884   2.455   1.066   0.794 -0.1613  0.5225 -0.3293
 2626TIP3    H2 7885   2.454   1.137   0.928 -1.6197  0.8914 -0.5210
 2627TIP3   OH2 7886   2.287   1.703   3.691  0.0589  0.2240  0.2850
 2627TIP3    H1 7887   2.294   1.798   3.696 -0.5970  0.4560 -1.9277
 2627TIP3    H2 7888   2.199   1.687   3.656  0.7755 -1.0742 -1.0389
 2628TIP3   OH2 7889   2.340   0.535   1.020 -0.2227 -0.2598 -0.1375
 2628TIP3    H1 7890   2.246   0.522   1.005 -0.0934 -0.4494 -0.8086
 2628TIP3    H2 7891   2.345   0.572   1.108 -1.0230  1.0574 -0.6211
 2629TIP3   OH2 7892   4.431   0.643   0.266  0.5365 -0.2495  0.0756
 2629TIP3    H1 7893   4.348   0.621   0.310  1.0378  0.5916  1.5170
 2629TIP3    H2 7894   4.408   0.714   0.206  0.5146  1.5118  2.0249
 2630TIP3   OH2 7895   6.001   5.042   0.033 -0.1223  0.5279 -0.4649
 2630TIP3    H1 7896   5.925   5.095   0.009  0.3613  0.9992 -0.9727
 2630TIP3    H2 7897   6.012   4.981  -0.039  0.7864  1.3520 -1.0464
 2631TIP3   OH2 7898   5.357   0.034   4.952  0.1507  0.0819 -0.2177
 2631TIP3    H1 7899   5.318  -0.007   5.029  1.9483 -2.0590 -0.3311
 2631TIP3    H2 7900   5.431  -0.022   4.930  2.3052  2.9712 -0.9876
 2632TIP3   OH2 7901   2.030   2.625   3.583 -0.3693 -0.6766  0.4239
 2632TIP3    H1 7902   2.075   2.549   3.620 -0.6541 -0.0857  2.0541
 2632TIP3    H2 7903   2.100   2.684   3.555 -0.0542  0.1102  2.6798
 2633TIP3   OH2 7904   2.304   5.635   1.194 -0.0703  0.4974  0.2873
 2633TIP3    H1 7905   2.258   5.700   1.247 -1.0426  0.1143 -0.0505
 2633TIP3    H2 7906   2.269   5.646   1.106 -1.3064 -1.3517  0.4752
 2634TIP3   OH2 7907   5.043   0.123   3.521 -0.2799 -0.3962  0.0527
 2634TIP3    H1 7908   5.081   0.138   3.608 -0.3286 -1.2466  0.2287
 2634TIP3    H2 7909   5.008   0.034   3.525  1.1169 -1.0562 -1.3302
 2635TIP3   OH2 7910   4.228   2.942   4.149  0.3794  0.3801  0.2104
 2635TIP3    H1 7911   4.315   2.955   4.113  0.0120 -0.7843 -1.1957
 2635TIP3    H2 7912   4.244   2.898   4.233  1.1595  0.8761  0.3351
 2636TIP3   OH2 7913   5.947   2.945   2.672 -0.1511  0.6270 -0.5456
 2636TIP3    H1 7914   5.853   2.934   2.689  0.0823  0.6874  0.9105
 2636TIP3    H2 7915   5.989   2.875   2.722  0.4751 -1.4526 -3.6453
 2637TIP3   OH2 7916   4.885   0.050   4.733  0.1829 -0.0341  0.0199
 2637TIP3    H1 7917   4.954   0.059   4.799  0.6644 -0.2172 -0.4508
 2637TIP3    H2 7918   4.819   0.114   4.759  0.0964 -0.5135  1.0101
 2638TIP3   OH2 7919   5.706   5.848   3.356 -0.7045 -0.7411  0.6470
 2638TIP3    H1 7920   5.772   5.806   3.300  1.2181  0.5873  1.8109
 2638TIP3    H2 7921   5.671   5.918   3.302  0.8668  0.2899  0.8828
 2639TIP3   OH2 7922   4.839   4.432   3.980 -0.1786  0.8718 -0.0020
 2639TIP3    H1 7923   4.899   4.493   3.938  1.0558 -0.1017  0.2727
 2639TIP3    H2 7924   4.834   4.357   3.920 -0.9211  0.8262  0.1007
 2640TIP3   OH2 7925   4.848   2.852   2.993  0.6034 -0.0325 -0.4782
 2640TIP3    H1 7926   4.875   2.875   2.904 -2.0633  1.9829 -0.8801
 2640TIP3    H2 7927   4.829   2.759   2.989  4.7862 -1.0850 -0.7250
 2641TIP3   OH2 7928   1.132   0.606   5.133 -0.2953 -0.3649 -0.5004
 2641TIP3    H1 7929   1.084   0.565   5.206 -0.5484 -0.1781 -0.5592
 2641TIP3    H2 7930   1.205   0.651   5.175 -0.2545 -0.5280 -0.3931
 2642TIP3   OH2 7931   0.378   0.128   1.052  1.0311  0.1564  0.3612
 2642TIP3    H1 7932   0.471   0.149   1.058  1.1345  0.3730 -1.4133
 2642TIP3    H2 7933   0.338   0.175   1.125  2.0384  1.8771 -0.1371
 2643TIP3   OH2 7934   3.712   3.686   5.147 -0.2079  0.3468 -0.4265
 2643TIP3    H1 7935   3.712   3.764   5.203 -0.5358 -0.8779  1.3798
 2643TIP3    H2 7936   3.804   3.660   5.143 -0.3037 -0.1893  0.5174
 2644TIP3   OH2 7937   4.192   2.530   2.918  0.8051  0.3585  0.1527
 2644TIP3    H1 7938   4.249   2.585   2.971 -0.1702  0.5694  1.0241
 2644TIP3    H2 7939   4.235   2.445   2.915  1.6636  0.7957 -0.0824
 2645TIP3   OH2 7940   5.759   2.785   3.065  0.0988  0.6480  0.3329
 2645TIP3    H1 7941   5.732   2.868   3.104  2.0165  0.2618  2.7381
 2645TIP3    H2 7942   5.851   2.775   3.090  0.8561 -0.7521 -2.5769
 2646TIP3   OH2 7943   4.233   5.662   2.102  0.2412 -0.6175  0.0044
 2646TIP3    H1 7944   4.146   5.701   2.090  1.3572  2.5697  1.2876
 2646TIP3    H2 7945   4.218   5.586   2.158 -1.5273  1.4203  2.5567
 2647TIP3   OH2 7946   5.267   4.710   2.483 -0.7531  0.4100  0.6992
 2647TIP3    H1 7947   5.230   4.678   2.565 -0.5483  2.5734  1.7011
 2647TIP3    H2 7948   5.358   4.732   2.504  0.1740 -1.5531 -0.8559
 2648TIP3   OH2 7949   0.024   0.461   0.794  0.3908  0.1396 -0.6071
 2648TIP3    H1 7950   0.078   0.539   0.780 -0.1048  0.7006  0.4447
 2648TIP3    H2 7951  -0.031   0.484   0.869  2.1965 -2.2309  1.6375
 2649TIP3   OH2 7952   0.226   2.101   1.192 -0.1141  0.2141 -0.3969
 2649TIP3    H1 7953   0.274   2.070   1.116  0.6966 -1.3634  0.7167
 2649TIP3    H2 7954   0.134   2.092   1.168  0.0818 -2.6919 -0.3291
 2650TIP3   OH2 7955   0.451   0.955   1.304 -0.2771  0.0489 -0.1533
 2650TIP3    H1 7956   0.493   1.040   1.319 -0.8992  0.1466  1.1781
 2650TIP3    H2 7957   0.386   0.972   1.235 -2.5956  1.4845  2.1753
 2651TIP3   OH2 7958   2.431   4.007   4.510 -0.1876  0.4701 -0.5469
 2651TIP3    H1 7959   2.355   3.970   4.553 -0.4161 -1.4172 -2.3899
 2651TIP3    H2 7960   2.406   4.097   4.489 -1.4237  0.2701 -0.0088
 2652TIP3   OH2 7961   4.846   3.538   0.660  0.4475 -0.0316 -0.1404
 2652TIP3    H1 7962   4.790   3.544   0.737  1.5890 -0.2215  0.7235
 2652TIP3    H2 7963   4.915   3.477   0.685  0.9479  0.0530 -1.2495
 2653TIP3   OH2 7964   2.009   1.020   2.781  0.2811 -0.3114  0.5618
 2653TIP3    H1 7965   2.042   0.931   2.768  0.3214 -0.5416  2.0640
 2653TIP3    H2 7966   1.962   1.016   2.864 -1.5056  0.5885 -0.3587
 2654TIP3   OH2 7967   3.279   4.985   4.106  0.0195 -0.5349  0.0316
 2654TIP3    H1 7968   3.189   4.950   4.107 -0.2089  0.0018 -0.6960
 2654TIP3    H2 7969   3.268   5.080   4.115  0.6259 -0.5864  1.7793
 2655TIP3   OH2 7970   5.322   2.452   1.150 -0.6541  0.1593 -0.4794
 2655TIP3    H1 7971   5.227   2.442   1.143 -0.6095 -0.0317 -0.8300
 2655TIP3    H2 7972   5.344   2.414   1.235 -0.3680 -3.8924 -2.1597
 2656TIP3   OH2 7973   5.828   1.129   4.803 -0.6292  0.2783 -0.2884
 2656TIP3    H1 7974   5.910   1.108   4.848 -0.1129  0.5992 -1.0612
 2656TIP3    H2 7975   5.855   1.181   4.727 -1.5536  0.4148 -0.5328
 2657TIP3   OH2 7976   1.927   3.734   2.718  0.3803 -0.5455 -0.2011
 2657TIP3    H1 7977   1.835   3.747   2.694  0.4380 -0.7582 -0.5329
 2657TIP3    H2 7978   1.932   3.641   2.742  0.2916 -0.3159  0.7751
 2658TIP3   OH2 7979   4.107   1.533   4.083 -0.2346 -0.8553  0.1828
 2658TIP3    H1 7980   4.203   1.532   4.082 -0.2238 -1.5844  0.8531
 2658TIP3    H2 7981   4.082   1.520   3.992  0.3024 -1.1006  0.0675
 2659TIP3   OH2 7982   5.380   2.841   3.060  0.3242 -0.2800  0.1985
 2659TIP3    H1 7983   5.418   2.923   3.093  0.2609 -0.4146  0.6048
 2659TIP3    H2 7984   5.286   2.852   3.071  0.3101 -0.3759  0.1698
 2660TIP3   OH2 7985   2.982   2.323   1.544 -0.2708  0.3823  0.2833
 2660TIP3    H1 7986   2.985   2.296   1.636 -1.5457  0.3085  0.3247
 2660TIP3    H2 7987   2.959   2.243   1.496  1.6143  0.1167 -0.2792
 2661TIP3   OH2 7988   1.012   5.839   2.958 -0.1459 -0.2770  0.5648
 2661TIP3    H1 7989   1.099   5.825   2.921 -0.1270 -1.0828  0.8819
 2661TIP3    H2 7990   1.016   5.925   2.999  0.0770  0.2947 -0.6083
 2662TIP3   OH2 7991   3.519   5.702   4.713  0.0432 -0.2849 -0.4824
 2662TIP3    H1 7992   3.606   5.680   4.744 -0.3387 -1.0896  0.0355
 2662TIP3    H2 7993   3.460   5.643   4.760 -0.7604  0.0704 -1.0095
 2663TIP3   OH2 7994   4.327   4.043   4.221  0.9717 -0.1059  0.3545
 2663TIP3    H1 7995   4.314   3.949   4.213  0.9855 -0.0930  0.1765
 2663TIP3    H2 7996   4.246   4.075   4.260  0.1902  0.0545 -1.3196
 2664TIP3   OH2 7997   5.873   4.417   0.470  0.1312  0.0800 -0.0155
 2664TIP3    H1 7998   5.807   4.486   0.464  1.9189  1.7106 -2.4302
 2664TIP3    H2 7999   5.937   4.451   0.532 -1.1316 -1.5210  2.3566
 2665TIP3   OH2 8000   5.958   4.272   0.228 -0.0202 -0.6124 -0.4281
 2665TIP3    H1 8001   5.925   4.321   0.303 -0.7177 -0.2277 -0.9731
 2665TIP3    H2 8002   6.015   4.334   0.182  0.8321 -1.0116  0.0514
 2666TIP3   OH2 8003   4.070   4.171   4.781 -0.1065  0.2701 -0.5939
 2666TIP3    H1 8004   4.037   4.083   4.763  1.4406  0.0030 -2.4841
 2666TIP3    H2 8005   4.057   4.219   4.699  0.0952  1.4587  0.0477
 2667TIP3   OH2 8006   2.282   0.838   0.501 -0.2435 -0.2283 -0.4111
 2667TIP3    H1 8007   2.284   0.895   0.425 -0.2227 -0.4650 -0.5888
 2667TIP3    H2 8008   2.342   0.766   0.480 -1.1452 -0.9257 -0.6723
 2668TIP3   OH2 8009   4.952   4.668   3.176  0.1851 -0.2012 -0.7800
 2668TIP3    H1 8010   4.965   4.639   3.266 -3.1179  0.2627 -0.0300
 2668TIP3    H2 8011   4.933   4.762   3.184  1.1884  0.1489 -2.1344
 2669TIP3   OH2 8012   3.945   0.309   0.170  0.5174 -0.9623  0.4459
 2669TIP3    H1 8013   4.012   0.267   0.225  0.8901  0.4225  1.0903
 2669TIP3    H2 8014   3.893   0.236   0.136  0.2251 -1.8888  2.7033
 2670TIP3   OH2 8015   0.625   2.358   0.954 -0.3118  0.6400 -0.4483
 2670TIP3    H1 8016   0.679   2.371   1.032 -0.8312  0.5426 -0.0636
 2670TIP3    H2 8017   0.667   2.411   0.886  0.4460  0.3148 -0.2455
 2671TIP3   OH2 8018   4.702   0.298   2.725  0.6554 -0.6261  0.0535
 2671TIP3    H1 8019   4.677   0.211   2.696  1.0759 -1.0583  0.9581
 2671TIP3    H2 8020   4.798   0.297   2.726  0.6603 -0.3062  0.4830
 2672TIP3   OH2 8021   0.401   4.888   2.951 -0.0302  0.1769 -0.1120
 2672TIP3    H1 8022   0.451   4.887   3.033 -1.0953  1.0709  0.5936
 2672TIP3    H2 8023   0.370   4.979   2.944  0.3379  0.2049 -1.7050
 2673TIP3   OH2 8024   5.943   1.365   4.601  0.2336 -0.0213  0.4757
 2673TIP3    H1 8025   5.997   1.288   4.618 -0.7666 -0.6500  0.8913
 2673TIP3    H2 8026   5.937   1.370   4.506 -0.9656 -1.3868  0.4507
 2674TIP3   OH2 8027   3.137   0.219   2.603  0.1180 -0.0803 -0.5556
 2674TIP3    H1 8028   3.231   0.197   2.606 -0.1868 -1.3850  0.3526
 2674TIP3    H2 8029   3.093   0.140   2.634 -1.1859  1.1771  0.9559
 2675TIP3   OH2 8030   2.135   3.844   2.862 -0.2678 -0.5976  0.0131
 2675TIP3    H1 8031   2.204   3.871   2.801 -0.7495  0.7344  0.0193
 2675TIP3    H2 8032   2.080   3.785   2.810 -1.1682  1.1950 -1.1702
 2676TIP3   OH2 8033   1.238   0.409   0.451 -0.3435 -0.3892  0.4082
 2676TIP3    H1 8034   1.212   0.404   0.542 -0.4968  1.9993  0.5597
 2676TIP3    H2 8035   1.307   0.476   0.449 -1.4664  0.8225 -1.4066
 2677TIP3   OH2 8036   3.399   0.602   4.403 -0.2434 -0.1748  0.5405
 2677TIP3    H1 8037   3.356   0.527   4.445 -1.3429 -0.4066 -0.9122
 2677TIP3    H2 8038   3.394   0.583   4.309  0.7502  1.0501  0.2158
 2678TIP3   OH2 8039   3.121   5.639   3.420  0.1493 -0.7824  0.6751
 2678TIP3    H1 8040   3.094   5.550   3.444 -0.3252 -0.0915  2.9471
 2678TIP3    H2 8041   3.063   5.662   3.347 -0.5926 -1.8646  0.8876
 2679TIP3   OH2 8042   0.640   0.170   1.361 -0.0711  0.2465  0.1024
 2679TIP3    H1 8043   0.662   0.097   1.420 -2.8251 -0.2540  0.6352
 2679TIP3    H2 8044   0.652   0.135   1.273  1.3485  0.0993  0.3284
 2680TIP3   OH2 8045   6.199   3.971   0.329 -0.2187  0.0161 -0.1301
 2680TIP3    H1 8046   6.127   4.002   0.274  0.3362  0.4816 -0.6039
 2680TIP3    H2 8047   6.172   3.996   0.418 -0.0455  1.4025 -0.4402
 2681TIP3   OH2 8048   1.776   4.553   0.649 -0.3372 -0.4037  0.1182
 2681TIP3    H1 8049   1.781   4.637   0.603 -0.9815 -0.8592 -0.8254
 2681TIP3    H2 8050   1.717   4.570   0.722  1.2177  0.4998  1.2030
 2682TIP3   OH2 8051   5.838   4.410   1.407 -0.3825  0.0083  0.1826
 2682TIP3    H1 8052   5.905   4.471   1.438 -1.1594  0.2938  1.3827
 2682TIP3    H2 8053   5.869   4.324   1.436 -0.1842  0.0454  0.0864
 2683TIP3   OH2 8054   4.036   5.024   4.978 -0.1518 -0.0831 -1.2951
 2683TIP3    H1 8055   3.993   5.046   4.895 -0.7179 -0.1414 -1.0190
 2683TIP3    H2 8056   4.129   5.040   4.961 -0.0825 -1.4645 -2.3863
 2684TIP3   OH2 8057   2.668   4.836   2.905  0.5215 -0.0769 -0.0372
 2684TIP3    H1 8058   2.654   4.875   2.992 -1.3313 -1.0775  0.1587
 2684TIP3    H2 8059   2.686   4.911   2.848  1.7100  0.6088  1.1624
 2685TIP3   OH2 8060   3.663   3.235   3.703  0.1712 -0.6984 -0.2902
 2685TIP3    H1 8061   3.679   3.319   3.747  1.0831  0.5508 -2.7677
 2685TIP3    H2 8062   3.734   3.179   3.731  0.7901  0.0929 -0.2360
 2686TIP3   OH2 8063   3.032   1.285   0.901  0.5387  0.0682 -0.3044
 2686TIP3    H1 8064   3.037   1.226   0.826  0.0618 -0.0762 -0.2261
 2686TIP3    H2 8065   3.123   1.312   0.917  0.4854  1.3140 -1.8883
 2687TIP3   OH2 8066   1.687   4.189   1.506  0.2831  0.0356  0.1891
 2687TIP3    H1 8067   1.693   4.135   1.428  0.6288 -0.6016  0.6494
 2687TIP3    H2 8068   1.738   4.268   1.486  1.4134 -0.6698  0.2203
 2688TIP3   OH2 8069   5.790   1.520   2.132 -0.1918 -0.2683  0.1535
 2688TIP3    H1 8070   5.844   1.445   2.107 -0.3005 -0.7181  1.2329
 2688TIP3    H2 8071   5.798   1.526   2.227 -0.0906  1.1678  0.0798
 2689TIP3   OH2 8072   5.920   1.175   3.773  0.3508  0.3927 -0.4745
 2689TIP3    H1 8073   6.004   1.128   3.775 -0.2952 -0.9441  3.0996
 2689TIP3    H2 8074   5.944   1.266   3.789  1.1518 -0.2529  2.6536
 2690TIP3   OH2 8075   5.323   2.366   2.071 -0.3167 -0.2459 -0.0537
 2690TIP3    H1 8076   5.260   2.438   2.065  0.3480  0.2517 -1.5039
 2690TIP3    H2 8077   5.338   2.339   1.980  2.0629  0.1150  0.1592
 2691TIP3   OH2 8078   4.826   3.302   3.733 -0.6014 -0.0340 -0.1295
 2691TIP3    H1 8079   4.756   3.249   3.772 -0.4221 -0.6311 -0.5939
 2691TIP3    H2 8080   4.870   3.241   3.673  0.2858  0.3508  0.1319
 2692TIP3   OH2 8081   5.241   1.537   0.894  0.5237 -0.0311 -0.0214
 2692TIP3    H1 8082   5.250   1.555   0.988  1.2149  1.3413 -0.3302
 2692TIP3    H2 8083   5.266   1.445   0.885  3.1037  0.5318  0.7913
 2693TIP3   OH2 8084   5.339   3.248   0.209  0.4679 -0.3066 -0.5317
 2693TIP3    H1 8085   5.404   3.319   0.215  0.3550 -0.2516  0.0205
 2693TIP3    H2 8086   5.340   3.206   0.295  0.3123 -0.7866 -0.7582
 2694TIP3   OH2 8087   0.793   1.769   1.218  0.9027  0.2932  0.0610
 2694TIP3    H1 8088   0.882   1.737   1.200  1.0513  1.2488 -1.0414
 2694TIP3    H2 8089   0.787   1.850   1.169 -1.3920 -0.8981 -1.8040
 2695TIP3   OH2 8090   1.064   1.681   0.329 -0.6943 -0.3339  0.2108
 2695TIP3    H1 8091   1.150   1.713   0.355  0.0902 -1.5221 -0.8160
 2695TIP3    H2 8092   1.007   1.701   0.404  0.1909  1.5129  0.4326
 2696TIP3   OH2 8093   5.554   0.321   1.391  0.3595  0.2427  0.1786
 2696TIP3    H1 8094   5.565   0.244   1.335  0.1166 -0.7064  1.3883
 2696TIP3    H2 8095   5.502   0.290   1.465  0.6934  1.4470  0.9594
 2697TIP3   OH2 8096   0.101  -0.017   3.827  0.1740 -0.3355  0.1351
 2697TIP3    H1 8097   0.128  -0.016   3.918  1.6673 -0.2355 -0.2844
 2697TIP3    H2 8098   0.075   0.073   3.808  1.5719  0.0634 -0.0003
 2698TIP3   OH2 8099   4.483   1.088   0.975  0.1847  0.2952  0.3272
 2698TIP3    H1 8100   4.479   1.073   1.070  1.2063 -0.7097  0.2402
 2698TIP3    H2 8101   4.522   1.175   0.967 -0.3418  0.5838  0.8361
 2699TIP3   OH2 8102   4.779   1.495   5.115  0.0888  0.4140  0.1705
 2699TIP3    H1 8103   4.737   1.468   5.196 -0.2839  0.0803 -0.1339
 2699TIP3    H2 8104   4.810   1.414   5.075  0.4405  0.5950  0.0728
 2700TIP3   OH2 8105   3.248   3.258   0.220 -0.1706 -0.2621  0.7517
 2700TIP3    H1 8106   3.230   3.339   0.269  0.0901 -0.6558  1.5186
 2700TIP3    H2 8107   3.337   3.270   0.187 -0.8242  0.5719 -0.7982
 2701TIP3   OH2 8108   3.362   0.415   3.308  0.1886  0.1541  0.1904
 2701TIP3    H1 8109   3.396   0.474   3.375 -0.5304  0.0308  0.6732
 2701TIP3    H2 8110   3.300   0.359   3.355 -0.2134 -0.0293 -0.5490
 2702TIP3   OH2 8111   2.081   2.729   4.330  0.0455 -0.0028 -0.1426
 2702TIP3    H1 8112   2.054   2.702   4.242 -2.5371  1.2601  0.1819
 2702TIP3    H2 8113   2.117   2.649   4.369 -1.1595 -1.2440 -1.4596
 2703TIP3   OH2 8114   3.758   4.536   4.121  0.0952  0.9614  0.3356
 2703TIP3    H1 8115   3.803   4.617   4.147 -1.7092  1.9702  0.4793
 2703TIP3    H2 8116   3.689   4.565   4.061  0.5597 -0.7044 -1.0763
 2704TIP3   OH2 8117   4.128   2.096   0.380 -0.3274  0.2658 -0.3482
 2704TIP3    H1 8118   4.122   2.045   0.299  1.4051  0.8991 -0.9152
 2704TIP3    H2 8119   4.165   2.035   0.444  0.3314  0.3655 -0.6253
 2705TIP3   OH2 8120   5.982   0.113   0.718  0.3670 -0.0618 -0.2060
 2705TIP3    H1 8121   5.970   0.064   0.637 -0.6080  0.1473 -0.2057
 2705TIP3    H2 8122   6.075   0.106   0.738  0.6927  0.2164 -1.5559
 2706TIP3   OH2 8123   5.823   2.014   4.141  0.1436  0.4183  0.0527
 2706TIP3    H1 8124   5.818   2.108   4.159  2.8307  0.4912  0.7646
 2706TIP3    H2 8125   5.804   1.973   4.225 -0.5607  0.3239 -0.1483
 2707TIP3   OH2 8126   1.132   4.104   3.735 -0.3382 -0.3415 -0.5476
 2707TIP3    H1 8127   1.150   4.198   3.738  0.3234 -0.4520 -0.9209
 2707TIP3    H2 8128   1.169   4.069   3.816 -0.4499 -0.3055 -0.4807
 2708TIP3   OH2 8129   6.055   5.168   4.662 -0.2139 -0.3493  0.0734
 2708TIP3    H1 8130   5.989   5.169   4.731  0.5910  1.2759  0.8729
 2708TIP3    H2 8131   6.049   5.080   4.624 -0.3945 -1.4570  2.4914
 2709TIP3   OH2 8132   1.042   2.039   3.819 -0.3113 -0.0021  0.2588
 2709TIP3    H1 8133   1.006   2.116   3.863 -0.4152 -0.6668  1.3993
 2709TIP3    H2 8134   0.965   1.989   3.792 -0.4120 -1.6772  3.1493
 2710TIP3   OH2 8135   0.308   0.042   0.794  0.7545 -0.3933  0.2530
 2710TIP3    H1 8136   0.341   0.046   0.884  0.2497  0.7191  0.4034
 2710TIP3    H2 8137   0.251   0.118   0.786  2.3725  0.7371 -1.6245
 2711TIP3   OH2 8138   1.195   0.159   3.615  0.5854 -0.4186 -0.2678
 2711TIP3    H1 8139   1.250   0.217   3.668 -2.1122  2.0759  0.0587
 2711TIP3    H2 8140   1.253   0.088   3.588  2.9029 -0.1373  3.3465
 2712TIP3   OH2 8141   0.516   0.542   4.987 -0.3618  0.0762 -0.2448
 2712TIP3    H1 8142   0.572   0.525   4.911 -0.6266  2.4361 -1.0384
 2712TIP3    H2 8143   0.459   0.465   4.992  1.8566 -1.7207 -0.3087
 2713TIP3   OH2 8144   2.976   0.359   0.310  0.2438 -0.2500  0.3067
 2713TIP3    H1 8145   2.960   0.277   0.263  0.4797  0.0826 -0.3712
 2713TIP3    H2 8146   3.068   0.380   0.290  0.8024 -0.8155  2.0497
 2714TIP3   OH2 8147   3.857   4.206   0.740 -0.2449 -0.1943 -0.4922
 2714TIP3    H1 8148   3.815   4.139   0.794  1.2538 -0.3309  0.5758
 2714TIP3    H2 8149   3.806   4.285   0.755  0.4603 -0.0867  1.6357
 2715TIP3   OH2 8150   0.922   4.181   3.536 -0.5040 -0.5893  0.0191
 2715TIP3    H1 8151   0.998   4.166   3.593  0.6057  0.5050 -1.1187
 2715TIP3    H2 8152   0.848   4.149   3.587  0.5598 -0.5234  1.6877
 2716TIP3   OH2 8153   3.448   4.435   3.936 -0.2102  0.3773  0.0277
 2716TIP3    H1 8154   3.384   4.388   3.883 -1.0356 -0.0831  1.3761
 2716TIP3    H2 8155   3.528   4.382   3.931  1.3976  2.6666 -4.5119
 2717TIP3   OH2 8156   4.296   1.491   3.747  0.2783 -0.2379  0.0839
 2717TIP3    H1 8157   4.213   1.473   3.705  0.4522 -0.2023 -0.2809
 2717TIP3    H2 8158   4.328   1.406   3.777 -0.3198 -0.1366  1.0477
 2718TIP3   OH2 8159   3.974   1.405   3.084 -0.1781 -0.3167  0.0210
 2718TIP3    H1 8160   3.993   1.312   3.095 -1.1367 -0.3497  1.5989
 2718TIP3    H2 8161   4.056   1.449   3.108  0.2741 -0.7298 -0.7230
 2719TIP3   OH2 8162   1.263   2.622   4.326 -0.1828  0.0815 -0.3594
 2719TIP3    H1 8163   1.266   2.620   4.421 -1.6659  1.6166 -0.2232
 2719TIP3    H2 8164   1.177   2.586   4.304  0.5708 -1.2613 -1.1955
 2720TIP3   OH2 8165   3.144   2.365   4.095  0.0815  0.3166 -0.4680
 2720TIP3    H1 8166   3.210   2.297   4.114 -0.1739  0.0236 -0.6211
 2720TIP3    H2 8167   3.187   2.447   4.119 -0.0080  0.0151  0.7911
 2721TIP3   OH2 8168   0.134   4.668   4.893  0.4726  0.3068  0.0816
 2721TIP3    H1 8169   0.210   4.664   4.951  1.8722  0.5497 -1.6821
 2721TIP3    H2 8170   0.167   4.641   4.807 -1.5237  0.0542 -0.6584
 2722TIP3   OH2 8171   5.755   0.099   2.078 -0.1877 -0.3519 -0.0539
 2722TIP3    H1 8172   5.806   0.180   2.077 -0.9994  0.1815  0.4611
 2722TIP3    H2 8173   5.751   0.072   1.986 -2.0076  1.5633 -0.6200
 2723TIP3   OH2 8174   0.224   1.575   3.918 -0.1241 -0.4507 -0.0224
 2723TIP3    H1 8175   0.210   1.560   4.011  0.6553 -1.8624 -0.1111
 2723TIP3    H2 8176   0.238   1.670   3.911  0.7096 -0.4366  1.4165
 2724TIP3   OH2 8177   4.527   2.127   2.731  0.0603 -0.1680  0.4537
 2724TIP3    H1 8178   4.597   2.073   2.768  0.1871 -0.8539 -0.7344
 2724TIP3    H2 8179   4.518   2.096   2.640 -1.6302  0.0562  0.5092
 2725TIP3   OH2 8180   3.409   5.766   0.435 -0.0128  0.0143  0.6976
 2725TIP3    H1 8181   3.465   5.833   0.475  1.6008 -1.5450  1.1923
 2725TIP3    H2 8182   3.420   5.780   0.340 -2.1622  2.3579  0.7117
 2726TIP3   OH2 8183   6.297   3.093   3.261 -0.4693  0.3010 -0.3125
 2726TIP3    H1 8184   6.208   3.079   3.229  0.2694 -0.1662 -2.3147
 2726TIP3    H2 8185   6.349   3.024   3.220  0.5324 -0.7146  2.4168
 2727TIP3   OH2 8186   1.031   4.397   2.790  0.1244 -0.2276 -0.0776
 2727TIP3    H1 8187   0.993   4.403   2.877  0.2095  0.8306 -0.0986
 2727TIP3    H2 8188   1.112   4.447   2.796 -0.0665  0.1877 -0.8634
 2728TIP3   OH2 8189   0.638   2.961   2.581 -0.0537 -0.3780  0.5082
 2728TIP3    H1 8190   0.693   2.971   2.659  1.5430  0.5916 -0.6766
 2728TIP3    H2 8191   0.588   2.881   2.596  2.7491 -2.1489  1.0559
 2729TIP3   OH2 8192   4.300   4.335   4.800 -0.0690 -0.0714 -0.5022
 2729TIP3    H1 8193   4.389   4.300   4.791 -0.3804 -1.4867  1.2602
 2729TIP3    H2 8194   4.244   4.260   4.779 -0.7921  0.0292  0.9826
 2730TIP3   OH2 8195   4.555   4.040   4.662 -0.0115 -0.1976  0.0633
 2730TIP3    H1 8196   4.526   3.986   4.589  0.2836 -0.1441 -0.0923
 2730TIP3    H2 8197   4.610   4.107   4.623 -0.4438  0.2719  0.2445
 2731TIP3   OH2 8198   2.397   1.292   4.004 -0.0523 -0.6144 -0.2147
 2731TIP3    H1 8199   2.399   1.241   3.923  0.8833  3.1170 -2.8166
 2731TIP3    H2 8200   2.328   1.357   3.989 -0.4686 -0.3273  2.4364
 2732TIP3   OH2 8201   2.856   1.553   4.662 -0.3510 -0.1213  0.2209
 2732TIP3    H1 8202   2.814   1.555   4.748 -0.5035 -0.1049  0.1458
 2732TIP3    H2 8203   2.944   1.587   4.678 -0.4979  0.2272  0.3072
 2733TIP3   OH2 8204   4.242   2.752   4.398  0.3534  0.2995  0.0325
 2733TIP3    H1 8205   4.295   2.686   4.443  0.8205  0.2494 -0.5833
 2733TIP3    H2 8206   4.185   2.701   4.341  2.0320  0.4497 -1.9035
 2734TIP3   OH2 8207   3.212   1.781   1.373  0.2263  0.0349 -0.3853
 2734TIP3    H1 8208   3.141   1.846   1.376 -0.1376 -0.2425 -1.9410
 2734TIP3    H2 8209   3.291   1.833   1.356  0.1824  0.2192 -0.0294
 2735TIP3   OH2 8210   3.423   2.112   0.229  0.0412 -0.3770  0.2281
 2735TIP3    H1 8211   3.367   2.166   0.285  1.4832  1.4777 -0.0169
 2735TIP3    H2 8212   3.379   2.111   0.144 -0.6125 -0.6230  0.5672
 2736TIP3   OH2 8213   3.511   0.859   4.413  0.2829  0.0194  1.0087
 2736TIP3    H1 8214   3.458   0.888   4.487 -0.4186 -0.8312  0.8521
 2736TIP3    H2 8215   3.499   0.764   4.409  2.3387 -0.3084  1.3601
 2737TIP3   OH2 8216   4.052   5.035   4.066  0.5415  0.2916  0.1356
 2737TIP3    H1 8217   4.106   5.095   4.117  0.2975  0.5422  0.0965
 2737TIP3    H2 8218   3.964   5.071   4.071  0.0652 -0.9954  1.5582
 2738TIP3   OH2 8219   2.367   1.673   4.664  0.2043 -0.1167  0.5806
 2738TIP3    H1 8220   2.444   1.728   4.650  0.3413 -0.3719  0.3268
 2738TIP3    H2 8221   2.401   1.594   4.708 -0.1251  0.3929  1.7919
 2739TIP3   OH2 8222   1.452   0.722   3.693  0.5647  0.2543  0.1604
 2739TIP3    H1 8223   1.509   0.702   3.618  0.0070 -1.3675  0.1273
 2739TIP3    H2 8224   1.513   0.739   3.765  1.3800 -4.9264  1.0865
 2740TIP3   OH2 8225   4.777   4.804   2.305  0.0062 -0.9437 -0.2383
 2740TIP3    H1 8226   4.763   4.761   2.221  0.9038 -3.8403  0.9676
 2740TIP3    H2 8227   4.866   4.839   2.300 -1.0665  1.8980 -1.5864
 2741TIP3   OH2 8228   4.396   4.738   3.742  0.3545 -0.4812 -0.4338
 2741TIP3    H1 8229   4.427   4.828   3.749 -0.6021 -0.2215  0.9293
 2741TIP3    H2 8230   4.475   4.685   3.751  0.6269  0.1783  1.7799
 2742TIP3   OH2 8231   0.925   2.674   3.289  0.1080 -0.2494  0.2751
 2742TIP3    H1 8232   0.985   2.698   3.360 -0.2345  2.4203 -0.2227
 2742TIP3    H2 8233   0.853   2.629   3.332  1.1031 -0.9281  1.2671
 2743TIP3   OH2 8234   2.421   5.743   0.277 -0.0439 -0.4613  0.3417
 2743TIP3    H1 8235   2.376   5.742   0.362  2.3441 -1.4609  1.6891
 2743TIP3    H2 8236   2.373   5.679   0.224 -1.8622  0.5272  0.7131
 2744TIP3   OH2 8237   3.580   2.115   1.343  0.1275 -0.1415 -0.2896
 2744TIP3    H1 8238   3.533   2.197   1.354 -1.0216 -1.0048  1.8119
 2744TIP3    H2 8239   3.653   2.121   1.405 -0.7179 -1.1945  0.8448
 2745TIP3   OH2 8240   6.227   2.819   3.764  0.3213 -0.0834  0.0045
 2745TIP3    H1 8241   6.135   2.810   3.788  0.5351 -0.7094  0.6278
 2745TIP3    H2 8242   6.272   2.753   3.817  0.9116 -1.0192 -1.6103
 2746TIP3   OH2 8243   3.333   3.122   1.775 -0.4323 -0.8127  0.6580
 2746TIP3    H1 8244   3.270   3.087   1.713 -0.5343  0.6042 -0.0869
 2746TIP3    H2 8245   3.330   3.062   1.850 -0.9962 -2.0180 -0.3018
 2747TIP3   OH2 8246   4.882   1.007   0.386 -0.1007 -0.2213  0.1956
 2747TIP3    H1 8247   4.867   1.014   0.292  1.0518  0.9547  0.0654
 2747TIP3    H2 8248   4.910   1.094   0.412  2.6448 -1.2273  1.0266
 2748TIP3   OH2 8249   5.181   3.196   1.039  0.3192  0.5948  0.5606
 2748TIP3    H1 8250   5.112   3.230   1.096 -0.4084 -0.8353  0.5949
 2748TIP3    H2 8251   5.161   3.234   0.953 -2.2970 -1.9144 -0.1121
 2749TIP3   OH2 8252   4.499   0.163   3.621 -0.5309  0.0238 -0.0508
 2749TIP3    H1 8253   4.579   0.111   3.622 -0.1285  0.5370 -1.5341
 2749TIP3    H2 8254   4.528   0.250   3.591 -1.8334 -0.2057 -2.1534
 2750TIP3   OH2 8255   5.736   5.094   3.875  0.3016  0.2399 -0.1385
 2750TIP3    H1 8256   5.728   5.003   3.848  0.2936  0.6241 -1.4788
 2750TIP3    H2 8257   5.812   5.095   3.932 -1.3362 -1.1037  2.2605
 2751TIP3   OH2 8258   0.881   5.356   2.708  0.1372  0.0194  0.4666
 2751TIP3    H1 8259   0.896   5.445   2.738 -1.2210  0.9634 -1.4417
 2751TIP3    H2 8260   0.931   5.348   2.627  0.2058 -0.9360  0.5885
 2752TIP3   OH2 8261   1.941   4.429   2.450  0.4489 -0.5838  0.3291
 2752TIP3    H1 8262   1.950   4.336   2.429 -1.0842 -0.5032 -0.9137
 2752TIP3    H2 8263   1.853   4.437   2.486  0.6951  0.3298  0.7661
 2753TIP3   OH2 8264   5.784   4.704   0.919  0.2707  0.0377  0.5134
 2753TIP3    H1 8265   5.691   4.709   0.896 -0.3971 -0.3516  2.8281
 2753TIP3    H2 8266   5.829   4.749   0.848 -1.5702 -0.7128 -1.2325
 2754TIP3   OH2 8267   4.738   1.395   0.289 -0.2526 -0.6893 -0.2476
 2754TIP3    H1 8268   4.665   1.374   0.231  0.1667  1.1487 -1.5454
 2754TIP3    H2 8269   4.698   1.445   0.361 -0.2654  0.7361 -1.2046
 2755TIP3   OH2 8270   2.388   3.821   1.084  0.4085  0.4629 -0.2606
 2755TIP3    H1 8271   2.316   3.826   1.147  1.5536  1.5211  1.0087
 2755TIP3    H2 8272   2.447   3.755   1.120  1.2150  1.2830 -0.0589
 2756TIP3   OH2 8273   6.314   5.176   5.038 -0.0438 -0.0682  0.1017
 2756TIP3    H1 8274   6.396   5.171   5.087 -0.3719  1.0159  0.7910
 2756TIP3    H2 8275   6.320   5.105   4.974  0.7186 -1.0460  1.2125
 2757TIP3   OH2 8276   5.718   2.351   3.513 -1.0190 -0.6552 -0.0233
 2757TIP3    H1 8277   5.735   2.282   3.578  1.4653 -1.1683 -1.1359
 2757TIP3    H2 8278   5.775   2.330   3.440 -2.4455  0.9327 -1.6761
 2758TIP3   OH2 8279   4.003   0.808   1.002 -0.6026  0.4114 -0.0296
 2758TIP3    H1 8280   3.997   0.794   1.097  0.4707  0.6787  0.0976
 2758TIP3    H2 8281   4.024   0.901   0.993  1.0644  0.0266 -0.4291
 2759TIP3   OH2 8282   3.490   4.755   2.282  0.4185 -0.3180  0.2705
 2759TIP3    H1 8283   3.456   4.711   2.360  2.0796 -1.6399  0.2959
 2759TIP3    H2 8284   3.448   4.709   2.209 -1.5224  1.2393  0.3093
 2760TIP3   OH2 8285   1.416   3.131   2.096 -0.6968 -0.2530  0.2108
 2760TIP3    H1 8286   1.454   3.073   2.161 -0.2759  0.9845  1.0952
 2760TIP3    H2 8287   1.398   3.074   2.021  1.6586 -1.1599  0.2353
 2761TIP3   OH2 8288   5.776   2.784   4.301  0.2358  0.0790  0.0143
 2761TIP3    H1 8289   5.761   2.877   4.318  0.8199  0.7495 -2.6340
 2761TIP3    H2 8290   5.691   2.751   4.275 -0.2620 -0.5122  2.1927
 2762TIP3   OH2 8291   2.541   1.345   3.307  0.0996  0.3762 -0.2205
 2762TIP3    H1 8292   2.572   1.335   3.397 -1.2706 -1.5340  0.0931
 2762TIP3    H2 8293   2.620   1.335   3.254  0.4205 -2.5499  0.6352
 2763TIP3   OH2 8294   4.564   0.830   2.056 -0.2188  0.1430  0.4854
 2763TIP3    H1 8295   4.583   0.843   2.149 -0.6513  0.7747  0.4896
 2763TIP3    H2 8296   4.586   0.914   2.015  0.4284 -0.2878 -0.0585
 2764TIP3   OH2 8297   5.984   0.229   2.202  0.1993 -0.2524  0.2467
 2764TIP3    H1 8298   5.953   0.274   2.279  0.5863 -0.7483  0.7023
 2764TIP3    H2 8299   6.038   0.157   2.236  3.4555  1.6360 -0.4446
 2765TIP3   OH2 8300   5.054   4.932   1.309  0.2359 -0.2411  0.5094
 2765TIP3    H1 8301   4.980   4.906   1.255  0.4668 -0.5785  0.3538
 2765TIP3    H2 8302   5.117   4.860   1.301  0.2133 -0.3712  1.3329
 2766TIP3   OH2 8303   0.706   4.638   4.590  0.0212 -0.4022  0.0582
 2766TIP3    H1 8304   0.736   4.577   4.657  1.6858 -0.4673 -0.6910
 2766TIP3    H2 8305   0.784   4.689   4.566 -0.4201 -0.5782 -2.0064
 2767TIP3   OH2 8306   1.503   5.891   1.324 -0.0047 -0.3709  0.5955
 2767TIP3    H1 8307   1.589   5.927   1.347  0.4869 -0.5423 -0.8243
 2767TIP3    H2 8308   1.522   5.824   1.259 -1.0683 -1.8879  1.7855
 2768TIP3   OH2 8309   1.003   0.589   2.824  0.4413  0.5588 -0.0125
 2768TIP3    H1 8310   1.058   0.642   2.765  1.7715  0.1818  0.8313
 2768TIP3    H2 8311   0.950   0.652   2.871  1.0974  1.0572  0.0736
 2769TIP3   OH2 8312   0.728   0.749   5.054  0.3545  0.1238 -0.6003
 2769TIP3    H1 8313   0.682   0.666   5.047  1.2982 -0.9003  3.0613
 2769TIP3    H2 8314   0.807   0.737   5.002  0.1827 -1.0625 -0.6132
 2770TIP3   OH2 8315   2.047   3.581   0.125 -0.2089  0.4746 -0.5512
 2770TIP3    H1 8316   2.100   3.647   0.081 -2.1873  1.7688 -1.0942
 2770TIP3    H2 8317   2.107   3.539   0.187  1.4382  1.8254 -1.1745
 2771TIP3   OH2 8318   2.138   5.106   0.810 -0.0248  0.3088  0.0358
 2771TIP3    H1 8319   2.118   5.105   0.716 -1.4220 -0.5613  0.3050
 2771TIP3    H2 8320   2.230   5.078   0.816 -0.2687 -0.7847 -1.0193
 2772TIP3   OH2 8321   1.073   4.871   1.998  0.4573 -0.6431  0.1180
 2772TIP3    H1 8322   1.112   4.947   1.953 -0.3783  0.4450  1.1674
 2772TIP3    H2 8323   1.134   4.799   1.980  1.9637  0.5583  0.1339
 2773TIP3   OH2 8324   1.556   2.359   3.538  0.2002 -0.1080 -0.2648
 2773TIP3    H1 8325   1.641   2.401   3.558 -0.0019 -0.4351  1.4549
 2773TIP3    H2 8326   1.497   2.392   3.606 -0.2481 -2.2906  0.4923
 2774TIP3   OH2 8327   5.132   3.603   2.909 -0.1429 -0.0669  0.2728
 2774TIP3    H1 8328   5.048   3.559   2.896 -0.3776  0.4277  0.1139
 2774TIP3    H2 8329   5.191   3.560   2.847 -0.2299 -0.5364  0.5096
 2775TIP3   OH2 8330   0.399   1.460   0.770 -0.9675  0.5132  0.5812
 2775TIP3    H1 8331   0.453   1.506   0.705 -0.7003  0.5109  0.8017
 2775TIP3    H2 8332   0.461   1.404   0.816 -1.3194 -0.2132  0.1855
 2776TIP3   OH2 8333   1.651   2.732   3.958  0.8456 -0.8923  0.0550
 2776TIP3    H1 8334   1.560   2.740   3.988  0.2759 -0.9111 -1.5569
 2776TIP3    H2 8335   1.682   2.823   3.953  0.7563 -0.8556  0.1544
 2777TIP3   OH2 8336   0.707   5.058   2.818 -0.6952 -0.7188 -0.2243
 2777TIP3    H1 8337   0.621   5.067   2.776 -0.9634  1.1574  0.6330
 2777TIP3    H2 8338   0.687   5.043   2.911 -0.1384  0.8634  0.1836
 2778TIP3   OH2 8339   0.850   3.182   3.970  0.0277 -0.2333  0.4607
 2778TIP3    H1 8340   0.822   3.099   4.008 -0.6045 -0.4772 -0.5005
 2778TIP3    H2 8341   0.771   3.235   3.965  0.1801 -0.0523 -0.1116
 2779TIP3   OH2 8342   3.196   2.784   0.354 -0.3683  0.6927 -0.0140
 2779TIP3    H1 8343   3.254   2.859   0.340 -0.7512  1.0813  0.4148
 2779TIP3    H2 8344   3.112   2.824   0.378 -0.3184  0.1230  1.1816
 2780TIP3   OH2 8345   2.638   3.052   2.610 -0.8135  0.1720 -0.1626
 2780TIP3    H1 8346   2.633   3.053   2.514 -2.1693  1.3918 -0.1052
 2780TIP3    H2 8347   2.729   3.028   2.629 -0.6220 -0.4394 -1.7471
 2781TIP3   OH2 8348   0.642   4.087   1.443 -0.0452  0.3816 -0.9502
 2781TIP3    H1 8349   0.736   4.106   1.443  0.0390  0.5715  2.6272
 2781TIP3    H2 8350   0.610   4.128   1.363  2.5014  2.8246 -0.8893
 2782TIP3   OH2 8351   3.841   4.486   0.984 -0.0606  0.2353 -0.0731
 2782TIP3    H1 8352   3.811   4.401   1.016  1.1591 -0.2578 -0.1855
 2782TIP3    H2 8353   3.796   4.496   0.900 -1.9498  0.7577  0.9318
 2783TIP3   OH2 8354   4.538   1.716   1.813  0.6084 -0.3781 -0.3543
 2783TIP3    H1 8355   4.529   1.637   1.866  2.2345  0.0552  0.6003
 2783TIP3    H2 8356   4.501   1.691   1.728  0.7971 -2.0663  0.0171
 2784TIP3   OH2 8357   6.148   2.151   0.219  0.2399 -0.0975  0.0489
 2784TIP3    H1 8358   6.146   2.155   0.123 -1.8170  1.4152  0.0988
 2784TIP3    H2 8359   6.158   2.242   0.246 -0.5283 -0.3601  1.2727
 2785TIP3   OH2 8360   2.241   3.426   2.637 -0.2294  0.7214 -0.4706
 2785TIP3    H1 8361   2.159   3.463   2.670 -0.4793  1.1550 -1.5280
 2785TIP3    H2 8362   2.216   3.343   2.598  0.2021 -0.2135  1.1426
 2786TIP3   OH2 8363   1.486   4.473   3.443  0.1725  0.4101 -0.4225
 2786TIP3    H1 8364   1.579   4.464   3.464  0.3562  4.0799  1.0387
 2786TIP3    H2 8365   1.441   4.430   3.516  0.8238  1.9372  0.9474
 2787TIP3   OH2 8366   2.461   2.370   4.584 -0.2402 -0.1986 -0.1082
 2787TIP3    H1 8367   2.481   2.288   4.629  0.4635 -0.1660 -0.3506
 2787TIP3    H2 8368   2.504   2.437   4.637  0.4640 -0.1462 -0.7237
 2788TIP3   OH2 8369   4.642   0.864   3.690 -0.2716 -0.9755  0.8894
 2788TIP3    H1 8370   4.645   0.802   3.617  0.2519 -1.0225  0.9464
 2788TIP3    H2 8371   4.583   0.933   3.661  0.4975 -0.6198  0.1154
 2789TIP3   OH2 8372   6.063   4.512   3.230 -0.2165 -0.7723 -0.0129
 2789TIP3    H1 8373   6.044   4.491   3.321 -1.1393 -0.6863 -0.1802
 2789TIP3    H2 8374   5.978   4.509   3.186 -0.0168  0.7554 -0.5592
 2790TIP3   OH2 8375   4.121   0.198   0.347  0.2883  0.7804  0.2258
 2790TIP3    H1 8376   4.139   0.105   0.361 -1.7256 -0.1979 -2.6413
 2790TIP3    H2 8377   4.107   0.234   0.434 -0.2371 -1.9585  1.3655
 2791TIP3   OH2 8378   4.909   3.399   1.764  0.5005 -0.1039 -0.2945
 2791TIP3    H1 8379   4.917   3.460   1.691 -1.3444  1.4156  0.6798
 2791TIP3    H2 8380   4.855   3.328   1.730  1.1982 -0.3338 -0.9345
 2792TIP3   OH2 8381   4.329   3.707   5.172  0.0368 -0.0463  0.3485
 2792TIP3    H1 8382   4.419   3.709   5.204  0.3198  2.2234 -0.4439
 2792TIP3    H2 8383   4.326   3.630   5.115  2.0880  0.9354 -1.2014
 2793TIP3   OH2 8384   1.369   0.611   1.382  0.1333  0.2462 -0.2971
 2793TIP3    H1 8385   1.318   0.678   1.429 -0.3653  0.1581 -0.6989
 2793TIP3    H2 8386   1.358   0.532   1.434  0.3535  0.3736 -0.0592
 2794TIP3   OH2 8387   4.072   0.823   1.264  0.4753  0.5175 -0.3804
 2794TIP3    H1 8388   4.094   0.912   1.289  1.6821 -0.1407  1.0301
 2794TIP3    H2 8389   4.070   0.774   1.346 -2.9808 -0.2345 -0.7325
 2795TIP3   OH2 8390   2.306   2.159   2.208  0.1088  0.0094 -0.0805
 2795TIP3    H1 8391   2.354   2.242   2.212  1.1181 -0.5018 -0.8267
 2795TIP3    H2 8392   2.365   2.101   2.159 -0.7076 -1.0546  0.1738
 2796TIP3   OH2 8393   2.438   3.516   2.455 -0.8409  0.2161  0.0885
 2796TIP3    H1 8394   2.484   3.584   2.503 -2.9505  0.7008  1.5772
 2796TIP3    H2 8395   2.384   3.472   2.521  0.8654 -3.4125 -0.6412
 2797TIP3   OH2 8396   3.473   2.821   3.097  0.5921  0.5653  0.0292
 2797TIP3    H1 8397   3.477   2.916   3.111  1.9188  0.1808  3.0213
 2797TIP3    H2 8398   3.565   2.795   3.087  0.1700 -0.3133 -1.8593
 2798TIP3   OH2 8399   0.158   1.465   3.036 -0.7205 -0.4539  0.2526
 2798TIP3    H1 8400   0.214   1.514   3.097  0.8063  0.4723 -1.7539
 2798TIP3    H2 8401   0.082   1.521   3.022  0.3661  0.8180 -0.9568
 2799TIP3   OH2 8402   5.439   3.360   0.998 -0.1497  0.4733  0.1857
 2799TIP3    H1 8403   5.356   3.314   1.011 -1.9389  3.0166 -1.4405
 2799TIP3    H2 8404   5.465   3.338   0.909  0.0921  0.9238  0.1434
 2800TIP3   OH2 8405   5.382   5.030   2.834  0.2883 -0.2276  0.1299
 2800TIP3    H1 8406   5.418   5.059   2.750 -0.2385 -0.9834 -0.3708
 2800TIP3    H2 8407   5.443   4.962   2.863 -1.4307 -2.6306 -1.4697
 2801TIP3   OH2 8408   5.861   4.142   4.289  0.0604 -0.4674  0.0254
 2801TIP3    H1 8409   5.947   4.184   4.289  0.6585 -1.6268 -1.1674
 2801TIP3    H2 8410   5.836   4.137   4.197 -0.8676 -0.9718  0.2897
 2802TIP3   OH2 8411   5.961   0.820   3.799  0.1771 -0.2367  0.2297
 2802TIP3    H1 8412   5.985   0.785   3.884  0.0992  0.3172  0.4813
 2802TIP3    H2 8413   5.866   0.834   3.805  0.4372  1.5613  0.7184
 2803TIP3   OH2 8414   2.392   4.559   0.545 -0.5159  0.1325  0.4455
 2803TIP3    H1 8415   2.458   4.493   0.526  2.8696  3.0504  1.1209
 2803TIP3    H2 8416   2.344   4.525   0.621 -1.0272 -2.7855 -1.0464
 2804TIP3   OH2 8417   1.641   3.191   0.609 -0.0476  0.2211 -0.1533
 2804TIP3    H1 8418   1.629   3.257   0.678 -0.5902 -1.5648  1.5421
 2804TIP3    H2 8419   1.552   3.158   0.592  0.0091  0.9691 -2.1092
 2805TIP3   OH2 8420   2.248   2.544   4.718  0.8866  0.0825  0.2188
 2805TIP3    H1 8421   2.260   2.449   4.720 -0.8660 -0.2101 -1.0532
 2805TIP3    H2 8422   2.271   2.572   4.807  1.2343 -1.5425  0.6868
 2806TIP3   OH2 8423   2.637   0.049   4.765 -0.4390 -0.1840  0.0680
 2806TIP3    H1 8424   2.626  -0.044   4.781  1.4327 -0.4516 -0.0214
 2806TIP3    H2 8425   2.686   0.081   4.841 -0.0725  0.4866 -0.4332
 2807TIP3   OH2 8426   0.892   3.912   4.865 -0.7095  0.2202 -0.0017
 2807TIP3    H1 8427   0.890   3.826   4.908  0.2734 -1.7225 -3.4274
 2807TIP3    H2 8428   0.968   3.956   4.903  0.3368 -1.5420  0.0727
 2808TIP3   OH2 8429   4.947   5.740   3.433  0.0691  0.5026  0.5277
 2808TIP3    H1 8430   4.914   5.669   3.487  0.3926 -1.4942 -1.7317
 2808TIP3    H2 8431   4.905   5.728   3.348 -0.3743  3.4697  0.2091
 2809TIP3   OH2 8432   5.643   4.180   1.145  0.1185 -0.2198 -0.6461
 2809TIP3    H1 8433   5.599   4.136   1.218 -0.3802  1.5620  0.2097
 2809TIP3    H2 8434   5.733   4.194   1.176 -0.2816  1.1774 -0.0173
 2810TIP3   OH2 8435   4.073   3.698   1.048  0.0476  0.1416  0.7601
 2810TIP3    H1 8436   4.116   3.691   0.963  1.0544 -0.5611  1.3032
 2810TIP3    H2 8437   4.144   3.686   1.111 -0.7459  0.2730  1.6930
 2811TIP3   OH2 8438   2.273   3.376   1.769  0.4111  0.3474 -0.1570
 2811TIP3    H1 8439   2.214   3.322   1.715  1.0785 -0.3838 -0.1884
 2811TIP3    H2 8440   2.237   3.464   1.765 -1.3256 -0.2811  0.7551
 2812TIP3   OH2 8441   4.434   2.580   3.239  0.5175  0.3632 -0.4958
 2812TIP3    H1 8442   4.341   2.557   3.231  0.6462  0.0351 -1.1370
 2812TIP3    H2 8443   4.480   2.497   3.231  0.9484  0.7117 -2.1163
 2813TIP3   OH2 8444   1.854   2.882   4.231  0.3619  0.2978 -0.1724
 2813TIP3    H1 8445   1.938   2.922   4.253  0.0697  1.0231 -0.3478
 2813TIP3    H2 8446   1.874   2.790   4.215  0.9237  0.2073  0.9882
 2814TIP3   OH2 8447   4.336   3.194   4.675 -0.4351 -0.2303  0.5995
 2814TIP3    H1 8448   4.297   3.270   4.719 -0.7819 -0.5500  0.8442
 2814TIP3    H2 8449   4.391   3.153   4.743  0.2452  0.1521  0.2917
 2815TIP3   OH2 8450   1.024   4.849   3.789 -0.4557 -0.3734 -0.2368
 2815TIP3    H1 8451   0.994   4.797   3.715 -0.4006  0.4694 -0.8669
 2815TIP3    H2 8452   1.016   4.790   3.865  0.3315 -1.5440 -1.0300
 2816TIP3   OH2 8453   2.323   4.762   2.679 -0.0013 -0.3000 -0.0225
 2816TIP3    H1 8454   2.242   4.812   2.666  0.2802  0.1405 -0.1084
 2816TIP3    H2 8455   2.393   4.825   2.662  0.3675 -0.8807 -0.7383
 2817TIP3   OH2 8456   5.933   1.385   4.294  0.0788  0.1177 -0.5537
 2817TIP3    H1 8457   5.949   1.309   4.238 -0.4621 -0.2418 -0.2302
 2817TIP3    H2 8458   5.849   1.420   4.264 -0.5340 -0.4586  0.4331
 2818TIP3   OH2 8459   4.205   0.650   0.026  0.2277  0.5122  0.3861
 2818TIP3    H1 8460   4.224   0.634  -0.066  0.8106  1.8005  0.2736
 2818TIP3    H2 8461   4.253   0.729   0.048 -0.1709  0.4138  1.7165
 2819TIP3   OH2 8462   1.489   4.452   4.482  0.1420 -0.3660 -0.6904
 2819TIP3    H1 8463   1.420   4.498   4.529 -0.3087 -0.3670 -1.3324
 2819TIP3    H2 8464   1.462   4.360   4.483  0.7680 -0.5517  0.1269
 2820TIP3   OH2 8465   5.672   3.612   0.945  0.1107  0.1299 -0.3174
 2820TIP3    H1 8466   5.740   3.547   0.960  1.4546  1.0754 -1.8629
 2820TIP3    H2 8467   5.608   3.567   0.890  0.3170 -0.3073 -0.2051
 2821TIP3   OH2 8468   0.734   2.816   2.288  0.4027 -0.3462  0.3946
 2821TIP3    H1 8469   0.801   2.871   2.330  0.1622  0.4497 -0.2584
 2821TIP3    H2 8470   0.678   2.877   2.242 -0.4590 -1.0639  0.4694
 2822TIP3   OH2 8471   3.301   1.473   1.070 -0.0628 -0.1482 -0.6983
 2822TIP3    H1 8472   3.310   1.397   1.127 -1.0265  0.2856  0.0562
 2822TIP3    H2 8473   3.387   1.514   1.070 -0.5453  1.0683  2.2282
 2823TIP3   OH2 8474   5.084   1.669   1.359  0.1341  0.1474  0.3347
 2823TIP3    H1 8475   5.000   1.623   1.370  1.1196 -2.0448 -0.7219
 2823TIP3    H2 8476   5.062   1.761   1.370 -2.3692 -0.3806  0.3926
 2824TIP3   OH2 8477   3.767   3.319   1.289 -0.1663 -0.2923  0.2276
 2824TIP3    H1 8478   3.814   3.386   1.338  0.1724 -0.6374  0.3773
 2824TIP3    H2 8479   3.834   3.255   1.265 -0.3334 -0.1636 -0.6291
 2825TIP3   OH2 8480   3.693   2.171   3.472  0.0917 -0.3272 -0.1648
 2825TIP3    H1 8481   3.642   2.177   3.391 -0.2373 -0.7889  0.0025
 2825TIP3    H2 8482   3.694   2.261   3.506 -2.3595 -0.6051  0.8704
 2826TIP3   OH2 8483   3.001   0.278   1.162  0.0788 -0.4085  0.3335
 2826TIP3    H1 8484   2.928   0.215   1.166  0.5748 -1.0381 -0.2759
 2826TIP3    H2 8485   2.962   0.361   1.189 -0.5931 -0.9746  1.1636
 2827TIP3   OH2 8486   4.073   2.365   4.508 -0.0736 -0.3716  0.1439
 2827TIP3    H1 8487   4.153   2.313   4.522 -0.5773 -1.6613 -1.4094
 2827TIP3    H2 8488   4.084   2.441   4.564  1.0299 -1.8156  2.0098
 2828TIP3   OH2 8489   5.660   1.056   2.065 -0.6234 -0.4128  0.0288
 2828TIP3    H1 8490   5.629   1.139   2.029  0.8102  0.0779 -0.1621
 2828TIP3    H2 8491   5.650   0.994   1.993  0.8383  0.2301 -0.7792
 2829TIP3   OH2 8492   3.831   1.229   3.275  0.1521 -0.2864  0.4708
 2829TIP3    H1 8493   3.817   1.304   3.217  0.2376 -1.0801 -0.6184
 2829TIP3    H2 8494   3.751   1.225   3.328 -0.8997 -0.8049 -1.0854
 2830TIP3   OH2 8495   6.329   1.963   0.124  0.3597 -0.3151 -0.5517
 2830TIP3    H1 8496   6.260   2.016   0.164  0.6151 -0.5153  0.1669
 2830TIP3    H2 8497   6.327   1.987   0.031  1.2268  1.8187 -0.0894
 2831TIP3   OH2 8498   2.763   1.860   4.529  0.4168 -0.0106 -0.0331
 2831TIP3    H1 8499   2.821   1.847   4.604  1.8598  1.8848 -0.7284
 2831TIP3    H2 8500   2.817   1.837   4.453  0.4673  2.1342 -0.7211
 2832TIP3   OH2 8501   1.889   3.584   3.538 -0.0821  0.0721 -0.1574
 2832TIP3    H1 8502   1.925   3.652   3.482 -0.6155  0.3001 -0.2209
 2832TIP3    H2 8503   1.958   3.568   3.603  0.6835 -0.4361 -1.0704
 2833TIP3   OH2 8504   6.029   3.201   0.816  0.2577  0.1434 -0.3552
 2833TIP3    H1 8505   5.943   3.160   0.810 -0.5824  1.6130  1.1121
 2833TIP3    H2 8506   6.084   3.134   0.859 -1.1399  0.5195  2.2190
 2834TIP3   OH2 8507   1.124   1.800   1.272  0.2126  0.1370 -0.1513
 2834TIP3    H1 8508   1.110   1.879   1.324  0.8106  0.2181 -0.1073
 2834TIP3    H2 8509   1.169   1.831   1.193  1.9711 -0.3566  0.6135
 2835TIP3   OH2 8510   1.377   4.990   3.227  0.1177  0.2108  0.1536
 2835TIP3    H1 8511   1.308   4.929   3.204  1.0727 -1.0185  0.4387
 2835TIP3    H2 8512   1.343   5.039   3.302 -0.0908 -1.0071  0.8651
 2836TIP3   OH2 8513   3.151   4.076   2.472  0.0736 -0.6763  0.0847
 2836TIP3    H1 8514   3.162   4.075   2.567  0.4556  1.5557  0.1293
 2836TIP3    H2 8515   3.125   4.166   2.453  0.8685 -0.8521 -2.0207
 2837TIP3   OH2 8516   1.261   0.408   4.980  0.2304  0.3982  0.5645
 2837TIP3    H1 8517   1.203   0.476   5.014 -0.1249 -0.4609  1.7201
 2837TIP3    H2 8518   1.207   0.330   4.974  1.0202 -0.1807  0.7477
 2838TIP3   OH2 8519   2.126   4.577   0.332 -0.2922  0.2984 -0.5192
 2838TIP3    H1 8520   2.035   4.565   0.304 -0.5451  0.2675  0.2982
 2838TIP3    H2 8521   2.140   4.509   0.398  0.6523 -0.3715 -1.3641
 2839TIP3   OH2 8522   1.360   1.583   0.946  0.0360  0.3732 -0.3035
 2839TIP3    H1 8523   1.388   1.496   0.918 -0.7160  0.0539 -0.1001
 2839TIP3    H2 8524   1.361   1.580   1.041  1.0630  0.9482 -0.2878
 2840TIP3   OH2 8525   4.399   5.341   2.612 -0.4049  0.2726  0.1410
 2840TIP3    H1 8526   4.389   5.258   2.565  0.9795  0.5576 -0.6995
 2840TIP3    H2 8527   4.454   5.319   2.687  0.4137  0.5205 -0.3766
 2841TIP3   OH2 8528   2.537   3.341   4.259 -0.1452  0.0751 -0.2299
 2841TIP3    H1 8529   2.531   3.246   4.253  1.0197 -0.1310  1.4549
 2841TIP3    H2 8530   2.447   3.370   4.274 -0.2259 -0.9687  1.5354
 2842TIP3   OH2 8531   0.313   5.204   1.119  0.9014  0.2471  0.1019
 2842TIP3    H1 8532   0.322   5.246   1.034 -1.4321  3.2582  1.1251
 2842TIP3    H2 8533   0.384   5.241   1.171  0.0817  1.4572  0.4208
 2843TIP3   OH2 8534   3.819   4.229   3.547  0.8297  0.5857  0.3110
 2843TIP3    H1 8535   3.891   4.244   3.608  1.2488  1.4094 -0.3666
 2843TIP3    H2 8536   3.858   4.179   3.476  0.6468  0.7063  0.1247
 2844TIP3   OH2 8537   5.207   3.400   4.276  0.3420  0.8242 -0.6756
 2844TIP3    H1 8538   5.215   3.412   4.181 -0.0406  2.3884 -0.5342
 2844TIP3    H2 8539   5.117   3.423   4.296  0.0079 -0.8304 -0.0814
 2845TIP3   OH2 8540   4.956   3.718   4.905  0.1777 -0.4130 -0.6371
 2845TIP3    H1 8541   5.009   3.653   4.860  0.9329 -0.7885  0.7625
 2845TIP3    H2 8542   4.887   3.740   4.842  0.3371 -2.0075 -1.4055
 2846TIP3   OH2 8543   2.683   1.700   0.207 -0.0721 -0.2854  0.3869
 2846TIP3    H1 8544   2.761   1.700   0.151 -0.3072  1.6433 -0.0096
 2846TIP3    H2 8545   2.696   1.775   0.266 -1.5675 -0.0008  0.3776
 2847TIP3   OH2 8546   2.997   5.334   3.200  0.4307  0.5080  0.3196
 2847TIP3    H1 8547   3.092   5.343   3.207  0.3498  0.2972  2.3374
 2847TIP3    H2 8548   2.969   5.307   3.288 -1.3757 -0.5990 -0.5349
 2848TIP3   OH2 8549   2.567   0.396   0.740 -0.1676  0.2126 -0.0988
 2848TIP3    H1 8550   2.631   0.365   0.675 -0.2015 -1.1828  0.4915
 2848TIP3    H2 8551   2.609   0.380   0.824 -1.0391 -0.1501  0.2774
 2849TIP3   OH2 8552   4.150   0.640   4.183  0.1717  0.0887 -0.0527
 2849TIP3    H1 8553   4.129   0.729   4.155  0.3550  0.4872  0.9994
 2849TIP3    H2 8554   4.240   0.626   4.157  0.0491  0.1030 -0.4814
 2850TIP3   OH2 8555   5.276   0.677   4.861  0.0266 -0.1196  0.5227
 2850TIP3    H1 8556   5.247   0.740   4.926  0.8490  1.4634 -0.5631
 2850TIP3    H2 8557   5.295   0.730   4.783 -1.5012 -1.9819 -1.2438
 2851TIP3   OH2 8558   0.096   0.221   0.653 -0.2171  0.0757  0.2469
 2851TIP3    H1 8559   0.098   0.254   0.563 -0.7117  1.7438  0.8189
 2851TIP3    H2 8560   0.054   0.290   0.704  0.0563 -0.8281  1.7833
 2852TIP3   OH2 8561   4.608   3.228   2.648 -0.3148  0.0143  0.5298
 2852TIP3    H1 8562   4.598   3.305   2.592 -1.4797 -0.3728  0.1708
 2852TIP3    H2 8563   4.533   3.173   2.626 -1.0019 -0.0228  2.7164
 2853TIP3   OH2 8564   1.030   3.730   1.096  0.5586 -0.4395  0.0918
 2853TIP3    H1 8565   1.046   3.742   1.002 -0.3498  1.2156  0.1054
 2853TIP3    H2 8566   0.942   3.693   1.100 -0.2791  1.4646  0.3073
 2854TIP3   OH2 8567   4.218   3.724   3.841 -0.5784 -0.2600  0.2086
 2854TIP3    H1 8568   4.313   3.713   3.842 -0.3040  1.5289  2.8990
 2854TIP3    H2 8569   4.204   3.801   3.785 -0.6394 -1.3614 -1.3608
 2855TIP3   OH2 8570   5.675   4.007   4.656 -0.3955 -0.1416  0.0903
 2855TIP3    H1 8571   5.703   3.915   4.649 -0.3282 -0.1597  0.5989
 2855TIP3    H2 8572   5.651   4.031   4.566 -1.9097 -1.1493  0.1713
 2856TIP3   OH2 8573   1.435   5.949   3.310 -0.0451 -0.3397 -0.5444
 2856TIP3    H1 8574   1.392   5.891   3.373  1.8352 -1.1310  0.0992
 2856TIP3    H2 8575   1.528   5.942   3.332  0.5472  0.2962 -2.6674
 2857TIP3   OH2 8576   0.573   1.693   2.171  0.2322 -0.0860 -0.3294
 2857TIP3    H1 8577   0.640   1.754   2.140  0.2641 -0.7603 -1.6208
 2857TIP3    H2 8578   0.490   1.732   2.142  0.2144 -0.3560 -0.6466
 2858TIP3   OH2 8579   4.612   0.057   3.001 -0.1536 -0.1570 -0.6060
 2858TIP3    H1 8580   4.556   0.099   2.935  1.6444  1.0667 -1.4052
 2858TIP3    H2 8581   4.622  -0.033   2.969 -1.7165 -0.4353 -0.3870
 2859TIP3   OH2 8582   4.342   2.347   1.806  0.7100  0.2047 -0.1538
 2859TIP3    H1 8583   4.417   2.394   1.842  0.8439  0.6403 -0.9884
 2859TIP3    H2 8584   4.280   2.342   1.879  1.6573 -0.4320  0.6471
 2860TIP3   OH2 8585   4.088   3.145   0.861  0.2911  0.3054 -0.0296
 2860TIP3    H1 8586   4.084   3.088   0.938  0.5406  0.9401  0.4628
 2860TIP3    H2 8587   4.031   3.102   0.797 -0.2889  0.0072  0.6671
 2861TIP3   OH2 8588   5.520   1.575   3.529  0.3684  0.0668 -0.0870
 2861TIP3    H1 8589   5.499   1.625   3.607 -1.9092  1.3069 -1.3951
 2861TIP3    H2 8590   5.609   1.543   3.545  0.1943  0.7074  2.7336
 2862TIP3   OH2 8591   0.870   1.285   5.141 -0.1894  0.2882 -0.3301
 2862TIP3    H1 8592   0.920   1.347   5.195 -0.5126  0.3589 -0.1069
 2862TIP3    H2 8593   0.823   1.231   5.204  2.0386 -1.9032 -0.4205
 2863TIP3   OH2 8594   3.740   3.847   0.158  0.1473 -0.1177  0.2392
 2863TIP3    H1 8595   3.741   3.848   0.062  2.0039  1.2954  0.2160
 2863TIP3    H2 8596   3.672   3.910   0.183 -0.5417 -0.7045 -0.1281
 2864TIP3   OH2 8597   0.242   1.129   1.452 -0.9066 -0.2699  0.0528
 2864TIP3    H1 8598   0.224   1.071   1.527 -2.9699 -0.2660 -0.3719
 2864TIP3    H2 8599   0.263   1.069   1.381 -0.9513 -0.3933  0.1422
 2865TIP3   OH2 8600   2.849   5.331   4.526 -0.6334 -0.3064 -0.1217
 2865TIP3    H1 8601   2.852   5.295   4.615 -0.8019 -0.0214  0.0009
 2865TIP3    H2 8602   2.758   5.360   4.515 -0.5936 -0.2724 -0.3600
 2866TIP3   OH2 8603   4.878   0.266   0.051  0.0398  0.2174  0.5303
 2866TIP3    H1 8604   4.852   0.251   0.142  0.1782 -0.6014  0.4360
 2866TIP3    H2 8605   4.825   0.204   0.001 -0.1495  0.7745  0.0334
 2867TIP3   OH2 8606   1.994   3.886   4.979  0.1781 -0.1149 -0.1021
 2867TIP3    H1 8607   1.900   3.903   4.970 -0.0155  0.3164  2.0747
 2867TIP3    H2 8608   2.001   3.832   5.058  1.5458 -2.7841 -1.9022
 2868TIP3   OH2 8609   3.673   0.447   2.074 -0.4626  0.1960  0.3675
 2868TIP3    H1 8610   3.708   0.387   2.008 -0.5331  3.3195 -2.8093
 2868TIP3    H2 8611   3.744   0.456   2.138  0.7697 -0.8022 -0.7881
 2869TIP3   OH2 8612   1.316   2.122   0.246 -0.3019 -0.1015 -0.1541
 2869TIP3    H1 8613   1.250   2.140   0.314 -0.0677  3.2147 -0.6303
 2869TIP3    H2 8614   1.287   2.041   0.206 -1.6920 -1.0187  2.4265
 2870TIP3   OH2 8615   4.890   1.376   4.128 -0.2156  0.1980  0.1241
 2870TIP3    H1 8616   4.984   1.381   4.148 -0.4392 -0.4059  1.4657
 2870TIP3    H2 8617   4.872   1.282   4.121 -0.6808  0.3184 -0.3274
 2871TIP3   OH2 8618   3.279   5.727   2.211 -0.0292 -0.3659 -0.0127
 2871TIP3    H1 8619   3.303   5.701   2.122 -0.3804  1.4702 -0.6714
 2871TIP3    H2 8620   3.184   5.721   2.213 -0.0795  0.3644 -0.0252
 2872TIP3   OH2 8621   3.447   3.673   2.287 -0.0944  0.6874 -0.1668
 2872TIP3    H1 8622   3.413   3.647   2.373 -0.0669 -0.5130 -0.4984
 2872TIP3    H2 8623   3.528   3.720   2.306 -0.4790  1.0993  0.4937
 2873TIP3   OH2 8624   1.849   4.708   4.435 -0.0216  0.5848 -0.0197
 2873TIP3    H1 8625   1.777   4.771   4.442  0.1303  0.7280  0.2858
 2873TIP3    H2 8626   1.824   4.637   4.494 -0.0347  0.5158 -0.1093
 2874TIP3   OH2 8627   4.359   0.080   1.763 -0.0345 -0.1632  0.2985
 2874TIP3    H1 8628   4.316   0.125   1.690  0.4920  2.4737  1.5019
 2874TIP3    H2 8629   4.308   0.107   1.840  0.7064 -1.1447  1.1486
 2875TIP3   OH2 8630   0.144   0.584   2.151  0.5149 -0.2877 -0.6993
 2875TIP3    H1 8631   0.140   0.552   2.061  0.9501 -0.9195 -0.5038
 2875TIP3    H2 8632   0.221   0.542   2.188  0.6362  0.3766 -0.1806
 2876TIP3   OH2 8633   2.287   4.041   1.716  0.4118  0.0222  0.1720
 2876TIP3    H1 8634   2.355   3.980   1.744  0.9147  0.2567 -0.5112
 2876TIP3    H2 8635   2.206   4.004   1.750  0.7708 -0.7546  0.1997
 2877TIP3   OH2 8636   4.585   5.902   4.504  0.6657 -0.3117  0.2415
 2877TIP3    H1 8637   4.651   5.832   4.500 -1.1422 -2.1158  0.4305
 2877TIP3    H2 8638   4.604   5.948   4.586  1.1785 -1.3471  0.7273
 2878TIP3   OH2 8639   0.494   1.055   3.122  0.0881  0.0913 -0.3739
 2878TIP3    H1 8640   0.547   1.099   3.055 -1.2995 -0.6128 -2.0344
 2878TIP3    H2 8641   0.506   0.962   3.105  0.7706 -0.1503  1.2768
 2879TIP3   OH2 8642   4.382   2.188   3.857 -0.6688 -0.1584 -0.7976
 2879TIP3    H1 8643   4.476   2.200   3.869 -0.7782  1.2578 -1.2335
 2879TIP3    H2 8644   4.349   2.173   3.945 -0.0481 -0.6470 -0.6369
 2880TIP3   OH2 8645   0.634   4.640   0.340  0.7864  0.1391  0.0802
 2880TIP3    H1 8646   0.569   4.600   0.397  0.2248  0.8151 -0.0788
 2880TIP3    H2 8647   0.628   4.734   0.359  0.3637  0.4080 -1.3284
 2881TIP3   OH2 8648   4.903   0.814   3.934  0.4472 -0.6139 -0.1307
 2881TIP3    H1 8649   4.992   0.793   3.904 -0.2311 -0.8612 -2.0804
 2881TIP3    H2 8650   4.901   0.910   3.935  1.3552 -0.5618  1.9939
 2882TIP3   OH2 8651   1.465   2.018   4.768  0.1858  0.2764  0.7518
 2882TIP3    H1 8652   1.443   1.982   4.682  1.4417  1.5409 -0.1507
 2882TIP3    H2 8653   1.464   1.943   4.827 -2.6052 -0.3441  0.0656
 2883TIP3   OH2 8654   1.200   4.553   2.564  0.6827  0.2662  0.3909
 2883TIP3    H1 8655   1.199   4.458   2.568  1.1388  0.2301 -0.1504
 2883TIP3    H2 8656   1.144   4.575   2.489  0.9743  0.4011  0.2118
 2884TIP3   OH2 8657   0.265   4.285   0.291  0.4402  0.0027  0.1756
 2884TIP3    H1 8658   0.185   4.256   0.336  1.1052  0.9957  2.1327
 2884TIP3    H2 8659   0.240   4.364   0.245  0.6715  1.5028  2.4705
 2885TIP3   OH2 8660   2.881   2.904   2.997 -0.0110 -0.3844  0.0297
 2885TIP3    H1 8661   2.910   2.990   3.027 -0.2780 -0.7475  1.3767
 2885TIP3    H2 8662   2.899   2.845   3.070 -2.2362 -0.9991  0.1461
 2886TIP3   OH2 8663   5.262   3.358   4.691  0.1930  0.1004  0.2931
 2886TIP3    H1 8664   5.186   3.321   4.646 -1.7409  1.6532  2.0695
 2886TIP3    H2 8665   5.337   3.318   4.648 -1.5870 -0.9935 -2.0312
 2887TIP3   OH2 8666   5.655   5.461   1.509  0.5134 -0.6784  0.1230
 2887TIP3    H1 8667   5.657   5.514   1.589 -1.4033 -0.6378  0.1916
 2887TIP3    H2 8668   5.700   5.514   1.443 -0.7199  0.7238  0.3811
 2888TIP3   OH2 8669   1.608   5.291   3.962 -0.4216 -0.1245  0.4677
 2888TIP3    H1 8670   1.547   5.219   3.945 -4.4390  2.6712  1.4662
 2888TIP3    H2 8671   1.626   5.286   4.055 -1.7856  0.7691  0.8174
 2889TIP3   OH2 8672   6.002   0.641   2.058 -0.0120 -0.0136 -0.7864
 2889TIP3    H1 8673   5.935   0.672   2.120 -0.4795  1.7657 -2.1137
 2889TIP3    H2 8674   6.085   0.651   2.106 -0.3719  1.2847 -0.3832
 2890TIP3   OH2 8675   3.321   2.765   1.522  0.4480 -0.0611 -0.2960
 2890TIP3    H1 8676   3.317   2.829   1.450 -1.6802 -0.9532 -1.0654
 2890TIP3    H2 8677   3.258   2.798   1.586  1.3252 -0.0036  0.5528
 2891TIP3   OH2 8678   2.638   2.184   2.247 -0.0658  0.1651 -0.4837
 2891TIP3    H1 8679   2.591   2.119   2.194  1.6811 -1.4175 -0.1897
 2891TIP3    H2 8680   2.624   2.157   2.337  0.1599  0.5707 -0.3237
 2892TIP3   OH2 8681   3.522   5.215   1.174  0.2544  0.1463  0.6737
 2892TIP3    H1 8682   3.560   5.302   1.189 -1.0807  0.8426  0.2353
 2892TIP3    H2 8683   3.540   5.166   1.255  1.8706  0.4970  0.5449
 2893TIP3   OH2 8684   3.089   1.015   0.744 -0.3827 -0.1410  0.1019
 2893TIP3    H1 8685   3.045   0.939   0.705 -0.4168 -0.1435  0.1451
 2893TIP3    H2 8686   3.080   1.084   0.679 -1.0369  0.0556  0.3863
 2894TIP3   OH2 8687   0.788   0.999   2.732 -0.0131 -0.2125 -0.1675
 2894TIP3    H1 8688   0.805   0.929   2.668  1.6287  1.5250 -1.7696
 2894TIP3    H2 8689   0.810   1.079   2.685 -1.4470  1.3871  1.7412
 2895TIP3   OH2 8690   3.384   1.549   1.648 -0.1094  0.1414  0.6105
 2895TIP3    H1 8691   3.390   1.546   1.553 -2.9137  0.2031  0.3474
 2895TIP3    H2 8692   3.471   1.575   1.677  0.8481  0.0012 -1.9207
 2896TIP3   OH2 8693   2.263   3.445   4.278  0.0167 -0.9086 -0.4654
 2896TIP3    H1 8694   2.251   3.432   4.372  1.7726  0.1795 -0.0436
 2896TIP3    H2 8695   2.193   3.394   4.238 -1.4820 -0.4813  1.4607
 2897TIP3   OH2 8696   2.902   4.548   4.057 -0.2066  0.1097 -0.3606
 2897TIP3    H1 8697   2.917   4.568   4.150 -1.0468  2.9550 -0.7297
 2897TIP3    H2 8698   2.850   4.468   4.058  0.5803 -0.4405  1.5692
 2898TIP3   OH2 8699   1.008   5.773   3.227  0.2797  0.3283 -0.2843
 2898TIP3    H1 8700   1.100   5.786   3.203  0.5072 -0.9206 -0.1959
 2898TIP3    H2 8701   0.960   5.785   3.146  0.5249  0.9394 -0.3430
 2899TIP3   OH2 8702   0.562   1.311   4.822  0.3859 -0.0245 -0.1903
 2899TIP3    H1 8703   0.538   1.278   4.736  2.2292 -1.0379 -0.3662
 2899TIP3    H2 8704   0.576   1.233   4.875  0.2802  0.5679  0.7354
 2900TIP3   OH2 8705   2.715   0.055   1.692 -0.0351 -0.4325  0.1490
 2900TIP3    H1 8706   2.663   0.114   1.637 -1.4230 -2.6826 -1.1315
 2900TIP3    H2 8707   2.732   0.105   1.772  0.6107  2.3731 -1.6074
 2901TIP3   OH2 8708   2.016   0.411   3.236 -0.5248 -0.0733 -0.0018
 2901TIP3    H1 8709   2.076   0.346   3.271  1.5881  1.8528  0.1714
 2901TIP3    H2 8710   2.018   0.395   3.141 -2.9568 -2.5492  0.2325
 2902TIP3   OH2 8711   3.042   3.812   5.035 -0.5850  0.4400 -0.0602
 2902TIP3    H1 8712   3.100   3.868   5.086 -0.2169  0.9492 -1.0143
 2902TIP3    H2 8713   3.101   3.759   4.982 -0.9295 -0.8815  0.8278
 2903TIP3   OH2 8714   2.265   1.360   2.671 -0.0329  0.7203  0.2752
 2903TIP3    H1 8715   2.256   1.319   2.757 -1.8392 -0.8224 -0.5736
 2903TIP3    H2 8716   2.353   1.335   2.641  0.8285  1.7258  1.8447
 2904TIP3   OH2 8717   1.188   4.375   3.445  0.4281  0.5670 -0.5655
 2904TIP3    H1 8718   1.162   4.449   3.499  3.4394  1.4502 -0.1388
 2904TIP3    H2 8719   1.180   4.407   3.355 -1.1268  0.3295 -0.5377
 2905TIP3   OH2 8720   4.074   3.050   0.518 -0.2242  0.4188 -0.2080
 2905TIP3    H1 8721   4.120   3.115   0.467 -0.7075 -0.6812 -2.1262
 2905TIP3    H2 8722   4.138   3.021   0.584  0.9056  0.8360 -1.0935
 2906TIP3   OH2 8723   5.381   3.129   1.666  0.1470 -0.3558  0.3521
 2906TIP3    H1 8724   5.306   3.186   1.682 -0.5489 -0.5093 -1.9692
 2906TIP3    H2 8725   5.421   3.117   1.752 -0.3730  2.6375  1.1304
 2907TIP3   OH2 8726   4.451   0.792   4.819 -0.1614  0.3112 -0.1487
 2907TIP3    H1 8727   4.485   0.865   4.768 -1.9317  2.1318  1.1439
 2907TIP3    H2 8728   4.418   0.831   4.899  1.6245 -2.3253  2.0616
 2908TIP3   OH2 8729   4.304   3.077   0.712  0.2959 -0.2107  0.6565
 2908TIP3    H1 8730   4.231   3.090   0.772  0.6872  0.8467  0.9255
 2908TIP3    H2 8731   4.371   3.033   0.764  1.0870  1.7384  1.3906
 2909TIP3   OH2 8732   2.665   5.781   3.167  0.3082 -0.1901 -0.4052
 2909TIP3    H1 8733   2.661   5.785   3.072 -1.7609  4.2850 -0.3982
 2909TIP3    H2 8734   2.576   5.757   3.194  0.2787  0.6693  0.3277
 2910TIP3   OH2 8735   5.808   4.311   0.944 -0.0156  0.2145  0.0874
 2910TIP3    H1 8736   5.813   4.283   0.853  1.8566 -1.5063  0.6375
 2910TIP3    H2 8737   5.740   4.255   0.983 -0.0036  0.1368 -0.0020
 2911TIP3   OH2 8738   2.873   0.263   2.978 -0.5181  1.0314  0.1146
 2911TIP3    H1 8739   2.863   0.199   3.048 -0.4208  1.3421  0.4161
 2911TIP3    H2 8740   2.927   0.219   2.913  0.4746  1.1797  0.8114
 2912TIP3   OH2 8741   0.863   4.469   3.513 -0.7373  0.5042 -0.7963
 2912TIP3    H1 8742   0.848   4.384   3.554 -0.4452 -0.1734 -2.0334
 2912TIP3    H2 8743   0.943   4.502   3.554 -0.0337 -0.4942 -1.3296
 2913TIP3   OH2 8744   1.266   3.164   4.156  0.5493 -0.0091  0.7223
 2913TIP3    H1 8745   1.206   3.230   4.122 -1.1621 -0.4186  2.7944
 2913TIP3    H2 8746   1.224   3.081   4.136  1.6133 -0.4132  0.1006
 2914TIP3   OH2 8747   5.489   1.634   1.339 -0.4896  0.9294 -0.3666
 2914TIP3    H1 8748   5.430   1.562   1.320  1.1416 -1.3331  2.3111
 2914TIP3    H2 8749   5.560   1.625   1.276 -1.0699  1.2203 -1.0690
 2915TIP3   OH2 8750   4.362   0.548   4.026  0.2368  0.1187 -0.6790
 2915TIP3    H1 8751   4.350   0.540   3.932  1.0712 -1.0393 -0.7148
 2915TIP3    H2 8752   4.318   0.471   4.063  1.2879 -0.3152 -0.2768
 2916TIP3   OH2 8753   3.531   3.747   3.001 -0.0452 -0.1795  0.5576
 2916TIP3    H1 8754   3.452   3.786   3.038 -0.2759  0.0584 -0.1632
 2916TIP3    H2 8755   3.601   3.772   3.061  0.1276  2.9018 -0.7388
 2917TIP3   OH2 8756   5.770   1.796   0.673 -0.4171  0.4554  0.0938
 2917TIP3    H1 8757   5.689   1.748   0.657 -1.7306  2.3831  0.6046
 2917TIP3    H2 8758   5.782   1.850   0.595  0.8432 -0.3700 -0.3210
 2918TIP3   OH2 8759   5.259   4.661   3.236  0.4593 -0.0908  0.3266
 2918TIP3    H1 8760   5.259   4.669   3.332 -0.4066  0.1139  0.3180
 2918TIP3    H2 8761   5.201   4.731   3.206 -0.4705 -1.0774 -0.2539
 2919TIP3   OH2 8762   1.806   3.273   2.263  0.5976  0.3304  0.0111
 2919TIP3    H1 8763   1.875   3.211   2.240  2.7185  2.3086  0.6350
 2919TIP3    H2 8764   1.807   3.275   2.359 -2.1323 -1.4303  0.1692
 2920TIP3   OH2 8765   0.566   0.134   0.231 -0.1851 -0.3916  0.1821
 2920TIP3    H1 8766   0.650   0.176   0.216 -1.0972  1.5612  0.2365
 2920TIP3    H2 8767   0.582   0.073   0.303  1.0739  0.2696  0.4905
 2921TIP3   OH2 8768   0.165   0.574   1.119  0.4815  0.6789 -0.1187
 2921TIP3    H1 8769   0.190   0.562   1.210 -0.2238 -0.9870 -0.0981
 2921TIP3    H2 8770   0.072   0.594   1.121  0.9305  2.9930 -0.3880
 2922TIP3   OH2 8771   3.003   5.647   0.965  0.3333 -0.0718 -0.3532
 2922TIP3    H1 8772   2.927   5.613   1.013  1.3599 -0.5070  1.0238
 2922TIP3    H2 8773   2.996   5.608   0.878  0.1898 -1.9581  0.4574
 2923TIP3   OH2 8774   2.763   5.715   4.692 -0.2706  0.7326 -0.2459
 2923TIP3    H1 8775   2.855   5.691   4.685 -0.3658  0.2833  0.0148
 2923TIP3    H2 8776   2.761   5.809   4.676 -0.0159  0.4246 -2.3692
 2924TIP3   OH2 8777   4.989   4.621   3.435  0.2542 -0.3220  0.4442
 2924TIP3    H1 8778   4.946   4.679   3.498 -0.7805  0.5250 -0.9618
 2924TIP3    H2 8779   4.954   4.534   3.454 -2.4273  0.3793 -0.8347
 2925TIP3   OH2 8780   3.584   3.930   4.596 -1.2122  0.1126  0.1031
 2925TIP3    H1 8781   3.600   4.018   4.563 -1.9304  0.4039  0.5170
 2925TIP3    H2 8782   3.502   3.903   4.555 -1.6132  0.1053  0.8968
 2926TIP3   OH2 8783   3.991   4.803   1.585 -0.5915 -0.4064 -0.1761
 2926TIP3    H1 8784   4.003   4.759   1.500  0.2493 -0.1354 -0.2068
 2926TIP3    H2 8785   3.923   4.868   1.569 -1.1840 -1.0711 -0.3733
 2927TIP3   OH2 8786   3.663   0.115   2.783 -0.2976  0.5541  0.3157
 2927TIP3    H1 8787   3.710   0.077   2.709  0.3321  1.6992  0.1189
 2927TIP3    H2 8788   3.660   0.044   2.847 -0.6853 -0.3873 -0.7153
 2928TIP3   OH2 8789   2.686   0.379   3.236  0.6648 -0.1643 -0.9028
 2928TIP3    H1 8790   2.616   0.396   3.173  0.7504  1.6482 -0.5669
 2928TIP3    H2 8791   2.641   0.361   3.318  0.4959  2.7118 -0.2568
 2929TIP3   OH2 8792   0.187   4.315   1.791 -0.2849 -0.2243  0.3269
 2929TIP3    H1 8793   0.119   4.380   1.777 -0.6666 -1.0044 -1.7314
 2929TIP3    H2 8794   0.140   4.233   1.802  0.2649 -0.4581  1.0337
 2930TIP3   OH2 8795   4.087   0.333   0.856 -0.0249 -0.0710  0.2501
 2930TIP3    H1 8796   4.106   0.363   0.945  0.3135  1.2046 -0.2187
 2930TIP3    H2 8797   3.992   0.343   0.847  0.1226  1.3171 -0.0191
 2931TIP3   OH2 8798   3.519   2.606   3.998 -0.2845  0.5046  0.1444
 2931TIP3    H1 8799   3.529   2.696   3.966  0.1506  0.8809  1.2776
 2931TIP3    H2 8800   3.546   2.610   4.090  0.4780 -0.9389  0.0170
 2932TIP3   OH2 8801   0.296   5.376   1.935  0.6401 -0.1737 -0.8525
 2932TIP3    H1 8802   0.355   5.437   1.891  0.0126 -0.0609 -1.5701
 2932TIP3    H2 8803   0.208   5.410   1.915  0.3282  0.4477  1.3010
 2933TIP3   OH2 8804   0.769   2.843   5.149 -0.2403 -0.2152 -0.6801
 2933TIP3    H1 8805   0.724   2.885   5.222  0.1196 -1.3930  0.2578
 2933TIP3    H2 8806   0.856   2.883   5.147 -0.0102 -0.6601 -0.0002
 2934TIP3   OH2 8807   4.666   4.463   2.360  0.1799  0.4362  0.6209
 2934TIP3    H1 8808   4.687   4.406   2.434  0.3894  0.7767  0.8261
 2934TIP3    H2 8809   4.745   4.517   2.349  0.9073 -0.8656 -1.0330
 2935TIP3   OH2 8810   6.181   3.619   0.519  0.6359  0.5963 -0.0752
 2935TIP3    H1 8811   6.248   3.685   0.501  1.0361  0.0791 -0.5577
 2935TIP3    H2 8812   6.203   3.547   0.459  0.6582 -0.2731  0.9485
 2936TIP3   OH2 8813   1.552   2.469   0.994  0.3347  0.2710  0.1156
 2936TIP3    H1 8814   1.539   2.563   0.982 -1.9303 -0.0390 -0.2367
 2936TIP3    H2 8815   1.647   2.456   0.984  0.6747  2.4849  0.1148
 2937TIP3   OH2 8816   1.723   0.023   4.477  0.4217  0.1870  0.2852
 2937TIP3    H1 8817   1.643   0.071   4.497 -1.2311 -2.3378  0.1408
 2937TIP3    H2 8818   1.764   0.074   4.407 -0.5548  2.0115  0.9660
 2938TIP3   OH2 8819   0.757   4.648   2.885  0.5224  0.3892  0.0289
 2938TIP3    H1 8820   0.819   4.656   2.813 -0.2212  0.6781 -0.5991
 2938TIP3    H2 8821   0.718   4.561   2.873  0.8606  0.1744  0.4691
 2939TIP3   OH2 8822   3.342   2.033   2.209 -0.5660  0.1444 -0.2681
 2939TIP3    H1 8823   3.418   2.010   2.156 -0.1111  1.8134 -0.3748
 2939TIP3    H2 8824   3.289   1.953   2.210  1.5351 -1.3438  0.4890
 2940TIP3   OH2 8825   5.153   2.036   0.674 -0.2491  0.4671 -0.0472
 2940TIP3    H1 8826   5.135   2.005   0.763  1.4397 -0.0227  0.1673
 2940TIP3    H2 8827   5.247   2.053   0.673 -0.0482 -0.4221 -2.0041
 2941TIP3   OH2 8828   2.681   5.383   3.134  0.3274 -0.4589  0.0722
 2941TIP3    H1 8829   2.596   5.342   3.149 -0.2216  0.5476 -0.2205
 2941TIP3    H2 8830   2.712   5.408   3.221  0.6791 -1.5023  0.2555
 2942TIP3   OH2 8831   2.295   3.646   1.323 -0.5235 -0.0423  0.5663
 2942TIP3    H1 8832   2.365   3.712   1.318 -0.8552  0.3723  1.2839
 2942TIP3    H2 8833   2.338   3.564   1.298  0.0969  0.2980  0.4984
 2943TIP3   OH2 8834   5.411   3.548   3.910 -0.1483  0.4827 -0.0437
 2943TIP3    H1 8835   5.460   3.473   3.874 -1.5449 -0.5441  0.1216
 2943TIP3    H2 8836   5.337   3.509   3.955 -1.0413  1.9933 -0.1362
 2944TIP3   OH2 8837   1.320   5.666   4.751 -0.0059  0.1673  0.3809
 2944TIP3    H1 8838   1.309   5.672   4.656 -0.9153  2.0597  0.5527
 2944TIP3    H2 8839   1.383   5.595   4.764 -0.2413 -0.4529 -1.5951
 2945TIP3   OH2 8840   4.053   1.381   2.747 -0.1075  0.2769  0.6125
 2945TIP3    H1 8841   4.064   1.324   2.824  0.3428  0.7030  0.8672
 2945TIP3    H2 8842   4.139   1.419   2.733 -0.6777  1.8440  1.1879
 2946TIP3   OH2 8843   0.563   1.033   1.757 -0.2608  0.4645 -0.2141
 2946TIP3    H1 8844   0.531   0.981   1.683  0.0886  0.4147 -0.3330
 2946TIP3    H2 8845   0.503   1.014   1.829  0.3185 -0.6950 -0.0292
 2947TIP3   OH2 8846   4.545   5.174   2.270  0.2345  0.4497 -0.6772
 2947TIP3    H1 8847   4.592   5.245   2.225  0.1109  1.0490  0.1143
 2947TIP3    H2 8848   4.582   5.173   2.358  0.1412 -0.3942 -0.6387
 2948TIP3   OH2 8849   3.945   1.052   3.097 -0.2392 -0.7868  0.4211
 2948TIP3    H1 8850   3.981   0.976   3.144  0.9271 -0.7234 -0.3221
 2948TIP3    H2 8851   3.868   1.077   3.148  1.2716 -0.3651  2.6668
 2949TIP3   OH2 8852   1.619   3.529   1.044 -0.5583  0.0142 -0.8366
 2949TIP3    H1 8853   1.689   3.592   1.027 -0.5628  0.3967  0.4619
 2949TIP3    H2 8854   1.539   3.581   1.042 -0.6624 -0.1426 -0.8034
 2950TIP3   OH2 8855   3.406   5.585   4.101 -0.0821 -0.0251 -0.1653
 2950TIP3    H1 8856   3.329   5.616   4.054  0.3917  0.4743 -0.6346
 2950TIP3    H2 8857   3.372   5.526   4.168 -0.8409 -0.0496 -0.5656
 2951TIP3   OH2 8858   3.980   0.796   5.081 -0.0400  0.4263  0.4483
 2951TIP3    H1 8859   3.890   0.787   5.115 -0.3218 -0.0210 -0.3960
 2951TIP3    H2 8860   3.980   0.881   5.036 -0.9309 -0.8135 -2.0908
 2952TIP3   OH2 8861   5.233   5.812   4.166 -0.4298 -0.1555  0.0023
 2952TIP3    H1 8862   5.280   5.743   4.120  0.7570  0.8909 -0.4008
 2952TIP3    H2 8863   5.215   5.775   4.252  0.9764 -0.6613  0.1019
 2953TIP3   OH2 8864   2.622   0.191   4.101 -0.2993  0.0186  0.0392
 2953TIP3    H1 8865   2.656   0.248   4.031  1.9807 -0.0477  0.9850
 2953TIP3    H2 8866   2.571   0.250   4.157  0.0243  0.6376 -0.3040
 2954TIP3   OH2 8867   3.976   2.319   0.188 -0.9632  0.2698  0.4730
 2954TIP3    H1 8868   4.023   2.235   0.193 -1.2368 -0.0309 -1.3751
 2954TIP3    H2 8869   4.034   2.381   0.234 -0.0631 -0.6314  0.6010
 2955TIP3   OH2 8870   6.321   0.328   4.769 -0.2521  0.3960  0.2404
 2955TIP3    H1 8871   6.294   0.276   4.845 -1.7201  0.7680 -0.0058
 2955TIP3    H2 8872   6.240   0.351   4.725  0.4966  1.3148 -0.7147
 2956TIP3   OH2 8873   3.907   3.788   3.692 -0.6926  0.6104 -0.6559
 2956TIP3    H1 8874   3.970   3.860   3.695  0.2615  0.0806 -4.2934
 2956TIP3    H2 8875   3.845   3.814   3.624 -1.5585 -1.0800 -0.5540
 2957TIP3   OH2 8876   4.383   4.971   1.392 -0.0508  0.4246 -0.2906
 2957TIP3    H1 8877   4.395   4.995   1.300  0.1528  1.5328  0.0094
 2957TIP3    H2 8878   4.367   4.877   1.390 -0.3777  0.4823 -1.4904
 2958TIP3   OH2 8879   5.286   3.633   1.956  0.0138  0.0292  0.1881
 2958TIP3    H1 8880   5.324   3.577   1.889  0.0343  0.6248 -0.3134
 2958TIP3    H2 8881   5.194   3.606   1.962  0.4366 -1.2806  1.2624
 2959TIP3   OH2 8882   4.754   5.030   1.361 -0.0081  0.2575  0.5410
 2959TIP3    H1 8883   4.778   4.964   1.427  0.1176 -0.9924 -0.7174
 2959TIP3    H2 8884   4.768   5.114   1.406  2.6437 -0.4620  1.2767
 2960TIP3   OH2 8885   3.754   2.005   2.550 -0.2812 -0.2094  0.3319
 2960TIP3    H1 8886   3.720   1.977   2.635 -2.2301  1.2891  0.1290
 2960TIP3    H2 8887   3.844   1.972   2.548 -0.7858 -1.8912  2.1579
 2961TIP3   OH2 8888   4.801   5.538   4.733  0.2070 -0.0171  0.1099
 2961TIP3    H1 8889   4.787   5.632   4.744  0.4761 -0.0373  0.6390
 2961TIP3    H2 8890   4.896   5.528   4.729  0.1895 -0.2914  0.3261
 2962TIP3   OH2 8891   2.619   3.381   3.182 -0.1763  0.4692 -0.1861
 2962TIP3    H1 8892   2.604   3.290   3.155  0.2911  0.3393 -0.0299
 2962TIP3    H2 8893   2.550   3.399   3.245 -0.2763  0.2191 -0.2214
 2963TIP3   OH2 8894   3.560   4.132   4.219  0.2462  0.1259 -0.3615
 2963TIP3    H1 8895   3.469   4.123   4.248  0.3543 -0.4754 -0.1981
 2963TIP3    H2 8896   3.561   4.096   4.130 -0.0047  1.6157 -0.9917
 2964TIP3   OH2 8897   0.240   3.442   3.113 -0.8464  0.3466 -0.1453
 2964TIP3    H1 8898   0.242   3.452   3.018  0.9636 -1.4799 -0.3775
 2964TIP3    H2 8899   0.270   3.526   3.148 -0.4509  0.6698 -1.2388
 2965TIP3   OH2 8900   6.298   1.268   3.868  0.6561 -0.6197 -0.1573
 2965TIP3    H1 8901   6.374   1.310   3.828  0.3141 -0.7346 -0.9284
 2965TIP3    H2 8902   6.272   1.200   3.807 -0.3110 -0.3196 -0.1013
 2966TIP3   OH2 8903   0.342   0.578   2.574 -0.1280 -0.1304 -0.0198
 2966TIP3    H1 8904   0.251   0.603   2.563 -0.1299 -0.2814 -0.3553
 2966TIP3    H2 8905   0.348   0.490   2.536  0.4258  0.3855 -1.1604
 2967TIP3   OH2 8906   2.653   3.918   4.681  0.1821  0.2234  0.0561
 2967TIP3    H1 8907   2.608   3.915   4.766 -0.1229 -5.0766  0.0655
 2967TIP3    H2 8908   2.594   3.968   4.625 -1.7550  0.2632  1.9760
 2968TIP3   OH2 8909   6.339   2.111   1.893  0.2885 -0.2956 -0.3112
 2968TIP3    H1 8910   6.250   2.143   1.905  0.4730  0.1068  0.0075
 2968TIP3    H2 8911   6.341   2.078   1.803 -0.8443 -2.4820  0.3703
 2969TIP3   OH2 8912   4.010   0.064   0.895 -0.1811 -0.6166  0.0707
 2969TIP3    H1 8913   4.000   0.038   0.986  1.6905  2.8048  1.4196
 2969TIP3    H2 8914   4.026   0.158   0.898 -3.0101  0.2517 -4.0603
 2970TIP3   OH2 8915   4.144   1.982   1.817 -0.0088 -0.7442  0.2111
 2970TIP3    H1 8916   4.119   2.067   1.782  1.3521 -1.2672 -2.3076
 2970TIP3    H2 8917   4.063   1.930   1.814 -0.2734 -0.2981 -0.7697
 2971TIP3   OH2 8918   1.027   2.504   0.850  0.5837  0.1351  0.2841
 2971TIP3    H1 8919   1.073   2.444   0.792  1.2759  1.4521 -0.5768
 2971TIP3    H2 8920   1.043   2.470   0.938  2.7264  0.2134 -0.0248
 2972TIP3   OH2 8921   3.290   4.068   4.219 -0.6958  0.7045 -0.5801
 2972TIP3    H1 8922   3.211   4.115   4.245 -0.9070 -1.0800  2.5504
 2972TIP3    H2 8923   3.278   4.051   4.125 -3.5416  1.3624 -0.4315
 2973TIP3   OH2 8924   3.439   3.162   1.407  0.7151  0.0657 -0.1932
 2973TIP3    H1 8925   3.510   3.183   1.467  0.9785 -1.1208 -0.0794
 2973TIP3    H2 8926   3.369   3.222   1.431  0.3910 -1.1353  2.0752
 2974TIP3   OH2 8927   1.723   1.095   4.049 -0.3463 -0.5582  0.1893
 2974TIP3    H1 8928   1.673   1.164   4.093  0.8844 -0.9854  2.4175
 2974TIP3    H2 8929   1.812   1.132   4.041 -0.3420 -0.8333 -1.2043
 2975TIP3   OH2 8930   4.508   4.810   0.921  0.0107 -0.0450  0.5604
 2975TIP3    H1 8931   4.501   4.904   0.905  0.4955 -0.2379 -0.9808
 2975TIP3    H2 8932   4.602   4.792   0.919 -0.0712 -0.5361  0.9667
 2976TIP3   OH2 8933   2.494   4.778   2.098 -0.3233 -0.4276 -0.1245
 2976TIP3    H1 8934   2.414   4.827   2.117  0.4434  0.3689  1.2122
 2976TIP3    H2 8935   2.533   4.823   2.023 -0.5945 -0.1707 -0.1100
 2977TIP3   OH2 8936   5.181   1.358   2.367 -0.6449  0.8621 -0.5362
 2977TIP3    H1 8937   5.231   1.334   2.445 -1.3770  2.8306  0.6264
 2977TIP3    H2 8938   5.128   1.282   2.347 -2.0660  0.9959  2.2549
 2978TIP3   OH2 8939   3.533   3.552   4.614  0.3439 -0.1310  0.2278
 2978TIP3    H1 8940   3.447   3.566   4.574  0.6369  0.2434 -0.2912
 2978TIP3    H2 8941   3.595   3.571   4.543  0.9018  1.4820  1.1010
 2979TIP3   OH2 8942   0.214   1.684   0.818  0.2870 -0.5971 -0.2581
 2979TIP3    H1 8943   0.266   1.603   0.811  1.7576  0.4570 -2.8185
 2979TIP3    H2 8944   0.124   1.654   0.817  0.7900 -2.2286 -1.8247
 2980TIP3   OH2 8945   1.874   2.416   1.052 -0.4653  0.1288 -0.1223
 2980TIP3    H1 8946   1.879   2.437   1.145 -1.0285 -0.5104  0.0609
 2980TIP3    H2 8947   1.856   2.322   1.049  1.2893 -0.2298 -0.9092
 2981TIP3   OH2 8948   6.207   1.712   1.548  0.4893 -0.1319  0.8124
 2981TIP3    H1 8949   6.215   1.693   1.641  1.2685  3.1744  1.5417
 2981TIP3    H2 8950   6.282   1.669   1.508  1.7900  0.7437  2.2012
 2982TIP3   OH2 8951   2.085   1.314   2.176  0.4232 -0.1347  0.2732
 2982TIP3    H1 8952   2.160   1.306   2.234  0.6511  0.4479  0.0726
 2982TIP3    H2 8953   2.044   1.228   2.177  1.7840 -0.8241 -0.5441
 2983TIP3   OH2 8954   0.646   3.673   4.469 -0.2246  0.0519 -0.5352
 2983TIP3    H1 8955   0.617   3.748   4.417  0.9890  0.0157 -1.3181
 2983TIP3    H2 8956   0.650   3.705   4.559  2.4224  1.6777 -1.1119
 2984TIP3   OH2 8957   0.800   1.194   1.691 -0.1188 -0.0864 -0.5724
 2984TIP3    H1 8958   0.885   1.159   1.716  0.1443  1.1414  0.3413
 2984TIP3    H2 8959   0.739   1.122   1.705  0.7349 -0.9530 -1.1573
 2985TIP3   OH2 8960   3.072   5.860   0.819  0.6525  0.4250  0.1811
 2985TIP3    H1 8961   3.028   5.931   0.865  2.3484  0.9204  1.1144
 2985TIP3    H2 8962   3.054   5.782   0.873 -0.3924  0.3123 -0.3151
 2986TIP3   OH2 8963   5.773   5.830   3.959 -0.2557 -0.0374  0.0697
 2986TIP3    H1 8964   5.697   5.880   3.930  0.6406  1.0070 -0.5154
 2986TIP3    H2 8965   5.751   5.803   4.048 -1.7897 -0.7468 -0.4920
 2987TIP3   OH2 8966   5.949   1.960   4.949 -0.4038  0.1451  0.3849
 2987TIP3    H1 8967   5.867   1.982   4.994 -0.4368 -0.9181  0.8635
 2987TIP3    H2 8968   6.016   1.963   5.017  0.0742  1.5876 -0.1161
 2988TIP3   OH2 8969   3.422   5.308   3.514  0.0385  0.4837  0.1745
 2988TIP3    H1 8970   3.421   5.401   3.539  1.9018  0.2019  1.5243
 2988TIP3    H2 8971   3.477   5.305   3.436 -0.5502  0.5852 -0.2474
 2989TIP3   OH2 8972   3.012   3.745   2.785  0.0341  0.5449  0.3816
 2989TIP3    H1 8973   3.062   3.819   2.752  0.3936 -1.0806 -3.2009
 2989TIP3    H2 8974   2.929   3.748   2.737 -0.3570 -0.7749  0.9177
 2990TIP3   OH2 8975   5.917   4.918   5.023 -0.6012  0.3305 -0.0463
 2990TIP3    H1 8976   5.842   4.868   4.990  0.2437 -1.7470  0.9851
 2990TIP3    H2 8977   5.905   4.920   5.118  0.6740 -0.1142  0.1450
 2991TIP3   OH2 8978   2.667   2.603   3.704 -0.2263 -0.1691  0.2710
 2991TIP3    H1 8979   2.687   2.676   3.762  0.6794 -0.9944  1.0337
 2991TIP3    H2 8980   2.750   2.555   3.696 -1.0282 -1.6861  0.6371
 2992TIP3   OH2 8981   3.651   2.723   3.644 -0.4855 -0.4122  0.2843
 2992TIP3    H1 8982   3.616   2.641   3.677  1.1498 -1.7670 -1.1686
 2992TIP3    H2 8983   3.745   2.719   3.663 -0.2101  0.6303 -0.7288
 2993TIP3   OH2 8984   4.278   1.135   4.257 -0.2976  0.2802 -0.1152
 2993TIP3    H1 8985   4.309   1.053   4.296  0.1605 -0.2840 -1.6100
 2993TIP3    H2 8986   4.289   1.200   4.327 -1.0121 -0.9758  1.2158
 2994TIP3   OH2 8987   1.942   0.801   0.588  0.0108  0.3955 -0.3610
 2994TIP3    H1 8988   1.921   0.858   0.514  1.0415  1.4159  0.0989
 2994TIP3    H2 8989   1.996   0.855   0.646  1.3367 -1.1442 -0.0701
 2995TIP3   OH2 8990   0.976   4.806   3.225 -0.4437 -0.3338 -0.2632
 2995TIP3    H1 8991   0.909   4.756   3.272 -0.5899 -0.6782 -0.8261
 2995TIP3    H2 8992   1.002   4.875   3.286  1.0550 -2.1254  1.2396
 2996TIP3   OH2 8993   2.865   0.644   0.685  0.4128 -0.2300  0.7241
 2996TIP3    H1 8994   2.829   0.577   0.627  0.2585  0.6959 -0.2861
 2996TIP3    H2 8995   2.806   0.718   0.675  1.8455  0.8577  0.0433
 2997TIP3   OH2 8996   4.984   0.497   1.871 -0.7440  0.5055 -0.7500
 2997TIP3    H1 8997   4.964   0.418   1.922  1.3564  0.6631  0.4522
 2997TIP3    H2 8998   5.076   0.486   1.845 -1.3322  1.0822 -3.4204
 2998TIP3   OH2 8999   1.008   3.880   3.664  0.1763  0.3957 -0.4552
 2998TIP3    H1 9000   1.076   3.824   3.626  0.6323  1.0067 -0.5591
 2998TIP3    H2 9001   1.053   3.963   3.682  0.3935 -0.3049  2.8175
 2999TIP3   OH2 9002   3.744   5.640   4.299 -0.5481 -0.4886 -0.4345
 2999TIP3    H1 9003   3.672   5.703   4.305 -0.6125 -0.4932 -1.0601
 2999TIP3    H2 9004   3.707   5.566   4.249 -0.2824 -0.7444 -0.2557
 3000TIP3   OH2 9005   5.017   1.173   3.190 -0.1731 -0.1848 -0.2718
 3000TIP3    H1 9006   5.061   1.248   3.150 -0.9437  0.6841  0.4623
 3000TIP3    H2 9007   4.969   1.210   3.264 -0.3150 -1.4590  0.2973
 3001TIP3   OH2 9008   2.165   3.151   2.576 -0.4379  0.7176 -0.2525
 3001TIP3    H1 9009   2.087   3.096   2.586 -0.5160  0.8175 -0.3209
 3001TIP3    H2 9010   2.213   3.139   2.659 -0.1759  0.1119 -0.4859
 3002TIP3   OH2 9011   0.529   4.405   5.003  0.1453  0.1280 -0.0271
 3002TIP3    H1 9012   0.552   4.485   5.051  0.5134  0.4148 -0.6748
 3002TIP3    H2 9013   0.560   4.334   5.060 -0.6208  0.4218  0.7792
 3003TIP3   OH2 9014   1.361   0.087   3.242  0.4419 -0.1676 -0.4477
 3003TIP3    H1 9015   1.372   0.041   3.159  1.0781  1.1965 -1.1640
 3003TIP3    H2 9016   1.391   0.176   3.223 -0.4181  0.4473  0.9603
 3004TIP3   OH2 9017   3.310   3.895   2.771 -0.0832  0.3646  0.0867
 3004TIP3    H1 9018   3.315   3.873   2.864 -2.0950  1.1418  0.4400
 3004TIP3    H2 9019   3.329   3.989   2.768  2.5341 -0.1051 -0.6697
 3005TIP3   OH2 9020   5.602   0.682   3.638 -0.0583 -0.0539  0.0076
 3005TIP3    H1 9021   5.631   0.759   3.589 -0.3771  0.2864  0.3360
 3005TIP3    H2 9022   5.608   0.709   3.730 -1.6003  0.1233  0.0941
 3006TIP3   OH2 9023   0.648   3.336   0.338  0.2346 -0.2834 -0.1324
 3006TIP3    H1 9024   0.624   3.351   0.430 -1.1746  1.7192 -0.7572
 3006TIP3    H2 9025   0.574   3.287   0.302  0.5024 -0.5330 -0.3396
 3007TIP3   OH2 9026   1.077   0.473   4.282 -0.3108  0.3478 -0.3672
 3007TIP3    H1 9027   0.995   0.452   4.328  0.4146 -1.3837  0.2230
 3007TIP3    H2 9028   1.068   0.432   4.196 -0.5031  1.1369 -0.7342
 3008TIP3   OH2 9029   3.461   5.661   0.136 -0.0172 -0.1515 -0.3228
 3008TIP3    H1 9030   3.523   5.712   0.085 -0.5473  1.5991  0.6847
 3008TIP3    H2 9031   3.380   5.663   0.086  0.4834 -1.7357 -1.2398
 3009TIP3   OH2 9032   2.840   4.423   2.603  0.3679  0.4703 -0.0170
 3009TIP3    H1 9033   2.793   4.462   2.677  2.3793  0.9875  1.0905
 3009TIP3    H2 9034   2.774   4.376   2.553 -1.1243  0.3878  1.9402
 3010TIP3   OH2 9035   0.411   1.549   3.611  0.3514 -0.4804  0.5554
 3010TIP3    H1 9036   0.361   1.472   3.585  1.7047 -0.7302 -1.5530
 3010TIP3    H2 9037   0.370   1.578   3.692 -0.9858 -2.6642  0.7388
 3011TIP3   OH2 9038   2.777   0.076   2.196 -0.3306 -0.4677  0.1760
 3011TIP3    H1 9039   2.865   0.106   2.219 -0.5580  1.1769 -0.8596
 3011TIP3    H2 9040   2.719   0.136   2.243 -0.8586 -0.6403 -0.2520
 3012TIP3   OH2 9041   4.359   0.880   0.097  0.1116  0.4801  0.0777
 3012TIP3    H1 9042   4.431   0.900   0.037  1.2945 -1.1567  0.8986
 3012TIP3    H2 9043   4.359   0.953   0.159  0.3830  1.0108 -0.5305
 3013TIP3   OH2 9044   0.443   0.260   3.883  0.0273  0.1671  0.0422
 3013TIP3    H1 9045   0.459   0.176   3.926  2.4484 -0.0769 -1.1172
 3013TIP3    H2 9046   0.512   0.266   3.817 -2.0071  1.6291 -2.1156
 3014TIP3   OH2 9047   1.633   3.399   4.944 -0.4527 -0.1776  0.2844
 3014TIP3    H1 9048   1.684   3.318   4.940  0.7841  0.6024 -0.4462
 3014TIP3    H2 9049   1.640   3.428   5.035 -1.2278 -1.0674  0.6441
 3015TIP3   OH2 9050   1.992   4.009   2.605 -0.7366  0.0052  0.8487
 3015TIP3    H1 9051   2.028   4.082   2.656  1.1840 -0.0103 -0.3818
 3015TIP3    H2 9052   2.002   3.933   2.663  1.3922 -0.0065  0.5516
 3016TIP3   OH2 9053   4.219   2.932   1.839 -0.7264 -0.1699 -0.0974
 3016TIP3    H1 9054   4.184   2.854   1.882 -0.3507 -0.0183  0.5021
 3016TIP3    H2 9055   4.196   2.921   1.747 -0.4358 -1.1250 -0.0726
 3017TIP3   OH2 9056   2.484   3.990   0.366 -0.5877 -0.5637  0.6137
 3017TIP3    H1 9057   2.453   3.992   0.457  1.0834  0.9615  1.2143
 3017TIP3    H2 9058   2.579   3.976   0.374 -0.6207 -1.8464 -0.9786
 3018TIP3   OH2 9059   4.131   4.837   0.959  0.0334  0.2441 -0.0601
 3018TIP3    H1 9060   4.109   4.927   0.935 -0.2952  0.7364  1.8862
 3018TIP3    H2 9061   4.047   4.795   0.974  0.2203  0.5073  1.9355
 3019TIP3   OH2 9062   5.439   0.517   1.904 -0.1038  0.0160 -0.1065
 3019TIP3    H1 9063   5.415   0.549   1.817  0.2510 -0.2132 -0.2934
 3019TIP3    H2 9064   5.422   0.590   1.963 -2.1717 -0.4243 -0.0787
 3020TIP3   OH2 9065   0.023   2.587   2.944  0.1044 -0.1583 -0.3207
 3020TIP3    H1 9066   0.048   2.675   2.916 -0.4580  0.5053  1.1361
 3020TIP3    H2 9067   0.087   2.529   2.902  0.2400  0.8925 -1.6243
 3021TIP3   OH2 9068   4.850   0.621   0.161  0.3495  0.5444 -0.7540
 3021TIP3    H1 9069   4.875   0.569   0.238  0.0717 -1.3673 -1.8921
 3021TIP3    H2 9070   4.777   0.674   0.191 -0.1090 -0.5687  0.1905
 3022TIP3   OH2 9071   3.664   3.562   0.241  0.1418 -0.8410 -0.7827
 3022TIP3    H1 9072   3.664   3.643   0.191 -0.8068 -0.7876 -0.7215
 3022TIP3    H2 9073   3.589   3.513   0.206 -1.5201 -0.1619  1.5557
 3023TIP3   OH2 9074   4.487   3.529   2.149  0.4092 -0.7335  0.1162
 3023TIP3    H1 9075   4.517   3.478   2.074  0.5134 -0.0456 -0.3173
 3023TIP3    H2 9076   4.561   3.584   2.173  1.3963 -2.9240  2.5361
 3024TIP3   OH2 9077   5.061   2.122   1.234 -0.4801 -0.1251  0.2424
 3024TIP3    H1 9078   5.090   2.058   1.299  1.3916  0.6831  0.2619
 3024TIP3    H2 9079   5.073   2.206   1.277 -1.1258  0.3303 -0.4566
 3025TIP3   OH2 9080   2.823   1.150   2.782 -0.1516  0.0877  0.1656
 3025TIP3    H1 9081   2.848   1.100   2.704 -1.0721  2.8951 -2.1202
 3025TIP3    H2 9082   2.874   1.231   2.776 -0.5178  0.5410  2.3322
 3026TIP3   OH2 9083   2.831   0.397   4.941 -0.4360  0.3373  0.3497
 3026TIP3    H1 9084   2.765   0.329   4.934  0.3889 -0.5048  0.6013
 3026TIP3    H2 9085   2.873   0.400   4.855 -0.5869  0.6506  0.2855
 3027TIP3   OH2 9086   3.995   0.189   5.139 -0.5370 -0.0228 -0.8814
 3027TIP3    H1 9087   4.076   0.212   5.093  1.5842  0.0837  2.5408
 3027TIP3    H2 9088   3.942   0.269   5.136  1.7168  1.6902  0.9599
 3028TIP3   OH2 9089   4.345   1.891   1.471 -0.3022 -0.2321 -0.3214
 3028TIP3    H1 9090   4.418   1.866   1.415  0.0829 -0.7471  0.3889
 3028TIP3    H2 9091   4.373   1.971   1.514 -0.4142 -0.0877 -0.5135
 3029TIP3   OH2 9092   4.226   4.782   3.509 -0.5805 -0.7466  0.6296
 3029TIP3    H1 9093   4.282   4.747   3.579  0.4241 -0.3194  0.0600
 3029TIP3    H2 9094   4.143   4.802   3.553  0.3323  0.4064  1.9270
 3030TIP3   OH2 9095   1.433   1.147   0.626 -0.2554 -0.0411 -0.1966
 3030TIP3    H1 9096   1.412   1.069   0.677  1.8180  0.4638  1.6187
 3030TIP3    H2 9097   1.407   1.220   0.682  2.9883  0.5438  0.7935
 3031TIP3   OH2 9098   2.233   5.854   1.344 -0.2003  0.9699  0.3696
 3031TIP3    H1 9099   2.204   5.945   1.335 -0.7525  0.7411 -0.2863
 3031TIP3    H2 9100   2.212   5.831   1.435  0.9992  1.8404  0.8854
 3032TIP3   OH2 9101   5.907   1.252   1.495 -0.3034 -0.2060  0.0458
 3032TIP3    H1 9102   5.920   1.340   1.532  0.2157  0.6794 -2.0769
 3032TIP3    H2 9103   5.995   1.219   1.479 -0.5024 -1.0322  0.5828
 3033TIP3   OH2 9104   4.436   2.130   1.641  0.3278  0.6404 -0.2941
 3033TIP3    H1 9105   4.507   2.088   1.689  0.5860  1.6313  0.2035
 3033TIP3    H2 9106   4.412   2.206   1.693  1.5548  2.5813 -2.3635
 3034TIP3   OH2 9107   3.348   0.442   2.538  0.3331 -0.1529  0.3648
 3034TIP3    H1 9108   3.337   0.398   2.453 -0.1366 -0.6077  0.6594
 3034TIP3    H2 9109   3.441   0.431   2.558  0.2823 -0.7385  0.2880
 3035TIP3   OH2 9110   6.268   4.756   2.198 -0.6223 -0.1583  0.0045
 3035TIP3    H1 9111   6.265   4.850   2.215 -1.8075 -0.4444  1.5386
 3035TIP3    H2 9112   6.301   4.717   2.279 -0.8479 -1.1231 -0.3523
 3036TIP3   OH2 9113   1.981   2.780   2.592  0.2489  0.1748 -0.6867
 3036TIP3    H1 9114   2.037   2.732   2.653  0.9711 -0.1387 -1.5676
 3036TIP3    H2 9115   1.892   2.770   2.626  0.7753  1.2892  1.1592
 3037TIP3   OH2 9116   2.592   4.622   4.091  0.0662  0.7955 -0.3859
 3037TIP3    H1 9117   2.672   4.573   4.076 -1.4572 -2.5343  1.2830
 3037TIP3    H2 9118   2.549   4.624   4.006  1.2488  1.4060 -0.9896
 3038TIP3   OH2 9119   2.508   2.470   2.788  0.0034  0.4040 -0.3455
 3038TIP3    H1 9120   2.501   2.399   2.725  1.9903  2.2125 -2.8346
 3038TIP3    H2 9121   2.420   2.506   2.793 -0.4435 -0.5130 -1.2348
 3039TIP3   OH2 9122   2.290   1.324   1.909 -0.6084  0.5654 -0.2195
 3039TIP3    H1 9123   2.266   1.413   1.884  1.6160  0.7342 -2.1230
 3039TIP3    H2 9124   2.265   1.270   1.834 -1.6538 -0.3945  0.7889
 3040TIP3   OH2 9125   3.346   4.090   4.828 -1.1381  0.0260  0.1400
 3040TIP3    H1 9126   3.350   3.999   4.798 -1.1486  0.3451 -0.8297
 3040TIP3    H2 9127   3.328   4.083   4.922  0.6816 -1.0185  0.4704
 3041TIP3   OH2 9128   5.272   3.598   0.149  0.2283 -0.2133 -0.1045
 3041TIP3    H1 9129   5.302   3.598   0.240 -0.6122 -0.9804  0.1833
 3041TIP3    H2 9130   5.193   3.544   0.149 -0.3814  0.6236 -1.0925
 3042TIP3   OH2 9131   2.488   2.288   1.494 -0.5566 -0.5321 -0.4158
 3042TIP3    H1 9132   2.493   2.381   1.471 -1.7033 -0.6756 -1.3285
 3042TIP3    H2 9133   2.513   2.285   1.586 -0.4094  0.6697 -0.3973
 3043TIP3   OH2 9134   1.799   4.454   3.478 -0.2137 -0.1339 -0.4455
 3043TIP3    H1 9135   1.802   4.548   3.462 -1.4135 -0.0438 -0.2356
 3043TIP3    H2 9136   1.873   4.419   3.428  0.4987  0.9519 -0.1844
 3044TIP3   OH2 9137   2.718   5.423   3.936 -0.2041  0.9135 -0.0626
 3044TIP3    H1 9138   2.672   5.490   3.987  1.9713  1.0426  1.9268
 3044TIP3    H2 9139   2.700   5.341   3.981  2.9549  1.2181  2.0768
 3045TIP3   OH2 9140   6.294   0.930   4.482  0.1099  0.3948 -0.0922
 3045TIP3    H1 9141   6.284   0.982   4.403  0.6200 -0.6206 -0.8500
 3045TIP3    H2 9142   6.379   0.954   4.518 -0.1865  0.9648  0.2441
 3046TIP3   OH2 9143   0.548   3.492   1.389 -0.7752 -0.0229 -0.3069
 3046TIP3    H1 9144   0.470   3.542   1.363  0.2181  1.7143 -0.0898
 3046TIP3    H2 9145   0.617   3.523   1.331 -0.2627 -1.7191 -0.6603
 3047TIP3   OH2 9146   5.227   4.016   3.168  0.0667  0.3400  0.2463
 3047TIP3    H1 9147   5.268   3.931   3.151 -1.6469 -0.5827  0.4726
 3047TIP3    H2 9148   5.285   4.059   3.231  1.7480  0.0015 -1.0151
 3048TIP3   OH2 9149   0.228   1.770   3.610  0.6976 -0.6192  0.4138
 3048TIP3    H1 9150   0.182   1.853   3.604  0.2346 -0.7650  1.7013
 3048TIP3    H2 9151   0.170   1.707   3.567  0.5476 -0.4670  0.3939
 3049TIP3   OH2 9152   3.371   4.150   3.543  0.5968 -0.6908  0.4042
 3049TIP3    H1 9153   3.397   4.058   3.552  1.0144 -0.4324  2.3078
 3049TIP3    H2 9154   3.449   4.199   3.571  0.0817  0.2123  0.2762
 3050TIP3   OH2 9155   4.122   2.404   0.580  0.3803  0.0251 -0.0248
 3050TIP3    H1 9156   4.052   2.346   0.609 -2.3234  2.1359 -1.8098
 3050TIP3    H2 9157   4.140   2.376   0.490  2.6462 -1.1095  0.7109
 3051TIP3   OH2 9158   2.949   0.954   0.450 -0.2924 -0.1918  0.1412
 3051TIP3    H1 9159   2.893   1.031   0.439 -2.1337 -1.1763  1.8272
 3051TIP3    H2 9160   2.889   0.880   0.439  1.4421 -1.4467 -1.5446
 3052TIP3   OH2 9161   2.877   4.129   0.161 -0.1073  0.5448  0.2130
 3052TIP3    H1 9162   2.822   4.063   0.203 -0.9485  1.4913  0.6435
 3052TIP3    H2 9163   2.952   4.139   0.221 -0.5433  0.7906  0.7277
 3053TIP3   OH2 9164   4.431   1.820   4.601  0.0570 -0.5923  0.0454
 3053TIP3    H1 9165   4.466   1.843   4.515  1.7989 -0.6569  0.7014
 3053TIP3    H2 9166   4.338   1.841   4.595  0.3551  0.4825 -1.4895
 3054TIP3   OH2 9167   3.297   2.116   0.882  0.7309  0.5374  0.0718
 3054TIP3    H1 9168   3.302   2.021   0.891 -1.2197  0.0265 -2.7350
 3054TIP3    H2 9169   3.230   2.143   0.945 -0.2752 -0.3047 -0.6017
 3055TIP3   OH2 9170   3.956   0.415   1.639 -0.4940  0.5074 -0.2148
 3055TIP3    H1 9171   3.903   0.337   1.655 -1.9403  1.3837 -0.5028
 3055TIP3    H2 9172   3.978   0.411   1.546 -1.6868  1.0627 -0.5474
 3056TIP3   OH2 9173   2.559   3.064   0.833  0.3990 -0.1770 -0.5417
 3056TIP3    H1 9174   2.636   3.089   0.783  1.1098 -0.5514  0.3404
 3056TIP3    H2 9175   2.488   3.065   0.769  1.5885 -2.5948 -2.0690
 3057TIP3   OH2 9176   1.897   1.754   2.003 -0.4519 -0.0528  0.0269
 3057TIP3    H1 9177   1.856   1.670   1.983  1.3840 -0.5668 -1.9674
 3057TIP3    H2 9178   1.855   1.816   1.942  1.4713 -0.5706 -1.9846
 3058TIP3   OH2 9179   3.050   2.493   3.002  0.2237 -0.1662  0.1224
 3058TIP3    H1 9180   2.956   2.485   3.022 -0.3935  0.2447 -2.2139
 3058TIP3    H2 9181   3.070   2.414   2.951  0.5812  0.7367 -1.1878
 3059TIP3   OH2 9182   2.158   0.575   0.558 -0.5048  0.2062  0.0210
 3059TIP3    H1 9183   2.109   0.658   0.560  0.6083  1.0772 -3.3268
 3059TIP3    H2 9184   2.241   0.596   0.602  0.4905  1.5308 -2.2845
 3060TIP3   OH2 9185   1.607   0.636   3.457 -0.0689 -0.0837 -0.2282
 3060TIP3    H1 9186   1.596   0.562   3.397  1.3429 -1.3644  1.0007
 3060TIP3    H2 9187   1.702   0.648   3.463 -0.0067 -1.0616  2.8660
 3061TIP3   OH2 9188   4.761   1.761   2.709 -0.2873  0.7554  0.0781
 3061TIP3    H1 9189   4.737   1.775   2.618 -0.6686  0.5764  0.1476
 3061TIP3    H2 9190   4.689   1.709   2.745  0.1880  0.2457  0.3055
 3062TIP3   OH2 9191   3.317   2.106   3.799  0.4859  0.2271  0.2649
 3062TIP3    H1 9192   3.334   2.182   3.855  2.0979  1.0338 -1.2177
 3062TIP3    H2 9193   3.397   2.097   3.747 -0.7180 -0.8367 -1.5017
 3063TIP3   OH2 9194   5.059   2.572   0.109  0.5353  0.0567 -0.2610
 3063TIP3    H1 9195   5.139   2.620   0.087  2.0712  0.3741  4.7119
 3063TIP3    H2 9196   5.080   2.526   0.190 -3.7883 -1.4905  0.2585
 3064TIP3   OH2 9197   1.747   1.519   0.224 -0.2783 -0.3287  0.3265
 3064TIP3    H1 9198   1.740   1.514   0.128  0.2085 -3.4758  0.3435
 3064TIP3    H2 9199   1.814   1.586   0.240  0.7138 -0.7889 -1.6115
 3065TIP3   OH2 9200   4.892   2.113   2.518 -0.6098  0.7864 -0.6275
 3065TIP3    H1 9201   4.925   2.039   2.468 -1.9108  0.6207 -1.2802
 3065TIP3    H2 9202   4.803   2.087   2.543 -0.1542  1.0282  1.4425
 3066TIP3   OH2 9203   3.656   1.023   2.449  0.4882  0.0239 -0.3178
 3066TIP3    H1 9204   3.641   0.945   2.396  0.9727 -0.6609  0.5312
 3066TIP3    H2 9205   3.713   1.079   2.395  1.3699 -0.8740 -0.3449
 3067TIP3   OH2 9206   2.953   2.276   1.831  0.2187 -0.2259  0.5017
 3067TIP3    H1 9207   2.862   2.290   1.855  0.0860  1.0504 -0.6029
 3067TIP3    H2 9208   2.964   2.181   1.831 -0.7850 -0.3546  1.7619
 3068TIP3   OH2 9209   3.924   5.372   1.719 -0.4599  1.0786 -0.0693
 3068TIP3    H1 9210   3.990   5.440   1.724  1.5264 -0.7968  1.0805
 3068TIP3    H2 9211   3.962   5.306   1.661 -0.3430 -0.9180  2.1117
 3069TIP3   OH2 9212   0.961   2.273   3.234  0.5012 -0.0647  0.8685
 3069TIP3    H1 9213   0.933   2.205   3.172  2.9027 -0.5873  0.2787
 3069TIP3    H2 9214   1.006   2.338   3.180 -1.9103  2.2172  1.3933
 3070TIP3   OH2 9215   6.258   3.524   3.151  0.1575 -0.0127  0.2558
 3070TIP3    H1 9216   6.344   3.542   3.114 -0.2246 -0.6660 -1.0023
 3070TIP3    H2 9217   6.211   3.479   3.081 -1.4138  0.8687  0.7101
 3071TIP3   OH2 9218   5.908   1.428   0.161 -0.1107 -0.1880  0.0813
 3071TIP3    H1 9219   5.912   1.345   0.112 -0.9819 -1.1989  1.6171
 3071TIP3    H2 9220   5.955   1.410   0.242 -1.3615  0.4124  0.9697
 3072TIP3   OH2 9221   0.971   1.696   2.690  0.3531 -0.1172  0.3225
 3072TIP3    H1 9222   1.010   1.745   2.618 -1.4314  0.9746  0.0282
 3072TIP3    H2 9223   1.028   1.620   2.702 -0.2045 -1.3025 -3.3980
 3073TIP3   OH2 9224   0.171   3.251   2.589 -0.0599  0.0757  0.3136
 3073TIP3    H1 9225   0.117   3.231   2.666 -0.5686  0.0950 -0.0300
 3073TIP3    H2 9226   0.224   3.172   2.576  0.6597  0.3930  1.1895
 3074TIP3   OH2 9227   3.045   3.270   1.697  0.2090  0.8230  0.1715
 3074TIP3    H1 9228   3.069   3.188   1.654 -0.9977  0.6051 -0.1301
 3074TIP3    H2 9229   3.082   3.338   1.641 -1.0626  0.5338 -1.0841
 3075TIP3   OH2 9230   3.329   4.676   2.840 -0.1780 -0.1875  0.1071
 3075TIP3    H1 9231   3.280   4.734   2.782 -0.2201  0.5566  0.8629
 3075TIP3    H2 9232   3.265   4.647   2.905  0.1681  0.0778  0.5765
 3076TIP3   OH2 9233   3.116   4.405   1.462 -0.2000 -0.0398 -0.1266
 3076TIP3    H1 9234   3.144   4.454   1.384 -1.1918 -0.5167 -0.8007
 3076TIP3    H2 9235   3.075   4.471   1.518  0.7002  0.3425  0.1061
 3077TIP3   OH2 9236   1.326   4.736   3.463 -0.3633  0.4941 -0.2109
 3077TIP3    H1 9237   1.374   4.653   3.461 -1.0494  0.0992 -0.6560
 3077TIP3    H2 9238   1.311   4.756   3.371 -0.4553  0.9655 -0.0931
 3078TIP3   OH2 9239   0.677   2.917   1.224 -0.3181  0.1179  0.0857
 3078TIP3    H1 9240   0.654   2.984   1.289 -0.1952  0.1928  0.0514
 3078TIP3    H2 9241   0.667   2.961   1.140  1.2991  0.5832  0.1005
 3079TIP3   OH2 9242   4.739   4.552   0.766  0.1943  0.3001  0.4680
 3079TIP3    H1 9243   4.824   4.529   0.729  0.1165 -0.5899  0.8180
 3079TIP3    H2 9244   4.758   4.627   0.823  0.6451  0.4494  0.1299
 3080TIP3   OH2 9245   1.690   2.640   1.354  0.5818 -0.3891  0.1430
 3080TIP3    H1 9246   1.662   2.675   1.270  0.0534 -0.1014  0.4371
 3080TIP3    H2 9247   1.651   2.698   1.419 -0.1410 -1.3926  0.6315
 3081TIP3   OH2 9248   3.527   0.774   1.319 -0.6380 -0.4981  0.6587
 3081TIP3    H1 9249   3.575   0.815   1.246 -1.6105 -1.2975 -0.4672
 3081TIP3    H2 9250   3.464   0.716   1.276 -0.8073 -1.4685  2.1685
 3082TIP3   OH2 9251   6.062   0.128   3.138  0.0599 -0.1363  0.1242
 3082TIP3    H1 9252   6.136   0.114   3.197  0.8762 -0.0864 -0.8691
 3082TIP3    H2 9253   6.055   0.224   3.132 -1.6400 -0.0543  2.0885
 3083TIP3   OH2 9254   3.190   0.774   3.890 -0.2420  0.5519  0.3329
 3083TIP3    H1 9255   3.175   0.778   3.984  1.5357  0.4726  0.6574
 3083TIP3    H2 9256   3.274   0.819   3.878 -0.7736  1.1701 -1.3030
 3084TIP3   OH2 9257   0.446   5.332   3.303  0.1500 -0.0967  0.5941
 3084TIP3    H1 9258   0.528   5.294   3.336 -0.5235 -1.4153  0.8046
 3084TIP3    H2 9259   0.474   5.385   3.228  1.3143  0.3267  1.2957
 3085TIP3   OH2 9260   4.848   0.575   3.046 -0.4142  0.1616 -0.2235
 3085TIP3    H1 9261   4.783   0.571   2.976  0.0436 -1.0519 -0.5973
 3085TIP3    H2 9262   4.821   0.507   3.108  0.2507 -0.0709 -0.1758
 3086TIP3   OH2 9263   3.390   5.962   0.075  0.1303 -0.1075 -0.3383
 3086TIP3    H1 9264   3.356   6.009   0.151  0.0589  0.1893 -0.5538
 3086TIP3    H2 9265   3.483   5.986   0.072  0.1426 -0.1528 -0.3222
 3087TIP3   OH2 9266   1.758   1.678   0.459  0.2611 -0.2653 -0.5298
 3087TIP3    H1 9267   1.797   1.740   0.398 -0.5922 -0.1428 -0.9526
 3087TIP3    H2 9268   1.718   1.732   0.527 -0.9060 -0.3299 -1.1546
 3088TIP3   OH2 9269   4.211   4.348   2.123  0.4078  1.0566  0.0139
 3088TIP3    H1 9270   4.275   4.365   2.192  0.0592  0.1187  0.5813
 3088TIP3    H2 9271   4.253   4.284   2.066 -0.8534 -1.4227  1.6930
 3089TIP3   OH2 9272   5.626   5.774   0.025  0.4488 -0.3213 -0.0423
 3089TIP3    H1 9273   5.680   5.814   0.093  0.9231 -2.0095  0.6176
 3089TIP3    H2 9274   5.536   5.789   0.055  0.4744  2.1286 -0.9340
 3090TIP3   OH2 9275   3.721   4.178   0.331  0.3300  0.2638 -0.5028
 3090TIP3    H1 9276   3.696   4.187   0.239  0.1679 -0.6497 -0.5581
 3090TIP3    H2 9277   3.638   4.165   0.377  0.4287  0.5118 -0.2480
 3091TIP3   OH2 9278   1.010   2.903   4.334  0.1138  0.6247 -0.2458
 3091TIP3    H1 9279   1.055   2.886   4.417 -1.7759 -0.9471  0.5321
 3091TIP3    H2 9280   1.046   2.838   4.274 -0.1862  0.2050  0.0218
 3092TIP3   OH2 9281   1.892   1.250   2.693 -1.0171  0.7587 -0.5364
 3092TIP3    H1 9282   1.942   1.278   2.616 -1.7759  1.6151 -0.7507
 3092TIP3    H2 9283   1.920   1.161   2.710  1.1045  1.4372 -0.2003
 3093TIP3   OH2 9284   2.043   5.456   4.718 -0.2822  0.0503  0.3025
 3093TIP3    H1 9285   2.069   5.525   4.779 -1.1177  0.0221  0.6950
 3093TIP3    H2 9286   2.125   5.412   4.696  0.1636  0.7183  0.5931
 3094TIP3   OH2 9287   1.824   5.666   4.108 -0.2105 -0.0889  0.1194
 3094TIP3    H1 9288   1.784   5.662   4.021  0.8234 -0.0661 -0.3665
 3094TIP3    H2 9289   1.861   5.579   4.121  0.1979  0.1031  0.2577
 3095TIP3   OH2 9290   1.813   0.165   4.261  0.3489  0.3284  0.4221
 3095TIP3    H1 9291   1.779   0.236   4.206  0.2955 -0.7745 -1.0526
 3095TIP3    H2 9292   1.906   0.162   4.241  0.1849 -0.6243 -0.3148
 3096TIP3   OH2 9293   0.736   3.119   2.134  0.1479  0.2189 -0.1990
 3096TIP3    H1 9294   0.830   3.103   2.127  0.0023 -0.4260 -0.7123
 3096TIP3    H2 9295   0.695   3.055   2.076 -0.6325  0.2604  0.2814
 3097TIP3   OH2 9296   1.250   3.468   4.196  0.2298 -0.7345  0.1128
 3097TIP3    H1 9297   1.165   3.449   4.156  0.2391 -0.6413  0.0494
 3097TIP3    H2 9298   1.232   3.470   4.290 -0.5380  2.5386  0.0431
 3098TIP3   OH2 9299   2.324   3.395   1.237 -0.3144 -0.0948 -0.2858
 3098TIP3    H1 9300   2.237   3.379   1.199 -0.3813  1.6974 -0.9584
 3098TIP3    H2 9301   2.351   3.309   1.270 -0.8820 -1.4935 -3.0892
 3099TIP3   OH2 9302   3.972   2.224   1.833  0.2056 -0.1550  0.1904
 3099TIP3    H1 9303   3.877   2.220   1.827  0.0773  1.1810  0.7848
 3099TIP3    H2 9304   3.990   2.207   1.926  0.1834  3.3585  0.9870
 3100TIP3   OH2 9305   2.843   0.747   1.128 -0.2064 -0.2308 -0.0305
 3100TIP3    H1 9306   2.927   0.791   1.118 -0.5715  0.4360 -0.1716
 3100TIP3    H2 9307   2.803   0.752   1.042 -0.3170 -0.7130 -0.0099
 3101TIP3   OH2 9308   5.460   5.656   4.397 -0.0628  0.1906 -0.5785
 3101TIP3    H1 9309   5.471   5.569   4.436  1.1387 -0.6021 -2.5185
 3101TIP3    H2 9310   5.374   5.686   4.428 -0.1859 -1.3672  0.6996
 3102TIP3   OH2 9311   4.402   3.179   3.734  0.3829 -0.3296  0.5298
 3102TIP3    H1 9312   4.477   3.140   3.780  2.6142  2.1732 -0.6647
 3102TIP3    H2 9313   4.354   3.104   3.700  1.8124 -2.0975  2.1494
 3103TIP3   OH2 9314   3.303   2.082   2.502 -0.6085  0.6677 -0.0087
 3103TIP3    H1 9315   3.266   2.170   2.501 -0.0386  0.9093 -1.5253
 3103TIP3    H2 9316   3.315   2.060   2.410  0.8491 -0.3172  0.3938
 3104TIP3   OH2 9317   5.525   5.418   3.549 -0.2543  0.5354 -0.0201
 3104TIP3    H1 9318   5.530   5.376   3.463 -0.8430 -0.5373  0.4600
 3104TIP3    H2 9319   5.580   5.363   3.606 -2.1736 -0.4572  0.9447
 3105TIP3   OH2 9320   6.309   4.411   1.384  0.0609  0.2874  0.4249
 3105TIP3    H1 9321   6.315   4.353   1.460 -2.2474 -0.0485  0.4229
 3105TIP3    H2 9322   6.231   4.382   1.338 -0.9758  3.1111  0.2129
 3106TIP3   OH2 9323   4.366   5.562   1.899 -0.1064  0.2528 -0.1034
 3106TIP3    H1 9324   4.421   5.484   1.900  2.3358  1.8286  1.3136
 3106TIP3    H2 9325   4.334   5.570   1.989 -2.2870 -0.2962 -0.7626
 3107TIP3   OH2 9326   3.490   1.124   2.661 -0.3077  0.2549  0.2822
 3107TIP3    H1 9327   3.550   1.114   2.588 -0.4089 -1.3567  0.3902
 3107TIP3    H2 9328   3.546   1.129   2.739 -0.2697  0.2461  0.2552
 3108TIP3   OH2 9329   2.133   3.400   0.500 -0.6187  0.2236 -0.1411
 3108TIP3    H1 9330   2.152   3.315   0.540  0.5628  0.0892 -0.9358
 3108TIP3    H2 9331   2.039   3.396   0.481 -0.5098 -1.0974 -0.5585
 3109TIP3   OH2 9332   0.882   5.784   2.615 -0.7413  0.1260 -0.3691
 3109TIP3    H1 9333   0.858   5.797   2.523 -0.3767  2.2268 -0.2182
 3109TIP3    H2 9334   0.971   5.749   2.611 -0.6597  0.3688 -0.8295
 3110TIP3   OH2 9335   3.062   5.711   2.518 -0.0641  0.8031  0.0266
 3110TIP3    H1 9336   3.065   5.709   2.614  0.5818  1.6659  0.0356
 3110TIP3    H2 9337   3.115   5.787   2.494 -0.1138  0.5182 -1.0238
 3111TIP3   OH2 9338   2.632   1.001   4.020  0.0600  0.4439  0.1802
 3111TIP3    H1 9339   2.642   1.096   4.030  2.0941  0.0403  3.5498
 3111TIP3    H2 9340   2.721   0.966   4.030 -0.6942 -1.8844 -0.5848
 3112TIP3   OH2 9341   2.174   5.535   2.453  0.0652  0.1341  0.1238
 3112TIP3    H1 9342   2.116   5.527   2.529  1.5629 -1.9914  1.1339
 3112TIP3    H2 9343   2.212   5.448   2.443  1.9773  1.0885 -1.4069
 3113TIP3   OH2 9344   1.271   1.795   3.531  0.4638 -0.1491  0.0852
 3113TIP3    H1 9345   1.341   1.767   3.591 -0.3251 -0.9798  0.6369
 3113TIP3    H2 9346   1.259   1.888   3.551  0.0750 -0.4608  1.3886
 3114TIP3   OH2 9347   3.681   5.959   3.792  0.1077  0.1866 -0.5965
 3114TIP3    H1 9348   3.663   5.920   3.877  2.2221 -1.5321 -0.8533
 3114TIP3    H2 9349   3.595   5.988   3.760 -0.6898  1.1935  2.2170
 3115TIP3   OH2 9350   6.266   5.268   3.273 -0.7680 -0.1772 -0.1715
 3115TIP3    H1 9351   6.343   5.224   3.307 -0.5000 -0.8728 -1.6236
 3115TIP3    H2 9352   6.198   5.200   3.271 -0.5539 -0.3775 -1.7378
 3116TIP3   OH2 9353   0.245   5.470   3.696  0.0394 -0.0495  0.0200
 3116TIP3    H1 9354   0.315   5.512   3.747 -1.1346 -1.8782  3.4967
 3116TIP3    H2 9355   0.165   5.515   3.723 -0.6184 -0.9295 -0.4030
 3117TIP3   OH2 9356   1.486   5.432   4.573 -0.2818  0.0501  0.2395
 3117TIP3    H1 9357   1.477   5.522   4.540  0.1671  1.1756  2.8943
 3117TIP3    H2 9358   1.578   5.424   4.596 -0.3978 -0.9759  0.3841
 3118TIP3   OH2 9359   5.316   1.322   2.904 -0.4473  0.0197  0.0007
 3118TIP3    H1 9360   5.375   1.255   2.940  0.0921  0.5362  0.1025
 3118TIP3    H2 9361   5.295   1.378   2.979 -0.4795  0.2627 -0.1888
 3119TIP3   OH2 9362   3.092   3.635   4.705 -0.2242  0.6607 -0.5512
 3119TIP3    H1 9363   3.114   3.564   4.644 -1.7414 -2.1432  1.9011
 3119TIP3    H2 9364   3.015   3.677   4.666 -0.8242 -0.6820 -0.8769
 3120TIP3   OH2 9365   5.979   5.967   0.933 -0.3958  0.6322  0.3946
 3120TIP3    H1 9366   5.964   5.903   0.864  0.2990  0.5015  0.3630
 3120TIP3    H2 9367   5.954   6.051   0.894  0.7105  0.6587 -0.2716
 3121TIP3   OH2 9368   4.449   1.924   4.073 -0.5005  0.4342  0.2359
 3121TIP3    H1 9369   4.518   1.977   4.033 -0.7152 -1.0969 -2.4081
 3121TIP3    H2 9370   4.487   1.836   4.078 -1.4596  0.0532  0.9443
 3122TIP3   OH2 9371   1.571   1.080   0.408 -0.5934 -0.5426  0.3188
 3122TIP3    H1 9372   1.548   1.128   0.488 -1.1922  1.4970 -0.9858
 3122TIP3    H2 9373   1.662   1.104   0.391 -1.1275  0.8634 -0.7611
 3123TIP3   OH2 9374   4.917   1.590   3.097 -0.5271  0.7178 -0.0723
 3123TIP3    H1 9375   4.931   1.600   3.003  0.6182 -2.3772 -0.3517
 3123TIP3    H2 9376   4.840   1.534   3.104  0.8215 -1.1302  0.6780
 3124TIP3   OH2 9377   6.265   5.423   2.244  0.1534 -0.3593 -0.0509
 3124TIP3    H1 9378   6.251   5.516   2.225 -0.6243 -0.7936 -1.8403
 3124TIP3    H2 9379   6.299   5.421   2.333  0.5530  1.6630 -0.1215
 3125TIP3   OH2 9380   5.719   5.869   2.175  0.4270  0.2176  0.0460
 3125TIP3    H1 9381   5.633   5.861   2.215  1.1090  1.5614  1.9469
 3125TIP3    H2 9382   5.718   5.955   2.133 -0.2656 -1.1596 -2.9697
 3126TIP3   OH2 9383   1.606   0.768   1.300 -0.0791  0.0414 -0.1256
 3126TIP3    H1 9384   1.591   0.808   1.385 -0.5299 -0.4146  0.0187
 3126TIP3    H2 9385   1.545   0.693   1.298 -0.0298  0.0136 -0.8162
 3127TIP3   OH2 9386   0.615   0.544   2.687 -0.3010  0.6009 -0.3853
 3127TIP3    H1 9387   0.531   0.575   2.654 -1.2094 -0.3979  0.8654
 3127TIP3    H2 9388   0.641   0.611   2.751  0.5977  1.6455 -1.8057
 3128TIP3   OH2 9389   4.023   4.097   0.530  0.4463 -0.5240  0.3331
 3128TIP3    H1 9390   4.074   4.161   0.482  0.8342  0.4877  2.0022
 3128TIP3    H2 9391   3.988   4.145   0.605 -1.1215 -1.7300  0.4474
 3129TIP3   OH2 9392   3.366   1.835   4.746 -0.0417 -0.5701 -0.1727
 3129TIP3    H1 9393   3.369   1.809   4.838 -1.6245  1.0678  0.4202
 3129TIP3    H2 9394   3.411   1.765   4.699 -0.8852 -2.4259  1.6335
 3130TIP3   OH2 9395   5.878   0.341   2.932 -0.0029  0.3697 -0.1597
 3130TIP3    H1 9396   5.973   0.342   2.926  0.1344  0.2726  1.4100
 3130TIP3    H2 9397   5.848   0.378   2.849  1.4334  1.3464 -0.2865
 3131TIP3   OH2 9398   4.607   0.697   3.921  0.1488 -0.3120 -0.3254
 3131TIP3    H1 9399   4.524   0.650   3.916 -1.0188  1.4672  0.9288
 3131TIP3    H2 9400   4.607   0.753   3.842 -1.4570  1.9956  1.1636
 3132TIP3   OH2 9401   0.295   4.285   1.221 -0.2727  0.2413 -0.0552
 3132TIP3    H1 9402   0.265   4.326   1.302 -0.5798  0.1900 -0.1381
 3132TIP3    H2 9403   0.378   4.243   1.243 -0.0666  0.7181  0.0878
 3133TIP3   OH2 9404   2.320   1.236   2.351  0.6459  0.3851 -0.0925
 3133TIP3    H1 9405   2.262   1.227   2.427 -2.4405 -0.7589 -2.4011
 3133TIP3    H2 9406   2.383   1.163   2.361 -1.5365 -1.6055 -0.0283
 3134TIP3   OH2 9407   1.612   4.739   2.852 -0.7831 -0.2711  0.0267
 3134TIP3    H1 9408   1.530   4.698   2.828 -0.7667 -1.3178  1.6152
 3134TIP3    H2 9409   1.643   4.781   2.772 -3.4508  1.2136 -0.3406
 3135TIP3   OH2 9410   3.047   2.470   2.205 -0.0939  0.0974 -0.3017
 3135TIP3    H1 9411   3.126   2.437   2.162  0.2388 -1.9783  1.7136
 3135TIP3    H2 9412   2.990   2.394   2.212 -2.5250  1.6040 -1.9991
 3136TIP3   OH2 9413   2.873   1.709   4.274  0.2389  0.2649  0.0311
 3136TIP3    H1 9414   2.841   1.771   4.209 -0.4781 -1.1238 -0.9834
 3136TIP3    H2 9415   2.953   1.673   4.236  0.0954 -0.1806  0.1434
 3137TIP3   OH2 9416   5.816   1.600   2.917 -0.2930 -0.4258  0.6121
 3137TIP3    H1 9417   5.841   1.691   2.902 -0.4628 -0.0947  2.1707
 3137TIP3    H2 9418   5.730   1.606   2.960 -1.8539 -1.4502 -2.0921
 3138TIP3   OH2 9419   0.731   2.273   2.999 -0.2810  0.0637 -0.5963
 3138TIP3    H1 9420   0.801   2.229   2.951  1.2792 -1.0310  2.4406
 3138TIP3    H2 9421   0.698   2.206   3.059  0.6021  2.2666  2.5982
 3139TIP3   OH2 9422   4.528   3.967   4.385 -0.3327  0.3351 -0.2526
 3139TIP3    H1 9423   4.593   3.962   4.316  0.9037  1.8416  0.7298
 3139TIP3    H2 9424   4.449   3.999   4.342  0.3799  1.1083 -1.0070
 3140TIP3   OH2 9425   1.638   5.982   1.851  0.0876  0.1140 -0.3606
 3140TIP3    H1 9426   1.549   5.949   1.855  0.1086  0.1794  1.5565
 3140TIP3    H2 9427   1.652   6.024   1.935  2.0117 -0.1274 -0.5067
 3141TIP3   OH2 9428   2.521   5.125   0.548  0.8089 -0.8305 -0.2285
 3141TIP3    H1 9429   2.508   5.031   0.534  3.1237 -1.1162 -0.8828
 3141TIP3    H2 9430   2.615   5.139   0.532  0.7425  1.4094  0.9453
 3142TIP3   OH2 9431   4.482   0.292   1.261 -0.6077 -0.0270 -0.1642
 3142TIP3    H1 9432   4.418   0.233   1.221 -0.5263  0.8237 -1.6269
 3142TIP3    H2 9433   4.456   0.379   1.230  2.0435  0.2307 -2.0210
 3143TIP3   OH2 9434   4.941   1.238   0.887 -0.0568 -0.0417  0.2667
 3143TIP3    H1 9435   4.922   1.327   0.856  0.1271  0.1294  0.6431
 3143TIP3    H2 9436   4.900   1.181   0.822  2.1213  0.2727 -1.5122
 3144TIP3   OH2 9437   2.834   1.789   2.011  0.1635 -0.0046  0.2518
 3144TIP3    H1 9438   2.883   1.743   2.079  1.2589 -2.0136 -1.7346
 3144TIP3    H2 9439   2.742   1.777   2.034  0.5103 -0.6322  1.3583
 3145TIP3   OH2 9440   3.191   1.991   5.125  0.3026  0.0279 -0.2425
 3145TIP3    H1 9441   3.138   2.059   5.082 -0.5492  0.8053  1.9131
 3145TIP3    H2 9442   3.273   2.035   5.145  0.0231  0.2252  0.5001
 3146TIP3   OH2 9443  -0.002   2.442   0.532  0.5890 -0.4402 -0.6609
 3146TIP3    H1 9444  -0.019   2.348   0.531  0.4953 -0.4261 -1.5262
 3146TIP3    H2 9445   0.083   2.451   0.490  0.5767 -0.1339 -0.6218
 3147TIP3   OH2 9446   1.522   4.753   1.536 -0.4517 -0.3543 -0.3253
 3147TIP3    H1 9447   1.548   4.801   1.458  0.0305 -2.5938 -1.5990
 3147TIP3    H2 9448   1.541   4.814   1.608 -2.4613  2.4350 -1.9515
 3148TIP3   OH2 9449   5.193   0.331   0.340  0.1863  0.3496 -0.3447
 3148TIP3    H1 9450   5.134   0.404   0.324  0.3242  0.2241 -1.4826
 3148TIP3    H2 9451   5.215   0.298   0.253 -0.6104 -1.6413  0.1429
 3149TIP3   OH2 9452   3.047   5.202   0.499  0.7472 -0.0239 -0.2178
 3149TIP3    H1 9453   3.007   5.126   0.543  3.2512 -1.0722  0.3835
 3149TIP3    H2 9454   3.036   5.184   0.406  0.8230 -0.8336 -0.0757
 3150TIP3   OH2 9455   0.235   5.571   1.007 -0.2316  0.8823 -0.1219
 3150TIP3    H1 9456   0.262   5.491   0.961 -0.9695  0.0765  0.7961
 3150TIP3    H2 9457   0.155   5.598   0.961 -0.6493  0.4058  0.3206
 3151TIP3   OH2 9458   2.117   2.091   2.922  0.7167  0.2270  0.1086
 3151TIP3    H1 9459   2.024   2.100   2.903  0.2865  1.6062  2.4904
 3151TIP3    H2 9460   2.127   2.001   2.953  0.3493 -0.1515 -0.8222
 3152TIP3   OH2 9461   3.951   1.943   1.186  0.6168  0.1872 -0.5161
 3152TIP3    H1 9462   4.027   1.947   1.243  0.9573 -1.2783 -0.8262
 3152TIP3    H2 9463   3.922   2.034   1.177  1.2673  0.5715  1.0124
 3153TIP3   OH2 9464   0.238   4.852   4.206 -0.6041  0.1757  0.1316
 3153TIP3    H1 9465   0.223   4.865   4.299 -1.6161 -0.0087  0.0006
 3153TIP3    H2 9466   0.322   4.806   4.201 -1.5009 -1.6640  1.0556
 3154TIP3   OH2 9467   2.947   3.777   1.385 -0.2410  0.4803  0.1157
 3154TIP3    H1 9468   3.025   3.820   1.352 -1.9053  2.3616 -1.6597
 3154TIP3    H2 9469   2.919   3.831   1.459 -0.0297 -0.0235  0.5684
 3155TIP3   OH2 9470   2.787   1.903   3.807  0.3113  0.2562 -0.2854
 3155TIP3    H1 9471   2.781   1.974   3.742 -1.0328 -0.0978 -0.5840
 3155TIP3    H2 9472   2.711   1.848   3.789  0.5003 -0.4365  0.9288
 3156TIP3   OH2 9473   3.341   3.746   5.032 -0.4239 -0.2509  0.4450
 3156TIP3    H1 9474   3.312   3.686   5.100 -0.7993  0.2232  0.7070
 3156TIP3    H2 9475   3.368   3.689   4.960  0.0337 -0.7543  1.0064
 3157TIP3   OH2 9476   0.278   2.888   0.694  1.0648  0.1981  0.1028
 3157TIP3    H1 9477   0.221   2.812   0.699 -0.0016  0.9145 -0.7745
 3157TIP3    H2 9478   0.344   2.866   0.628  0.2738  0.3432 -0.7414
 3158TIP3   OH2 9479   6.094   4.308   1.188  0.4758 -0.1535 -0.0530
 3158TIP3    H1 9480   6.032   4.239   1.213  1.3269 -0.8816  0.0790
 3158TIP3    H2 9481   6.039   4.378   1.152 -0.7516  0.5922  2.9942
 3159TIP3   OH2 9482   4.660   3.661   3.912 -0.3650  0.5112  0.3220
 3159TIP3    H1 9483   4.635   3.664   4.005 -1.4284  0.8659  0.0364
 3159TIP3    H2 9484   4.600   3.596   3.874 -1.4494  1.9619 -0.5395
 3160TIP3   OH2 9485   2.111   4.288   0.499 -0.6402  0.0878 -0.1938
 3160TIP3    H1 9486   2.121   4.334   0.583  2.1168  0.4164 -0.6208
 3160TIP3    H2 9487   2.147   4.201   0.515 -0.0378  0.1741 -1.0359
 3161TIP3   OH2 9488   2.341   3.825   2.691  0.5797 -0.6566  0.0506
 3161TIP3    H1 9489   2.422   3.862   2.656  1.0932  0.1583  1.9403
 3161TIP3    H2 9490   2.302   3.779   2.617  1.0605  1.7650 -1.8466
 3162TIP3   OH2 9491   4.803   5.382   3.260  0.3911  0.3471  0.0788
 3162TIP3    H1 9492   4.799   5.327   3.182 -0.5159 -0.6488  0.7971
 3162TIP3    H2 9493   4.716   5.374   3.299  0.3696  1.9655  0.4461
 3163TIP3   OH2 9494   4.736   5.204   2.495  0.2991 -0.6362  0.0873
 3163TIP3    H1 9495   4.740   5.133   2.559  0.6896  0.7943  1.7267
 3163TIP3    H2 9496   4.812   5.189   2.438  1.4912 -0.5265  1.5717
 3164TIP3   OH2 9497   6.127   3.719   2.363  0.5190 -0.5677 -0.0649
 3164TIP3    H1 9498   6.094   3.765   2.286  1.9631  0.4101 -0.1346
 3164TIP3    H2 9499   6.207   3.676   2.334  0.3402 -1.3581  0.5590
 3165TIP3   OH2 9500   5.787   3.233   1.435 -0.4553 -0.2569 -0.4757
 3165TIP3    H1 9501   5.875   3.266   1.451 -1.0482  0.6597  1.0767
 3165TIP3    H2 9502   5.749   3.295   1.372 -0.3202 -0.0928 -0.3951
 3166TIP3   OH2 9503   0.730   4.944   0.350  0.0889 -0.1653  0.2872
 3166TIP3    H1 9504   0.769   4.966   0.435  0.0708  1.7630 -0.1678
 3166TIP3    H2 9505   0.665   5.012   0.335  0.0347 -0.5145 -1.2407
 3167TIP3   OH2 9506   1.872   4.575   0.255  0.1695 -0.3173  0.5453
 3167TIP3    H1 9507   1.817   4.627   0.196 -0.4174 -0.3587  1.0487
 3167TIP3    H2 9508   1.810   4.530   0.312  0.7368 -0.1629  1.2940
 3168TIP3   OH2 9509   4.209   5.539   1.050 -0.2819 -0.1559 -0.5003
 3168TIP3    H1 9510   4.176   5.603   1.113 -2.5896 -0.3515 -1.4009
 3168TIP3    H2 9511   4.208   5.456   1.097 -0.0468  0.0115 -0.1956
 3169TIP3   OH2 9512   3.528   4.968   1.969  0.0116  0.4421 -0.1471
 3169TIP3    H1 9513   3.484   4.903   2.024 -1.0524  0.7800 -0.5916
 3169TIP3    H2 9514   3.614   4.929   1.952 -0.1648 -0.3028  0.5863
 3170TIP3   OH2 9515   6.160   4.836   4.889 -0.0219 -0.1947  0.5585
 3170TIP3    H1 9516   6.234   4.884   4.925 -0.6760  1.1265  0.2058
 3170TIP3    H2 9517   6.084   4.870   4.937 -0.6707  0.1823 -0.6983
 3171TIP3   OH2 9518   4.510   1.102   3.596  0.4701 -0.2045 -0.0236
 3171TIP3    H1 9519   4.518   1.120   3.502  1.3808  1.0283  0.2667
 3171TIP3    H2 9520   4.539   1.182   3.638 -2.6293  0.3509  1.3356
 3172TIP3   OH2 9521   3.129   3.754   3.946 -0.0707  0.1236  0.0367
 3172TIP3    H1 9522   3.190   3.687   3.977  0.7202  0.5686 -0.5274
 3172TIP3    H2 9523   3.168   3.837   3.976  0.1621  0.4831 -1.2218
 3173TIP3   OH2 9524   2.011   0.757   2.758  0.4001 -0.4376  0.2585
 3173TIP3    H1 9525   2.072   0.688   2.733 -0.2747 -0.5438 -1.1888
 3173TIP3    H2 9526   1.946   0.713   2.813  0.6412 -0.6989  0.3367
 3174TIP3   OH2 9527   2.929   1.086   3.737 -0.1159  0.6254  0.3742
 3174TIP3    H1 9528   2.847   1.135   3.731 -0.0724  0.8676  1.4471
 3174TIP3    H2 9529   2.976   1.128   3.810  0.1331 -0.6953  1.0038
 3175TIP3   OH2 9530   3.565   4.765   0.600  0.0535  0.0967 -0.1557
 3175TIP3    H1 9531   3.612   4.847   0.584  0.9592 -0.3800 -0.0161
 3175TIP3    H2 9532   3.542   4.733   0.513  0.2606  0.1829 -0.2428
 3176TIP3   OH2 9533   3.558   0.657   4.000  0.1861 -0.2142  0.2856
 3176TIP3    H1 9534   3.628   0.594   4.021 -1.7380 -2.5104  0.1246
 3176TIP3    H2 9535   3.594   0.742   4.028  2.5755 -1.4561  1.2765
 3177TIP3   OH2 9536   4.408   4.059   0.577  0.4460  0.4739  0.0143
 3177TIP3    H1 9537   4.445   4.104   0.501 -0.3999 -0.1343 -0.7724
 3177TIP3    H2 9538   4.330   4.110   0.598 -0.1179 -0.1970 -0.4321
 3178TIP3   OH2 9539   3.571   0.865   0.159  0.2560 -0.4033 -0.9471
 3178TIP3    H1 9540   3.601   0.910   0.238 -1.1617 -3.0054  1.2094
 3178TIP3    H2 9541   3.601   0.775   0.169 -1.4949 -1.2418 -2.5035
 3179TIP3   OH2 9542   0.548   2.347   1.890  0.2500 -0.0189 -0.0992
 3179TIP3    H1 9543   0.459   2.313   1.886  0.1744  0.3328 -1.8078
 3179TIP3    H2 9544   0.539   2.441   1.881  0.7476  0.1033  0.5913
 3180TIP3   OH2 9545   0.971   0.770   4.258 -0.4404  0.4103  0.1049
 3180TIP3    H1 9546   0.911   0.717   4.310 -1.0395  2.1396  1.2392
 3180TIP3    H2 9547   1.057   0.751   4.295 -0.8391  1.4751  1.6396
 3181TIP3   OH2 9548   0.802   0.027   3.142 -0.3090 -0.3760  0.5409
 3181TIP3    H1 9549   0.895   0.026   3.167 -0.1815 -0.8899  0.0864
 3181TIP3    H2 9550   0.757  -0.019   3.213 -0.7489  2.9311  2.5849
 3182TIP3   OH2 9551   5.314   3.192   3.804  0.4959 -0.0053 -0.3071
 3182TIP3    H1 9552   5.370   3.205   3.728 -0.1396  1.5305 -0.5470
 3182TIP3    H2 9553   5.230   3.162   3.768  0.4369 -0.0229 -0.1564
 3183TIP3   OH2 9554   1.979   0.036   3.928  0.3609  0.1178 -0.0316
 3183TIP3    H1 9555   1.950   0.111   3.980 -0.0555  0.4861 -0.7929
 3183TIP3    H2 9556   2.071   0.054   3.909  0.3484  0.2784  0.0556
 3184TIP3   OH2 9557   3.908   5.376   5.007  0.2936  0.0151  0.0122
 3184TIP3    H1 9558   3.883   5.345   4.920 -0.7319  0.5862  0.0865
 3184TIP3    H2 9559   3.927   5.297   5.056 -0.1926 -0.3789 -0.4184
 3185TIP3   OH2 9560   5.055   1.998   0.106 -0.4331 -0.4960 -0.1283
 3185TIP3    H1 9561   5.148   1.979   0.122 -0.2207 -0.7230 -1.5069
 3185TIP3    H2 9562   5.021   2.025   0.191  1.3370  1.4966  0.0253
 3186TIP3   OH2 9563   5.544   5.680   1.664  0.2750  0.4453 -0.0139
 3186TIP3    H1 9564   5.565   5.684   1.758 -1.4928  0.1438  0.4267
 3186TIP3    H2 9565   5.455   5.646   1.661  0.7858 -0.8581 -1.8821
 3187TIP3   OH2 9566   4.234   0.538   3.332  0.2121 -0.0240 -0.0300
 3187TIP3    H1 9567   4.223   0.507   3.242  0.1156  1.1585 -0.4542
 3187TIP3    H2 9568   4.152   0.516   3.375 -0.4084  0.8306 -0.7067
 3188TIP3   OH2 9569   5.484   1.082   4.872  0.3705  0.2371  0.3890
 3188TIP3    H1 9570   5.525   1.081   4.958  1.0765 -0.2942  0.0530
 3188TIP3    H2 9571   5.540   1.026   4.818  0.1263  0.8391 -0.5011
 3189TIP3   OH2 9572   2.176   0.611   1.640 -0.6869 -0.3194  0.2301
 3189TIP3    H1 9573   2.266   0.580   1.637 -1.1930 -1.9520  0.6835
 3189TIP3    H2 9574   2.183   0.705   1.657  0.9225 -0.3998  0.1160
 3190TIP3   OH2 9575   5.700   4.810   4.930  0.3179  0.4121 -0.2472
 3190TIP3    H1 9576   5.681   4.837   4.840 -0.4917 -1.9482 -0.8675
 3190TIP3    H2 9577   5.617   4.776   4.963  1.2965 -1.6376  0.2471
 3191TIP3   OH2 9578   5.083   0.335   2.926  0.8706  0.0133 -0.6820
 3191TIP3    H1 9579   5.014   0.313   2.988  1.4210 -1.1737 -0.4678
 3191TIP3    H2 9580   5.115   0.421   2.955  0.0583  0.2006 -0.2977
 3192TIP3   OH2 9581   5.604   0.324   0.604  0.1651 -0.1418  1.0496
 3192TIP3    H1 9582   5.666   0.370   0.662  0.1678  0.3936  0.6296
 3192TIP3    H2 9583   5.655   0.306   0.525 -0.3281  0.7241  0.5098
 3193TIP3   OH2 9584   3.754   3.667   0.709  0.7576  0.2609 -0.6296
 3193TIP3    H1 9585   3.808   3.735   0.749  1.3266 -0.3186 -0.4051
 3193TIP3    H2 9586   3.771   3.674   0.615 -1.1117  2.0943 -0.9123
 3194TIP3   OH2 9587   0.394   2.288   3.118 -0.2350 -0.4225 -0.1959
 3194TIP3    H1 9588   0.421   2.271   3.028  0.8948  1.6752 -0.3069
 3194TIP3    H2 9589   0.461   2.246   3.172  1.1548  1.4308 -0.4192
 3195TIP3   OH2 9590   0.020   5.367   4.064 -0.1123 -0.1377 -0.1777
 3195TIP3    H1 9591   0.052   5.304   4.129  0.2124 -0.3788 -0.5677
 3195TIP3    H2 9592   0.008   5.315   3.984 -1.0510  0.0404 -0.1582
 3196TIP3   OH2 9593   4.933   5.085   2.956 -0.3843  0.3142  0.4281
 3196TIP3    H1 9594   4.919   5.161   2.900  0.2275  1.4811  1.8031
 3196TIP3    H2 9595   5.017   5.101   2.998 -0.3368 -1.0408  0.8860
 3197TIP3   OH2 9596   3.672   5.898   0.150 -0.0119 -0.0425 -0.0343
 3197TIP3    H1 9597   3.731   5.830   0.115  2.1650  2.0494 -0.7014
 3197TIP3    H2 9598   3.714   5.980   0.125 -1.8337  1.5773  1.9312
 3198TIP3   OH2 9599   3.850   2.141   0.829  0.1090  0.3121 -0.4137
 3198TIP3    H1 9600   3.757   2.136   0.852  0.3264  0.5168  0.5199
 3198TIP3    H2 9601   3.850   2.168   0.737 -0.7492  1.5573 -0.0672
 3199TIP3   OH2 9602   6.279   1.275   2.452 -0.5202  0.5933  0.8327
 3199TIP3    H1 9603   6.253   1.360   2.417  1.4921 -0.0252 -2.6936
 3199TIP3    H2 9604   6.357   1.292   2.504 -0.1493  0.9662  0.1724
 3200TIP3   OH2 9605   3.005   5.898   1.966 -0.2512 -0.1762  0.5476
 3200TIP3    H1 9606   2.912   5.902   1.989  0.0208 -0.9042  1.8416
 3200TIP3    H2 9607   3.049   5.881   2.048  1.1993  1.7629  0.2381
 3201TIP3   OH2 9608   6.313   2.972   0.374 -0.0288 -0.0231 -0.2196
 3201TIP3    H1 9609   6.351   3.056   0.399 -1.1189  0.1813  0.8509
 3201TIP3    H2 9610   6.220   2.991   0.363 -0.3155 -1.1301  0.2062
 3202TIP3   OH2 9611   4.205   2.675   3.666 -0.7202  0.3475  0.2269
 3202TIP3    H1 9612   4.206   2.583   3.641 -1.4418 -0.0590  1.5993
 3202TIP3    H2 9613   4.289   2.689   3.710 -0.2214  0.6030 -0.7694
 3203TIP3   OH2 9614   3.364   1.932   4.402 -0.3730 -0.0632 -0.0774
 3203TIP3    H1 9615   3.405   1.987   4.469 -0.0491 -1.4269  0.8759
 3203TIP3    H2 9616   3.435   1.877   4.369 -0.6829  0.1036 -1.0478
 3204TIP3   OH2 9617   5.002   1.731   3.979  0.4188 -0.3408 -0.7963
 3204TIP3    H1 9618   4.940   1.732   4.052  2.7695 -0.1311  1.3136
 3204TIP3    H2 9619   5.001   1.640   3.948  0.5966 -0.8445  0.6159
 3205TIP3   OH2 9620   2.740   4.855   4.114 -0.1060 -0.1500 -0.4952
 3205TIP3    H1 9621   2.703   4.770   4.089  0.3087 -0.4350 -0.1591
 3205TIP3    H2 9622   2.692   4.880   4.193 -1.6391  0.9034 -1.7233
 3206TIP3   OH2 9623   0.684   5.111   2.423  0.3011  0.6610 -0.5776
 3206TIP3    H1 9624   0.612   5.096   2.484  1.4986  1.9969  1.2683
 3206TIP3    H2 9625   0.679   5.204   2.403  2.4185  1.1573  0.8910
 3207TIP3   OH2 9626   2.406   5.327   1.575 -0.1333  0.1171  0.5738
 3207TIP3    H1 9627   2.472   5.327   1.644 -1.2199  0.6115  1.6461
 3207TIP3    H2 9628   2.395   5.419   1.552 -0.7912  0.0817  0.7381
 3208TIP3   OH2 9629   6.176   0.380   2.946 -0.2585 -0.4429 -0.3168
 3208TIP3    H1 9630   6.159   0.439   2.872  1.2186  0.3093 -0.0920
 3208TIP3    H2 9631   6.187   0.439   3.021  0.9966 -1.0055 -0.0328
 3209TIP3   OH2 9632   2.395   4.528   1.441 -0.1908  0.1339  0.5097
 3209TIP3    H1 9633   2.383   4.582   1.519  0.9913  0.1801  0.6742
 3209TIP3    H2 9634   2.444   4.452   1.472  0.1458  0.0718 -0.1506
 3210TIP3   OH2 9635   4.124   4.774   0.510  0.2648 -0.8186  0.4530
 3210TIP3    H1 9636   4.211   4.741   0.485  0.1826 -1.7301  1.3275
 3210TIP3    H2 9637   4.077   4.697   0.542  0.0511  0.1185  2.5242
 3211TIP3   OH2 9638   1.685   5.411   0.872  0.2676 -0.0069 -0.5833
 3211TIP3    H1 9639   1.682   5.470   0.796 -0.7429  1.1330  0.2852
 3211TIP3    H2 9640   1.623   5.451   0.934  0.5905 -1.2677  0.5746
 3212TIP3   OH2 9641   4.764   5.356   2.978  0.0234 -0.6120 -0.2425
 3212TIP3    H1 9642   4.731   5.371   2.889 -0.4723 -1.5606 -0.2344
 3212TIP3    H2 9643   4.858   5.373   2.972 -0.1358  0.1661 -0.7431
 3213TIP3   OH2 9644   4.474   2.583   1.187  0.0808  0.1788  0.0532
 3213TIP3    H1 9645   4.558   2.546   1.159  0.3634 -0.3473  1.5029
 3213TIP3    H2 9646   4.498   2.658   1.241 -0.3812  0.0722  0.4112
 3214TIP3   OH2 9647   4.131   3.649   0.145  0.2081  0.3196  0.1603
 3214TIP3    H1 9648   4.187   3.614   0.215  0.8704  0.7239 -0.1594
 3214TIP3    H2 9649   4.062   3.584   0.135  1.0164 -0.5438  0.0752
 3215TIP3   OH2 9650  -0.007   1.315   0.451  0.7063 -0.0092 -0.0868
 3215TIP3    H1 9651   0.021   1.313   0.359  1.0046  1.0794 -0.0321
 3215TIP3    H2 9652   0.012   1.404   0.480 -0.4394  0.0057  0.7062
 3216TIP3   OH2 9653   1.034   3.313   0.798  0.1807 -0.6795 -0.3890
 3216TIP3    H1 9654   1.016   3.281   0.709  2.0939  1.3931 -1.6143
 3216TIP3    H2 9655   1.129   3.323   0.800  0.1667 -0.6877  1.9401
 3217TIP3   OH2 9656   2.816   2.568   2.061 -0.1505  0.1300 -0.0418
 3217TIP3    H1 9657   2.908   2.578   2.087 -0.3276  1.0065  0.2558
 3217TIP3    H2 9658   2.768   2.568   2.144 -0.5984  1.6212 -0.2865
 3218TIP3   OH2 9659   5.276   1.618   2.429  0.1407 -0.4602  0.3896
 3218TIP3    H1 9660   5.253   1.532   2.394  0.2600  0.2512 -1.5354
 3218TIP3    H2 9661   5.217   1.679   2.385  2.6375  0.8918 -1.3014
 3219TIP3   OH2 9662   1.522   4.544   0.088  0.2059 -0.5889  0.3239
 3219TIP3    H1 9663   1.537   4.469   0.145  0.1559 -0.7368  0.1440
 3219TIP3    H2 9664   1.514   4.618   0.148 -1.0579 -0.9196  0.5967
 3220TIP3   OH2 9665   3.032   5.692   1.485  0.1406 -0.3095  0.7946
 3220TIP3    H1 9666   3.060   5.699   1.394  0.4074  0.3916  0.9286
 3220TIP3    H2 9667   3.033   5.782   1.518 -1.8974 -0.3012  0.9214
 3221TIP3   OH2 9668   2.364   0.844   1.654  0.6656  0.4677 -0.3386
 3221TIP3    H1 9669   2.452   0.818   1.626 -0.1369 -0.1777 -2.4274
 3221TIP3    H2 9670   2.335   0.905   1.587 -0.6562  0.3480  0.0979
 3222TIP3   OH2 9671   0.726   0.964   2.223  0.4639  0.1657  0.2099
 3222TIP3    H1 9672   0.817   0.975   2.251  1.0343  0.3153 -1.6089
 3222TIP3    H2 9673   0.724   0.996   2.133 -1.0681 -1.1974 -0.2926
 3223TIP3   OH2 9674   3.784   1.461   2.695  0.9858 -0.2129 -0.3677
 3223TIP3    H1 9675   3.865   1.488   2.739  0.0526 -0.9604  1.9232
 3223TIP3    H2 9676   3.802   1.372   2.666  1.4388  0.1123 -1.1169
 3224TIP3   OH2 9677   2.204   2.817   0.348 -0.8203 -0.2472 -0.5566
 3224TIP3    H1 9678   2.289   2.803   0.389 -1.2268 -1.5355 -0.1280
 3224TIP3    H2 9679   2.198   2.912   0.338  0.5030 -0.1127 -0.2566
 3225TIP3   OH2 9680   2.311   4.545   2.842  0.1797  1.0479 -0.2991
 3225TIP3    H1 9681   2.271   4.482   2.781  0.3234 -0.0719  0.7108
 3225TIP3    H2 9682   2.301   4.630   2.799  0.9540  0.2185 -2.2177
 3226TIP3   OH2 9683   5.593   3.981   3.045  0.3074  0.1996 -0.0054
 3226TIP3    H1 9684   5.513   3.996   2.994  0.2741 -0.9375 -0.3194
 3226TIP3    H2 9685   5.600   4.057   3.102 -1.3851 -0.0052  0.5263
 3227TIP3   OH2 9686   5.490   3.955   0.154 -0.2844  0.0769  0.0501
 3227TIP3    H1 9687   5.510   4.031   0.099  0.5672 -1.4103 -1.8439
 3227TIP3    H2 9688   5.395   3.950   0.154 -0.3475  1.0951  0.1265
 3228TIP3   OH2 9689   4.328   1.913   2.563 -0.2328 -0.1936 -0.1249
 3228TIP3    H1 9690   4.381   1.961   2.499 -1.5620  0.3647 -0.8511
 3228TIP3    H2 9691   4.288   1.982   2.617 -0.7085 -0.5630  0.0004
 3229TIP3   OH2 9692   6.362   5.021   2.685 -0.1705 -0.0896  0.6407
 3229TIP3    H1 9693   6.276   4.983   2.705 -0.7316  0.7694 -0.0641
 3229TIP3    H2 9694   6.398   5.046   2.770 -0.7258 -0.2308  0.9235
 3230TIP3   OH2 9695   4.146   4.785   4.100  0.9030  0.2067 -0.2554
 3230TIP3    H1 9696   4.135   4.878   4.077  0.4086  0.0514 -0.6535
 3230TIP3    H2 9697   4.078   4.769   4.166  0.8996  0.0893 -0.2879
 3231TIP3   OH2 9698   1.064   4.674   4.035 -0.1277  0.1451 -0.0321
 3231TIP3    H1 9699   0.990   4.684   4.094 -1.7688  0.0643 -1.9756
 3231TIP3    H2 9700   1.141   4.676   4.092 -1.5917  0.4547  2.0263
 3232TIP3   OH2 9701   1.185   3.153   1.459 -0.6921 -0.0791  0.0991
 3232TIP3    H1 9702   1.169   3.069   1.502 -1.0562  0.0146  0.1513
 3232TIP3    H2 9703   1.141   3.145   1.374  1.6586 -0.9957 -1.1107
 3233TIP3   OH2 9704   2.708   1.415   1.084  0.2988  0.1935 -0.1109
 3233TIP3    H1 9705   2.712   1.415   0.989 -2.0347  0.5108 -0.2601
 3233TIP3    H2 9706   2.685   1.325   1.108 -0.6653  0.4747  0.0413
 3234TIP3   OH2 9707   3.136   1.720   1.112  0.2900  0.2192 -0.0922
 3234TIP3    H1 9708   3.149   1.748   1.203 -1.2095 -0.0032  0.2266
 3234TIP3    H2 9709   3.122   1.625   1.119  1.8053 -0.0728 -0.7596
 3235TIP3   OH2 9710   1.629   1.947   0.099 -0.0642 -0.5807  0.1332
 3235TIP3    H1 9711   1.613   1.929   0.007  0.4255 -0.8839  0.1019
 3235TIP3    H2 9712   1.631   2.042   0.106 -0.0177 -0.5592 -0.1865
 3236TIP3   OH2 9713   2.514   2.292   3.126  0.2225 -0.0616  0.2454
 3236TIP3    H1 9714   2.568   2.367   3.101  2.4272 -0.4896  3.1398
 3236TIP3    H2 9715   2.430   2.330   3.151 -0.8916  0.6865 -3.8652
 3237TIP3   OH2 9716   3.151   5.476   4.481  0.2337  0.2993  0.3849
 3237TIP3    H1 9717   3.081   5.458   4.544 -0.7922  0.7205 -0.6075
 3237TIP3    H2 9718   3.130   5.564   4.447 -2.2379 -1.7318 -4.2701
 3238TIP3   OH2 9719   1.510   5.034   3.881  0.2512 -0.8386  0.1340
 3238TIP3    H1 9720   1.554   4.963   3.927 -0.0937 -0.0334  1.7651
 3238TIP3    H2 9721   1.417   5.018   3.896  0.0303 -1.3257 -1.4913
 3239TIP3   OH2 9722   5.734   1.635   1.723 -0.4019 -0.4156 -0.3210
 3239TIP3    H1 9723   5.733   1.635   1.819  0.6831 -0.8356 -0.2956
 3239TIP3    H2 9724   5.644   1.617   1.698 -1.0212  1.1419  0.5981
 3240TIP3   OH2 9725   3.050   4.679   1.771 -0.3283 -0.4266  0.1324
 3240TIP3    H1 9726   3.033   4.632   1.853  0.7121 -1.3335 -0.1498
 3240TIP3    H2 9727   2.987   4.751   1.771  0.9570  0.8375  2.7284
 3241TIP3   OH2 9728   2.494   0.421   3.683  0.0118  0.1163 -0.0601
 3241TIP3    H1 9729   2.577   0.428   3.636 -0.0092 -2.1077 -0.5389
 3241TIP3    H2 9730   2.427   0.429   3.614 -0.2462  2.0938  0.3465
 3242TIP3   OH2 9731   5.211   4.356   2.809  0.4018 -0.0819  0.9350
 3242TIP3    H1 9732   5.176   4.424   2.865 -2.6465  0.9530 -1.9208
 3242TIP3    H2 9733   5.195   4.274   2.857 -2.6681  0.6793  1.4226
 3243TIP3   OH2 9734   4.173   0.787   0.343  0.1981 -0.2973  0.6441
 3243TIP3    H1 9735   4.190   0.879   0.322  0.6837 -0.6169 -0.4436
 3243TIP3    H2 9736   4.081   0.773   0.320 -0.0970  0.0915  1.5300
 3244TIP3   OH2 9737   0.510   4.576   4.786  0.1881 -0.1276 -0.1133
 3244TIP3    H1 9738   0.545   4.493   4.819  0.7699  0.3272  0.4347
 3244TIP3    H2 9739   0.551   4.587   4.700  0.4951 -0.1686  0.0273
 3245TIP3   OH2 9740   5.549   3.534   2.282 -0.2290  0.4321 -0.8831
 3245TIP3    H1 9741   5.610   3.509   2.213 -1.1824 -0.6021 -1.3735
 3245TIP3    H2 9742   5.513   3.618   2.252  1.3571  1.3584 -0.2962
 3246TIP3   OH2 9743   2.392   1.388   4.308 -0.8971  0.6723  0.2740
 3246TIP3    H1 9744   2.422   1.478   4.297 -1.0689  0.6879 -0.0553
 3246TIP3    H2 9745   2.368   1.383   4.401  1.0629  0.3743  0.8300
 3247TIP3   OH2 9746   1.743   2.399   4.306 -0.2318  0.2150 -0.4289
 3247TIP3    H1 9747   1.660   2.436   4.333 -0.7429 -0.3025 -1.2365
 3247TIP3    H2 9748   1.799   2.403   4.384 -0.3885  2.2825 -0.3693
 3248TIP3   OH2 9749   1.091   1.811   1.752 -0.2428 -0.0994 -0.0141
 3248TIP3    H1 9750   1.066   1.859   1.673  1.2518  1.8121  0.5795
 3248TIP3    H2 9751   1.173   1.768   1.730 -0.1587 -0.1036  0.2917
 3249TIP3   OH2 9752   4.098   0.842   4.016 -0.1484 -0.2114  0.3218
 3249TIP3    H1 9753   4.062   0.789   3.945  2.4763 -0.8974 -0.6434
 3249TIP3    H2 9754   4.108   0.929   3.979  0.9090 -0.4898 -0.0936
 3250TIP3   OH2 9755   1.981   2.848   2.302  0.2768 -0.2838 -0.7975
 3250TIP3    H1 9756   1.903   2.794   2.292  0.0231 -0.2177  0.5349
 3250TIP3    H2 9757   2.019   2.819   2.386  2.3002 -1.0779 -1.9145
 3251TIP3   OH2 9758   2.823   2.899   3.567 -0.5794 -0.1339 -0.0662
 3251TIP3    H1 9759   2.777   2.843   3.504  2.3382 -2.2066 -0.5805
 3251TIP3    H2 9760   2.817   2.851   3.650  0.9645 -0.7040 -0.2524
 3252TIP3   OH2 9761   4.903   2.591   4.893 -0.2521  0.2935  0.1672
 3252TIP3    H1 9762   4.948   2.539   4.827 -0.9651 -1.0328  0.6799
 3252TIP3    H2 9763   4.967   2.601   4.964  0.2927  1.1657 -0.4339
 3253TIP3   OH2 9764   4.306   2.982   3.129  0.0305 -0.2103 -0.5678
 3253TIP3    H1 9765   4.297   3.004   3.036  0.6546  0.2428 -0.5263
 3253TIP3    H2 9766   4.361   3.051   3.165  0.8810 -1.0852 -0.1427
 3254TIP3   OH2 9767   5.655   0.150   0.885 -0.1449 -0.0472 -0.4594
 3254TIP3    H1 9768   5.738   0.190   0.912 -0.0142 -0.1825 -0.6617
 3254TIP3    H2 9769   5.611   0.219   0.834 -0.2777  0.1183 -0.1214
 3255TIP3   OH2 9770   2.559   5.195   4.232  0.2629 -0.2083  0.2376
 3255TIP3    H1 9771   2.612   5.142   4.292  2.4631  0.5028 -0.9672
 3255TIP3    H2 9772   2.543   5.139   4.157 -0.3787 -0.2730  0.4104
 3256TIP3   OH2 9773   1.126   3.282   0.332  0.0098  0.4785  0.2024
 3256TIP3    H1 9774   1.044   3.315   0.295 -0.1521  0.2504  0.3553
 3256TIP3    H2 9775   1.182   3.264   0.256  0.5833  2.3158  0.1494
 3257TIP3   OH2 9776   6.196   1.614   0.234  0.1797 -0.2365 -0.3112
 3257TIP3    H1 9777   6.175   1.522   0.220 -0.0091 -0.2095 -0.2014
 3257TIP3    H2 9778   6.270   1.612   0.295  0.5381 -0.3305 -0.7415
 3258TIP3   OH2 9779   1.500   4.706   4.304 -0.4006  0.0182 -0.8330
 3258TIP3    H1 9780   1.410   4.701   4.273 -1.4080  2.0419  1.4397
 3258TIP3    H2 9781   1.499   4.662   4.389  0.7805 -0.0720 -0.8457
 3259TIP3   OH2 9782   0.362   2.579   1.900 -0.0460  0.2029  0.1023
 3259TIP3    H1 9783   0.301   2.510   1.873 -1.1204  0.4429  1.7360
 3259TIP3    H2 9784   0.306   2.651   1.929  1.0182  0.6707  1.0993
 3260TIP3   OH2 9785   0.221   2.235   3.419 -0.5359 -0.0978  0.2816
 3260TIP3    H1 9786   0.194   2.160   3.472  0.7249 -0.6056  0.2482
 3260TIP3    H2 9787   0.166   2.229   3.340  0.4673 -1.8339 -0.3512
 3261TIP3   OH2 9788   2.921   2.237   2.259 -0.0684  0.4080 -0.3321
 3261TIP3    H1 9789   2.835   2.213   2.295  0.5168  0.4100  1.1590
 3261TIP3    H2 9790   2.982   2.179   2.304  0.6662 -0.0911 -1.9095
 3262TIP3   OH2 9791   5.580   3.313   1.248  0.5792 -0.3043 -0.1564
 3262TIP3    H1 9792   5.547   3.317   1.158  2.7015  0.8151 -0.9352
 3262TIP3    H2 9793   5.507   3.347   1.301  0.2842  1.8037 -1.7737
 3263TIP3   OH2 9794   3.724   4.556   2.816 -0.0372  0.0652  0.3934
 3263TIP3    H1 9795   3.754   4.567   2.906  1.7798 -0.9314 -0.0493
 3263TIP3    H2 9796   3.755   4.633   2.770 -1.8136  1.0672  0.7662
 3264TIP3   OH2 9797   3.000   0.679   4.778 -0.2403 -0.3839 -0.0951
 3264TIP3    H1 9798   2.920   0.692   4.727  0.3944 -0.2949 -1.1101
 3264TIP3    H2 9799   3.069   0.671   4.712  0.9472  1.8612  0.7439
 3265TIP3   OH2 9800   5.858   3.207   0.130  0.1600  0.2336 -0.6393
 3265TIP3    H1 9801   5.825   3.280   0.077 -3.5347  0.6596  1.8884
 3265TIP3    H2 9802   5.905   3.250   0.202  0.6623 -0.0984 -0.7607
 3266TIP3   OH2 9803   2.059   4.523   0.926 -0.4368  0.3611  0.3811
 3266TIP3    H1 9804   2.130   4.554   0.982 -0.3515  0.8603  0.0053
 3266TIP3    H2 9805   1.987   4.584   0.941 -1.0694 -0.5781  1.3267
 3267TIP3   OH2 9806   3.364   1.568   3.312 -0.5206 -0.8739 -0.6846
 3267TIP3    H1 9807   3.389   1.588   3.402  0.0433  0.1356 -1.0484
 3267TIP3    H2 9808   3.361   1.472   3.309  1.8728 -1.0280 -0.2103
 3268TIP3   OH2 9809   3.444   4.558   0.010  0.5659 -0.2807 -0.0665
 3268TIP3    H1 9810   3.361   4.572   0.055  1.0305 -1.4666  1.2053
 3268TIP3    H2 9811   3.440   4.618  -0.065 -0.8138  0.7231  0.7545
 3269TIP3   OH2 9812   5.477   3.193   5.092 -0.3291  0.0528  0.0897
 3269TIP3    H1 9813   5.481   3.133   5.167  2.1056  0.6902  0.5577
 3269TIP3    H2 9814   5.398   3.246   5.108 -0.2312 -0.2741  1.8745
 3270TIP3   OH2 9815   1.765   3.283   4.295  0.2946  0.4038 -0.0432
 3270TIP3    H1 9816   1.676   3.251   4.309  1.0235 -1.5984  0.3067
 3270TIP3    H2 9817   1.781   3.341   4.369 -0.1699 -0.4920  0.7871
 3271TIP3   OH2 9818   4.398   4.490   2.295  0.4620  0.1268  0.3193
 3271TIP3    H1 9819   4.477   4.488   2.349  0.0520  2.5168  1.1344
 3271TIP3    H2 9820   4.396   4.578   2.259 -1.2288 -0.2661 -0.6521
 3272TIP3   OH2 9821   0.483   1.854   3.702  0.1580 -0.2306 -0.4792
 3272TIP3    H1 9822   0.542   1.854   3.627  0.3490  0.2294 -0.3350
 3272TIP3    H2 9823   0.403   1.815   3.670  0.2115  0.0353 -0.9458
 3273TIP3   OH2 9824   5.270   5.935   2.364  0.6184  0.5155  0.5702
 3273TIP3    H1 9825   5.196   5.888   2.401  0.1598  1.4859  0.9080
 3273TIP3    H2 9826   5.269   6.020   2.407 -1.8896  3.0124 -3.7917
 3274TIP3   OH2 9827   3.033   0.646   3.334  0.0301  0.3500 -0.1712
 3274TIP3    H1 9828   3.018   0.690   3.250 -1.2749 -1.1465 -0.7624
 3274TIP3    H2 9829   3.019   0.715   3.399 -2.3278  0.7924 -1.0437
 3275TIP3   OH2 9830   5.268   2.246   2.507  0.0493  0.1008  0.5799
 3275TIP3    H1 9831   5.352   2.275   2.542  0.2031 -0.1261  0.3992
 3275TIP3    H2 9832   5.284   2.156   2.476 -0.6098 -0.4736  1.8305
 3276TIP3   OH2 9833   0.581   0.363   1.541  0.0187  0.5032 -0.3290
 3276TIP3    H1 9834   0.602   0.295   1.477  0.2187 -0.3644  0.6289
 3276TIP3    H2 9835   0.529   0.318   1.608 -3.8242  2.2250 -1.8629
 3277TIP3   OH2 9836   5.617   4.185   4.049  0.1377  0.1369 -1.1976
 3277TIP3    H1 9837   5.629   4.102   4.003  0.0132  0.3260 -1.5763
 3277TIP3    H2 9838   5.525   4.185   4.077  0.8082 -1.1343  1.3574
 3278TIP3   OH2 9839   6.016   2.726   2.217 -0.0350  0.6377  0.2687
 3278TIP3    H1 9840   6.077   2.765   2.279  0.9258  0.0319 -0.2651
 3278TIP3    H2 9841   6.006   2.791   2.147 -0.4032  0.9417  0.5994
 3279TIP3   OH2 9842   5.246   4.692   0.157 -0.5563  0.4233  0.1449
 3279TIP3    H1 9843   5.217   4.667   0.245 -3.3855 -0.6940 -0.9778
 3279TIP3    H2 9844   5.311   4.761   0.172  0.3245 -0.8459  3.1240
 3280TIP3   OH2 9845   4.231   2.160   2.677  0.3301  0.2285 -0.5464
 3280TIP3    H1 9846   4.194   2.219   2.611  2.5334  2.6164  0.2032
 3280TIP3    H2 9847   4.174   2.171   2.753 -1.8293 -2.0421 -1.6762
 3281TIP3   OH2 9848   6.154   1.718   0.557 -0.1628 -0.6633 -0.0574
 3281TIP3    H1 9849   6.159   1.768   0.638  1.2184 -1.4521  0.3938
 3281TIP3    H2 9850   6.080   1.659   0.569  0.2083 -0.9722  0.7551
 3282TIP3   OH2 9851   4.364   3.043   2.835  0.4665 -0.4680 -0.1378
 3282TIP3    H1 9852   4.452   3.020   2.866  1.5094  0.1785 -2.4496
 3282TIP3    H2 9853   4.364   3.138   2.832 -0.0012 -0.4869 -0.9956
 3283TIP3   OH2 9854   4.648   1.429   3.472 -0.0744 -0.0808  0.1131
 3283TIP3    H1 9855   4.555   1.451   3.466 -0.0108 -0.1429 -1.5920
 3283TIP3    H2 9856   4.654   1.341   3.434  0.8052  0.3486 -0.7838
 3284TIP3   OH2 9857   3.979   5.088   1.097 -1.0614  0.2105  0.6921
 3284TIP3    H1 9858   4.021   5.119   1.017 -1.6668 -0.1372  0.2325
 3284TIP3    H2 9859   3.961   5.168   1.147  0.2965  0.3498  0.9779
 3285TIP3   OH2 9860   1.242   4.538   2.930 -0.2182  0.6818  0.3352
 3285TIP3    H1 9861   1.207   4.626   2.941 -1.3985  0.0525  1.9617
 3285TIP3    H2 9862   1.238   4.499   3.017 -0.6705 -1.3145 -0.5083
 3286TIP3   OH2 9863   3.878   2.952   1.825  0.3242 -0.4394  0.7032
 3286TIP3    H1 9864   3.853   2.860   1.815 -1.0382 -0.1318  1.0559
 3286TIP3    H2 9865   3.857   2.992   1.741 -1.1748 -0.0311  1.2253
 3287TIP3   OH2 9866   3.106   4.808   1.269 -0.3748 -0.0845 -0.0980
 3287TIP3    H1 9867   3.174   4.862   1.309  0.9821 -0.6139 -1.5808
 3287TIP3    H2 9868   3.055   4.869   1.215 -1.4799  0.4146  1.4481
 3288TIP3   OH2 9869   2.877   5.418   1.175  0.2377 -0.0100  0.3898
 3288TIP3    H1 9870   2.809   5.470   1.131  0.7454  1.1888  0.9543
 3288TIP3    H2 9871   2.908   5.358   1.108  0.9679  1.7437 -0.9391
 3289TIP3   OH2 9872   5.158   4.190   0.592 -0.0636 -0.2422  0.3362
 3289TIP3    H1 9873   5.174   4.098   0.616  1.5087 -0.5686 -1.6992
 3289TIP3    H2 9874   5.239   4.235   0.615 -0.5370  0.4968  0.5744
 3290TIP3   OH2 9875   1.000   2.602   4.230  0.5852  0.2276  0.0136
 3290TIP3    H1 9876   0.916   2.589   4.273  0.8587  2.2185  1.2285
 3290TIP3    H2 9877   0.978   2.630   4.141 -0.0135 -0.1274  0.0468
 3291TIP3   OH2 9878   1.884   4.005   0.850  0.8760 -0.1651  0.3894
 3291TIP3    H1 9879   1.851   4.069   0.786  0.7373 -0.7844 -0.1763
 3291TIP3    H2 9880   1.973   4.034   0.870  0.4615  0.7740  0.9128
 3292TIP3   OH2 9881   1.326   2.300   2.850  0.8127 -0.1565 -0.3992
 3292TIP3    H1 9882   1.309   2.394   2.849 -0.2040 -0.3239 -1.5039
 3292TIP3    H2 9883   1.295   2.271   2.936 -0.2647  0.3053 -0.6091
 3293TIP3   OH2 9884   1.961   5.831   2.266  0.2547 -0.8261 -0.2973
 3293TIP3    H1 9885   1.908   5.820   2.344 -1.1683  1.1317 -0.9242
 3293TIP3    H2 9886   1.899   5.835   2.194  0.9969  2.8841 -0.9307
 3294TIP3   OH2 9887   0.694   5.505   1.591 -0.2353  0.1385 -0.1920
 3294TIP3    H1 9888   0.716   5.416   1.566 -0.7912  0.0104 -0.2252
 3294TIP3    H2 9889   0.659   5.545   1.511 -0.9995  0.0557  0.0978
 3295TIP3   OH2 9890   0.622   5.821   3.612 -0.4417  0.2106 -0.0835
 3295TIP3    H1 9891   0.678   5.831   3.535  0.8936 -0.0567  0.8253
 3295TIP3    H2 9892   0.679   5.785   3.680 -1.0410  2.2061  1.6247
 3296TIP3   OH2 9893   5.444   5.375   2.895  0.8666  0.5335  0.1543
 3296TIP3    H1 9894   5.393   5.294   2.882  0.0468  0.9704  0.5459
 3296TIP3    H2 9895   5.411   5.410   2.977 -0.6310  2.5699 -1.2047
 3297TIP3   OH2 9896   3.394   5.711   1.929  0.5966 -0.3345 -0.1182
 3297TIP3    H1 9897   3.371   5.620   1.911  0.6494 -0.0673 -1.6088
 3297TIP3    H2 9898   3.423   5.746   1.845  0.9654  0.9531  0.5205
 3298TIP3   OH2 9899   1.694   5.620   0.706  0.5477 -0.2025  0.2935
 3298TIP3    H1 9900   1.701   5.713   0.727 -0.2954  0.1894 -0.9970
 3298TIP3    H2 9901   1.760   5.606   0.638 -0.2456 -0.2007 -0.5013
 3299TIP3   OH2 9902   5.687   3.234   3.222  0.1640 -0.1064 -0.0378
 3299TIP3    H1 9903   5.700   3.281   3.305  0.2646  0.0912 -0.1650
 3299TIP3    H2 9904   5.714   3.297   3.155 -1.6194  0.4152 -0.3219
 3300TIP3   OH2 9905   6.317   0.659   4.392 -0.2103 -0.1762 -0.0957
 3300TIP3    H1 9906   6.311   0.629   4.301  1.0438 -1.0035  0.0621
 3300TIP3    H2 9907   6.308   0.754   4.386 -2.6232 -0.3811 -0.7932
 3301TIP3   OH2 9908   1.723   3.929   4.904  0.3459  0.6080 -0.3362
 3301TIP3    H1 9909   1.692   4.017   4.885 -0.5524  0.6186  1.0689
 3301TIP3    H2 9910   1.688   3.876   4.832 -1.1256  1.0050  0.0468
 3302TIP3   OH2 9911   3.793   4.638   3.077 -0.6723 -0.1045  0.3004
 3302TIP3    H1 9912   3.814   4.637   3.170 -0.9571 -0.8980  0.3658
 3302TIP3    H2 9913   3.699   4.658   3.073 -1.0405 -1.7226  0.2839
 3303TIP3   OH2 9914   2.696   0.084   2.789 -0.5390 -0.1558  0.4363
 3303TIP3    H1 9915   2.659   0.052   2.872 -0.1875 -0.3507  0.5181
 3303TIP3    H2 9916   2.784   0.047   2.786  0.3079  1.6930  1.0786
 3304TIP3   OH2 9917   4.130   0.926   1.986  0.1130 -0.7468 -0.5741
 3304TIP3    H1 9918   4.085   0.842   1.993 -0.0188 -0.6569 -0.3144
 3304TIP3    H2 9919   4.173   0.937   2.070 -0.8839  0.0117 -0.1374
 3305TIP3   OH2 9920   0.291   3.884   4.325 -0.0217  0.4136 -0.1980
 3305TIP3    H1 9921   0.312   3.793   4.346 -1.8588  0.0072 -0.0100
 3305TIP3    H2 9922   0.214   3.904   4.378  1.0370  2.4836  0.6500
 3306TIP3   OH2 9923   2.864   4.578   1.185 -0.3182  0.1592 -0.0669
 3306TIP3    H1 9924   2.921   4.505   1.160  1.2162  1.6277 -1.0790
 3306TIP3    H2 9925   2.876   4.586   1.280  2.8687  1.6291 -0.4351
 3307TIP3   OH2 9926   0.148   1.326   2.615  0.2831  0.0483 -0.5952
 3307TIP3    H1 9927   0.148   1.422   2.621 -0.6857  0.2078 -2.4644
 3307TIP3    H2 9928   0.237   1.301   2.637  0.2326  1.2569  1.2294
 3308TIP3   OH2 9929   0.536   3.197   1.213  0.2871  0.6950 -0.6866
 3308TIP3    H1 9930   0.443   3.214   1.196 -0.1770  0.3909  1.2981
 3308TIP3    H2 9931   0.570   3.282   1.243  0.4571  0.5903 -0.5851
 3309TIP3   OH2 9932   1.260   5.316   2.584  0.3865  0.5036 -0.2808
 3309TIP3    H1 9933   1.296   5.230   2.602 -0.5200  0.4146  1.2865
 3309TIP3    H2 9934   1.169   5.300   2.560  0.4152  0.9890 -0.7619
 3310TIP3   OH2 9935   5.294   3.771   3.048 -0.5365  0.1755  0.5089
 3310TIP3    H1 9936   5.252   3.698   3.003  3.0142 -1.5565 -0.3771
 3310TIP3    H2 9937   5.320   3.831   2.978  0.1873  0.2085  0.7979
 3311TIP3   OH2 9938   0.157   2.947   3.102  0.5015 -0.6905  0.2515
 3311TIP3    H1 9939   0.199   2.871   3.061 -1.0295 -0.5082 -1.7518
 3311TIP3    H2 9940   0.227   3.012   3.108  1.2784 -1.4749 -0.0778
 3312TIP3   OH2 9941   5.965   2.733   0.386  0.3075  0.0775  0.5700
 3312TIP3    H1 9942   5.930   2.818   0.412 -4.2751 -1.3495  0.0069
 3312TIP3    H2 9943   5.951   2.676   0.461 -2.0693 -1.3607 -0.8362
 3313TIP3   OH2 9944   2.592   5.420   0.363  0.0219 -0.2993 -0.1424
 3313TIP3    H1 9945   2.650   5.389   0.434 -0.7659 -0.9223  0.2457
 3313TIP3    H2 9946   2.537   5.486   0.404  1.2895  1.2487 -0.8277
 3314TIP3   OH2 9947   3.720   3.132   0.684  0.6780  0.4631  0.0954
 3314TIP3    H1 9948   3.634   3.112   0.722  1.8683 -1.1952  2.1157
 3314TIP3    H2 9949   3.755   3.201   0.739  1.1313  0.2543  0.0744
 3315TIP3   OH2 9950   0.336   5.936   4.360  0.4881 -0.4432  0.1288
 3315TIP3    H1 9951   0.248   5.904   4.379 -0.4667  1.1033 -1.3697
 3315TIP3    H2 9952   0.337   6.026   4.394  1.5691 -0.4929  0.2909
 3316TIP3   OH2 9953   1.774   5.924   1.364  0.1556 -0.5116 -0.4016
 3316TIP3    H1 9954   1.777   5.831   1.385  0.1524 -0.3222  0.4855
 3316TIP3    H2 9955   1.848   5.962   1.411 -0.9031  0.2085  0.7439
 3317TIP3   OH2 9956   2.643   1.851   3.131 -0.0054  0.0960  0.1757
 3317TIP3    H1 9957   2.562   1.902   3.131 -0.2125 -0.2277  0.5529
 3317TIP3    H2 9958   2.625   1.778   3.191  0.4524 -0.1531  0.0114
 3318TIP3   OH2 9959   6.345   4.066   0.028 -0.2651 -0.1037  0.1937
 3318TIP3    H1 9960   6.300   4.149   0.046 -1.2062 -0.3924 -0.7784
 3318TIP3    H2 9961   6.279   3.998   0.044  0.1771 -0.6039 -0.0713
 3319TIP3   OH2 9962   6.156   3.796   1.942  0.0240  0.3599 -0.5267
 3319TIP3    H1 9963   6.169   3.847   2.022  0.4957 -0.2066 -0.2361
 3319TIP3    H2 9964   6.227   3.731   1.943 -1.1834 -1.0018 -0.3340
 3320TIP3   OH2 9965   3.142   2.348   1.146  0.1702 -0.0246 -0.3262
 3320TIP3    H1 9966   3.168   2.263   1.182  2.5600  0.8176  0.1362
 3320TIP3    H2 9967   3.186   2.412   1.202 -0.6647  1.4976 -1.3346
 3321TIP3   OH2 9968   4.601   3.451   2.471  0.0478  0.3137 -0.5059
 3321TIP3    H1 9969   4.649   3.444   2.388  0.0052 -1.7915 -0.4238
 3321TIP3    H2 9970   4.526   3.506   2.451  1.2781  1.8306 -1.2207
 3322TIP3   OH2 9971   0.478   1.896   1.192  0.5377  0.3143  0.2933
 3322TIP3    H1 9972   0.405   1.836   1.211  1.3824 -0.3375  1.6804
 3322TIP3    H2 9973   0.509   1.868   1.106 -1.2542  1.0656 -0.6596
 3323TIP3   OH2 9974   0.519   2.521   4.661  0.4515  0.4110  0.0380
 3323TIP3    H1 9975   0.460   2.496   4.732  2.1369 -1.6812  0.8137
 3323TIP3    H2 9976   0.469   2.584   4.610 -2.6051 -1.4904  0.4138
 3324TIP3   OH2 9977   4.621   0.217   1.628 -0.6704 -0.0238  0.2849
 3324TIP3    H1 9978   4.547   0.177   1.674 -1.3110  0.3811 -0.3745
 3324TIP3    H2 9979   4.591   0.305   1.606 -0.0642  0.0760 -0.1732
 3325TIP3   OH2 9980   3.824   0.502   4.004  0.6926 -0.2266 -0.2902
 3325TIP3    H1 9981   3.853   0.533   4.090 -1.1004 -2.5337  1.2889
 3325TIP3    H2 9982   3.819   0.407   4.014 -4.2138 -0.3392 -1.2462
 3326TIP3   OH2 9983   4.043   5.762   3.938  0.0180 -0.4742  0.3504
 3326TIP3    H1 9984   4.056   5.853   3.912 -1.6191  0.1844  1.7261
 3326TIP3    H2 9985   4.119   5.742   3.993 -0.2952  0.5121  1.1643
 3327TIP3   OH2 9986   5.737   1.912   4.395 -0.5846 -0.7405 -0.0424
 3327TIP3    H1 9987   5.683   1.988   4.416  0.0319 -0.0780 -0.7806
 3327TIP3    H2 9988   5.699   1.840   4.446 -1.9371 -0.2130 -0.2673
 3328TIP3   OH2 9989   1.388   1.022   2.153 -0.7321  0.1642 -0.5588
 3328TIP3    H1 9990   1.369   1.049   2.063  1.7035  0.7010 -0.9944
 3328TIP3    H2 9991   1.400   1.104   2.200 -1.0946 -0.1263  0.0421
 3329TIP3   OH2 9992   1.021   3.331   5.067 -0.0554 -0.3463  0.1601
 3329TIP3    H1 9993   1.004   3.387   5.143  1.4580  0.2061  0.1216
 3329TIP3    H2 9994   0.999   3.386   4.991 -0.0990 -0.3558  0.1663
 3330TIP3   OH2 9995   5.495   5.728   2.352  0.6828 -0.3110  0.2072
 3330TIP3    H1 9996   5.442   5.790   2.402 -0.5899 -0.5791 -0.7269
 3330TIP3    H2 9997   5.461   5.736   2.262  0.0908 -2.7181  0.1590
 3331TIP3   OH2 9998   0.529   4.187   1.673  0.2446 -0.2437 -0.0112
 3331TIP3    H1 9999   0.611   4.204   1.627 -0.0936  1.5992  0.0065
 3331TIP3    H210000   0.472   4.146   1.608  0.7183 -0.2985 -0.3936
 3332TIP3   OH210001   0.696   4.091   2.988  0.5474  0.9720  0.0339
 3332TIP3    H110002   0.635   4.163   2.969 -1.4006 -0.2755  1.1883
 3332TIP3    H210003   0.668   4.059   3.074 -0.3206 -2.7191 -1.4642
 3333TIP3   OH210004   1.556   4.362   0.704  0.4780 -0.6003 -0.0174
 3333TIP3    H110005   1.491   4.429   0.682  0.9460 -0.9831 -2.9355
 3333TIP3    H210006   1.611   4.403   0.771 -0.5610  1.1085 -0.1578
 3334TIP3   OH210007   4.866   1.641   4.202 -0.1567 -0.9001 -0.0060
 3334TIP3    H110008   4.881   1.547   4.199 -0.6712 -0.9890  0.1537
 3334TIP3    H210009   4.824   1.657   4.286 -1.2797 -0.7153 -0.5837
 3335TIP3   OH210010   5.346   1.003   3.608 -0.2826 -0.3818  0.1521
 3335TIP3    H110011   5.303   1.083   3.579 -0.9382 -0.4289  0.9399
 3335TIP3    H210012   5.403   0.977   3.535 -1.7175 -0.4178 -0.9982
 3336TIP3   OH210013   1.054   5.570   2.417 -0.8510  0.4152 -0.3763
 3336TIP3    H110014   1.126   5.538   2.362  0.0053  1.8375 -0.1159
 3336TIP3    H210015   1.006   5.632   2.361 -1.4982 -0.0175 -0.3231
 3337TIP3   OH210016   4.773   1.317   1.841 -0.3377  0.0596 -0.2545
 3337TIP3    H110017   4.788   1.227   1.811 -1.3121 -0.2809  0.2562
 3337TIP3    H210018   4.697   1.346   1.792 -0.0708  0.5813 -0.3589
 3338TIP3   OH210019   5.914   5.118   4.272 -0.3800 -0.8292 -0.3818
 3338TIP3    H110020   5.850   5.046   4.271 -0.7467 -0.5049 -1.2395
 3338TIP3    H210021   5.999   5.074   4.277 -0.6678 -1.2548  1.2659
 3339TIP3   OH210022   2.086   4.148   0.255 -0.3000 -0.5863  0.3177
 3339TIP3    H110023   2.176   4.157   0.224  0.0792 -0.3687  1.4245
 3339TIP3    H210024   2.086   4.191   0.341 -1.4965 -0.4543  0.2681
 3340TIP3   OH210025   5.982   2.769   1.530 -0.0982  0.2828 -0.3911
 3340TIP3    H110026   6.019   2.688   1.563  1.4136  0.2286 -2.1042
 3340TIP3    H210027   5.922   2.741   1.461  1.9692  0.6087 -2.4418
 3341TIP3   OH210028   1.588   4.495   1.916  0.3564  0.1259  0.1263
 3341TIP3    H110029   1.530   4.450   1.978 -0.0736 -0.4949 -0.6976
 3341TIP3    H210030   1.579   4.445   1.835  0.4620  1.2538 -0.6019
 3342TIP3   OH210031   0.675   2.050   5.158  0.1015 -0.7102 -0.2815
 3342TIP3    H110032   0.641   1.965   5.188  2.8875 -1.4857  1.0609
 3342TIP3    H210033   0.615   2.077   5.089 -0.2681 -4.3398 -1.5909
 3343TIP3   OH210034   0.820   1.306   3.974 -0.1821 -0.0890 -0.2661
 3343TIP3    H110035   0.833   1.397   4.002 -0.6230 -0.6472  1.9228
 3343TIP3    H210036   0.909   1.271   3.969  0.0334  0.5791 -1.6987
 3344TIP3   OH210037   3.902   2.049   1.515 -0.1090  0.1254 -0.1339
 3344TIP3    H110038   3.850   2.122   1.484 -0.6927 -0.5969 -0.8686
 3344TIP3    H210039   3.926   2.073   1.605 -0.3919  1.1509 -0.3276
 3345TIP3   OH210040   0.862   2.937   1.586  0.4578  0.0238  0.3523
 3345TIP3    H110041   0.881   2.994   1.661  1.3463  1.6110 -1.0279
 3345TIP3    H210042   0.794   2.984   1.537  1.0623 -0.1850 -0.7102
 3346TIP3   OH210043   5.954   3.893   4.370  0.1397 -0.4626  0.1403
 3346TIP3    H110044   6.036   3.944   4.370  0.3718 -0.7429  2.3262
 3346TIP3    H210045   5.893   3.945   4.318  0.7825  1.3949  1.1645
 3347TIP3   OH210046   4.512   2.417   2.268  0.3735 -0.5589 -0.3580
 3347TIP3    H110047   4.487   2.450   2.354 -1.1754 -0.0764 -0.9535
 3347TIP3    H210048   4.578   2.480   2.237  0.5005 -0.4008  0.2224
 3348TIP3   OH210049   0.062   0.864   1.887  0.1692  0.8254 -0.1351
 3348TIP3    H110050   0.078   0.877   1.980  0.6240  0.7929 -0.2058
 3348TIP3    H210051  -0.031   0.884   1.875 -0.0601  0.1209  0.4492
 3349TIP3   OH210052   0.972   4.830   0.276  0.0296 -0.0831 -0.8908
 3349TIP3    H110053   0.882   4.861   0.263  0.1014  0.0421 -1.0977
 3349TIP3    H210054   1.024   4.910   0.284 -0.0945 -0.1361  0.8541
 3350TIP3   OH210055   1.641   0.330   4.479  0.7295 -0.8605  0.4681
 3350TIP3    H110056   1.583   0.354   4.406  0.9571 -3.0385 -0.5096
 3350TIP3    H210057   1.725   0.369   4.456  0.5901 -0.8512 -0.0506
 3351TIP3   OH210058   5.957   4.810   0.696 -0.7090 -0.0293  0.4576
 3351TIP3    H110059   5.939   4.899   0.667 -0.3559  0.0917  0.6029
 3351TIP3    H210060   6.051   4.798   0.679 -0.5683 -0.0729  1.2368
 3352TIP3   OH210061   3.627   5.957   0.419 -0.0047  0.3281 -0.3229
 3352TIP3    H110062   3.630   5.918   0.332  0.5938 -0.1763 -0.0823
 3352TIP3    H210063   3.713   5.938   0.457 -0.1228  0.8818  0.2300
 3353TIP3   OH210064   3.050   1.981   0.709 -0.0469  0.0949 -0.1700
 3353TIP3    H110065   3.043   1.895   0.669  0.8264 -0.9680  1.7887
 3353TIP3    H210066   3.025   1.967   0.801  2.3994  1.3603  0.7958
 3354TIP3   OH210067   5.498   4.261   2.203  0.0980  0.3781  0.3996
 3354TIP3    H110068   5.408   4.292   2.200 -0.2381 -0.6480 -1.0794
 3354TIP3    H210069   5.540   4.300   2.126 -0.3089 -2.5601 -1.4804
 3355TIP3   OH210070   4.519   4.173   1.831 -0.7835 -0.7725 -0.2620
 3355TIP3    H110071   4.466   4.252   1.831 -0.7414 -0.7414  0.1890
 3355TIP3    H210072   4.526   4.148   1.924  1.0689 -0.0456 -0.1581
 3356TIP3   OH210073   2.399   3.794   3.324 -0.8730 -0.4179  0.9832
 3356TIP3    H110074   2.489   3.770   3.303 -1.5098 -2.1140 -0.0154
 3356TIP3    H210075   2.354   3.798   3.239 -1.9002 -0.3417  1.5098
 3357TIP3   OH210076   1.207   0.058   4.287  0.4419 -0.4529 -0.0029
 3357TIP3    H110077   1.119   0.063   4.251 -0.2433 -0.6054  1.5840
 3357TIP3    H210078   1.255   0.129   4.243 -0.6702  0.1140 -0.3354
 3358TIP3   OH210079   4.264   1.161   3.156  0.4533 -0.0648  0.5460
 3358TIP3    H110080   4.347   1.140   3.112 -0.3765 -2.2293 -0.1031
 3358TIP3    H210081   4.213   1.080   3.152 -1.3948  0.9676  1.6616
 3359TIP3   OH210082   1.428   1.509   2.886 -0.1079 -0.4724  0.3949
 3359TIP3    H110083   1.386   1.564   2.953  0.0807 -0.3418  0.4077
 3359TIP3    H210084   1.512   1.552   2.869 -0.5410  0.0208 -0.6006
 3360TIP3   OH210085   4.511   2.773   2.371  0.4771 -0.1775  0.0161
 3360TIP3    H110086   4.473   2.702   2.423  0.0193  0.5404  0.6871
 3360TIP3    H210087   4.455   2.779   2.294  1.6256 -1.7771 -1.0004
 3361TIP3   OH210088   5.189   4.763   4.928  0.0953 -0.5605 -0.6092
 3361TIP3    H110089   5.219   4.853   4.941 -1.4700 -0.1678  0.6032
 3361TIP3    H210090   5.151   4.762   4.840  0.2819 -0.0839 -0.6972
 3362TIP3   OH210091   4.027   4.801   5.134 -0.2028 -0.0312  0.4953
 3362TIP3    H110092   4.012   4.885   5.091 -2.0948  0.0736  1.2485
 3362TIP3    H210093   4.065   4.746   5.066 -1.1599  0.7485 -0.7230
 3363TIP3   OH210094   1.204   5.175   3.748 -0.5671  0.0253 -0.1062
 3363TIP3    H110095   1.115   5.186   3.714 -0.2526  0.8305 -0.7122
 3363TIP3    H210096   1.228   5.086   3.723 -0.9698  0.0199 -0.4980
 3364TIP3   OH210097   6.097   0.505   4.595 -0.1926 -0.9808 -0.0962
 3364TIP3    H110098   6.148   0.585   4.603 -1.4176 -0.1066 -0.7389
 3364TIP3    H210099   6.040   0.504   4.672  0.1379 -1.4762  0.1484
 3365TIP3   OH210100   2.608   1.899   0.607  0.0421  0.1828  0.0683
 3365TIP3    H110101   2.528   1.934   0.566 -0.2103 -0.4700  0.0032
 3365TIP3    H210102   2.664   1.876   0.533 -0.5632 -1.3471  0.0599
 3366TIP3   OH210103   4.278   4.545   0.127 -0.4793  0.0957 -0.0448
 3366TIP3    H110104   4.297   4.635   0.102  0.8115 -0.1706 -0.0996
 3366TIP3    H210105   4.185   4.545   0.151 -1.1393  0.9319 -2.3090
 3367TIP3   OH210106   3.307   1.315   0.134  0.1582  0.8218  0.1801
 3367TIP3    H110107   3.347   1.402   0.128 -1.2479  1.4655 -0.3615
 3367TIP3    H210108   3.334   1.270   0.055  1.7923  0.3417  0.9800
 3368TIP3   OH210109   4.779   1.422   2.348 -0.4237  0.0004 -0.1779
 3368TIP3    H110110   4.853   1.393   2.294 -0.0575  3.0139 -1.4745
 3368TIP3    H210111   4.733   1.485   2.294 -3.2549 -0.8198  1.1182
 3369TIP3   OH210112   6.065   3.251   1.440 -0.2432  0.0067 -0.2805
 3369TIP3    H110113   6.096   3.163   1.464 -3.2393 -0.9777  0.3990
 3369TIP3    H210114   6.096   3.264   1.351 -0.5754 -2.2260 -0.7904
 3370TIP3   OH210115   2.592   1.233   5.164 -0.5847 -0.1789  0.4798
 3370TIP3    H110116   2.520   1.193   5.115 -0.5527 -0.0900  0.3609
 3370TIP3    H210117   2.612   1.169   5.232 -0.1710 -0.6161 -0.0420
 3371TIP3   OH210118   1.664   1.871   4.394 -0.5318  0.3342 -1.2160
 3371TIP3    H110119   1.615   1.953   4.379 -0.3267  0.5627 -0.6563
 3371TIP3    H210120   1.699   1.849   4.308 -1.2466  0.4084 -1.5392
 3372TIP3   OH210121   5.395   0.214   1.598  0.0196 -0.3328 -0.1724
 3372TIP3    H110122   5.351   0.217   1.513 -1.3314 -0.7941  0.4806
 3372TIP3    H210123   5.361   0.134   1.640 -0.7712  0.8441  1.5311
 3373TIP3   OH210124   0.367   3.888   5.120 -0.6679 -0.4471  0.0835
 3373TIP3    H110125   0.420   3.873   5.041 -0.1469  3.1413 -0.3935
 3373TIP3    H210126   0.405   3.828   5.184  1.5912 -0.6407 -1.2815
 3374TIP3   OH210127   1.251   1.608   1.412 -0.0543  0.7322 -0.2646
 3374TIP3    H110128   1.200   1.678   1.372 -1.5453 -0.0305  0.2301
 3374TIP3    H210129   1.203   1.528   1.391  0.7748  0.0158  0.4755
 3375TIP3   OH210130   5.141   0.924   2.452  0.1885 -0.3050  0.1295
 3375TIP3    H110131   5.127   0.844   2.502  0.1942 -0.2998  0.1395
 3375TIP3    H210132   5.060   0.973   2.462 -0.4095 -0.9902 -1.1489
 3376TIP3   OH210133   2.922   5.247   2.793  0.1205  0.1505  0.3225
 3376TIP3    H110134   2.995   5.196   2.758 -0.3183 -0.1372 -0.2012
 3376TIP3    H210135   2.912   5.320   2.732  0.4728  0.6207  0.8318
 3377TIP3   OH210136   4.248   3.840   2.849  0.6320  0.0747  0.2092
 3377TIP3    H110137   4.231   3.786   2.772  0.7322  0.3744 -0.0256
 3377TIP3    H210138   4.291   3.918   2.814  0.2991  0.4002  0.5197
 3378TIP3   OH210139   0.824   3.943   1.225  0.1777 -0.1411 -0.4419
 3378TIP3    H110140   0.815   4.024   1.175 -0.2995 -0.3062 -0.6306
 3378TIP3    H210141   0.850   3.878   1.160  0.5934 -0.1289 -0.2842
 3379TIP3   OH210142   4.927   0.823   4.403  0.7912  0.2897 -0.4945
 3379TIP3    H110143   5.007   0.841   4.354  0.4368 -0.7414 -1.5053
 3379TIP3    H210144   4.942   0.862   4.489  1.0294  3.0428 -1.6820
 3380TIP3   OH210145   1.944   0.827   1.720  0.2097  0.3879  0.1008
 3380TIP3    H110146   2.008   0.806   1.787 -0.9559  0.8379  1.4062
 3380TIP3    H210147   1.894   0.901   1.756 -0.0736  1.0401 -1.5105
 3381TIP3   OH210148   5.174   4.712   4.457  0.7198  0.3057  0.0910
 3381TIP3    H110149   5.166   4.635   4.513  0.2780 -0.0908 -0.5128
 3381TIP3    H210150   5.146   4.683   4.370 -0.3885  1.3812  0.0537
 3382TIP3   OH210151   4.649   5.673   2.887 -0.7143 -0.6487 -0.7902
 3382TIP3    H110152   4.664   5.749   2.943  1.7173 -1.4783 -0.1947
 3382TIP3    H210153   4.677   5.701   2.800 -1.5128 -0.3254 -0.9462
 3383TIP3   OH210154   3.148   3.326   1.440  0.0880  0.0851  0.0541
 3383TIP3    H110155   3.181   3.413   1.460 -1.4817  0.5257  0.9782
 3383TIP3    H210156   3.126   3.328   1.347  0.4237  0.5508 -0.0138
 3384TIP3   OH210157   4.759   4.534   3.038 -0.4851 -0.4871 -0.1060
 3384TIP3    H110158   4.692   4.595   3.006 -0.6856 -0.5270  0.2275
 3384TIP3    H210159   4.812   4.586   3.098 -0.5661 -0.6009  0.0662
 3385TIP3   OH210160   4.039   1.221   1.696  0.4405  0.4886  0.1059
 3385TIP3    H110161   3.982   1.273   1.753  1.6801  0.4447  1.4277
 3385TIP3    H210162   3.980   1.188   1.628 -1.7211 -1.6577  2.7624
 3386TIP3   OH210163   4.229   4.082   3.422  0.8816  0.5931  0.6650
 3386TIP3    H110164   4.262   4.161   3.465  1.0615  1.1113 -0.4115
 3386TIP3    H210165   4.304   4.024   3.418  0.9383  0.6577  0.7866
 3387TIP3   OH210166   2.269   1.025   0.273 -0.0762 -0.2810  0.1140
 3387TIP3    H110167   2.276   1.119   0.256  2.2772 -0.3857  0.2485
 3387TIP3    H210168   2.207   0.994   0.206  0.6185  1.0614 -1.2127
 3388TIP3   OH210169   3.063   3.569   0.161  0.0653 -0.7860 -0.1839
 3388TIP3    H110170   3.023   3.656   0.165  0.1026 -0.6833 -1.5281
 3388TIP3    H210171   2.992   3.511   0.136 -0.0101 -1.2021  0.9422
 3389TIP3   OH210172   5.031   3.991   1.558 -0.2852 -0.2549 -0.3928
 3389TIP3    H110173   4.958   4.009   1.499  0.5704  2.3536 -0.8105
 3389TIP3    H210174   4.998   4.012   1.645 -0.5137 -0.7224 -0.3633
 3390TIP3   OH210175   0.187   4.880   2.561 -0.0975 -0.0546 -0.7907
 3390TIP3    H110176   0.112   4.913   2.611  0.5049 -1.6184  1.2796
 3390TIP3    H210177   0.260   4.936   2.589 -0.1418  0.4246 -1.5850
 3391TIP3   OH210178   0.101   4.526   3.363 -0.1901  0.6405 -0.5486
 3391TIP3    H110179   0.166   4.482   3.418 -0.5310 -1.2648 -1.5981
 3391TIP3    H210180   0.072   4.460   3.301 -0.6860  2.3931 -2.2940
 3392TIP3   OH210181   1.093   3.491   3.801  0.6535  0.3101  0.0348
 3392TIP3    H110182   1.160   3.429   3.773  0.9942  0.3746  0.6856
 3392TIP3    H210183   1.012   3.460   3.760  0.8004 -0.6174  0.4326
 3393TIP3   OH210184   2.417   3.029   4.569  0.1455  0.1499 -0.7882
 3393TIP3    H110185   2.399   2.936   4.584  0.3392 -0.0898 -1.9870
 3393TIP3    H210186   2.330   3.068   4.560 -0.0263  0.4141  1.3412
 3394TIP3   OH210187   0.374   5.914   1.791  0.4127  0.6590 -0.3648
 3394TIP3    H110188   0.460   5.951   1.770 -0.6771  2.6752 -1.5066
 3394TIP3    H210189   0.341   5.970   1.862  0.0695 -0.1798  0.1520
 3395TIP3   OH210190   5.722   2.372   4.887  0.3359 -0.1061 -0.2263
 3395TIP3    H110191   5.802   2.367   4.836  0.7454  2.9677 -0.1025
 3395TIP3    H210192   5.665   2.431   4.837 -1.1545 -0.8136  0.5633
 3396TIP3   OH210193   1.662   4.038   1.258 -0.4883 -0.4929 -0.0312
 3396TIP3    H110194   1.645   4.008   1.169  1.4297 -0.4226 -0.4520
 3396TIP3    H210195   1.732   4.103   1.249 -0.5998 -0.1135  1.4830
 3397TIP3   OH210196   0.907   1.698   2.420  0.0629 -0.4922 -0.2553
 3397TIP3    H110197   0.990   1.653   2.403  0.5765  0.5131 -0.4635
 3397TIP3    H210198   0.916   1.782   2.376 -0.9600 -0.2496 -0.0263
 3398TIP3   OH210199   3.223   2.616   4.186 -0.2804 -0.3576  0.2541
 3398TIP3    H110200   3.286   2.684   4.163 -1.7909  1.0860  0.2261
 3398TIP3    H210201   3.262   2.572   4.262  0.8306  0.3685  0.1317
 3399TIP3   OH210202   0.913   3.063   0.057  0.1201 -0.1888  0.3672
 3399TIP3    H110203   0.827   3.066   0.098  0.6264  0.1822  1.4429
 3399TIP3    H210204   0.909   2.988  -0.003 -0.3359 -1.3458  1.8028
 3400TIP3   OH210205   1.111   4.941   2.401 -0.1928 -0.2759 -0.5981
 3400TIP3    H110206   1.105   4.854   2.361 -0.8390  0.2107 -1.6068
 3400TIP3    H210207   1.182   4.933   2.465 -0.3883 -1.5996 -0.5110
 3401TIP3   OH210208   5.799   5.538   2.080 -0.1177 -0.2634  0.1883
 3401TIP3    H110209   5.887   5.550   2.046  0.5517 -0.2239  1.8599
 3401TIP3    H210210   5.757   5.477   2.019  0.6999  0.5485 -1.2040
 3402TIP3   OH210211   3.332   0.737   1.545  0.0239 -0.0661  0.1278
 3402TIP3    H110212   3.278   0.815   1.559 -2.4041 -1.6599  0.3663
 3402TIP3    H210213   3.422   0.766   1.561 -0.7102  2.7892 -0.4093
 3403TIP3   OH210214   2.773   2.149   4.613 -0.6206 -0.0263 -1.0062
 3403TIP3    H110215   2.805   2.062   4.589 -1.1448 -0.8353  1.0231
 3403TIP3    H210216   2.694   2.132   4.664 -0.3439  1.5921  0.0296
 3404TIP3   OH210217   2.530   4.771   4.325  0.4890  0.0858  0.9179
 3404TIP3    H110218   2.567   4.707   4.264 -0.5654  0.8859 -0.6141
 3404TIP3    H210219   2.444   4.737   4.348 -0.2776  1.1185 -0.2712
 3405TIP3   OH210220   5.073   4.849   4.664 -0.4051 -0.0311  0.4324
 3405TIP3    H110221   5.075   4.850   4.569 -0.4001 -0.1093  0.4320
 3405TIP3    H210222   5.004   4.786   4.686 -0.8873  0.4957  0.4706
 3406TIP3   OH210223   2.010   0.548   4.641  0.4616  1.2162  0.1628
 3406TIP3    H110224   1.985   0.530   4.550 -1.1658  0.1291  0.7860
 3406TIP3    H210225   2.106   0.540   4.641  0.3389 -1.1697 -0.9880
 3407TIP3   OH210226   4.427   3.580   3.590  0.3367  0.4644  0.6043
 3407TIP3    H110227   4.334   3.568   3.571  0.6038 -0.6689 -0.0521
 3407TIP3    H210228   4.471   3.507   3.546  1.6138  1.3827  0.2858
 3408TIP3   OH210229   1.827   1.193   0.322  0.5431 -0.1337 -0.2675
 3408TIP3    H110230   1.851   1.202   0.230 -1.0558 -2.4269 -0.9956
 3408TIP3    H210231   1.804   1.282   0.350  0.9819  0.5924 -2.0796
 3409TIP3   OH210232   2.589   4.052   0.865 -0.1311 -0.2396 -0.6318
 3409TIP3    H110233   2.657   3.987   0.846  0.5396 -0.2926  1.7048
 3409TIP3    H210234   2.603   4.076   0.956 -1.1998  2.2290 -1.0318
 3410TIP3   OH210235   0.942   1.894   0.181  0.1459  0.6341  0.4783
 3410TIP3    H110236   0.960   1.975   0.229  0.7573  1.2230 -0.6839
 3410TIP3    H210237   1.006   1.831   0.215 -0.0306  0.7687  1.0663
 3411TIP3   OH210238   2.022   1.841   1.203 -0.9137 -0.0060  0.0633
 3411TIP3    H110239   1.956   1.902   1.235 -1.0421 -0.5036  0.7604
 3411TIP3    H210240   2.105   1.887   1.214 -1.0613  0.2611  0.0560
 3412TIP3   OH210241   0.767   2.844   4.544  0.0399  0.3910 -0.5504
 3412TIP3    H110242   0.792   2.794   4.622  1.4247  0.6896 -0.7648
 3412TIP3    H210243   0.844   2.837   4.487 -0.8860  0.3221 -1.8192
 3413TIP3   OH210244   4.493   5.258   1.167 -0.1864 -0.1627  0.1285
 3413TIP3    H110245   4.458   5.293   1.249  1.9462 -0.3657  1.2072
 3413TIP3    H210246   4.437   5.184   1.146 -0.9732  0.1042  1.2187
 3414TIP3   OH210247   1.562   2.439   4.779  0.2887 -0.0788 -0.7655
 3414TIP3    H110248   1.504   2.405   4.847  0.0990 -0.6944 -1.2176
 3414TIP3    H210249   1.639   2.470   4.826 -0.6732  1.3935 -0.0863
 3415TIP3   OH210250   4.285   4.825   2.962 -0.4574  0.3254 -0.1741
 3415TIP3    H110251   4.236   4.743   2.970 -0.3764  0.3304  0.4696
 3415TIP3    H210252   4.272   4.852   2.872  0.9051 -1.2570 -0.8886
 3416TIP3   OH210253   3.676   1.422   1.505  0.1954 -0.0625  0.0656
 3416TIP3    H110254   3.734   1.434   1.431  0.4654 -0.8936  0.1273
 3416TIP3    H210255   3.672   1.507   1.548 -0.1376  0.4811 -1.0181
 3417TIP3   OH210256   4.389   0.611   5.146 -0.1045  0.1304 -0.0488
 3417TIP3    H110257   4.322   0.674   5.175  0.3161  0.4302  0.2839
 3417TIP3    H210258   4.465   0.665   5.124  0.4109 -0.2897  0.6696
 3418TIP3   OH210259   3.821   0.315   3.189 -0.4721  0.3734  0.1010
 3418TIP3    H110260   3.811   0.399   3.144 -1.5075  0.1618 -0.0683
 3418TIP3    H210261   3.735   0.275   3.185 -0.0813 -0.5266  0.5419
 3419TIP3   OH210262   1.991   3.046  -0.003  0.3377 -0.5119 -0.3535
 3419TIP3    H110263   1.896   3.040  -0.004  0.2003  0.9064 -2.9702
 3419TIP3    H210264   2.010   3.116   0.059 -0.2466 -1.1785  0.6105
 3420TIP3   OH210265   6.043   1.566   3.163  0.3288 -0.4918 -0.2578
 3420TIP3    H110266   6.017   1.511   3.089  0.1757 -0.0487 -0.5404
 3420TIP3    H210267   6.000   1.527   3.239 -0.0485 -0.5685 -0.5084
 3421TIP3   OH210268   4.049   3.747   3.392  0.2750  0.2908  0.0059
 3421TIP3    H110269   4.133   3.740   3.346  0.0794  0.0557 -0.3204
 3421TIP3    H210270   3.984   3.759   3.322 -0.0767 -0.5108  0.1832
 3422TIP3   OH210271   4.803   3.632   3.313 -0.0930 -0.1076 -0.4045
 3422TIP3    H110272   4.849   3.645   3.396 -1.0533 -0.3682  0.1867
 3422TIP3    H210273   4.850   3.687   3.250  0.0601  0.8579  0.5248
 3423TIP3   OH210274   2.638   5.386   1.729  0.1713  0.7388  0.0704
 3423TIP3    H110275   2.731   5.367   1.740  0.0100 -0.5233 -0.5128
 3423TIP3    H210276   2.635   5.474   1.691  1.2052  0.2829 -1.1399
 3424TIP3   OH210277   4.038   1.650   2.584  0.0351  0.2425 -0.2140
 3424TIP3    H110278   4.007   1.737   2.557  0.5978  0.0613 -1.5037
 3424TIP3    H210279   4.036   1.653   2.680 -1.7826  1.0148 -0.2212
 3425TIP3   OH210280   3.946   0.718   3.169 -0.1571 -0.0994 -0.1439
 3425TIP3    H110281   3.869   0.670   3.140  0.3196 -1.2305  0.3933
 3425TIP3    H210282   4.017   0.684   3.114  0.5542 -1.5019  1.5220
 3426TIP3   OH210283   2.586   2.242   3.897  0.1953  0.3524 -0.7956
 3426TIP3    H110284   2.652   2.233   3.965  0.4387  2.3828 -0.7101
 3426TIP3    H210285   2.534   2.161   3.903  0.8843  0.0010  1.0433
 3427TIP3   OH210286   5.186   1.138   1.064  0.0266 -0.4526 -0.4340
 3427TIP3    H110287   5.116   1.142   0.998 -1.0258  0.5743  0.6894
 3427TIP3    H210288   5.154   1.192   1.136  0.1158 -3.2568  1.9155
 3428TIP3   OH210289   5.496   3.703   4.599 -0.1286 -0.3692 -0.6063
 3428TIP3    H110290   5.568   3.738   4.547  0.8746 -0.9602  0.3382
 3428TIP3    H210291   5.529   3.620   4.633 -0.6303  0.1167  1.1832
 3429TIP3   OH210292   3.792   2.679   1.678  0.1217  0.1130  0.6944
 3429TIP3    H110293   3.767   2.592   1.710 -1.6162  0.1240 -0.5073
 3429TIP3    H210294   3.714   2.711   1.633  1.8261  0.8483 -1.9160
 3430TIP3   OH210295   3.216   2.258   2.108  0.3915 -0.4671  0.0124
 3430TIP3    H110296   3.142   2.220   2.060 -0.2508  1.0719 -0.2629
 3430TIP3    H210297   3.253   2.184   2.156 -0.8666 -1.4208 -0.4141
 3431TIP3   OH210298   1.314   3.464   0.173  0.5222  0.0593 -0.4933
 3431TIP3    H110299   1.319   3.484   0.079 -1.9441 -1.6856 -1.0956
 3431TIP3    H210300   1.360   3.381   0.182 -0.2286 -0.3591 -0.4081
 3432TIP3   OH210301   2.195   1.875   3.062  0.0690 -0.3600 -0.1097
 3432TIP3    H110302   2.276   1.920   3.086 -0.2775  0.5395 -0.5876
 3432TIP3    H210303   2.195   1.795   3.115 -0.4004  1.2452  2.4507
 3433TIP3   OH210304   0.686   1.704   4.974  0.1775  0.6721 -0.6940
 3433TIP3    H110305   0.691   1.710   5.070 -1.5561 -0.4692 -0.4902
 3433TIP3    H210306   0.731   1.622   4.953 -0.4679  0.3227 -0.7299
 3434TIP3   OH210307   3.520   5.513   1.316  0.5171 -0.5241 -0.9580
 3434TIP3    H110308   3.424   5.504   1.319  0.1963  2.1969  1.2378
 3434TIP3    H210309   3.549   5.476   1.399  1.1735  0.1135 -0.8934
 3435TIP3   OH210310   2.346   5.368   3.964 -0.0109  0.3219  0.2676
 3435TIP3    H110311   2.414   5.413   4.014  0.5425  0.5900 -0.6935
 3435TIP3    H210312   2.365   5.275   3.974  0.3746  0.3919  0.1694
 3436TIP3   OH210313   5.847   3.394   4.178  0.6311  0.1829  0.0572
 3436TIP3    H110314   5.774   3.389   4.240  0.3692  1.5295 -0.1137
 3436TIP3    H210315   5.857   3.487   4.160  1.6718 -0.0728 -0.7922
 3437TIP3   OH210316   1.262   4.736   5.133  0.1837 -0.3525  0.0598
 3437TIP3    H110317   1.225   4.653   5.105 -0.0130 -0.6668  1.1883
 3437TIP3    H210318   1.194   4.800   5.117 -0.1847 -0.6397  0.4539
 3438TIP3   OH210319   0.581   4.962   3.927  0.5493 -0.0316  0.1374
 3438TIP3    H110320   0.618   4.934   4.011 -1.3108  1.0696  1.3780
 3438TIP3    H210321   0.589   5.057   3.928 -0.7636  0.1021 -0.2693
 3439TIP3   OH210322   4.731   3.959   3.254  0.0637 -0.6668 -0.1709
 3439TIP3    H110323   4.755   3.971   3.345  0.5417  1.7929 -0.5549
 3439TIP3    H210324   4.812   3.931   3.211  0.3682  0.1716 -0.1637
 3440TIP3   OH210325   4.804   2.531   3.295  0.6703 -0.3254 -0.0947
 3440TIP3    H110326   4.809   2.530   3.391  1.0778 -0.0472 -0.1110
 3440TIP3    H210327   4.781   2.442   3.271  0.2664 -0.3264  0.2786
 3441TIP3   OH210328   5.993   0.491   2.336 -0.0358 -0.0377  0.0462
 3441TIP3    H110329   5.981   0.514   2.244  0.8266 -0.2501 -0.1314
 3441TIP3    H210330   6.088   0.487   2.347 -0.1285 -1.3206  0.6005
 3442TIP3   OH210331   4.344   5.373   2.174 -0.0108 -0.2726  0.0839
 3442TIP3    H110332   4.310   5.315   2.106  0.0724  0.7262 -0.8307
 3442TIP3    H210333   4.437   5.353   2.178 -0.1982 -1.0754  0.6616
 3443TIP3   OH210334   1.865   0.179   1.163  0.2345 -0.0027 -0.1493
 3443TIP3    H110335   1.828   0.256   1.120 -0.4532 -0.6550 -0.7685
 3443TIP3    H210336   1.875   0.115   1.092 -1.9276 -1.4787  0.7848
 3444TIP3   OH210337   0.306   5.098   1.460 -0.0943 -0.0757 -0.2426
 3444TIP3    H110338   0.349   5.154   1.525  0.0686  1.2074 -1.4073
 3444TIP3    H210339   0.376   5.072   1.400 -0.7157  1.2376 -1.5998
 3445TIP3   OH210340   2.095   4.498   0.661 -0.1284  0.7085  0.4027
 3445TIP3    H110341   2.100   4.498   0.757 -1.8604 -0.4975  0.5539
 3445TIP3    H210342   2.017   4.550   0.642 -0.9607 -0.7074 -0.2076
 3446TIP3   OH210343   1.121   0.539   4.708  0.2608 -0.1583 -0.0108
 3446TIP3    H110344   1.170   0.518   4.629 -0.7795  0.6710 -0.9122
 3446TIP3    H210345   1.158   0.622   4.738  0.6272 -0.4515  0.3596
 3447TIP3   OH210346   6.274   0.307  -0.010  0.3529  0.4948  0.2032
 3447TIP3    H110347   6.183   0.302   0.019  0.1076  0.3524 -0.5891
 3447TIP3    H210348   6.325   0.309   0.072 -0.4310  2.2182  0.6922
 3448TIP3   OH210349   2.563   4.042   2.645  0.1813 -0.5120 -0.2830
 3448TIP3    H110350   2.482   4.026   2.597  0.4811 -0.1121 -0.9240
 3448TIP3    H210351   2.618   4.093   2.585  1.2116 -1.4247 -0.1488
 3449TIP3   OH210352   0.767   1.254   1.397 -0.0362 -1.0288 -0.0247
 3449TIP3    H110353   0.787   1.255   1.491  0.4475 -0.0910 -0.1203
 3449TIP3    H210354   0.672   1.244   1.392 -0.4397  1.6507  0.6788
 3450TIP3   OH210355   3.270   2.274   3.485 -0.1212 -0.2652 -0.0405
 3450TIP3    H110356   3.256   2.311   3.398  1.8491 -0.4306 -0.4642
 3450TIP3    H210357   3.303   2.347   3.537 -1.0849 -0.2201  0.5290
 3451TIP3   OH210358   2.167   1.739   0.601  0.4827  0.1072 -0.5768
 3451TIP3    H110359   2.149   1.773   0.513  1.0740 -0.0226 -0.7522
 3451TIP3    H210360   2.233   1.799   0.636  2.2516 -1.3669 -1.2469
 3452TIP3   OH210361   1.299   2.472   1.485 -0.4345 -0.6590  0.3980
 3452TIP3    H110362   1.271   2.531   1.415 -1.8489 -0.7232  0.8796
 3452TIP3    H210363   1.336   2.531   1.551 -0.5453 -0.4475  0.2743
 3453TIP3   OH210364   3.930   3.061   2.415  0.0629  0.3085  0.0713
 3453TIP3    H110365   3.982   3.116   2.356  2.4494 -0.3013  1.4625
 3453TIP3    H210366   3.930   3.109   2.498 -0.6312 -0.2778  0.4220
 3454TIP3   OH210367   3.672   5.456   4.107 -0.6402  0.2011 -0.2297
 3454TIP3    H110368   3.671   5.361   4.095 -0.4313  0.2207 -0.4085
 3454TIP3    H210369   3.584   5.484   4.082 -0.8057  0.0193  0.1287
 3455TIP3   OH210370   4.221   0.951   0.713  0.4879  0.2289  0.2521
 3455TIP3    H110371   4.315   0.966   0.722  0.9296 -1.2182 -1.5124
 3455TIP3    H210372   4.203   0.963   0.620 -1.1024  0.4889  0.5589
 3456TIP3   OH210373   1.022   2.818   3.823 -0.3015  0.2319 -0.0192
 3456TIP3    H110374   0.947   2.808   3.881 -1.1580  0.8244 -0.9937
 3456TIP3    H210375   0.998   2.889   3.765  0.0490 -1.0743 -1.8401
 3457TIP3   OH210376   5.092   3.088   3.681  0.4562  0.5858 -0.5078
 3457TIP3    H110377   5.097   3.056   3.591 -0.7370  2.5893 -1.3397
 3457TIP3    H210378   5.039   3.022   3.726  0.5134 -0.1080 -1.4249
 3458TIP3   OH210379   3.172   1.417   2.075  0.0598 -0.5066  0.4355
 3458TIP3    H110380   3.168   1.505   2.036  2.6058  0.5016  2.1454
 3458TIP3    H210381   3.104   1.419   2.143 -0.8353 -0.3974 -0.4325
 3459TIP3   OH210382   5.991   0.874   4.450 -0.7152  0.4696 -0.1856
 3459TIP3    H110383   6.057   0.910   4.391 -0.0911  0.1271  0.2801
 3459TIP3    H210384   6.041   0.818   4.510 -1.7042 -1.7198 -1.2774
 3460TIP3   OH210385   5.001   2.815   2.370  0.5693 -0.6709 -0.2594
 3460TIP3    H110386   4.916   2.817   2.415  0.6327 -0.4956 -0.1433
 3460TIP3    H210387   5.007   2.727   2.333  1.1554 -1.3425  1.3195
 3461TIP3   OH210388   4.227   3.357   4.867  0.3561  0.2744 -0.1123
 3461TIP3    H110389   4.141   3.398   4.870  0.4628  0.5995 -1.1928
 3461TIP3    H210390   4.277   3.402   4.935 -0.2173  0.3075  0.2964
 3462TIP3   OH210391   6.195   1.520   3.975 -0.1158 -0.2669 -0.3158
 3462TIP3    H110392   6.245   1.439   3.971 -0.7158 -0.9330  3.0165
 3462TIP3    H210393   6.104   1.492   3.976 -0.4360  0.6459 -1.6289
 3463TIP3   OH210394   1.872   2.912   1.422  0.7098  1.0126 -0.7261
 3463TIP3    H110395   1.817   2.910   1.344  1.4567 -0.8812 -1.2508
 3463TIP3    H210396   1.928   2.836   1.414  1.4669  1.3108  1.2084
 3464TIP3   OH210397   5.276   2.835   1.470 -0.0637 -0.1828  0.2297
 3464TIP3    H110398   5.302   2.880   1.389 -1.1653 -0.1944 -0.1343
 3464TIP3    H210399   5.188   2.803   1.453 -1.1092  1.4857  2.0861
 3465TIP3   OH210400   6.051   4.559   2.100  0.4520  0.2597  0.0167
 3465TIP3    H110401   6.137   4.601   2.111  0.1709  0.8769 -0.0888
 3465TIP3    H210402   5.995   4.603   2.163  0.0798  0.2509 -0.3024
 3466TIP3   OH210403   1.364   0.367   1.541  0.2888  0.6434 -0.0097
 3466TIP3    H110404   1.450   0.325   1.533  0.8120  1.5966  0.4490
 3466TIP3    H210405   1.325   0.327   1.619 -0.3539 -0.8951 -1.0614
 3467TIP3   OH210406   5.525   2.536   0.277 -0.8968 -0.1205  0.3641
 3467TIP3    H110407   5.599   2.505   0.225 -0.2746 -1.6300  2.0723
 3467TIP3    H210408   5.554   2.621   0.310 -0.1797 -0.4029  0.4838
 3468TIP3   OH210409   3.097   5.788   2.775  0.2504 -0.1162 -0.3140
 3468TIP3    H110410   3.123   5.743   2.855  0.3950 -1.2014 -0.9455
 3468TIP3    H210411   3.099   5.881   2.797  1.2862 -0.3534  0.6453
 3469TIP3   OH210412   3.278   5.841   4.218  0.0331  0.0040  0.2210
 3469TIP3    H110413   3.316   5.755   4.236  0.1427 -0.3142 -1.3596
 3469TIP3    H210414   3.196   5.822   4.173  0.8511  0.6711 -1.6870
 3470TIP3   OH210415   1.764   1.842   4.151  0.0337  0.5746 -0.2844
 3470TIP3    H110416   1.837   1.821   4.093  0.3225  0.3808  0.1517
 3470TIP3    H210417   1.735   1.929   4.122  1.3921  1.3277  0.5110
 3471TIP3   OH210418   3.737   4.439   0.465  0.2224  0.3885 -0.2418
 3471TIP3    H110419   3.724   4.353   0.424  1.3539 -0.1065  0.3651
 3471TIP3    H210420   3.820   4.470   0.429  0.2250  0.8579  0.1615
 3472TIP3   OH210421   3.281   3.451   3.440  0.1534 -0.6445  0.3273
 3472TIP3    H110422   3.370   3.419   3.453  0.4337 -0.6593 -1.4004
 3472TIP3    H210423   3.233   3.375   3.406  0.4060  0.2264 -2.1658
 3473TIP3   OH210424   6.322   0.751   0.012  0.6778 -0.6461 -0.7064
 3473TIP3    H110425   6.372   0.672   0.033  0.3119 -0.8447 -0.5652
 3473TIP3    H210426   6.292   0.783   0.097  2.3768  0.7117 -0.5633
 3474TIP3   OH210427   5.608   1.274   1.579  0.0328  0.0550  0.5221
 3474TIP3    H110428   5.701   1.283   1.557 -0.3395  1.4340 -0.6160
 3474TIP3    H210429   5.593   1.179   1.579  1.1827 -0.1520 -0.4177
 3475TIP3   OH210430   1.732   2.943   2.852  0.4198 -0.1830 -0.0208
 3475TIP3    H110431   1.778   2.903   2.925  0.0897  0.1122  0.3540
 3475TIP3    H210432   1.726   2.874   2.786  0.0532 -0.6827  0.5286
 3476TIP3   OH210433   3.067   4.981   0.669  0.5609 -0.2336 -0.2343
 3476TIP3    H110434   3.149   4.943   0.639  0.2914 -0.4533 -0.6962
 3476TIP3    H210435   2.999   4.926   0.631  0.0910  1.6080 -2.2768
 3477TIP3   OH210436   3.759   5.315   0.137  0.1909  0.0986  0.7736
 3477TIP3    H110437   3.760   5.225   0.169  1.2712 -0.3712 -0.5106
 3477TIP3    H210438   3.668   5.333   0.117  0.2752 -1.6934 -1.5712
 3478TIP3   OH210439   4.378   2.302   2.873 -0.2549  0.2352 -0.2688
 3478TIP3    H110440   4.434   2.286   2.949  0.1332  1.3349 -0.3039
 3478TIP3    H210441   4.390   2.225   2.817 -0.6522 -0.6592  0.8250
 3479TIP3   OH210442   5.371   5.602   4.067 -0.3636 -0.1636 -0.1264
 3479TIP3    H110443   5.381   5.508   4.056 -1.7852 -0.3679  0.0894
 3479TIP3    H210444   5.455   5.632   4.100 -0.4317 -1.6352  1.5044
 3480TIP3   OH210445   1.834   4.033   3.947 -0.1865 -0.1870 -0.8872
 3480TIP3    H110446   1.795   3.962   3.897 -0.4720 -0.8581  0.2493
 3480TIP3    H210447   1.870   4.092   3.881  2.1707 -2.5315 -1.8530
 3481TIP3   OH210448   5.741   0.663   4.635  0.3302  0.5336  0.0722
 3481TIP3    H110449   5.788   0.633   4.713  0.7864  0.5067 -0.2156
 3481TIP3    H210450   5.658   0.615   4.638  1.1140 -0.8871 -0.4725
 3482TIP3   OH210451   0.549   4.017   2.743 -0.4695  0.0622 -0.0494
 3482TIP3    H110452   0.583   3.981   2.825 -2.9146 -1.1118  0.5348
 3482TIP3    H210453   0.591   3.965   2.674  0.7233  0.2833  0.4826
 3483TIP3   OH210454   2.639   4.855   0.345  0.0016  0.2128  0.5985
 3483TIP3    H110455   2.551   4.849   0.383 -0.4966  0.2526 -0.5172
 3483TIP3    H210456   2.641   4.942   0.304 -0.2430 -0.6064 -1.2499
 3484TIP3   OH210457   0.370   4.493   1.996  0.5057  0.0446 -0.0697
 3484TIP3    H110458   0.335   4.478   2.084  0.0256 -0.5414 -0.3541
 3484TIP3    H210459   0.317   4.565   1.961  1.3824  0.9988  0.4914
 3485TIP3   OH210460   0.086   5.223   4.303 -0.2190 -0.2933  0.0171
 3485TIP3    H110461   0.160   5.192   4.252  1.3292  1.8838  0.8031
 3485TIP3    H210462   0.113   5.213   4.394 -0.9892  0.2742  0.3196
 3486TIP3   OH210463   2.958   2.776   3.229 -0.1625 -0.5502 -0.0632
 3486TIP3    H110464   3.039   2.724   3.234 -1.0482 -1.9664 -0.1047
 3486TIP3    H210465   2.895   2.727   3.282 -0.4932  1.5487  1.6028
 3487TIP3   OH210466   3.390   5.298   2.295  0.2271 -0.1375  0.0492
 3487TIP3    H110467   3.459   5.279   2.232  0.4310 -0.0155  0.2335
 3487TIP3    H210468   3.436   5.335   2.371 -0.0620  0.1904  0.0697
 3488TIP3   OH210469   4.368   0.490   3.000  0.0468 -0.8229 -0.0408
 3488TIP3    H110470   4.457   0.518   2.978  0.0882 -0.6681  0.3283
 3488TIP3    H210471   4.380   0.418   3.061 -0.0898 -0.3326  0.5725
 3489TIP3   OH210472   0.007   4.113   1.630 -0.0607  0.3226  0.1679
 3489TIP3    H110473   0.064   4.036   1.632  1.8415  1.5297 -2.4335
 3489TIP3    H210474  -0.061   4.091   1.566  0.3535  0.7135 -0.4088
 3490TIP3   OH210475   5.332   2.600   0.096 -0.0926 -0.2188 -0.9142
 3490TIP3    H110476   5.363   2.659   0.027  1.3926 -0.2438 -0.3243
 3490TIP3    H210477   5.407   2.593   0.155 -1.0861 -0.7739  0.3129
 3491TIP3   OH210478   5.844   0.321   5.179  0.2338  0.1631  0.0021
 3491TIP3    H110479   5.935   0.311   5.151 -0.2040  1.1684 -1.9300
 3491TIP3    H210480   5.836   0.413   5.205 -0.0658 -0.1027  0.9083
 3492TIP3   OH210481   5.617   3.758   2.819  0.8364 -0.0557  0.4595
 3492TIP3    H110482   5.644   3.720   2.903  1.7586 -1.6528 -0.5055
 3492TIP3    H210483   5.686   3.821   2.798  1.3794 -0.7045  0.2418
 3493TIP3   OH210484   0.382   0.606   0.435 -0.1792  0.4123 -0.1143
 3493TIP3    H110485   0.477   0.603   0.424 -0.2285 -0.3428 -0.3872
 3493TIP3    H210486   0.360   0.699   0.427  0.6267  0.6989  0.7775
 3494TIP3   OH210487   5.978   1.603   1.119  0.1264  0.9110 -0.2310
 3494TIP3    H110488   6.020   1.519   1.137 -0.8545  0.7092  1.3642
 3494TIP3    H210489   5.922   1.587   1.043  0.4878  0.3220 -0.3769
 3495TIP3   OH210490   3.413   4.619   4.356 -0.2459 -0.1330 -0.0508
 3495TIP3    H110491   3.434   4.567   4.433 -0.5494 -2.0015 -1.1817
 3495TIP3    H210492   3.347   4.682   4.387  0.3520 -0.1955  1.4059
 3496TIP3   OH210493   0.745   4.292   4.220 -0.4844  0.2313  0.1673
 3496TIP3    H110494   0.795   4.241   4.157 -1.0955 -0.7361  0.4433
 3496TIP3    H210495   0.667   4.319   4.172  0.6644  2.5423 -0.5594
 3497TIP3   OH210496   5.647   2.443   2.078 -0.0764  0.2647  0.1256
 3497TIP3    H110497   5.714   2.500   2.040 -0.5950  1.5591  1.0857
 3497TIP3    H210498   5.583   2.503   2.116 -1.0616 -0.9597  0.4679
 3498TIP3   OH210499   0.405   1.406   1.161  0.4520 -0.1584  0.5569
 3498TIP3    H110500   0.491   1.415   1.121 -0.5904  0.6704 -1.7022
 3498TIP3    H210501   0.405   1.470   1.232  1.5832  0.0925  0.3509
 3499TIP3   OH210502   1.518   0.802   4.692  0.4606 -0.6592 -0.7667
 3499TIP3    H110503   1.528   0.897   4.696  0.8973 -0.7027 -0.7524
 3499TIP3    H210504   1.608   0.768   4.689  0.3050 -0.9980 -2.6162
 3500TIP3   OH210505   4.115   3.960   0.797  0.3024  0.5727  0.5448
 3500TIP3    H110506   4.170   4.025   0.752  0.2762 -0.3286 -0.8609
 3500TIP3    H210507   4.173   3.885   0.808 -0.0936  0.3113  0.8295
 3501TIP3   OH210508   5.694   1.214   4.195  0.0089 -0.1858  0.1093
 3501TIP3    H110509   5.697   1.183   4.286  1.6089  0.0882  0.1860
 3501TIP3    H210510   5.742   1.147   4.146  0.0261  0.1735 -0.3675
 3502TIP3   OH210511   3.165   0.605   1.907 -0.4191  0.3880  0.1569
 3502TIP3    H110512   3.089   0.653   1.875 -0.7231 -0.7923 -0.9791
 3502TIP3    H210513   3.160   0.520   1.863  1.5339  0.2651  0.0731
 3503TIP3   OH210514   1.361   5.693   3.137 -0.3924  0.4867  0.0797
 3503TIP3    H110515   1.347   5.756   3.065 -1.6781  0.9784  0.7327
 3503TIP3    H210516   1.438   5.727   3.183 -0.5887  1.1428 -0.0580
 3504TIP3   OH210517   2.384   1.639   0.142  0.1222 -1.1071 -0.3454
 3504TIP3    H110518   2.463   1.673   0.184 -0.3564 -1.1500  0.6249
 3504TIP3    H210519   2.379   1.548   0.171  0.4482 -1.5119 -1.5133
 3505TIP3   OH210520   1.304   5.581   0.618 -0.0428 -0.2187  0.3526
 3505TIP3    H110521   1.338   5.525   0.548  0.8200  1.6061 -0.7606
 3505TIP3    H210522   1.241   5.638   0.574 -0.2490  0.2899  1.2901
 3506TIP3   OH210523   1.479   4.466   1.063 -0.1957  0.0593 -0.0632
 3506TIP3    H110524   1.386   4.491   1.069 -0.4766  0.4436 -3.6661
 3506TIP3    H210525   1.477   4.370   1.068 -0.5008  0.1423  1.9772
 3507TIP3   OH210526   0.589   3.574   1.666  0.3460 -0.6439  0.2963
 3507TIP3    H110527   0.610   3.551   1.576  1.0392  1.1032 -0.0280
 3507TIP3    H210528   0.510   3.523   1.686 -0.6755 -0.0098 -1.7975
 3508TIP3   OH210529   2.040   0.821   1.207  0.7215 -0.7911  0.8141
 3508TIP3    H110530   2.032   0.869   1.289 -0.8244  0.3322  0.0493
 3508TIP3    H210531   2.030   0.887   1.139  0.2026 -1.9348 -0.2656
 3509TIP3   OH210532   1.674   2.524   5.056 -0.2780 -0.1106  0.0209
 3509TIP3    H110533   1.580   2.509   5.049 -0.0928 -1.1547 -0.4263
 3509TIP3    H210534   1.682   2.612   5.092 -1.4161  1.2672 -2.7587
 3510TIP3   OH210535   5.026   0.932   4.678 -0.3039 -0.1959  0.2541
 3510TIP3    H110536   4.957   0.933   4.744  1.0714 -0.6622  1.7681
 3510TIP3    H210537   5.102   0.971   4.722  0.9025 -1.3132 -0.7556
 3511TIP3   OH210538   5.144   0.590   0.588  0.3266 -0.0905 -0.6239
 3511TIP3    H110539   5.144   0.683   0.564  0.2810  0.0457 -0.1198
 3511TIP3    H210540   5.205   0.585   0.662 -1.8420  0.0659  1.2945
 3512TIP3   OH210541   2.779   1.615   3.405 -0.2294 -0.4329  0.0473
 3512TIP3    H110542   2.712   1.664   3.357  0.6912 -0.0690 -0.8886
 3512TIP3    H210543   2.840   1.682   3.435 -0.1900 -0.7797  0.7606
 3513TIP3   OH210544   3.806   5.643   2.694 -0.0996  0.4744  0.2131
 3513TIP3    H110545   3.853   5.560   2.692 -0.8827  0.0233 -0.2110
 3513TIP3    H210546   3.777   5.651   2.785 -0.8917 -0.2426  0.0429
 3514TIP3   OH210547   2.670   4.105   1.413 -0.2496  0.5573 -0.4130
 3514TIP3    H110548   2.668   4.011   1.427 -1.1148  0.7560  0.9792
 3514TIP3    H210549   2.759   4.123   1.384  0.3718 -0.5129  0.7392
 3515TIP3   OH210550   0.979   5.312   4.013  0.3054  0.3769  0.0159
 3515TIP3    H110551   0.958   5.384   3.954 -2.0412  0.1900  0.5423
 3515TIP3    H210552   1.001   5.355   4.096 -1.6395  0.5289  0.4912
 3516TIP3   OH210553   0.891   4.227   1.353  1.0345 -0.3845 -0.0258
 3516TIP3    H110554   0.882   4.202   1.261  1.5747  2.4294 -0.9187
 3516TIP3    H210555   0.976   4.189   1.380  0.5050 -1.9047 -0.3786
 3517TIP3   OH210556   4.147   2.565   2.647  0.2951  0.5570  0.4298
 3517TIP3    H110557   4.176   2.546   2.736  0.1160 -1.1485  0.1546
 3517TIP3    H210558   4.173   2.656   2.633 -0.9735  1.3609  2.7217
 3518TIP3   OH210559   1.441   5.087   2.559  0.3835 -0.1799  0.0817
 3518TIP3    H110560   1.491   5.110   2.481 -1.1290  1.5843 -0.4494
 3518TIP3    H210561   1.410   4.998   2.543  1.5015 -0.4694 -0.5405
 3519TIP3   OH210562   2.821   0.305   2.690  0.0043 -0.0720  0.0812
 3519TIP3    H110563   2.769   0.237   2.733  0.9152 -0.6603  0.2661
 3519TIP3    H210564   2.854   0.265   2.610 -1.0540  0.7833 -0.8217
 3520TIP3   OH210565   5.203   5.483   2.729 -0.3092  0.1072 -0.1693
 3520TIP3    H110566   5.114   5.448   2.742 -0.7574  0.8457 -1.1189
 3520TIP3    H210567   5.232   5.446   2.646  0.5810 -0.7105  0.4875
 3521TIP3   OH210568   4.678   3.367   0.025  0.0497 -0.1458  0.0037
 3521TIP3    H110569   4.703   3.295   0.082 -0.7920  0.0040  0.5678
 3521TIP3    H210570   4.586   3.384   0.045  0.2048  1.0150 -0.1918
 3522TIP3   OH210571   1.518   1.774   2.843  0.4963  0.2013  0.3016
 3522TIP3    H110572   1.428   1.803   2.830  0.1691 -0.7687  0.2587
 3522TIP3    H210573   1.559   1.782   2.757 -0.6288 -2.7922 -0.6652
 3523TIP3   OH210574   4.264   2.861   1.275  0.4881 -0.7804 -0.5845
 3523TIP3    H110575   4.244   2.892   1.187  1.0503 -2.4646 -1.3486
 3523TIP3    H210576   4.335   2.918   1.305 -0.2608  0.3297 -0.8664
 3524TIP3   OH210577   0.459   5.594   3.474 -0.0452 -0.2411  0.7551
 3524TIP3    H110578   0.421   5.554   3.395 -0.9459  0.1938  0.9549
 3524TIP3    H210579   0.539   5.637   3.443 -0.0474 -0.6219  0.2048
 3525TIP3   OH210580   5.432   2.209   2.804  0.0118  0.0935  0.4431
 3525TIP3    H110581   5.463   2.119   2.803 -0.7597 -0.1867  0.8723
 3525TIP3    H210582   5.448   2.239   2.894 -0.8715 -0.0367  0.6556
 3526TIP3   OH210583   4.345   2.583   2.434  0.1009  0.4534 -0.0258
 3526TIP3    H110584   4.265   2.602   2.385  0.4168 -0.8899 -1.1385
 3526TIP3    H210585   4.317   2.579   2.525 -1.4815 -1.6203 -0.5152
 3527TIP3   OH210586   2.144   0.210   1.718 -0.6168  0.1073  0.2875
 3527TIP3    H110587   2.053   0.179   1.715 -0.3278 -0.8496  1.0150
 3527TIP3    H210588   2.196   0.135   1.690 -0.0723  0.8487 -0.7639
 3528TIP3   OH210589   1.861   2.413   4.554 -0.4389  0.3689 -0.3846
 3528TIP3    H110590   1.876   2.403   4.648 -0.2902 -0.4366 -0.4818
 3528TIP3    H210591   1.943   2.451   4.521  0.5893 -1.8057 -0.5562
 3529TIP3   OH210592   3.707   0.624   0.223 -0.0505  0.0887 -0.0227
 3529TIP3    H110593   3.679   0.562   0.156 -0.2055  0.2225 -0.0827
 3529TIP3    H210594   3.802   0.620   0.222 -0.0647 -0.3561  0.1676
 3530TIP3   OH210595   4.512   0.386   0.133  0.4641 -0.3951 -0.4265
 3530TIP3    H110596   4.513   0.315   0.197  1.4206  0.0403  0.0626
 3530TIP3    H210597   4.479   0.462   0.181 -1.7695 -0.7658 -1.2715
 3531TIP3   OH210598   1.881   0.582   1.906  0.0107 -0.3364  0.5497
 3531TIP3    H110599   1.881   0.576   1.810 -2.1099  2.4292  0.2772
 3531TIP3    H210600   1.823   0.511   1.934 -0.3925 -0.3593 -0.3018
 3532TIP3   OH210601   4.232   0.914   3.043  0.5157  0.1065 -0.2801
 3532TIP3    H110602   4.319   0.942   3.073  1.1432 -2.5953  0.7443
 3532TIP3    H210603   4.241   0.906   2.948  1.3635 -0.0261 -0.1952
 3533TIP3   OH210604   3.704   1.407   2.308 -0.0895  0.3972 -0.4835
 3533TIP3    H110605   3.795   1.432   2.322  0.7124 -1.0126 -2.7069
 3533TIP3    H210606   3.680   1.359   2.388  1.0301  0.9384  0.2036
 3534TIP3   OH210607   3.971   3.344   4.312  0.1238 -0.4227  0.0450
 3534TIP3    H110608   4.052   3.294   4.303  1.7413  2.3597 -2.6585
 3534TIP3    H210609   3.990   3.410   4.379  0.3249  0.5104 -0.9006
 3535TIP3   OH210610   2.103   0.253   3.641  0.7901 -0.3422 -0.3372
 3535TIP3    H110611   2.124   0.234   3.732 -1.6230  0.4694  0.4492
 3535TIP3    H210612   2.059   0.175   3.609 -2.3291  0.9090  0.6066
 3536TIP3   OH210613   0.828   4.196   3.281  0.1361  0.3726 -0.1451
 3536TIP3    H110614   0.745   4.149   3.292 -0.3488  1.2485  0.0307
 3536TIP3    H210615   0.860   4.208   3.370  1.7529 -2.1693 -0.2951
 3537TIP3   OH210616   4.899   4.302   3.483 -0.5177 -0.5808 -0.0033
 3537TIP3    H110617   4.898   4.263   3.570 -0.7448 -0.9959 -0.1927
 3537TIP3    H210618   4.889   4.229   3.423 -2.0828 -0.1404 -0.3216
 3538TIP3   OH210619   4.764   3.244   1.582 -0.3701  0.3275  0.2582
 3538TIP3    H110620   4.701   3.271   1.515 -0.2382 -0.6467 -0.2716
 3538TIP3    H210621   4.824   3.185   1.536 -1.1009 -1.4934  1.5534
 3539TIP3   OH210622   2.275   0.370   4.276  0.7403 -0.2946 -0.0600
 3539TIP3    H110623   2.244   0.371   4.186 -0.9451  2.3807  0.3985
 3539TIP3    H210624   2.368   0.391   4.270  0.4566  0.7636 -1.1730
 3540TIP3   OH210625   5.569   0.972   3.429  0.0343  0.1018  0.7921
 3540TIP3    H110626   5.594   0.946   3.340  2.6991 -0.3415  1.5815
 3540TIP3    H210627   5.622   1.049   3.448 -0.4778  0.1817  2.0014
 3541TIP3   OH210628   0.465   3.299   0.050  0.0302 -0.3125 -0.0891
 3541TIP3    H110629   0.541   3.258   0.009 -1.0419 -0.0621 -2.4742
 3541TIP3    H210630   0.416   3.225   0.087  1.4704 -0.4539  1.7105
 3542TIP3   OH210631   4.305   2.941   2.196  0.2131 -0.0683  0.5393
 3542TIP3    H110632   4.236   2.920   2.259  0.5823 -0.3243  0.8594
 3542TIP3    H210633   4.263   3.002   2.135 -0.6627 -1.1505  0.0271
 3543TIP3   OH210634   2.127   4.752   2.310 -0.0236 -0.2167 -0.0557
 3543TIP3    H110635   2.165   4.664   2.315  0.0268 -0.2265 -0.5577
 3543TIP3    H210636   2.192   4.804   2.264  0.3699  0.3322  1.0780
 3544TIP3   OH210637   0.168   0.386   1.606  0.1518  0.1060 -0.2421
 3544TIP3    H110638   0.239   0.322   1.595 -1.7518 -2.4094  1.0905
 3544TIP3    H210639   0.184   0.425   1.692  0.9255  0.9641 -0.7565
 3545TIP3   OH210640   1.638   1.353   4.480 -0.2698  0.5165 -0.4348
 3545TIP3    H110641   1.603   1.391   4.560  1.4101 -0.5268  0.8710
 3545TIP3    H210642   1.706   1.292   4.510 -0.3252 -0.7143 -2.6071
 3546TIP3   OH210643   5.054   5.129   1.864 -0.1490  0.1432 -0.4212
 3546TIP3    H110644   5.120   5.152   1.800  1.8770 -0.4732  1.3082
 3546TIP3    H210645   5.084   5.045   1.900  0.4525  1.7115  3.2404
 3547TIP3   OH210646   5.459   3.943   5.036  0.0223 -0.2822  0.2417
 3547TIP3    H110647   5.367   3.920   5.019  0.0367 -1.8951  1.9834
 3547TIP3    H210648   5.455   4.008   5.107  0.2024  1.1205 -0.9821
 3548TIP3   OH210649   1.739   1.044   1.779  0.2698 -0.2999 -0.7597
 3548TIP3    H110650   1.706   1.012   1.863  0.0159  0.8724 -0.4042
 3548TIP3    H210651   1.700   1.130   1.768  2.6928  0.8911 -0.6113
 3549TIP3   OH210652   4.227   2.171   4.108  0.5715 -0.3103 -0.2125
 3549TIP3    H110653   4.288   2.147   4.178  0.1011  0.0538  0.3371
 3549TIP3    H210654   4.169   2.235   4.149 -0.1467 -0.6188 -0.7447
 3550TIP3   OH210655   3.981   0.941   4.246 -0.1821  0.3111  0.0108
 3550TIP3    H110656   4.011   0.905   4.329  0.5712  0.0737 -0.3630
 3550TIP3    H210657   4.032   0.895   4.179 -0.5193  0.7603 -0.5671
 3551TIP3   OH210658   3.926   3.253   1.788 -0.0837  0.3964  0.2615
 3551TIP3    H110659   3.882   3.236   1.705  0.4041  2.8073 -0.5911
 3551TIP3    H210660   3.864   3.224   1.855 -0.4090 -1.7553 -0.9014
 3552TIP3   OH210661   4.248   1.919   3.609  0.2732 -0.0648  0.3853
 3552TIP3    H110662   4.177   1.863   3.639  1.0013 -0.1738  2.0086
 3552TIP3    H210663   4.325   1.889   3.658  0.8472  1.8212  0.7063
 3553TIP3   OH210664   5.507   4.276   3.772  0.0382 -0.3356  0.4928
 3553TIP3    H110665   5.557   4.331   3.712 -1.4364  1.6546  0.9912
 3553TIP3    H210666   5.556   4.280   3.854  0.5368 -0.7312  0.2230
 3554TIP3   OH210667   1.094   1.452   0.602 -0.5307 -0.3132 -0.1912
 3554TIP3    H110668   1.032   1.389   0.640  0.4116 -0.4125  1.2351
 3554TIP3    H210669   1.173   1.400   0.585  0.0011  0.3291  0.2976
 3555TIP3   OH210670   5.697   0.385   4.764 -0.4679  0.3000  0.3511
 3555TIP3    H110671   5.651   0.469   4.771  0.4635  0.8711 -0.1888
 3555TIP3    H210672   5.643   0.324   4.815 -1.3111  1.1547  0.5133
 3556TIP3   OH210673   1.283   4.851   2.572  0.1148  0.2329  0.5581
 3556TIP3    H110674   1.299   4.834   2.665 -1.2103  1.4620  1.0510
 3556TIP3    H210675   1.261   4.765   2.535  0.7055 -0.2734  1.3491
 3557TIP3   OH210676   4.456   1.740   3.855 -0.0074  0.2587  0.1475
 3557TIP3    H110677   4.417   1.656   3.830 -0.5637  0.4673  0.3131
 3557TIP3    H210678   4.382   1.799   3.869  0.3745  0.7498  0.1478
 3558TIP3   OH210679   1.052   3.444   3.469 -0.6990  0.0814 -0.0136
 3558TIP3    H110680   1.001   3.377   3.425  1.2979  0.5954 -3.5275
 3558TIP3    H210681   1.122   3.396   3.514 -1.9611 -0.3706  1.5589
 3559TIP3   OH210682   2.816   3.447   0.134  0.1764 -0.3867  0.9212
 3559TIP3    H110683   2.776   3.534   0.131 -0.2267 -0.5909 -0.9416
 3559TIP3    H210684   2.820   3.426   0.227 -0.5804  1.2261  1.3614
 3560TIP3   OH210685   2.120   4.543   3.050 -0.0534 -0.1816 -0.4013
 3560TIP3    H110686   2.050   4.499   3.001 -1.9448 -0.4112  2.2864
 3560TIP3    H210687   2.195   4.542   2.991 -2.0492 -0.6743 -3.1473
 3561TIP3   OH210688   2.671   2.728   4.995 -0.2961 -0.2596  0.3019
 3561TIP3    H110689   2.598   2.733   5.056  0.3936  0.9079  1.0869
 3561TIP3    H210690   2.744   2.697   5.048  0.0481 -0.3250 -0.2016
 3562TIP3   OH210691   2.939   2.657   4.092 -0.4014  0.3858 -0.0133
 3562TIP3    H110692   2.863   2.600   4.091 -0.5867  0.5503 -2.5557
 3562TIP3    H210693   3.008   2.605   4.134 -1.0735 -1.0061 -0.5819
 3563TIP3   OH210694   4.527   5.752   5.144  0.1785  0.8622  0.0759
 3563TIP3    H110695   4.499   5.830   5.193  0.0887 -0.2980  1.9642
 3563TIP3    H210696   4.606   5.722   5.190  0.5447  0.1459 -0.9753
 3564TIP3   OH210697   5.264   4.634   0.429  0.0923  0.4484  0.0545
 3564TIP3    H110698   5.293   4.562   0.373 -0.0488  0.0231  0.5214
 3564TIP3    H210699   5.273   4.600   0.518 -0.0970  0.9643  0.2729
 3565TIP3   OH210700   2.458   0.105   3.737  0.1428  0.6486 -0.1590
 3565TIP3    H110701   2.523   0.162   3.697  0.7314 -0.4825 -0.8515
 3565TIP3    H210702   2.477   0.018   3.703 -1.6608  0.2627 -0.2972
 3566TIP3   OH210703   1.811   3.660   2.031 -0.4606  0.0757 -0.1475
 3566TIP3    H110704   1.750   3.588   2.016  0.2518 -0.6058  0.1502
 3566TIP3    H210705   1.812   3.671   2.126  0.4567 -0.4597 -0.0743
 3567TIP3   OH210706   4.962   0.709   2.052  0.4789 -0.3187 -0.1876
 3567TIP3    H110707   4.997   0.622   2.071  0.3910 -0.2076  0.5083
 3567TIP3    H210708   4.920   0.699   1.967  0.7024 -0.8885 -0.2417
 3568TIP3   OH210709   6.147   1.108   1.384 -0.4765  0.2194 -0.0098
 3568TIP3    H110710   6.214   1.096   1.451 -0.5781  0.5490  0.1513
 3568TIP3    H210711   6.085   1.036   1.400 -0.1870 -0.0576 -0.1310
 3569TIP3   OH210712   4.296   1.150   1.837  0.0510 -0.1029 -0.1169
 3569TIP3    H110713   4.216   1.100   1.822  1.8001 -3.0708 -0.3434
 3569TIP3    H210714   4.285   1.188   1.924 -1.8017  0.0227 -0.3755
 3570TIP3   OH210715   4.580   1.792   0.559  0.0024 -0.2345 -0.0579
 3570TIP3    H110716   4.634   1.714   0.547  0.3813 -0.1934  1.2621
 3570TIP3    H210717   4.620   1.839   0.633 -0.0248  1.3886 -1.0075
 3571TIP3   OH210718   6.344   4.396   4.667  0.0496 -0.8975  0.5135
 3571TIP3    H110719   6.377   4.451   4.595  0.9751 -2.0128  0.0574
 3571TIP3    H210720   6.259   4.434   4.688  1.1349  1.4453  1.0191
 3572TIP3   OH210721   5.880   2.537   4.232 -0.0654  0.5120 -0.0715
 3572TIP3    H110722   5.975   2.534   4.221 -0.2500  1.9311 -2.9585
 3572TIP3    H210723   5.863   2.620   4.277  0.0187  0.2259  0.5074
 3573TIP3   OH210724   5.795   2.760   0.148 -0.3561 -0.3532 -0.0909
 3573TIP3    H110725   5.831   2.750   0.236 -0.5207 -0.1420  0.0015
 3573TIP3    H210726   5.868   2.795   0.097 -0.1614 -0.7985 -0.1181
 3574TIP3   OH210727   3.854   2.603   5.151  0.2130 -0.1060  0.1467
 3574TIP3    H110728   3.787   2.535   5.156 -1.2816  1.2427 -0.9131
 3574TIP3    H210729   3.924   2.563   5.099 -0.4382 -0.9778 -0.0933
 3575TIP3   OH210730   2.886   5.591   0.446 -0.1742  0.4221  0.1889
 3575TIP3    H110731   2.825   5.637   0.388  0.6073  0.5569 -0.5322
 3575TIP3    H210732   2.972   5.626   0.423  0.3288 -0.7443  0.2678
 3576TIP3   OH210733   3.275   1.111   0.913  0.0507 -0.0469  0.1409
 3576TIP3    H110734   3.328   1.159   0.849  1.4945  0.4306  1.6114
 3576TIP3    H210735   3.204   1.072   0.861  2.6133 -1.9614 -2.2392
 3577TIP3   OH210736   1.428   4.527   2.713  0.3327 -0.8509 -0.3326
 3577TIP3    H110737   1.360   4.538   2.647 -0.3486  2.2905  0.7401
 3577TIP3    H210738   1.380   4.518   2.795  1.1460  0.7929  0.3668
 3578TIP3   OH210739   5.669   4.942   0.487 -0.1160  0.4754 -0.7391
 3578TIP3    H110740   5.695   5.034   0.498  2.1123 -0.2643  1.0215
 3578TIP3    H210741   5.594   4.931   0.545  1.0782  0.6892  0.9191
 3579TIP3   OH210742   2.813   1.169   2.252 -0.7208 -0.6034  0.3335
 3579TIP3    H110743   2.751   1.155   2.323  0.1841 -1.3278  1.0112
 3579TIP3    H210744   2.864   1.088   2.249  1.0035  0.4243  0.6249
 3580TIP3   OH210745   1.430   5.000   4.205  0.3488 -0.8746 -0.2069
 3580TIP3    H110746   1.353   4.960   4.163 -0.2798 -0.5944  0.6545
 3580TIP3    H210747   1.425   5.092   4.181  1.2786 -1.1066 -1.4084
 3581TIP3   OH210748   0.945   0.803   3.014  0.2832  0.9109  0.2728
 3581TIP3    H110749   1.023   0.857   3.000  1.4985 -0.8604 -0.1079
 3581TIP3    H210750   0.961   0.760   3.097 -0.2298  0.4447  0.1316
 3582TIP3   OH210751   1.936   4.678   5.089  0.6954 -0.0939  0.7770
 3582TIP3    H110752   1.914   4.718   5.173 -0.4504  0.6386  0.1657
 3582TIP3    H210753   1.926   4.750   5.026 -2.3341 -1.4530 -0.5147
 3583TIP3   OH210754   0.616   4.138   0.703 -0.4548 -0.3273  0.2647
 3583TIP3    H110755   0.646   4.133   0.794 -0.1135  1.3650  0.2739
 3583TIP3    H210756   0.671   4.076   0.656 -1.5426 -2.2746  1.3939
 3584TIP3   OH210757   5.071   2.036   5.206  0.1119 -0.0983 -0.3559
 3584TIP3    H110758   4.976   2.027   5.193  0.1868 -1.4507 -0.1699
 3584TIP3    H210759   5.109   1.974   5.144  0.9210  0.9435 -0.9324
 3585TIP3   OH210760   3.148   5.488   2.325 -0.8973  0.5362  0.2126
 3585TIP3    H110761   3.242   5.497   2.311 -0.7576 -0.8699  0.0535
 3585TIP3    H210762   3.126   5.557   2.388 -0.2411  2.4902 -1.5722
 3586TIP3   OH210763   1.128   4.204   5.088  0.9482  0.2250 -0.3460
 3586TIP3    H110764   1.214   4.163   5.091  0.5669 -0.5694  0.0899
 3586TIP3    H210765   1.144   4.296   5.110  2.1216  0.9003 -3.4808
 3587TIP3   OH210766   2.525   5.048   5.006 -0.0695  0.6702  0.6901
 3587TIP3    H110767   2.548   4.969   4.957  0.4994  0.8944  0.5936
 3587TIP3    H210768   2.483   5.105   4.942  0.4260  0.8513  0.5239
 3588TIP3   OH210769   0.594   0.044   2.211 -0.4778 -0.4910 -0.2565
 3588TIP3    H110770   0.626   0.133   2.229 -0.3100 -0.5592 -0.2164
 3588TIP3    H210771   0.573   0.008   2.297  2.8279 -1.7771  0.1672
 3589TIP3   OH210772   2.460   5.866   1.034  0.8268 -0.1365  0.5678
 3589TIP3    H110773   2.485   5.956   1.054  0.3862 -0.6165  3.7174
 3589TIP3    H210774   2.364   5.866   1.036  0.8233 -0.6961  0.5815
 3590TIP3   OH210775   6.303   1.935   3.686  0.9062 -1.0787  0.3224
 3590TIP3    H110776   6.228   1.989   3.709  2.4711  0.7372  1.4008
 3590TIP3    H210777   6.314   1.875   3.760  2.0299  0.4106  1.4200
 3591TIP3   OH210778   2.059   3.259   1.573 -0.6243  0.2141 -0.6146
 3591TIP3    H110779   1.993   3.260   1.642 -2.0113 -1.7906 -1.7907
 3591TIP3    H210780   2.061   3.349   1.540 -1.3080  0.7521  0.7519
 3592TIP3   OH210781   3.408   3.049   4.669  0.6880  0.4838  0.3014
 3592TIP3    H110782   3.415   3.081   4.759  0.8194  1.3033  0.0150
 3592TIP3    H210783   3.391   2.956   4.678 -1.4719  0.9113  1.2164
 3593TIP3   OH210784   5.578   4.059   0.627 -0.4043  0.5140  0.3852
 3593TIP3    H110785   5.606   4.042   0.537  0.1383 -1.6131  0.8838
 3593TIP3    H210786   5.659   4.059   0.678 -0.8793 -1.7500  1.2919
 3594TIP3   OH210787   1.942   4.969   3.710 -0.3862 -0.2362  0.0129
 3594TIP3    H110788   1.867   4.913   3.727  0.6360 -1.2530  1.3001
 3594TIP3    H210789   1.992   4.969   3.791  0.2184  1.6861 -0.2963
 3595TIP3   OH210790   4.405   0.679   2.468 -0.4681 -0.5136  0.3627
 3595TIP3    H110791   4.322   0.725   2.484  1.1807  1.8435  2.7718
 3595TIP3    H210792   4.425   0.636   2.551  1.4112  0.1906  0.3148
 3596TIP3   OH210793   5.642   2.679   1.014  0.0375 -0.3121 -0.6771
 3596TIP3    H110794   5.703   2.611   1.045  0.6409  1.1191  1.4463
 3596TIP3    H210795   5.602   2.713   1.093 -0.2865  1.8070 -1.6986
 3597TIP3   OH210796   2.290   4.759   0.202 -0.1138 -0.4738  0.1880
 3597TIP3    H110797   2.241   4.691   0.248  1.4890 -1.8704 -0.0643
 3597TIP3    H210798   2.341   4.711   0.137  0.8711  1.0172 -0.1725
 3598TIP3   OH210799   2.734   1.805   0.875  0.7404 -0.6845 -0.1093
 3598TIP3    H110800   2.693   1.822   0.790  1.0851  0.2479 -0.0915
 3598TIP3    H210801   2.697   1.721   0.902 -0.1039 -0.5315 -0.7404
 3599TIP3   OH210802   2.746   1.794   5.130  0.2102 -0.2926  0.2540
 3599TIP3    H110803   2.720   1.831   5.046  1.3879 -2.1158 -0.9768
 3599TIP3    H210804   2.761   1.871   5.186 -0.8266  0.9471 -1.0965
 3600TIP3   OH210805   1.984   5.742   4.434  0.5190 -0.1758 -0.2665
 3600TIP3    H110806   2.058   5.707   4.484  0.5363 -0.0298 -0.1886
 3600TIP3    H210807   2.023   5.806   4.374  0.3642  0.4660  0.3097
 3601TIP3   OH210808   0.283   5.628   0.252 -0.3506  0.1208 -0.0460
 3601TIP3    H110809   0.354   5.692   0.258 -0.2448 -0.0364  0.4197
 3601TIP3    H210810   0.244   5.643   0.166  0.0563  0.4087 -0.1810
 3602TIP3   OH210811   4.402   0.884   4.370 -0.0520  0.2347 -0.8764
 3602TIP3    H110812   4.397   0.865   4.277  0.0042  0.7744 -0.9949
 3602TIP3    H210813   4.441   0.805   4.409 -0.1958 -0.0408 -1.2879
 3603TIP3   OH210814   5.440   3.903   2.444  0.7734 -1.3605  0.2598
 3603TIP3    H110815   5.392   3.918   2.362 -0.1562 -3.0412  0.4658
 3603TIP3    H210816   5.453   3.991   2.480  1.2168 -0.5816 -1.6756
 3604TIP3   OH210817   1.898   1.276   1.934 -0.7606 -0.0812 -0.3922
 3604TIP3    H110818   1.942   1.192   1.925 -0.7712 -0.1466  0.1434
 3604TIP3    H210819   1.929   1.311   2.018 -0.3921  0.6634 -0.8311
 3605TIP3   OH210820   4.787   5.866   1.081  0.7908 -0.1387  0.9511
 3605TIP3    H110821   4.853   5.934   1.080  0.3770  0.2640  0.7712
 3605TIP3    H210822   4.709   5.907   1.043  0.7849 -0.9602  0.0520
 3606TIP3   OH210823   5.474   1.203   0.407 -0.2704  0.0818  0.1888
 3606TIP3    H110824   5.388   1.216   0.366 -0.0636 -1.6798 -0.9214
 3606TIP3    H210825   5.535   1.249   0.350  0.3172 -4.0949 -3.0763
 3607TIP3   OH210826   2.117   3.074   3.713  0.0042  0.6912 -0.1418
 3607TIP3    H110827   2.021   3.066   3.714  0.0273  0.3951 -0.2818
 3607TIP3    H210828   2.140   3.072   3.620  0.0917  1.4486 -0.1387
 3608TIP3   OH210829   3.681   4.263   1.030 -0.3898  0.0069  0.0089
 3608TIP3    H110830   3.630   4.226   1.102 -0.3160 -1.9463 -0.8769
 3608TIP3    H210831   3.680   4.195   0.963  2.4933  0.2990 -0.4779
 3609TIP3   OH210832   5.916   0.624   2.570 -0.3659  0.3930 -0.0720
 3609TIP3    H110833   5.943   0.589   2.485  0.5555 -1.7102  1.0165
 3609TIP3    H210834   5.885   0.713   2.551  0.5073  0.2459 -2.4702
 3610TIP3   OH210835   1.450   1.606   1.208 -0.7290 -0.3293  0.5237
 3610TIP3    H110836   1.385   1.606   1.279  0.5651  0.4815  1.7747
 3610TIP3    H210837   1.533   1.594   1.253  0.2663  1.5531 -0.6909
 3611TIP3   OH210838   0.572   4.457   0.589  0.1168  0.3015  0.0527
 3611TIP3    H110839   0.594   4.478   0.679  0.5651  2.2727 -0.4709
 3611TIP3    H210840   0.588   4.363   0.581  1.3819  0.3534  1.6488
 3612TIP3   OH210841   4.831   0.884   2.766 -0.1031  0.3530 -0.2326
 3612TIP3    H110842   4.841   0.950   2.835  1.0919 -1.1058  1.0542
 3612TIP3    H210843   4.920   0.854   2.748 -0.6976 -1.7880  0.1494
 3613TIP3   OH210844   3.115   2.683   2.356  0.6890 -0.0234  0.4695
 3613TIP3    H110845   3.190   2.663   2.411 -0.1607 -1.3226  1.2139
 3613TIP3    H210846   3.092   2.600   2.314 -0.8408  0.1219  0.9481
 3614TIP3   OH210847   1.395   0.044   1.353 -0.1375 -0.7120 -0.3978
 3614TIP3    H110848   1.445   0.076   1.278  0.2183 -1.1326 -0.3449
 3614TIP3    H210849   1.342  -0.028   1.317  0.4138 -1.2512 -0.1448
 3615TIP3   OH210850   3.155   5.659   0.384  0.8778 -0.1179 -0.1890
 3615TIP3    H110851   3.120   5.746   0.401  1.2139 -0.3405  1.8658
 3615TIP3    H210852   3.249   5.672   0.377  0.8588 -0.2186 -0.6583
 3616TIP3   OH210853   3.614   3.599   3.637  0.4131 -1.0572  0.7887
 3616TIP3    H110854   3.532   3.572   3.678 -0.4635 -0.6583 -0.6529
 3616TIP3    H210855   3.669   3.628   3.710 -0.5457 -1.7634  1.8187
 3617TIP3   OH210856   3.714   3.491   2.225  0.5478  0.4407 -0.0509
 3617TIP3    H110857   3.713   3.582   2.199  1.7544  0.2064 -0.9683
 3617TIP3    H210858   3.720   3.442   2.143  2.1222 -0.3770  0.5092
 3618TIP3   OH210859   4.329   1.455   2.190 -0.4367  0.6359  0.6300
 3618TIP3    H110860   4.289   1.443   2.103 -1.7777  1.4513  1.0970
 3618TIP3    H210861   4.406   1.398   2.189 -0.8713  0.0130 -0.8090
 3619TIP3   OH210862   2.415   2.857   4.303 -0.1151  0.0030  0.6825
 3619TIP3    H110863   2.415   2.817   4.390  0.5857 -0.1859  0.5969
 3619TIP3    H210864   2.363   2.798   4.249 -0.7117  0.2161  1.0125
 3620TIP3   OH210865   0.693   0.808   3.188  0.0483 -0.2342  0.1118
 3620TIP3    H110866   0.644   0.850   3.259 -1.0648 -0.8230 -0.2952
 3620TIP3    H210867   0.762   0.871   3.166 -0.0799  0.2926  1.1782
 3621TIP3   OH210868   1.496   3.315   3.482 -0.4666  0.3953  0.1440
 3621TIP3    H110869   1.543   3.390   3.444 -0.8894  0.8070  0.4320
 3621TIP3    H210870   1.564   3.267   3.530  0.1370 -0.2665 -1.2850
 3622TIP3   OH210871   4.522   3.487   1.749  0.0917  0.0340  0.5054
 3622TIP3    H110872   4.557   3.438   1.823 -0.0564 -0.3268  0.3367
 3622TIP3    H210873   4.582   3.562   1.739  0.0284  0.1644  1.0762
 3623TIP3   OH210874   4.247   3.303   2.975 -0.5168  0.3687 -0.2117
 3623TIP3    H110875   4.189   3.313   3.050  2.4425  2.1344  2.0829
 3623TIP3    H210876   4.300   3.383   2.975  0.7339 -0.2990 -3.2439
 3624TIP3   OH210877   4.504   5.076   1.643  0.3628 -0.0790  0.1545
 3624TIP3    H110878   4.484   5.031   1.561 -0.5090  0.4994  0.0459
 3624TIP3    H210879   4.588   5.120   1.626  0.4024 -0.3165 -0.2810
 3625TIP3   OH210880   3.404   0.826   0.637  0.5218  0.3843  0.0414
 3625TIP3    H110881   3.444   0.912   0.650  0.4203  0.4969 -0.3663
 3625TIP3    H210882   3.335   0.841   0.572  0.3456  0.0396  0.1442
 3626TIP3   OH210883   4.031   2.225   2.127  0.3190  0.1403  0.0774
 3626TIP3    H110884   4.126   2.222   2.113  0.6134  2.0045  1.3709
 3626TIP3    H210885   4.021   2.232   2.222 -1.0760  1.0378 -0.1109
 3627TIP3   OH210886   0.026   4.127   0.819 -0.1016 -0.0053  0.1163
 3627TIP3    H110887   0.006   4.148   0.911 -2.7951 -0.2173 -0.3155
 3627TIP3    H210888   0.036   4.213   0.778 -0.5124  0.1429  0.3162
 3628TIP3   OH210889   0.400   1.459   2.117 -0.0867  0.6469  0.2362
 3628TIP3    H110890   0.471   1.522   2.122  0.3777  0.0921  0.7698
 3628TIP3    H210891   0.325   1.505   2.156  0.3128  0.7821  0.8680
 3629TIP3   OH210892   3.730   4.936   3.827  0.3714 -0.1641 -0.6566
 3629TIP3    H110893   3.634   4.936   3.826  0.2731 -0.0317  2.3000
 3629TIP3    H210894   3.753   4.843   3.838  0.4159  0.0749  1.7087
 3630TIP3   OH210895   1.217   0.765   0.289  0.1301  0.1567 -0.3022
 3630TIP3    H110896   1.301   0.809   0.301  0.5280 -0.6432 -0.0732
 3630TIP3    H210897   1.167   0.824   0.232  0.7387  0.7736 -0.2091
 3631TIP3   OH210898   4.821   3.129   4.389  0.0936 -0.2637  0.5413
 3631TIP3    H110899   4.741   3.078   4.398 -0.2108  0.4671  2.3007
 3631TIP3    H210900   4.802   3.189   4.317 -1.2118  0.3215  1.3238
 3632TIP3   OH210901   4.452   4.090   3.718  0.2677 -0.1353 -0.0065
 3632TIP3    H110902   4.508   4.122   3.647 -0.1394 -0.1124 -0.3239
 3632TIP3    H210903   4.470   3.997   3.724 -0.2931 -0.2981 -0.7011
 3633TIP3   OH210904   6.307   2.687   1.277 -0.0755 -0.1723  0.3579
 3633TIP3    H110905   6.347   2.601   1.269 -2.0077 -1.0985  0.3210
 3633TIP3    H210906   6.379   2.748   1.260  1.7539 -1.7031  2.0575
 3634TIP3   OH210907   5.626   0.923   1.826 -0.1109 -1.0110  0.4251
 3634TIP3    H110908   5.639   0.951   1.736 -1.6380 -1.7979 -0.0707
 3634TIP3    H210909   5.672   0.839   1.831  0.9271 -0.4477  0.7291
 3635TIP3   OH210910   3.553   2.070   4.791  0.0139 -0.5340  0.0566
 3635TIP3    H110911   3.515   2.153   4.818  1.2009  0.4490 -1.1597
 3635TIP3    H210912   3.479   2.019   4.758 -0.7620 -0.0586  1.0401
 3636TIP3   OH210913   3.627   5.899   4.565  0.1878  0.1089 -0.7219
 3636TIP3    H110914   3.717   5.872   4.545 -0.2710 -0.8762 -1.6044
 3636TIP3    H210915   3.589   5.825   4.612 -0.4678  0.0777 -1.2788
 3637TIP3   OH210916   0.672   3.023   0.156 -0.1625  0.2220 -0.5513
 3637TIP3    H110917   0.610   2.980   0.098  0.1707 -0.7571 -0.2109
 3637TIP3    H210918   0.680   2.963   0.230  1.9788 -0.2193 -1.0714
 3638TIP3   OH210919   0.169   0.960   0.040 -0.1331  0.1609 -0.4457
 3638TIP3    H110920   0.259   0.934   0.020  0.3128 -0.9337  2.5301
 3638TIP3    H210921   0.116   0.885   0.013 -0.3120  1.0471 -2.7731
 3639TIP3   OH210922   0.802   3.697   3.089 -0.5127 -0.0434 -0.4653
 3639TIP3    H110923   0.883   3.665   3.129 -2.3955 -0.8365  3.0953
 3639TIP3    H210924   0.808   3.793   3.094 -1.2690 -0.0694  3.4325
 3640TIP3   OH210925   2.324   2.112   1.838  0.3102 -0.1757 -0.2660
 3640TIP3    H110926   2.294   2.203   1.831  1.2397  0.3873  2.2049
 3640TIP3    H210927   2.244   2.060   1.829 -1.0371  1.1373  2.7641
 3641TIP3   OH210928   6.175   5.794   1.840 -0.5205 -0.0640  0.0829
 3641TIP3    H110929   6.091   5.747   1.843 -2.1293  2.5264 -0.8083
 3641TIP3    H210930   6.241   5.725   1.849 -2.7142 -2.1538  1.5548
 3642TIP3   OH210931   4.184   0.847   2.469  0.1360 -0.4743  0.3588
 3642TIP3    H110932   4.194   0.899   2.549  0.6098  0.1545 -0.0975
 3642TIP3    H210933   4.117   0.782   2.491 -1.4816  1.1434  0.5542
 3643TIP3   OH210934   2.221   4.062   0.677  0.2084 -0.7467  0.7732
 3643TIP3    H110935   2.308   4.076   0.640 -0.0853 -1.9657 -0.4345
 3643TIP3    H210936   2.236   4.053   0.771  1.0067  2.0688  1.0259
 3644TIP3   OH210937   2.765   5.454   3.397  0.8209 -0.6429 -0.2599
 3644TIP3    H110938   2.693   5.456   3.460  1.3962  2.5900  0.4238
 3644TIP3    H210939   2.840   5.422   3.447  0.9491  0.5901  0.3736
 3645TIP3   OH210940   2.248   4.828   1.920 -0.9503 -0.1695 -0.0025
 3645TIP3    H110941   2.223   4.852   1.830 -1.6592 -1.8098 -0.2827
 3645TIP3    H210942   2.186   4.875   1.975 -1.0768  0.1662 -0.4254
 3646TIP3   OH210943   3.881   5.442   0.724 -0.3514 -0.0966  0.2141
 3646TIP3    H110944   3.802   5.389   0.720  0.8858 -2.0810  0.7488
 3646TIP3    H210945   3.851   5.532   0.707 -2.6665 -0.7946  0.3348
 3647TIP3   OH210946   1.134   4.117   4.748 -0.0416 -0.6367  0.2877
 3647TIP3    H110947   1.201   4.135   4.814 -0.7658 -1.9339  1.4325
 3647TIP3    H210948   1.093   4.202   4.733 -0.3863 -0.4257  2.1315
 3648TIP3   OH210949   1.651   4.169   0.357  0.4610 -0.1257 -0.0588
 3648TIP3    H110950   1.569   4.209   0.327  1.3385  1.5224 -0.3534
 3648TIP3    H210951   1.657   4.088   0.307 -1.9513 -1.3121  1.3998
 3649TIP3   OH210952   1.216   4.412   3.181  0.2240 -0.5226 -0.2108
 3649TIP3    H110953   1.149   4.346   3.162 -0.0550 -0.2315 -0.2422
 3649TIP3    H210954   1.298   4.362   3.186 -0.3670 -1.3813  2.9055
 3650TIP3   OH210955   4.892   0.683   4.804 -0.2663  0.0301  0.5531
 3650TIP3    H110956   4.816   0.656   4.754  1.3682 -1.5119 -1.2178
 3650TIP3    H210957   4.865   0.765   4.846 -2.3635  0.3455 -1.2622
 3651TIP3   OH210958   5.986   0.909   4.889 -0.0921 -0.2689  0.6973
 3651TIP3    H110959   6.006   0.963   4.964 -0.8311 -0.3342  0.9530
 3651TIP3    H210960   6.047   0.938   4.821  1.7818 -1.3874  1.8154
 3652TIP3   OH210961   1.414   2.477   3.729 -0.7412  0.5192  0.0352
 3652TIP3    H110962   1.419   2.573   3.736  0.2750  0.4595  0.3500
 3652TIP3    H210963   1.330   2.460   3.687  0.0741  1.6587 -2.1795
 3653TIP3   OH210964   4.515   2.838   2.629  0.1865  0.0884  0.1052
 3653TIP3    H110965   4.475   2.924   2.648  2.4056  1.9329 -2.7008
 3653TIP3    H210966   4.530   2.839   2.534  1.3984 -2.9608  0.1582
 3654TIP3   OH210967   3.171   0.123   2.989 -0.2872 -0.2953 -0.4820
 3654TIP3    H110968   3.195   0.175   3.066  0.1848 -0.9710 -0.1632
 3654TIP3    H210969   3.243   0.137   2.928 -0.4903 -0.0414 -0.6661
 3655TIP3   OH210970   5.709   0.377   3.180  0.2728  0.2985  0.3058
 3655TIP3    H110971   5.805   0.371   3.180  0.2435 -0.4545  1.2328
 3655TIP3    H210972   5.680   0.303   3.127  0.2115  0.6738 -0.1824
 3656TIP3   OH210973   1.485   5.920   4.653 -0.0104 -0.7385  0.2921
 3656TIP3    H110974   1.486   5.902   4.746  0.2476 -0.0527  0.4290
 3656TIP3    H210975   1.392   5.932   4.631 -0.0072 -0.0451  0.6373
 3657TIP3   OH210976   5.159   5.071   3.745 -0.3036  0.5389 -0.0696
 3657TIP3    H110977   5.252   5.076   3.726 -0.2538  0.9420  0.2551
 3657TIP3    H210978   5.130   5.162   3.750 -0.5174  0.4365  0.7425
 3658TIP3   OH210979   0.100   4.000   4.498 -0.0317  0.4880 -0.6478
 3658TIP3    H110980   0.143   4.085   4.498 -1.3796  1.1962  0.0572
 3658TIP3    H210981   0.008   4.020   4.479 -0.5167 -0.7190  0.3134
 3659TIP3   OH210982   1.195   3.165   4.475 -0.7690 -0.4148  1.0734
 3659TIP3    H110983   1.200   3.073   4.501 -1.6896 -1.0087 -0.7295
 3659TIP3    H210984   1.202   3.164   4.380 -2.3510  1.2381  0.8870
 3660TIP3   OH210985   2.549   0.638   1.797 -0.6894 -0.1271 -0.2582
 3660TIP3    H110986   2.560   0.656   1.890  1.1172 -1.6162 -0.1198
 3660TIP3    H210987   2.570   0.721   1.754 -1.6108  0.5912  0.6380
 3661TIP3   OH210988   5.454   4.579   1.423 -0.0468  0.4975  0.8334
 3661TIP3    H110989   5.396   4.505   1.442 -1.0568  0.7230 -1.1468
 3661TIP3    H210990   5.526   4.541   1.373 -1.5137  1.0477 -1.8450
 3662TIP3   OH210991   6.312   4.470   1.814  0.0796  0.0362 -0.3811
 3662TIP3    H110992   6.309   4.554   1.860 -0.8116 -0.0397 -0.2830
 3662TIP3    H210993   6.281   4.490   1.725 -0.2688 -0.2142 -0.3163
 3663TIP3   OH210994   3.377   2.975   0.285 -0.5578 -0.1024 -0.0618
 3663TIP3    H110995   3.364   3.069   0.269  2.0418 -0.1136 -3.2299
 3663TIP3    H210996   3.452   2.971   0.344 -1.0625 -0.2405  0.5880
 3664TIP3   OH210997   5.727   1.863   2.352 -0.6362  0.1396 -0.0731
 3664TIP3    H110998   5.756   1.954   2.357 -1.1906  0.2552  1.5218
 3664TIP3    H210999   5.694   1.853   2.262  0.3452  1.2025 -0.5829
 3665TIP3   OH211000   3.028   0.053   0.811 -0.5146  0.4537 -0.5037
 3665TIP3    H111001   2.962   0.020   0.872  1.4106 -0.3147  1.2880
 3665TIP3    H211002   3.087   0.105   0.865  0.9970  0.1683 -1.8169
 3666TIP3   OH211003   4.529   0.655   0.665  0.3921 -0.0096 -0.1235
 3666TIP3    H111004   4.556   0.680   0.577 -2.2924 -0.1950 -1.0862
 3666TIP3    H211005   4.532   0.559   0.664  1.3263  0.0057  0.3477
 3667TIP3   OH211006   2.156   3.390   3.610 -0.0315 -0.4252 -0.4079
 3667TIP3    H111007   2.237   3.383   3.659  0.3793  2.0314 -0.6213
 3667TIP3    H211008   2.173   3.456   3.543 -1.6399 -1.2036 -1.6815
 3668TIP3   OH211009   0.467   1.314   1.798  0.0099  0.2789 -0.3577
 3668TIP3    H111010   0.516   1.265   1.733 -0.0713  1.1115 -1.0608
 3668TIP3    H211011   0.471   1.260   1.877  1.6482  0.1235 -0.5290
 3669TIP3   OH211012   3.920   5.087   3.180  0.3330 -0.0822  0.2037
 3669TIP3    H111013   4.005   5.098   3.222  0.7728  0.3052 -0.7775
 3669TIP3    H211014   3.939   5.046   3.096 -0.5135 -0.5463  0.2165
 3670TIP3   OH211015   4.864   1.560   3.593  0.4504 -0.2884 -0.0717
 3670TIP3    H111016   4.795   1.535   3.532  0.5214 -0.1090 -0.2294
 3670TIP3    H211017   4.818   1.581   3.674  0.2966  0.0111 -0.2312
 3671TIP3   OH211018   2.510   2.388   4.964  0.3763  0.3429 -0.0437
 3671TIP3    H111019   2.501   2.300   4.927  2.8982  0.0540 -0.1059
 3671TIP3    H211020   2.465   2.382   5.049  0.5526 -1.0245 -0.0171
 3672TIP3   OH211021   4.714   5.586   4.288  0.0408  0.1155 -0.4170
 3672TIP3    H111022   4.767   5.642   4.232  0.9396 -1.1065 -0.8417
 3672TIP3    H211023   4.778   5.542   4.345 -0.8571  1.5437  1.8457
 3673TIP3   OH211024   1.344   2.953   1.873 -0.4920  0.0745 -0.5699
 3673TIP3    H111025   1.390   3.004   1.807 -1.5671 -1.1851 -2.3780
 3673TIP3    H211026   1.253   2.952   1.844 -0.7951 -1.5147  0.2768
 3674TIP3   OH211027   5.348   5.267   2.007  0.3430 -0.3985 -0.2802
 3674TIP3    H111028   5.357   5.173   1.994  1.0081 -0.3643 -0.0720
 3674TIP3    H211029   5.319   5.300   1.922  4.5835 -0.1890 -1.8777
 3675TIP3   OH211030   5.921   2.249   3.886  0.2663 -0.4206 -0.1174
 3675TIP3    H111031   5.945   2.337   3.912 -1.3836  0.2808 -0.8273
 3675TIP3    H211032   5.962   2.192   3.951  0.6795  0.9087  0.8140
 3676TIP3   OH211033   2.062   5.906   3.553  0.1498  0.1892  0.3467
 3676TIP3    H111034   2.081   5.996   3.580  0.6294 -0.1804  1.2850
 3676TIP3    H211035   2.066   5.909   3.457 -0.3593  1.2686  0.3379
 3677TIP3   OH211036   2.952   0.410   1.492 -0.6308  0.7045 -0.1445
 3677TIP3    H111037   2.901   0.466   1.551 -0.9005  1.3189 -0.9435
 3677TIP3    H211038   2.894   0.394   1.418 -0.0753  0.4496 -0.5336
 3678TIP3   OH211039   3.595   5.987   1.439 -0.0381 -0.1428  0.1982
 3678TIP3    H111040   3.686   5.999   1.411  0.0793  0.5885  0.8386
 3678TIP3    H211041   3.553   5.942   1.366  1.1791 -1.8493  0.4742
 3679TIP3   OH211042   4.186   3.665   3.116 -0.5227  0.4126 -0.6943
 3679TIP3    H111043   4.252   3.633   3.054  0.4876  1.3328 -0.1346
 3679TIP3    H211044   4.171   3.593   3.176  0.5894  0.4623 -0.3451
 3680TIP3   OH211045   2.578   0.239   4.956 -0.1044 -0.0616  0.1181
 3680TIP3    H111046   2.563   0.300   5.028 -0.0697 -0.3562  0.3775
 3680TIP3    H211047   2.494   0.194   4.945 -0.4186  0.7103 -0.7140
 3681TIP3   OH211048   3.206   2.467   3.677 -0.1870 -0.2856 -0.4524
 3681TIP3    H111049   3.178   2.557   3.662  0.5645 -0.0820 -0.6735
 3681TIP3    H211050   3.127   2.415   3.664 -0.9515  0.4433  0.9486
 3682TIP3   OH211051   1.769   0.387   0.215 -0.1317  0.4106 -0.1789
 3682TIP3    H111052   1.841   0.389   0.277  1.3064 -0.6369 -1.7428
 3682TIP3    H211053   1.720   0.308   0.237  0.0541  0.3336 -0.0460
 3683TIP3   OH211054   1.164   1.536   2.395  0.0485 -0.0181 -0.1445
 3683TIP3    H111055   1.215   1.587   2.333 -0.5564  0.0795 -0.5681
 3683TIP3    H211056   1.222   1.525   2.471  1.0153 -0.6399 -0.9544
 3684TIP3   OH211057   2.272   3.027   2.806  0.2526 -0.6207  0.3684
 3684TIP3    H111058   2.187   3.030   2.851 -0.1152 -0.4654 -0.3311
 3684TIP3    H211059   2.318   3.105   2.837 -0.7234  0.5000 -0.9136
 3685TIP3   OH211060   1.805   3.182   4.741  0.4593 -0.5033 -0.5477
 3685TIP3    H111061   1.717   3.174   4.704 -0.0117 -2.5080  0.8255
 3685TIP3    H211062   1.862   3.144   4.674  0.1249 -0.3772 -0.9071
 3686TIP3   OH211063   3.305   2.872   4.070  0.0453  0.5030  0.2225
 3686TIP3    H111064   3.360   2.870   3.992  0.1962 -1.0676  0.3354
 3686TIP3    H211065   3.217   2.889   4.037  0.2183  0.5348 -0.2207
 3687TIP3   OH211066   2.593   4.770   4.965 -0.1411  0.0281 -0.2617
 3687TIP3    H111067   2.687   4.782   4.981 -0.3127  1.9907 -0.4739
 3687TIP3    H211068   2.568   4.699   5.024  1.2793  0.1265  0.5261
 3688TIP3   OH211069   0.099   4.074   4.882  0.2783 -0.0326  0.1478
 3688TIP3    H111070   0.096   3.985   4.848  0.1626 -0.4422  1.2136
 3688TIP3    H211071   0.148   4.123   4.816  1.1279 -1.0782 -0.0181
 3689TIP3   OH211072   1.656   1.740   3.067 -0.4644 -0.4223 -0.0092
 3689TIP3    H111073   1.635   1.816   3.121  1.5286 -0.0478  0.3204
 3689TIP3    H211074   1.595   1.746   2.993 -2.9035 -0.6767  1.8682
 3690TIP3   OH211075   4.671   0.836   0.257  0.2584 -0.2156 -0.0500
 3690TIP3    H111076   4.577   0.851   0.265  0.1277 -1.2195  0.4583
 3690TIP3    H211077   4.711   0.902   0.314 -0.0174  1.3500 -1.5731
 3691TIP3   OH211078   3.858   5.379   4.389 -0.1761 -0.5099 -0.3832
 3691TIP3    H111079   3.881   5.312   4.324  1.7762 -1.0277  0.7376
 3691TIP3    H211080   3.837   5.456   4.337 -1.8064 -1.7664 -1.6885
 3692TIP3   OH211081   6.034   2.189   2.951 -0.3079 -0.0345 -0.3366
 3692TIP3    H111082   6.068   2.251   2.887  0.6005 -0.9132 -0.7451
 3692TIP3    H211083   5.939   2.198   2.947 -0.1820  1.5878 -0.1069
 3693TIP3   OH211084   5.679   4.408   1.626  0.1341  0.1951  0.4495
 3693TIP3    H111085   5.684   4.335   1.688  2.0161 -0.5361 -0.4755
 3693TIP3    H211086   5.702   4.369   1.541  0.8670  1.7878 -0.1193
 3694TIP3   OH211087   5.657   0.835   4.446 -0.3432 -0.1028  0.5315
 3694TIP3    H111088   5.657   0.778   4.370 -0.0859  1.1151 -0.4108
 3694TIP3    H211089   5.708   0.788   4.512  0.2350 -0.7601 -0.3733
 3695TIP3   OH211090   5.534   4.984   3.153 -0.2767 -0.4005 -0.1212
 3695TIP3    H111091   5.525   5.067   3.107  0.8095 -0.9115 -1.3176
 3695TIP3    H211092   5.463   4.984   3.218  0.4092  1.9757  0.7419
 3696TIP3   OH211093   6.295   5.298   4.745 -0.2040  0.1006 -0.6533
 3696TIP3    H111094   6.289   5.296   4.840 -0.6483  3.1336 -0.5333
 3696TIP3    H211095   6.211   5.261   4.715 -0.0201 -0.9678  0.0739
 3697TIP3   OH211096   5.548   2.329   3.968 -0.1695 -0.0308  0.0587
 3697TIP3    H111097   5.614   2.398   3.974  0.4674 -0.7007  1.1159
 3697TIP3    H211098   5.598   2.248   3.973 -0.8777 -0.6074 -1.4435
 3698TIP3   OH211099   3.916   0.789   2.322 -0.0268  0.4131  0.1189
 3698TIP3    H111100   3.908   0.833   2.406 -1.5017  0.0452  0.1923
 3698TIP3    H211101   3.939   0.858   2.260  1.8872  0.5650  0.9158
 3699TIP3   OH211102   0.276   4.449   2.284  0.2373  0.4038 -0.4022
 3699TIP3    H111103   0.355   4.493   2.315  0.5532 -1.5027  1.7715
 3699TIP3    H211104   0.207   4.481   2.340 -0.2327  0.8261 -1.2093
 3700TIP3   OH211105   4.040   5.737   0.357  0.1614 -0.1723  0.1159
 3700TIP3    H111106   3.966   5.684   0.329 -0.7425  1.5009 -0.8527
 3700TIP3    H211107   4.113   5.708   0.304  0.0230 -1.3093  0.5293
 3701TIP3   OH211108   4.160   0.094   2.233 -0.2157  0.6993 -0.0257
 3701TIP3    H111109   4.251   0.089   2.262  0.4498 -0.2202 -2.0894
 3701TIP3    H211110   4.121   0.013   2.265 -0.1424  0.7762  0.2689
 3702TIP3   OH211111   4.622   2.462   1.800  0.0003  0.0227 -0.0988
 3702TIP3    H111112   4.705   2.425   1.829 -0.3586 -0.3596  0.4722
 3702TIP3    H211113   4.584   2.500   1.880  0.4451  1.8304 -0.6899
 3703TIP3   OH211114   5.160   4.301   4.805 -0.3858 -0.1059 -0.3779
 3703TIP3    H111115   5.156   4.219   4.757 -1.1911  0.4289 -1.2545
 3703TIP3    H211116   5.138   4.277   4.895 -0.2323 -0.9093 -0.5475
 3704TIP3   OH211117   0.857   3.337   2.486 -0.8371  0.1200 -0.0677
 3704TIP3    H111118   0.764   3.314   2.478 -0.7432 -0.1539 -0.3896
 3704TIP3    H211119   0.899   3.255   2.512 -0.8114  0.4621  1.0048
 3705TIP3   OH211120   0.703   3.571   0.210 -0.6386 -0.4977 -0.0682
 3705TIP3    H111121   0.673   3.491   0.253  0.5738 -0.3629  1.1066
 3705TIP3    H211122   0.709   3.548   0.117 -0.8329 -1.6084  0.1765
 3706TIP3   OH211123   6.176   3.993   3.685 -0.4677 -0.0677 -0.2197
 3706TIP3    H111124   6.122   4.051   3.630 -0.0788  0.5864  0.0821
 3706TIP3    H211125   6.208   3.927   3.624  1.9613  2.0066 -1.3851
 3707TIP3   OH211126   3.003   4.656   3.221 -0.0853 -0.3234  0.5219
 3707TIP3    H111127   2.950   4.710   3.279 -1.5146 -0.8071 -0.2828
 3707TIP3    H211128   2.958   4.571   3.220  1.3822 -1.1404  0.7403
 3708TIP3   OH211129   5.599   5.108   2.603  0.0127  0.0960 -0.0101
 3708TIP3    H111130   5.656   5.041   2.564  0.4011  0.9937 -1.0238
 3708TIP3    H211131   5.640   5.191   2.580 -0.5279  0.6997  1.1347
 3709TIP3   OH211132   1.039   2.888   1.911  0.0415  0.2917  0.2952
 3709TIP3    H111133   1.020   2.963   1.968  0.4067 -0.2012  1.0847
 3709TIP3    H211134   0.970   2.825   1.933  0.5661 -0.1569  0.6793
 3710TIP3   OH211135   3.156   2.169   3.094  0.2980 -0.1606  0.1289
 3710TIP3    H111136   3.153   2.189   3.000 -1.7973  1.5765  0.4914
 3710TIP3    H211137   3.079   2.115   3.110  0.5351 -0.2860  0.8904
 3711TIP3   OH211138   5.617   1.903   4.658  0.2439 -0.6054  0.2092
 3711TIP3    H111139   5.612   1.988   4.702  2.1531 -0.9911  1.2635
 3711TIP3    H211140   5.707   1.874   4.671 -0.9197 -3.9378  2.0612
 3712TIP3   OH211141   4.622   4.815   3.531  0.0599 -0.2465  0.7461
 3712TIP3    H111142   4.571   4.737   3.506  1.9795 -1.3352  0.0258
 3712TIP3    H211143   4.560   4.887   3.522 -1.1629 -1.4023 -0.8214
 3713TIP3   OH211144   5.996   3.441   4.487 -0.0147 -0.1170 -0.0640
 3713TIP3    H111145   6.019   3.437   4.394 -1.3739 -1.3992 -0.3826
 3713TIP3    H211146   5.929   3.373   4.498  1.0428 -0.8988  2.1281
 3714TIP3   OH211147   3.174   4.634   0.095 -0.5271 -0.0092  1.0425
 3714TIP3    H111148   3.170   4.730   0.096 -1.2252 -0.0454  1.5348
 3714TIP3    H211149   3.083   4.605   0.087 -0.2596 -0.6270 -0.0497
 3715TIP3   OH211150   1.365   4.278   3.606  0.6381  0.7934 -0.1187
 3715TIP3    H111151   1.322   4.283   3.692 -0.2931 -1.3146 -0.3932
 3715TIP3    H211152   1.294   4.292   3.543  0.5846 -1.1894 -0.5570
 3716TIP3   OH211153   2.772   3.942   0.327 -0.2514 -0.5370  0.3370
 3716TIP3    H111154   2.776   3.853   0.362  1.2588 -0.9276 -0.6887
 3716TIP3    H211155   2.805   3.997   0.398  2.0494 -1.2271 -0.0855
 3717TIP3   OH211156   4.082   0.483   2.845  0.0477 -0.9905 -0.0845
 3717TIP3    H111157   4.093   0.389   2.859 -0.3812 -0.7991  1.8535
 3717TIP3    H211158   4.108   0.523   2.928 -3.8534  0.2507  0.7651
 3718TIP3   OH211159   4.173   0.128   3.921  0.0654 -0.0290  0.0008
 3718TIP3    H111160   4.136   0.042   3.939  1.9604 -0.8946  0.0523
 3718TIP3    H211161   4.187   0.130   3.827 -0.9302  0.6613 -0.1471
 3719TIP3   OH211162   5.813   1.521   0.917 -0.4518  0.1434 -0.2255
 3719TIP3    H111163   5.826   1.428   0.936 -0.8769  0.4395  1.8008
 3719TIP3    H211164   5.723   1.539   0.944 -1.2354  0.6710 -2.9094
 3720TIP3   OH211165   0.152   0.593   4.588  0.3962  0.7022 -0.0203
 3720TIP3    H111166   0.102   0.604   4.507  0.9108  0.2024 -0.4084
 3720TIP3    H211167   0.120   0.512   4.627 -0.2146  1.2046  0.5496
 3721TIP3   OH211168   0.966   3.638   5.062  0.5773 -0.0371  0.4009
 3721TIP3    H111169   1.051   3.634   5.106  0.3819 -0.9920  0.7326
 3721TIP3    H211170   0.984   3.606   4.974  0.3349 -1.6347  0.8910
 3722TIP3   OH211171   2.655   0.858   0.762 -0.1981  0.0973  0.1058
 3722TIP3    H111172   2.637   0.947   0.794  2.0249  0.9231 -0.7228
 3722TIP3    H211173   2.611   0.801   0.824 -1.7962  1.7790  0.6057
 3723TIP3   OH211174   4.063   5.767   5.137  0.2619 -0.5678  0.1442
 3723TIP3    H111175   4.127   5.826   5.177  0.6411 -0.7526 -0.1799
 3723TIP3    H211176   3.991   5.824   5.111  1.1511 -0.0214 -1.2795
 3724TIP3   OH211177   4.715   3.917   1.062  0.0444  0.1565  0.0263
 3724TIP3    H111178   4.660   3.839   1.058  0.8826 -0.4015 -1.6981
 3724TIP3    H211179   4.655   3.989   1.079 -1.4169 -0.2994 -2.6674
 3725TIP3   OH211180   6.264   0.054   0.348 -0.0948  0.0317  0.0987
 3725TIP3    H111181   6.192   0.101   0.390 -0.2248 -0.3179  0.2715
 3725TIP3    H211182   6.226   0.019   0.268  0.2437  0.9961 -0.5105
 3726TIP3   OH211183   1.716   5.897   0.730 -0.2598 -0.2764  0.2000
 3726TIP3    H111184   1.722   5.980   0.684 -0.2970 -0.7730 -0.7109
 3726TIP3    H211185   1.772   5.908   0.807  0.5099  0.2526 -0.4254
 3727TIP3   OH211186   5.025   5.556   4.977 -0.4468  0.2753 -0.2768
 3727TIP3    H111187   5.097   5.594   5.029 -0.8969 -0.9771  1.3640
 3727TIP3    H211188   5.065   5.533   4.893  0.3056  2.4121 -0.5437
 3728TIP3   OH211189   4.507   4.649   4.854 -0.3156  0.5357 -0.7885
 3728TIP3    H111190   4.560   4.696   4.790  1.1501  0.3463  0.2364
 3728TIP3    H211191   4.538   4.559   4.849 -0.9267  0.3053 -0.5441
 3729TIP3   OH211192   1.766   0.500   1.369 -0.0202  0.5010  0.3646
 3729TIP3    H111193   1.840   0.487   1.428  0.9679  2.0848 -0.4487
 3729TIP3    H211194   1.785   0.583   1.325 -1.5359  0.1886 -0.9766
 3730TIP3   OH211195   0.436   4.828   4.885  0.0752 -0.0067  0.2758
 3730TIP3    H111196   0.468   4.740   4.869 -2.4519 -0.7864 -1.0062
 3730TIP3    H211197   0.380   4.820   4.963 -0.5323  0.3207 -0.1125
 3731TIP3   OH211198   0.814   2.724   2.004 -0.0402 -0.3582  0.2954
 3731TIP3    H111199   0.861   2.738   2.086  1.4946  1.1968 -0.7776
 3731TIP3    H211200   0.735   2.676   2.029 -0.5930  1.6867  2.9653
 3732TIP3   OH211201   4.230   1.278   4.823  0.5446  0.4824 -0.2557
 3732TIP3    H111202   4.138   1.278   4.797  0.3820  2.1293  0.2150
 3732TIP3    H211203   4.275   1.323   4.752  0.7543  1.0001  0.1934
 3733TIP3   OH211204   1.901   5.690   2.863  0.3540  0.5245 -0.0970
 3733TIP3    H111205   1.921   5.636   2.787  2.5900 -0.0238  0.7866
 3733TIP3    H211206   1.883   5.628   2.933 -2.0697  1.0227 -0.1982
 3734TIP3   OH211207   1.259   1.585   3.348  0.4152 -0.3513 -0.4268
 3734TIP3    H111208   1.249   1.661   3.406 -2.3494  0.0658 -1.2718
 3734TIP3    H211209   1.194   1.522   3.380  2.3020 -2.2136 -0.0676
 3735TIP3   OH211210   5.315   3.025   1.275 -0.0629 -0.2009  0.1644
 3735TIP3    H111211   5.270   3.037   1.191  0.1347 -1.1010 -0.0791
 3735TIP3    H211212   5.348   3.112   1.297 -1.5934  0.4042  0.1659
 3736TIP3   OH211213   1.551   5.685   1.148 -0.2096 -0.1987 -0.0616
 3736TIP3    H111214   1.528   5.718   1.061  1.3498  0.4242 -0.2701
 3736TIP3    H211215   1.493   5.610   1.161  0.8717 -1.5571 -2.4998
 3737TIP3   OH211216   2.307   0.231   1.089 -0.1391  0.3817 -0.3799
 3737TIP3    H111217   2.271   0.255   1.004 -0.9039 -0.7969 -0.4108
 3737TIP3    H211218   2.231   0.226   1.147  0.0343 -1.3201 -0.2485
 3738TIP3   OH211219   3.317   3.821   4.739  0.0373  0.3958  0.1406
 3738TIP3    H111220   3.254   3.754   4.716 -0.1323  1.2008 -1.9065
 3738TIP3    H211221   3.377   3.777   4.800 -0.4524 -1.4102 -0.6048
 3739TIP3   OH211222   3.958   5.180   5.177 -0.3899  0.1310 -0.1830
 3739TIP3    H111223   4.051   5.196   5.164 -0.7318  1.5169 -1.1994
 3739TIP3    H211224   3.939   5.103   5.123  0.6933 -2.1403  2.4075
 3740TIP3   OH211225   6.160   4.829   0.166 -0.6292  0.4869 -0.1971
 3740TIP3    H111226   6.184   4.831   0.259  0.8317  0.6623 -0.5488
 3740TIP3    H211227   6.098   4.902   0.156 -0.3305  0.8538  0.5248
 3741TIP3   OH211228   1.447   2.750   2.695 -0.2481 -0.3593 -0.1779
 3741TIP3    H111229   1.442   2.764   2.789 -0.4779  1.1430 -0.3908
 3741TIP3    H211230   1.360   2.719   2.670 -1.6932  3.4004 -0.4655
 3742TIP3   OH211231   5.575   3.300   0.503  0.4441  0.2665 -0.2286
 3742TIP3    H111232   5.521   3.227   0.534  0.1583  0.3366 -0.5496
 3742TIP3    H211233   5.543   3.317   0.414  0.2924  0.9888 -0.0376
 3743TIP3   OH211234   3.464   5.349   4.754 -0.0729 -0.1931  0.5357
 3743TIP3    H111235   3.425   5.263   4.740 -1.5272  0.4697  0.2629
 3743TIP3    H211236   3.535   5.354   4.691 -0.5682 -0.8398 -0.0850
 3744TIP3   OH211237   1.617   4.875   4.064  0.0580  0.6510  0.5143
 3744TIP3    H111238   1.680   4.818   4.109 -1.3925 -0.3823  1.3186
 3744TIP3    H211239   1.550   4.892   4.129 -1.4962  0.1061 -0.8883
 3745TIP3   OH211240   2.525   2.298   1.119 -0.4490  0.4932  0.1379
 3745TIP3    H111241   2.481   2.380   1.142  1.0150  1.3193  0.1481
 3745TIP3    H211242   2.575   2.275   1.197  1.7927  1.4336 -0.9417
 3746TIP3   OH211243   1.278   2.244   4.280  0.4669  0.0681 -0.2700
 3746TIP3    H111244   1.239   2.281   4.359  0.0556 -0.9648  0.0359
 3746TIP3    H211245   1.371   2.266   4.286  0.0694  2.1080 -0.7466
 3747TIP3   OH211246   3.777   5.632   1.865 -0.4839  0.2496 -0.0138
 3747TIP3    H111247   3.739   5.719   1.858  0.5788  0.8906  1.7550
 3747TIP3    H211248   3.702   5.574   1.882 -1.0391  0.9775  0.0417
 3748TIP3   OH211249   2.559   0.651   0.935  0.4026 -0.1864 -0.1627
 3748TIP3    H111250   2.480   0.603   0.960 -0.4517  1.3810  0.2589
 3748TIP3    H211251   2.630   0.587   0.943 -0.7054 -1.3852  0.2925
 3749TIP3   OH211252   0.003   1.304   2.857  0.0594 -0.3206 -0.3317
 3749TIP3    H111253   0.021   1.328   2.766  1.6119  1.5321  0.3790
 3749TIP3    H211254   0.072   1.349   2.907 -2.5542  1.3469  2.0551
 3750TIP3   OH211255   4.333   0.015   4.542  0.1066 -0.0282 -0.1631
 3750TIP3    H111256   4.258   0.064   4.575  0.2902  0.1529 -0.0101
 3750TIP3    H211257   4.409   0.058   4.582  0.2581 -0.5397  0.1067
 3751TIP3   OH211258   5.790   3.320   3.561 -0.0946  0.5153 -0.3791
 3751TIP3    H111259   5.885   3.316   3.578  0.1274 -0.1311 -1.6038
 3751TIP3    H211260   5.777   3.403   3.517 -0.2610  1.0302  0.6179
 3752TIP3   OH211261   5.073   0.758   2.701  0.3029 -0.4425  0.2742
 3752TIP3    H111262   5.132   0.763   2.776  0.6374 -2.1836  0.1838
 3752TIP3    H211263   5.026   0.675   2.713 -0.8248  0.0364 -0.5989
 3753TIP3   OH211264   2.860   2.745   2.608  0.1784  0.5270 -0.0326
 3753TIP3    H111265   2.917   2.733   2.683 -1.3374 -0.4648  1.0124
 3753TIP3    H211266   2.872   2.837   2.583  1.1831  0.6971  0.9929
 3754TIP3   OH211267   2.796   5.166   0.752 -0.4498 -0.0134 -0.0287
 3754TIP3    H111268   2.843   5.195   0.831  2.6072 -0.1731 -1.6135
 3754TIP3    H211269   2.806   5.071   0.751  0.5004  0.0708 -1.0828
 3755TIP3   OH211270   2.512   3.042   0.460 -0.2292  0.4009  0.1777
 3755TIP3    H111271   2.574   3.005   0.397  1.6807  0.3771  1.9597
 3755TIP3    H211272   2.460   3.104   0.409  1.2990  0.4528 -1.4054
 3756TIP3   OH211273   1.021   3.945   1.414  0.5383  0.4671  0.0974
 3756TIP3    H111274   0.993   3.873   1.471 -0.3654  1.6697  1.2179
 3756TIP3    H211275   0.953   3.949   1.346  1.2636 -0.5318 -0.7204
 3757TIP3   OH211276   2.870   2.503   2.481 -0.3313  0.4058 -0.0205
 3757TIP3    H111277   2.913   2.523   2.398 -1.5571  0.7392 -0.5834
 3757TIP3    H211278   2.861   2.588   2.524  0.8484  0.1727  0.7607
 3758TIP3   OH211279   1.359   3.337   1.329 -0.4913 -0.2071 -0.5635
 3758TIP3    H111280   1.307   3.280   1.385 -2.2622  0.1667 -1.7484
 3758TIP3    H211281   1.315   3.335   1.244 -0.8077  3.0331 -0.6339
 3759TIP3   OH211282   0.496   2.434   2.310  0.0879 -0.0292  0.3055
 3759TIP3    H111283   0.490   2.362   2.373  1.4616 -0.0380  0.4605
 3759TIP3    H211284   0.409   2.474   2.310 -0.2074 -0.6411  1.4692
 3760TIP3   OH211285   2.490   5.220   1.895 -0.3594  0.2418  0.0983
 3760TIP3    H111286   2.534   5.139   1.868 -1.0090  0.2205 -0.9592
 3760TIP3    H211287   2.535   5.289   1.847 -0.3447  0.4182  0.3643
 3761TIP3   OH211288   2.829   3.537   2.687 -0.2391 -0.6751  0.0332
 3761TIP3    H111289   2.877   3.509   2.765  0.4207 -0.3390 -0.2454
 3761TIP3    H211290   2.881   3.504   2.614  0.9920  1.8628 -0.3268
 3762TIP3   OH211291   4.465   5.131   0.265  0.1184 -0.7603 -0.5217
 3762TIP3    H111292   4.442   5.194   0.333 -0.8806 -1.4890 -0.1539
 3762TIP3    H211293   4.557   5.110   0.281  0.6160  0.9453 -0.9532
 3763TIP3   OH211294   1.639   1.304   1.743  0.2804 -0.3766  0.4355
 3763TIP3    H111295   1.580   1.253   1.686  0.4432 -2.5084  2.0327
 3763TIP3    H211296   1.586   1.378   1.772 -1.0164 -1.2359  0.3502
 3764TIP3   OH211297   4.691   5.036   0.040 -0.0301 -0.2120 -0.4960
 3764TIP3    H111298   4.649   4.959   0.077 -1.8310  1.0662  0.2422
 3764TIP3    H211299   4.696   5.099   0.112 -1.4833  1.4775 -1.7849
 3765TIP3   OH211300   6.226   5.534   3.356 -0.4600  0.0170 -0.2518
 3765TIP3    H111301   6.246   5.445   3.329  2.1404  0.4280  0.0350
 3765TIP3    H211302   6.224   5.531   3.452 -0.1812  0.2619 -0.2331
 3766TIP3   OH211303   3.295   5.890   1.175 -0.1935  0.1936 -0.7501
 3766TIP3    H111304   3.292   5.976   1.217  0.6071 -0.4441  0.6867
 3766TIP3    H211305   3.384   5.882   1.142  0.0912 -0.5204  0.1426
 3767TIP3   OH211306   3.021   2.176   3.711  0.0017  0.1102  0.2422
 3767TIP3    H111307   2.993   2.195   3.800  0.3734 -1.2057  0.6761
 3767TIP3    H211308   3.110   2.142   3.720 -0.0318 -0.2532 -0.6020
 3768TIP3   OH211309   2.819   0.644   2.455  0.0450  0.0576  0.4262
 3768TIP3    H111310   2.847   0.682   2.538  1.1246 -1.7998  0.9753
 3768TIP3    H211311   2.871   0.564   2.447 -1.4185 -0.7979 -1.1189
 3769TIP3   OH211312   2.747   5.394   2.378  0.0827 -0.5929  0.0393
 3769TIP3    H111313   2.673   5.353   2.334  0.5692 -1.6099  0.1542
 3769TIP3    H211314   2.824   5.346   2.346  0.7407  0.6592 -0.3368
 3770TIP3   OH211315   0.182   2.997   2.326 -0.1214  0.1650 -0.0825
 3770TIP3    H111316   0.172   2.932   2.395  0.2280 -1.0308 -1.1248
 3770TIP3    H211317   0.092   3.018   2.300 -0.2645 -2.0289 -1.6303
 3771TIP3   OH211318   4.780   5.735   2.131  0.1564  0.3391  0.1078
 3771TIP3    H111319   4.688   5.710   2.147 -0.2669  0.6594 -1.6668
 3771TIP3    H211320   4.783   5.759   2.039  2.2408 -0.4903 -0.0927
 3772TIP3   OH211321   5.940   0.164   1.343  0.0480 -0.3970 -0.0537
 3772TIP3    H111322   6.002   0.219   1.295  1.7218 -2.9238 -0.9467
 3772TIP3    H211323   5.907   0.222   1.412  1.0866  1.9465 -1.3768
 3773TIP3   OH211324   3.003   1.444   3.232 -0.3914 -0.2877  0.1411
 3773TIP3    H111325   3.033   1.427   3.321  0.3841 -0.1227 -0.0864
 3773TIP3    H211326   2.910   1.421   3.234 -0.2038 -1.0276  0.7856
 3774TIP3   OH211327   4.166   0.170   2.648 -0.1449  0.5316 -0.6742
 3774TIP3    H111328   4.217   0.235   2.696 -0.0846 -0.1704  0.2281
 3774TIP3    H211329   4.201   0.086   2.676 -1.2481  0.0623 -0.6582
 3775TIP3   OH211330   1.060   0.226   5.020  0.4421 -0.0380  0.0855
 3775TIP3    H111331   0.973   0.263   5.035  0.2297 -0.4908 -0.0347
 3775TIP3    H211332   1.073   0.164   5.091  1.0450  0.6870  0.6272
 3776TIP3   OH211333   2.678   0.393   3.897 -0.0866  0.1287  0.2200
 3776TIP3    H111334   2.756   0.433   3.858 -0.5139  0.8857  0.1076
 3776TIP3    H211335   2.617   0.383   3.823  0.3629 -1.7031  0.0410
 3777TIP3   OH211336   2.739   1.296   3.913  0.5920  0.1233 -0.4310
 3777TIP3    H111337   2.707   1.295   4.004 -0.5105 -0.2592 -0.8012
 3777TIP3    H211338   2.819   1.348   3.916 -0.2701  1.4643  0.4965
 3778TIP3   OH211339   3.807   4.036   2.194 -0.6192 -0.3909 -0.2317
 3778TIP3    H111340   3.752   4.107   2.161  0.3774  1.5842  1.9968
 3778TIP3    H211341   3.895   4.074   2.196  0.6314 -2.8934 -2.1258
 3779TIP3   OH211342   5.134   2.067   1.635  0.5680  0.3440  0.8771
 3779TIP3    H111343   5.139   2.162   1.621 -4.1011  0.6531 -0.6742
 3779TIP3    H211344   5.085   2.058   1.716 -1.2673 -0.5631 -0.2649
 3780TIP3   OH211345   4.300   1.529   4.356  0.5482 -0.1715 -1.0020
 3780TIP3    H111346   4.224   1.471   4.347 -0.0346  0.0830  1.5289
 3780TIP3    H211347   4.272   1.611   4.316 -0.6962  0.0346  0.2231
 3781TIP3   OH211348   4.969   2.946   1.286  0.2152  0.3491 -0.1049
 3781TIP3    H111349   4.938   2.947   1.195 -1.0874  0.8312  0.3332
 3781TIP3    H211350   4.972   3.039   1.311 -0.4268  0.1689  0.6679
 3782TIP3   OH211351   0.766   0.822   0.840 -0.0671 -0.3058  0.0058
 3782TIP3    H111352   0.828   0.800   0.770 -0.2738 -0.7993 -0.0208
 3782TIP3    H211353   0.807   0.895   0.886  0.6922 -0.8419  0.1910
 3783TIP3   OH211354   2.702   1.130   1.149 -0.2086  0.2283  0.3654
 3783TIP3    H111355   2.706   1.052   1.095  0.9743 -0.6000  1.5818
 3783TIP3    H211356   2.794   1.154   1.164 -0.5426  1.6581  0.3095
 3784TIP3   OH211357   2.894   5.915   1.060  0.2447  0.3713  0.0673
 3784TIP3    H111358   2.928   5.904   1.149  0.6216  1.0129  0.0084
 3784TIP3    H211359   2.847   5.833   1.042 -0.5973  0.5929  1.1826
 3785TIP3   OH211360   5.206   0.621   3.346 -0.6444  0.3717 -0.1865
 3785TIP3    H111361   5.281   0.655   3.298 -1.2164  0.3388 -1.1421
 3785TIP3    H211362   5.242   0.592   3.430  0.7271 -1.1572 -1.2351
 3786TIP3   OH211363   0.934   1.147   0.353 -0.6409 -0.3448  0.1902
 3786TIP3    H111364   0.924   1.110   0.441 -0.1419 -1.0837 -0.0538
 3786TIP3    H211365   0.846   1.176   0.328 -0.8714 -0.5696  0.7375
 3787TIP3   OH211366   4.821   2.273   3.207  0.2731  0.6666 -0.1045
 3787TIP3    H111367   4.827   2.182   3.178 -1.2062  0.6289 -0.3356
 3787TIP3    H211368   4.890   2.318   3.158  1.1428 -0.3502  0.1474
 3788TIP3   OH211369   0.999   4.314   2.312  0.0715 -0.8511 -0.0445
 3788TIP3    H111370   0.954   4.299   2.396  0.9358 -0.8852  0.4208
 3788TIP3    H211371   1.033   4.403   2.319  1.9455 -1.5519  0.5237
 3789TIP3   OH211372   5.522   2.814   4.178  0.0398  0.2612  0.3189
 3789TIP3    H111373   5.446   2.756   4.175 -1.9425  2.6782  0.4701
 3789TIP3    H211374   5.535   2.842   4.087  0.1070  0.6108  0.4316
 3790TIP3   OH211375   0.227   4.221   4.068 -0.6043 -0.1555 -0.1651
 3790TIP3    H111376   0.288   4.147   4.065 -0.5652 -0.1777  0.8351
 3790TIP3    H211377   0.140   4.180   4.060 -0.5039 -0.1398 -1.4046
 3791TIP3   OH211378   0.604   2.119   3.741 -0.3324  0.2122 -0.6567
 3791TIP3    H111379   0.522   2.070   3.728 -1.5175  1.0539  2.6592
 3791TIP3    H211380   0.672   2.053   3.732 -1.7257 -1.6118  1.2083
 3792TIP3   OH211381   5.502   0.929   0.236  0.3459  0.0930  0.3136
 3792TIP3    H111382   5.525   0.870   0.308  1.8353 -1.0793 -1.0360
 3792TIP3    H211383   5.409   0.947   0.248  0.1738 -1.4226  1.5667
 3793TIP3   OH211384   1.953   1.907   5.115  0.0879  0.0031 -0.1279
 3793TIP3    H111385   1.913   1.889   5.029  0.2817  0.5901 -0.3438
 3793TIP3    H211386   1.928   1.997   5.135  1.2075  0.3501 -0.2196
 3794TIP3   OH211387   1.450   3.968   3.085 -0.4987 -0.1679  0.6299
 3794TIP3    H111388   1.480   3.886   3.124 -0.6658 -0.1887  0.7183
 3794TIP3    H211389   1.362   3.948   3.053 -0.1178 -0.3288 -0.3310
 3795TIP3   OH211390   4.204   3.186   4.386 -0.1993 -0.1534  0.4987
 3795TIP3    H111391   4.276   3.191   4.323 -0.2386  0.1536  0.4751
 3795TIP3    H211392   4.246   3.197   4.472 -0.3002  0.7585  0.4389
 3796TIP3   OH211393   5.330   5.635   4.780  0.5751 -0.3266 -0.1492
 3796TIP3    H111394   5.285   5.718   4.796 -0.1404 -0.7860  0.3102
 3796TIP3    H211395   5.394   5.628   4.851  1.6855  0.5192 -1.0312
 3797TIP3   OH211396   5.168   5.424   4.218  0.5696  0.1365 -0.3360
 3797TIP3    H111397   5.252   5.385   4.195  1.1117  1.6186 -1.0045
 3797TIP3    H211398   5.129   5.446   4.133 -0.0456  0.3594  0.0024
 3798TIP3   OH211399   6.120   1.512   2.507 -0.2848 -0.3011 -0.1947
 3798TIP3    H111400   6.098   1.579   2.571  1.3552  0.3909 -0.2859
 3798TIP3    H211401   6.063   1.438   2.527 -1.8672  0.9671  0.1603
 3799TIP3   OH211402   4.313   4.220   1.502  0.2747  0.6437 -0.2714
 3799TIP3    H111403   4.276   4.296   1.458  0.4556  0.7961 -0.1626
 3799TIP3    H211404   4.335   4.159   1.432 -0.1441  0.5692 -0.3390
 3800TIP3   OH211405   4.235   5.257   5.140  0.4666 -0.7542  0.7109
 3800TIP3    H111406   4.249   5.163   5.140 -0.5133 -0.9778 -1.5181
 3800TIP3    H211407   4.321   5.295   5.122  0.7105 -1.2761  0.7786
 3801TIP3   OH211408   5.386   4.740   4.150  0.2659  0.2752  0.4457
 3801TIP3    H111409   5.369   4.806   4.083  0.2487 -0.8021 -0.6528
 3801TIP3    H211410   5.456   4.686   4.113  0.5254 -0.1134  1.4723
 3802TIP3   OH211411   2.961   2.290   4.751  0.2790  0.0635  0.2023
 3802TIP3    H111412   2.880   2.282   4.701  1.3505  1.8094 -1.9988
 3802TIP3    H211413   3.029   2.263   4.689  1.5071  0.0013  1.5290
 3803TIP3   OH211414   4.427   3.769   0.956  0.0899  0.0913 -0.5840
 3803TIP3    H111415   4.447   3.850   0.910 -0.9115  0.5942 -0.1673
 3803TIP3    H211416   4.345   3.739   0.917 -0.4428  0.1950  0.4154
 3804TIP3   OH211417   4.182   1.612   1.678 -0.2444 -0.3371 -0.1370
 3804TIP3    H111418   4.177   1.629   1.772 -0.0386  0.5722 -0.2831
 3804TIP3    H211419   4.114   1.666   1.640 -0.4036 -0.7938 -0.5035
 3805TIP3   OH211420   4.419   5.945   0.093  0.2324 -0.2029 -0.2709
 3805TIP3    H111421   4.483   5.882   0.126  0.7581  0.7995  0.6871
 3805TIP3    H211422   4.440   6.027   0.137 -1.6846  0.1881  0.0255
 3806TIP3   OH211423   0.881   2.218   2.315 -0.0094 -0.2162  0.2388
 3806TIP3    H111424   0.861   2.275   2.241 -0.6474  0.7369  1.1290
 3806TIP3    H211425   0.800   2.169   2.330  0.6269 -1.6388 -0.7259
 3807TIP3   OH211426   6.186   5.164   1.025  0.0418  0.4058  0.2998
 3807TIP3    H111427   6.192   5.069   1.033 -0.5496  0.5181  2.8024
 3807TIP3    H211428   6.266   5.197   1.067 -1.0737  1.0161  2.0960
 3808TIP3   OH211429   1.679   5.485   1.949  0.3482 -0.8464  0.2876
 3808TIP3    H111430   1.741   5.556   1.967  1.8117 -2.4294  1.9292
 3808TIP3    H211431   1.702   5.453   1.862  0.2782  0.0772 -0.0755
 3809TIP3   OH211432   5.521   0.580   4.749 -0.6428  0.5204 -0.7963
 3809TIP3    H111433   5.455   0.573   4.818  0.5591 -0.3283  0.3080
 3809TIP3    H211434   5.481   0.535   4.674 -1.6253  0.6940 -0.3904
 3810TIP3   OH211435   6.298   5.258   1.607 -0.6697 -0.3062  0.5375
 3810TIP3    H111436   6.322   5.332   1.663  0.7893 -0.1513 -0.2482
 3810TIP3    H211437   6.345   5.184   1.644  0.4824 -0.1600 -0.5559
 3811TIP3   OH211438   3.154   2.877   4.479  0.2532 -0.1086  0.5309
 3811TIP3    H111439   3.089   2.936   4.518  0.6304  1.6823 -1.3785
 3811TIP3    H211440   3.104   2.798   4.456 -1.0673  0.8794 -0.0849
 3812TIP3   OH211441   0.982   4.388   4.569 -0.1576  0.4528 -0.1800
 3812TIP3    H111442   0.971   4.452   4.499 -0.6799  0.8965  0.2987
 3812TIP3    H211443   0.977   4.303   4.525 -0.0554  0.7315 -0.7354
 3813TIP3   OH211444   3.057   3.600   3.366 -0.1654  0.2222  0.9439
 3813TIP3    H111445   3.124   3.537   3.392 -1.1609 -2.1218 -1.6383
 3813TIP3    H211446   2.978   3.547   3.354 -1.0876  1.9496 -1.3052
 3814TIP3   OH211447   3.579   2.541   5.138 -0.5485 -0.3035 -0.0190
 3814TIP3    H111448   3.514   2.496   5.193 -0.5567 -0.4213 -0.1237
 3814TIP3    H211449   3.563   2.634   5.152 -0.4523 -0.3341  0.2948
 3815TIP3   OH211450   5.446   1.975   3.588 -0.4793 -0.4649  0.6902
 3815TIP3    H111451   5.391   2.006   3.516  3.9088  0.1663 -2.8420
 3815TIP3    H211452   5.458   2.052   3.644  0.6977  0.8706 -1.2977
 3816TIP3   OH211453   4.946   0.550   1.616 -0.6149  0.1016  0.7443
 3816TIP3    H111454   4.912   0.527   1.703 -0.5927  0.2285  0.7869
 3816TIP3    H211455   5.025   0.497   1.606  0.5418  1.5602  1.6489
 3817TIP3   OH211456   6.282   2.915   1.633  0.2161 -0.1596  0.2677
 3817TIP3    H111457   6.361   2.956   1.598 -1.3052  0.8798 -2.2238
 3817TIP3    H211458   6.241   2.984   1.685 -0.0257 -0.0655 -0.0498
 3818TIP3   OH211459   2.891   4.078   4.617 -0.1695  0.1563 -0.1012
 3818TIP3    H111460   2.831   4.005   4.635  0.8294 -0.4690  0.7744
 3818TIP3    H211461   2.893   4.128   4.699  0.5730  0.1116 -0.0860
 3819TIP3   OH211462   1.475   5.830   4.941  0.1266 -0.1912  0.0663
 3819TIP3    H111463   1.423   5.860   5.016  0.2248  1.4652 -0.4885
 3819TIP3    H211464   1.416   5.770   4.894 -1.1224  1.2550 -0.2711
 3820TIP3   OH211465   2.120   0.880   2.335  0.2624 -0.1693 -0.0450
 3820TIP3    H111466   2.177   0.930   2.275 -0.9610  0.6072 -0.6126
 3820TIP3    H211467   2.052   0.943   2.360  0.0140 -0.8871  1.1358
 3821TIP3   OH211468   1.866   3.277   1.756  0.0303 -0.8533 -0.3754
 3821TIP3    H111469   1.881   3.368   1.781  1.1828 -1.0738 -0.2167
 3821TIP3    H211470   1.868   3.229   1.838 -2.7756 -0.8004 -0.1764
 3822TIP3   OH211471   4.386   0.554   1.169  0.2521 -0.2861 -0.7797
 3822TIP3    H111472   4.426   0.600   1.243  1.2019 -0.3194 -1.2583
 3822TIP3    H211473   4.452   0.556   1.101  0.4281 -2.5639 -0.7587
 3823TIP3   OH211474   5.049   1.878   4.786 -0.3337  0.0969  0.4996
 3823TIP3    H111475   5.020   1.791   4.815  3.8249 -1.3411  1.0484
 3823TIP3    H211476   5.058   1.869   4.691 -2.3080  0.8744  0.1804
 3824TIP3   OH211477   3.779   2.745   4.537  0.2213 -0.1724  0.3669
 3824TIP3    H111478   3.785   2.841   4.541  1.5650 -0.1818 -0.7603
 3824TIP3    H211479   3.717   2.722   4.606  0.6469  1.4324  1.3298
 3825TIP3   OH211480   3.200   3.007   2.013  0.0525  0.5623 -0.4730
 3825TIP3    H111481   3.239   3.082   2.058 -0.1170  0.5838 -0.3584
 3825TIP3    H211482   3.106   3.027   2.011  0.0719  0.6135 -0.9409
 3826TIP3   OH211483   0.264   3.766   2.740  0.5878  0.4370 -0.1768
 3826TIP3    H111484   0.198   3.720   2.688  0.5677  0.0681  0.1681
 3826TIP3    H211485   0.340   3.707   2.739  0.6319  0.4875  0.1017
 3827TIP3   OH211486   1.397   4.141   1.505  0.6501  0.1147 -0.0324
 3827TIP3    H111487   1.368   4.081   1.436 -0.3892  0.9331 -0.3212
 3827TIP3    H211488   1.492   4.146   1.494  0.6183 -0.5963 -0.7161
 3828TIP3   OH211489   1.633   0.338   4.827 -0.2101  0.3414 -0.4277
 3828TIP3    H111490   1.715   0.351   4.875 -0.1259  1.8145 -0.9139
 3828TIP3    H211491   1.585   0.419   4.841 -1.2217 -0.1775 -0.8601
 3829TIP3   OH211492   1.193   2.971   0.143  0.3055 -0.1597  0.0879
 3829TIP3    H111493   1.102   3.002   0.140 -0.5412 -2.3581  0.7670
 3829TIP3    H211494   1.199   2.908   0.071  0.9161 -0.9211  0.7807
 3830TIP3   OH211495   3.202   3.037   2.946 -0.4701  0.3650 -0.9209
 3830TIP3    H111496   3.297   3.032   2.951 -0.5853 -1.2477  0.9528
 3830TIP3    H211497   3.171   2.965   3.001 -2.7848  0.8836 -1.4161
 3831TIP3   OH211498   0.418   3.804   1.775 -0.5958  0.2812  0.3342
 3831TIP3    H111499   0.454   3.826   1.689 -1.7863  0.0485 -0.2434
 3831TIP3    H211500   0.406   3.709   1.773 -0.4059  0.2444  0.8468
 3832TIP3   OH211501   0.634   3.163   2.392 -0.0931 -0.0032  0.2817
 3832TIP3    H111502   0.677   3.137   2.310  1.2918  0.3850  0.8541
 3832TIP3    H211503   0.631   3.083   2.444 -0.0601 -0.0257  0.2491
 3833TIP3   OH211504   2.955   0.591   4.369 -0.1072  0.5102 -0.0761
 3833TIP3    H111505   2.989   0.582   4.458 -0.7651  0.4960  0.1817
 3833TIP3    H211506   2.942   0.500   4.339 -0.1050  0.5170 -0.0976
 3834TIP3   OH211507   0.604   4.041   3.254  0.1759 -0.3137  0.1163
 3834TIP3    H111508   0.589   3.947   3.253  0.4333 -0.3550 -0.2127
 3834TIP3    H211509   0.516   4.080   3.255  0.0664 -0.5541  1.9919
 3835TIP3   OH211510   5.068   5.086   0.671  0.2487  0.7310 -0.0541
 3835TIP3    H111511   5.052   5.042   0.754  0.7952  3.2148  1.4800
 3835TIP3    H211512   4.991   5.065   0.617  0.1786 -1.4385  0.7874
 3836TIP3   OH211513   2.141   1.368   3.499  0.3966  0.4350 -0.1408
 3836TIP3    H111514   2.235   1.380   3.483  0.5861  3.8656  2.2792
 3836TIP3    H211515   2.099   1.403   3.421  1.0616 -1.3205 -1.3390
 3837TIP3   OH211516   4.465   4.027   0.861 -0.6082 -0.5441 -0.6648
 3837TIP3    H111517   4.416   4.033   0.779 -2.3390  0.0927  0.3584
 3837TIP3    H211518   4.547   4.073   0.843 -1.4167  0.5619 -1.7288
 3838TIP3   OH211519   3.987   2.599   3.076  0.5966  0.3841 -0.0193
 3838TIP3    H111520   4.048   2.563   3.011 -1.4893 -2.5891 -0.5658
 3838TIP3    H211521   4.022   2.571   3.160  0.8966  0.1989 -0.2056
 3839TIP3   OH211522   4.495   0.650   3.328  0.2813 -0.1409  0.0965
 3839TIP3    H111523   4.470   0.728   3.277  0.6060  0.3110  0.6116
 3839TIP3    H211524   4.412   0.617   3.364  0.2041  0.3152  0.3530
 3840TIP3   OH211525   5.825   4.748   0.110 -0.8601 -0.2593 -0.4221
 3840TIP3    H111526   5.747   4.697   0.130  0.5459 -1.6556  1.8679
 3840TIP3    H211527   5.802   4.838   0.134 -1.3594 -0.8668  1.5098
 3841TIP3   OH211528   0.292   2.036   0.512  0.4590 -0.4346 -0.2831
 3841TIP3    H111529   0.295   2.041   0.417 -0.1386  0.5398 -0.2601
 3841TIP3    H211530   0.270   2.124   0.541 -0.8261 -1.0424  0.7007
 3842TIP3   OH211531   0.912   5.774   2.289 -0.3867 -0.1394 -0.0900
 3842TIP3    H111532   0.952   5.857   2.315 -2.0342  0.8800 -0.6492
 3842TIP3    H211533   0.819   5.785   2.310 -1.1342 -0.7413 -2.7763
 3843TIP3   OH211534   4.466   5.081   1.914 -0.1663  0.0864  0.0491
 3843TIP3    H111535   4.498   5.057   1.827  1.6673  1.0946  0.3942
 3843TIP3    H211536   4.377   5.046   1.918  0.2432 -1.2508 -1.6751
 3844TIP3   OH211537   4.745   5.483   1.651  0.2682 -0.3779  0.1717
 3844TIP3    H111538   4.665   5.521   1.689  0.0210 -0.7205  0.0075
 3844TIP3    H211539   4.716   5.397   1.618  0.9142 -0.9113  0.9490
 3845TIP3   OH211540   0.128   2.336   4.826 -0.1012  0.7415  0.5015
 3845TIP3    H111541   0.208   2.383   4.851  0.7847 -0.7249  0.5150
 3845TIP3    H211542   0.153   2.244   4.829 -1.3037  0.3314 -1.2152
 3846TIP3   OH211543   3.306   1.028   1.626 -0.0418  0.5979  0.1662
 3846TIP3    H111544   3.268   1.031   1.714  1.2679  1.0256  0.7450
 3846TIP3    H211545   3.385   1.083   1.632  0.6053 -0.1521 -1.0100
 3847TIP3   OH211546   5.640   2.428   1.311  0.1898  0.0267  0.0659
 3847TIP3    H111547   5.729   2.461   1.298  0.2072 -0.6126 -1.6719
 3847TIP3    H211548   5.601   2.488   1.374  1.5998  0.7623  0.2736
 3848TIP3   OH211549   2.629   2.667   0.113 -0.1301 -0.0495 -0.2473
 3848TIP3    H111550   2.652   2.597   0.052 -1.0423 -0.8636  0.3123
 3848TIP3    H211551   2.620   2.623   0.198  1.4035  1.1027  0.5755
 3849TIP3   OH211552   2.452   1.320   2.118  0.0878  0.0536  0.4771
 3849TIP3    H111553   2.404   1.282   2.191  0.2483  0.4126  0.7737
 3849TIP3    H211554   2.390   1.319   2.045  0.2280 -1.1691  0.3486
 3850TIP3   OH211555   4.529   2.686   1.655  0.0761  0.0957 -0.3509
 3850TIP3    H111556   4.469   2.632   1.603 -0.9954  0.1809  0.7560
 3850TIP3    H211557   4.579   2.623   1.707 -2.8493  0.0475  2.7961
 3851TIP3   OH211558   0.974   3.055   5.038  0.3897 -0.0260 -0.3617
 3851TIP3    H111559   0.994   3.148   5.041  1.8611 -0.3243 -0.1582
 3851TIP3    H211560   1.007   3.020   5.121 -1.2413 -0.5527  0.1082
 3852TIP3   OH211561   4.215   3.425   2.079  0.1468  0.0456  0.1116
 3852TIP3    H111562   4.298   3.463   2.108  0.6698 -0.8366 -0.1733
 3852TIP3    H211563   4.231   3.398   1.989 -0.9627  1.2952 -0.4765
 3853TIP3   OH211564   3.796   1.431   1.230 -0.0954 -0.6240  0.1290
 3853TIP3    H111565   3.817   1.345   1.194 -0.1542 -0.3693 -0.5174
 3853TIP3    H211566   3.878   1.481   1.225 -0.2604 -0.3883 -0.2227
 3854TIP3   OH211567   1.382   5.392   0.802  0.1276 -0.6161 -0.4295
 3854TIP3    H111568   1.397   5.427   0.890  1.2007  0.8619 -1.1622
 3854TIP3    H211569   1.336   5.461   0.756 -0.4871 -1.4041 -1.0241
 3855TIP3   OH211570   4.969   3.775   0.688 -0.3601 -0.3663  0.6889
 3855TIP3    H111571   4.979   3.838   0.616  0.9732 -0.2687  0.9314
 3855TIP3    H211572   4.936   3.696   0.645 -1.4261  0.2822  0.2802
 3856TIP3   OH211573   0.461   4.224   2.956 -0.1790 -0.4857  0.5072
 3856TIP3    H111574   0.473   4.202   2.864 -0.3826  2.3240 -0.3012
 3856TIP3    H211575   0.465   4.320   2.958 -0.9226 -0.4257  3.3199
 3857TIP3   OH211576   5.958   0.306   4.826 -0.7105 -0.1065 -0.0308
 3857TIP3    H111577   5.960   0.212   4.809 -1.9184  0.0195 -0.9688
 3857TIP3    H211578   5.866   0.325   4.844 -0.6692  1.0714 -0.9624
 3858TIP3   OH211579   0.884   4.504   1.364  0.1838  0.4316 -0.8141
 3858TIP3    H111580   0.951   4.562   1.329 -0.4384  0.0326 -2.7474
 3858TIP3    H211581   0.921   4.416   1.357 -0.4253  0.2272 -1.7049
 3859TIP3   OH211582   2.225   2.101   0.238 -0.2983  0.4534  0.2756
 3859TIP3    H111583   2.165   2.173   0.259 -0.2217  1.2785 -2.1095
 3859TIP3    H211584   2.185   2.057   0.164  0.7019 -0.6861  0.3904
 3860TIP3   OH211585   1.105   0.837   1.933 -0.3648  0.1936 -0.3463
 3860TIP3    H111586   1.184   0.842   1.879 -0.4169  0.0536 -0.4358
 3860TIP3    H211587   1.103   0.747   1.965  0.9823  0.8839  1.8887
 3861TIP3   OH211588   3.851   0.232   4.110 -0.0540  0.2374 -0.2411
 3861TIP3    H111589   3.863   0.138   4.094  1.6349  0.2300  0.8633
 3861TIP3    H211590   3.764   0.238   4.150  0.0862 -0.9276  0.2781
 3862TIP3   OH211591   1.520   1.614   3.378  0.2280 -0.0237 -0.0929
 3862TIP3    H111592   1.430   1.621   3.348 -0.6784 -1.3417  2.0988
 3862TIP3    H211593   1.534   1.520   3.391  1.8672  0.1738 -0.1757
 3863TIP3   OH211594   4.003   1.647   0.861  0.0217  0.0935 -0.1807
 3863TIP3    H111595   4.002   1.741   0.882 -1.2530  0.3236 -1.1423
 3863TIP3    H211596   3.958   1.641   0.777  0.9984 -1.2841 -0.6380
 3864TIP3   OH211597   3.514   2.286   2.146  0.0913  0.6728 -0.0406
 3864TIP3    H111598   3.435   2.303   2.197 -0.1417  0.0696 -0.1921
 3864TIP3    H211599   3.557   2.214   2.193  1.6383  2.3497  1.2451
 3865TIP3   OH211600   4.146   3.941   1.204 -0.1235  0.1221 -0.1720
 3865TIP3    H111601   4.095   3.878   1.154 -0.9817 -1.7867  2.7930
 3865TIP3    H211602   4.085   3.972   1.272  1.6312  0.5125  1.3036
 3866TIP3   OH211603   3.914   2.966   0.770  0.0375  0.1050 -0.3535
 3866TIP3    H111604   3.847   3.001   0.711 -1.5735  1.9950  2.3606
 3866TIP3    H211605   3.866   2.909   0.830  1.4137 -0.8401 -0.0897
 3867TIP3   OH211606   4.913   2.635   1.732  0.2562  0.0656  0.2058
 3867TIP3    H111607   4.894   2.721   1.694  1.1034 -0.1555 -0.7678
 3867TIP3    H211608   4.909   2.649   1.826 -0.8883  0.8702  0.0633
 3868TIP3   OH211609   5.876   2.304   5.101 -0.3040 -0.1080  0.4183
 3868TIP3    H111610   5.833   2.328   5.019 -0.3327 -1.6422 -0.0615
 3868TIP3    H211611   5.848   2.370   5.164 -1.1759  0.4692 -0.5417
 3869TIP3   OH211612   0.251   1.829   2.447 -0.4014  0.1426  0.5244
 3869TIP3    H111613   0.217   1.883   2.518  2.7345  1.8885  0.8493
 3869TIP3    H211614   0.197   1.851   2.371 -0.1172  2.7010  1.0023
 3870TIP3   OH211615   0.374   1.272   0.342  0.5273  0.3065  0.2264
 3870TIP3    H111616   0.342   1.189   0.306  0.9154 -0.3976  1.4478
 3870TIP3    H211617   0.303   1.334   0.325  1.1346  0.3153 -2.7093
 3871TIP3   OH211618   0.259   0.783   4.099 -0.3077 -0.5032 -0.0862
 3871TIP3    H111619   0.275   0.807   4.190 -1.0481 -0.1527 -0.0432
 3871TIP3    H211620   0.322   0.713   4.081 -0.3334 -0.7638  0.7773
 3872TIP3   OH211621   1.227   2.183   5.040  0.4591 -0.3967  0.6800
 3872TIP3    H111622   1.142   2.225   5.032  0.9532  0.6435  0.7011
 3872TIP3    H211623   1.209   2.099   5.081 -0.6998 -0.7176 -0.4264
 3873TIP3   OH211624   4.953   2.399   2.860  0.4803 -0.2502 -0.8902
 3873TIP3    H111625   4.964   2.369   2.770 -3.8220 -0.4867 -1.5705
 3873TIP3    H211626   4.859   2.387   2.878  1.0853 -0.0128  3.5888
 3874TIP3   OH211627   5.917   4.517   1.089 -0.0774  0.3519  0.5063
 3874TIP3    H111628   5.875   4.445   1.042  1.5722 -0.2220 -0.1373
 3874TIP3    H211629   5.887   4.596   1.044 -0.0625 -0.0752 -0.2683
 3875TIP3   OH211630   3.056   3.461   2.865 -0.2455  0.1055  0.1136
 3875TIP3    H111631   3.078   3.544   2.823 -3.6390  0.8241 -0.5808
 3875TIP3    H211632   3.099   3.464   2.950 -0.3637  2.6665  0.1444
 3876TIP3   OH211633   3.531   4.703   3.428  0.0439  0.5133 -0.4575
 3876TIP3    H111634   3.478   4.747   3.362 -0.5120  0.9863  0.2921
 3876TIP3    H211635   3.490   4.617   3.438  0.7789  0.0077 -1.4904
 3877TIP3   OH211636   6.210   4.587   1.575  1.1325 -0.6026  0.1015
 3877TIP3    H111637   6.250   4.674   1.575 -1.9064  0.9799 -1.7955
 3877TIP3    H211638   6.237   4.548   1.492 -1.1637  0.5387 -1.2636
 3878TIP3   OH211639   1.448   1.176   1.594  0.3018 -0.6728 -0.2545
 3878TIP3    H111640   1.471   1.170   1.502  2.7707 -4.1876  0.4016
 3878TIP3    H211641   1.353   1.191   1.594  0.7602  4.1632 -3.1750
 3879TIP3   OH211642   6.114   3.816   5.004 -0.2891 -0.4735 -0.1925
 3879TIP3    H111643   6.149   3.905   4.995 -1.0950 -0.1021  0.1816
 3879TIP3    H211644   6.046   3.824   5.071 -0.3240 -1.3924 -0.1087
 3880TIP3   OH211645   3.146   4.958   3.728 -1.0641  0.2424  0.1983
 3880TIP3    H111646   3.204   4.888   3.698  0.1455  0.5712  1.6724
 3880TIP3    H211647   3.121   4.932   3.816 -0.4963  1.7059  0.8226
 3881TIP3   OH211648   6.290   0.452   2.324  0.2816  0.3247  0.0612
 3881TIP3    H111649   6.292   0.543   2.297  0.8292  0.3346  0.1300
 3881TIP3    H211650   6.291   0.402   2.243  0.1226  0.3737  0.0276
 3882TIP3   OH211651   3.604   3.999   2.450  0.4586  0.6778 -0.8639
 3882TIP3    H111652   3.617   3.910   2.482 -1.4514  0.4740 -0.5038
 3882TIP3    H211653   3.649   4.002   2.366  2.4514  0.0926  0.1132
 3883TIP3   OH211654   1.523   0.123   2.041 -0.3794  0.2638  0.0608
 3883TIP3    H111655   1.563   0.183   2.104 -0.0570 -0.3490  0.4451
 3883TIP3    H211656   1.571   0.138   1.959 -0.2375  0.4610  0.1800
 3884TIP3   OH211657   5.647   4.997   4.741  0.4659  0.6965  0.3829
 3884TIP3    H111658   5.693   5.026   4.662  1.1240  0.1373  0.5472
 3884TIP3    H211659   5.555   5.016   4.724  0.5366  0.0531 -0.7521
 3885TIP3   OH211660   1.254   0.847   2.353 -0.1801 -0.0515 -0.1218
 3885TIP3    H111661   1.310   0.883   2.284 -1.2276  0.2174 -0.8436
 3885TIP3    H211662   1.304   0.862   2.434  1.3293 -0.8944 -0.8537
 3886TIP3   OH211663   2.958   3.169   1.965 -0.3012 -0.1399  0.0310
 3886TIP3    H111664   3.003   3.227   1.903 -0.6827 -1.0134 -1.0780
 3886TIP3    H211665   2.877   3.216   1.987  0.3037  0.6367  0.6904
 3887TIP3   OH211666   2.536   2.258   3.565  0.3429 -0.2808  1.0560
 3887TIP3    H111667   2.602   2.234   3.500 -2.1297 -1.9169 -1.0461
 3887TIP3    H211668   2.583   2.257   3.649  2.9991 -1.1021 -0.3277
 3888TIP3   OH211669   2.944   0.386   3.334  0.0240 -0.2939  0.1809
 3888TIP3    H111670   2.977   0.474   3.317 -0.0791  0.0360  1.5405
 3888TIP3    H211671   2.857   0.385   3.294 -0.1585  0.3839  0.5402
 3889TIP3   OH211672   5.706   0.646   1.048  0.4603  0.4285 -0.0499
 3889TIP3    H111673   5.793   0.664   1.081  0.2260 -0.2584  0.9873
 3889TIP3    H211674   5.668   0.584   1.110 -1.7229  2.6080  0.9719
 3890TIP3   OH211675   2.469   5.902   0.571 -0.2501 -0.0814 -0.2714
 3890TIP3    H111676   2.541   5.853   0.532 -1.7216 -2.3699 -0.2688
 3890TIP3    H211677   2.481   5.891   0.666 -1.0118 -1.1616 -0.2833
 3891TIP3   OH211678   3.295   1.299   3.309  0.5095  0.1279  0.2079
 3891TIP3    H111679   3.258   1.261   3.389  0.8257 -1.8726 -0.5309
 3891TIP3    H211680   3.234   1.272   3.240  1.6045 -0.4394 -0.5693
 3892TIP3   OH211681   2.689   5.738   0.329 -0.0263 -0.4186 -0.0428
 3892TIP3    H111682   2.719   5.818   0.287 -0.9421 -0.7815 -1.4854
 3892TIP3    H211683   2.594   5.739   0.319 -0.0115 -1.9918 -0.7483
 3893TIP3   OH211684   0.797   1.301   1.131  0.3586  0.1776 -0.1371
 3893TIP3    H111685   0.757   1.387   1.120  0.1537  0.3762  1.8034
 3893TIP3    H211686   0.796   1.286   1.226  1.5720 -1.4010 -0.3330
 3894TIP3   OH211687   5.988   0.637   1.172 -0.2620  0.1757  0.1436
 3894TIP3    H111688   5.951   0.558   1.212 -2.0812  1.1962  0.5842
 3894TIP3    H211689   6.003   0.697   1.245  0.7886  0.3822 -0.2226
 3895TIP3   OH211690   1.056   3.570   1.775 -0.2268  0.1026 -0.0830
 3895TIP3    H111691   1.088   3.482   1.754  1.9229  0.5424  1.1432
 3895TIP3    H211692   0.991   3.556   1.844 -0.0129 -0.5242 -0.0063
 3896TIP3   OH211693   4.440   2.573   1.983 -0.5200 -0.7441 -0.1648
 3896TIP3    H111694   4.345   2.563   1.984 -0.7272  0.7396  2.0311
 3896TIP3    H211695   4.453   2.668   1.977  0.7350 -0.7403  1.9006
 3897TIP3   OH211696   1.934   1.898   3.323  0.0552 -0.2121  0.3959
 3897TIP3    H111697   2.017   1.932   3.358  0.3077 -0.3906 -0.0207
 3897TIP3    H211698   1.960   1.843   3.249 -0.5531  1.7640 -1.3965
 3898TIP3   OH211699   2.755   5.868   2.518 -0.0564 -0.0668  0.1675
 3898TIP3    H111700   2.828   5.913   2.477  0.7994 -0.6712  0.9993
 3898TIP3    H211701   2.745   5.788   2.467 -1.3677  0.8407 -1.1052
 3899TIP3   OH211702   1.776   1.886   4.876  0.1395  0.2806  0.3529
 3899TIP3    H111703   1.694   1.837   4.886  0.4736 -0.7266 -1.4002
 3899TIP3    H211704   1.804   1.868   4.786  2.5996  0.1253  1.0769
 3900TIP3   OH211705   1.306   3.570   2.934 -0.1568 -0.3525  0.5902
 3900TIP3    H111706   1.319   3.520   3.014 -2.0735  1.1862  1.9822
 3900TIP3    H211707   1.271   3.654   2.964 -2.3597 -0.2330 -1.8953
 3901TIP3   OH211708   2.140   2.372   0.980 -0.3604 -0.2143 -0.5891
 3901TIP3    H111709   2.205   2.413   1.037 -0.7198 -2.9649  2.0445
 3901TIP3    H211710   2.056   2.393   1.020 -0.7964 -0.4351 -1.3651
 3902TIP3   OH211711   3.480   0.188   0.914  0.4624  0.1486 -0.5602
 3902TIP3    H111712   3.399   0.188   0.965  0.8680  3.5637  0.2794
 3902TIP3    H211713   3.451   0.171   0.824 -1.0361  0.1611 -0.1114
 3903TIP3   OH211714   2.841   4.486   3.515 -0.4234 -0.3530 -0.8254
 3903TIP3    H111715   2.772   4.514   3.456  0.1692 -0.2385 -1.4789
 3903TIP3    H211716   2.910   4.452   3.457  1.5352  2.6558 -0.4743
 3904TIP3   OH211717   0.994   5.260   2.394 -0.1476  0.2462  0.3528
 3904TIP3    H111718   1.067   5.298   2.345  1.3410 -0.1342  2.1726
 3904TIP3    H211719   0.921   5.320   2.379 -0.2282 -0.4856 -3.3187
 3905TIP3   OH211720   0.639   0.838   0.471 -0.9732  0.1805 -0.2475
 3905TIP3    H111721   0.545   0.841   0.488 -0.9556  1.5533 -0.2948
 3905TIP3    H211722   0.672   0.770   0.530 -2.0640 -0.7076 -0.6294
 3906TIP3   OH211723   1.858   5.010   4.212  0.2440 -0.0289 -0.3879
 3906TIP3    H111724   1.873   5.103   4.228 -0.9100  0.0391  0.3957
 3906TIP3    H211725   1.767   4.995   4.239 -0.2659 -0.9532 -2.3853
 3907TIP3   OH211726   2.626   5.800   5.129 -0.0325 -0.1503  0.3641
 3907TIP3    H111727   2.619   5.891   5.101  0.6364 -0.2514 -0.1636
 3907TIP3    H211728   2.687   5.760   5.066  0.1901 -0.8024  0.9785
 3908TIP3   OH211729   4.574   4.788   4.062 -0.1879 -0.0949  0.0710
 3908TIP3    H111730   4.519   4.732   4.117 -0.4461 -1.4554 -1.4989
 3908TIP3    H211731   4.557   4.759   3.973  0.0516  2.1941 -0.7870
 3909TIP3   OH211732   3.722   0.909   5.131  0.6599 -0.3026  0.2934
 3909TIP3    H111733   3.735   0.947   5.044  0.3751  1.4636  0.9717
 3909TIP3    H211734   3.631   0.882   5.133 -0.0582  1.9086  0.7945
 3910TIP3   OH211735   5.950   1.601   0.676 -0.3913  0.0104 -0.0355
 3910TIP3    H111736   5.937   1.563   0.762  0.3029  0.6531  0.3722
 3910TIP3    H211737   5.890   1.676   0.674  2.0904  2.2067  1.3528
 3911TIP3   OH211738   1.307   5.390   5.010  0.2261  0.0928 -0.6179
 3911TIP3    H111739   1.284   5.363   4.921  0.8349  0.7784 -0.9964
 3911TIP3    H211740   1.395   5.427   5.002  0.8127 -0.9772  0.4996
 3912TIP3   OH211741   4.101   3.164   1.456  0.4785  0.1523  0.4414
 3912TIP3    H111742   4.174   3.211   1.496  0.5807  0.4605 -0.0930
 3912TIP3    H211743   4.118   3.170   1.362 -0.5927  0.7945  0.2801
 3913TIP3   OH211744   3.202   2.567   0.720 -0.6845 -0.3188 -0.5923
 3913TIP3    H111745   3.107   2.568   0.708 -0.4933  0.6556 -2.3133
 3913TIP3    H211746   3.221   2.650   0.763 -0.5233 -0.0744 -1.1295
 3914TIP3   OH211747   3.361   4.829   0.341  0.1981  0.2917  0.2652
 3914TIP3    H111748   3.439   4.797   0.296 -0.2166 -0.9709  0.4089
 3914TIP3    H211749   3.309   4.872   0.273 -0.1447 -1.0789 -0.3751
 3915TIP3   OH211750   3.427   0.485   4.716 -0.4940 -0.2871  0.1757
 3915TIP3    H111751   3.478   0.566   4.713 -1.1755  0.1285 -0.7543
 3915TIP3    H211752   3.379   0.484   4.633 -1.7962 -0.7935  0.9018
 3916TIP3   OH211753   4.566   3.007   0.735 -0.2524 -0.0153 -0.4917
 3916TIP3    H111754   4.629   3.078   0.723  1.7924 -1.9205 -1.8446
 3916TIP3    H211755   4.611   2.943   0.789 -0.5384 -1.9332 -2.3885
 3917TIP3   OH211756   4.402   1.446   0.547  0.1086  0.0566  0.3166
 3917TIP3    H111757   4.351   1.495   0.611  1.6951  0.0951  1.6067
 3917TIP3    H211758   4.386   1.354   0.568 -0.0970  0.0494  0.1431
 3918TIP3   OH211759   3.293   3.068   1.074  0.4132 -0.7746 -0.3523
 3918TIP3    H111760   3.201   3.044   1.067 -0.0828  0.5817  0.9357
 3918TIP3    H211761   3.311   3.117   0.994 -0.0853 -0.7767 -0.4694
 3919TIP3   OH211762   5.594   4.920   1.897  0.2247 -0.4541 -0.2405
 3919TIP3    H111763   5.680   4.947   1.927 -0.6477  0.4503  1.5788
 3919TIP3    H211764   5.584   4.963   1.812  0.8084  1.0388  0.4162
 3920TIP3   OH211765   4.227   5.761   3.495 -0.2191 -0.3896  0.1614
 3920TIP3    H111766   4.168   5.729   3.563 -1.1376 -0.5008 -0.6542
 3920TIP3    H211767   4.315   5.745   3.529 -0.5895  1.6853  2.3443
 3921TIP3   OH211768   4.956   5.087   3.995 -0.3186  0.2854  0.0757
 3921TIP3    H111769   5.029   5.149   3.986 -0.5599  0.7051  0.9418
 3921TIP3    H211770   4.883   5.130   3.949  0.4598 -1.0269 -2.5819
 3922TIP3   OH211771   1.119   5.765   0.525  0.3667  0.0850  0.1353
 3922TIP3    H111772   1.029   5.765   0.559  0.9163 -0.9262  1.6960
 3922TIP3    H211773   1.140   5.857   0.514 -1.0581  0.3240 -0.8171
 3923TIP3   OH211774   6.151   2.827   4.515  0.8774 -0.8578  0.0293
 3923TIP3    H111775   6.238   2.841   4.478  0.0658  1.7144 -1.1396
 3923TIP3    H211776   6.156   2.864   4.604  0.5873  0.9653 -0.6582
 3924TIP3   OH211777   5.218   5.257   4.597  0.1203 -0.0676  0.1542
 3924TIP3    H111778   5.171   5.329   4.638  1.6718  0.1131  1.7625
 3924TIP3    H211779   5.153   5.213   4.543 -1.2491  1.5847  0.3800
 3925TIP3   OH211780   3.489   2.367   4.911  0.0011  0.0622  0.0915
 3925TIP3    H111781   3.534   2.402   4.987  1.1505 -2.2588  0.5708
 3925TIP3    H211782   3.558   2.354   4.845 -0.4976 -0.5978 -0.3149
 3926TIP3   OH211783   4.295   5.926   0.735  0.4408 -0.2961 -0.5010
 3926TIP3    H111784   4.380   5.903   0.772  0.5069  0.4224 -0.2013
 3926TIP3    H211785   4.310   6.009   0.690  0.0260 -0.4478 -0.9304
 3927TIP3   OH211786   0.342   3.635   2.368  0.1004 -0.5401 -0.6525
 3927TIP3    H111787   0.321   3.708   2.309  0.0956  0.1690  0.2003
 3927TIP3    H211788   0.260   3.617   2.413  0.6272  0.4652  0.7749
 3928TIP3   OH211789   0.804   5.398   0.785  0.5169 -0.0374  0.3752
 3928TIP3    H111790   0.863   5.373   0.856  0.4847  1.1671  0.8533
 3928TIP3    H211791   0.859   5.396   0.707  0.2295 -2.7240  0.1632
 3929TIP3   OH211792   4.106   3.963   4.013 -0.3196  0.2787 -0.1646
 3929TIP3    H111793   4.153   3.938   3.934  0.9079  1.3023  0.2096
 3929TIP3    H211794   4.034   3.899   4.020 -0.3348  0.0622 -1.9715
 3930TIP3   OH211795   2.264   2.122   2.556  0.0088 -0.0322  0.1067
 3930TIP3    H111796   2.169   2.134   2.549  0.2608  1.6567 -1.1189
 3930TIP3    H211797   2.285   2.058   2.487  0.0353  1.6147 -1.4958
 3931TIP3   OH211798   0.408   2.865   0.977  0.1222 -0.2813  0.4615
 3931TIP3    H111799   0.390   2.865   0.883 -0.3897  1.0030  0.5325
 3931TIP3    H211800   0.480   2.803   0.988  2.4401  1.8752 -1.2619
 3932TIP3   OH211801   2.268   4.277   1.195 -0.4458  0.0640 -0.4348
 3932TIP3    H111802   2.287   4.263   1.288 -0.0851 -1.4842 -0.7195
 3932TIP3    H211803   2.206   4.208   1.172 -1.2453  0.9850 -1.1488
 3933TIP3   OH211804   4.844   3.627   1.294 -0.0441 -0.0006  0.4336
 3933TIP3    H111805   4.873   3.628   1.203  1.1737 -0.9471  0.7829
 3933TIP3    H211806   4.750   3.608   1.289  0.4071 -2.3616 -0.5925
 3934TIP3   OH211807   2.143   3.476   4.506 -0.9729 -0.0572  0.0683
 3934TIP3    H111808   2.176   3.516   4.587 -1.1849 -1.7868  1.0728
 3934TIP3    H211809   2.051   3.456   4.524 -0.7633 -1.3761 -0.1964
 3935TIP3   OH211810   1.638   2.162   2.445  0.3970 -0.1980  0.3671
 3935TIP3    H111811   1.588   2.221   2.389 -0.2814 -1.7350 -0.7148
 3935TIP3    H211812   1.722   2.152   2.401  0.0257 -1.0512 -0.1880
 3936TIP3   OH211813   3.256   0.490   3.810  0.0415  0.6422  0.1701
 3936TIP3    H111814   3.200   0.476   3.734  0.7330  2.3193 -0.7063
 3936TIP3    H211815   3.260   0.585   3.820  2.2056  0.5658  0.5952
 3937TIP3   OH211816   4.090   3.177   0.131  0.3009 -0.0847  0.5986
 3937TIP3    H111817   4.167   3.162   0.186  0.1650  1.2550  1.2036
 3937TIP3    H211818   4.122   3.166   0.041  1.7408  2.3417  0.7145
 3938TIP3   OH211819   0.167   3.175   1.789 -0.6602 -0.1049 -0.0757
 3938TIP3    H111820   0.109   3.180   1.864  0.6752  1.7636  0.9187
 3938TIP3    H211821   0.111   3.195   1.714 -1.5324  0.4717  0.7087
 3939TIP3   OH211822   0.701   2.508   4.314 -0.2083  0.3911  0.0988
 3939TIP3    H111823   0.618   2.472   4.346  0.0219  0.2849  0.5925
 3939TIP3    H211824   0.767   2.445   4.343 -0.1072 -0.3834 -1.7158
 3940TIP3   OH211825   0.845   6.002   2.786 -0.1648 -0.3520  0.0628
 3940TIP3    H111826   0.860   5.933   2.721  0.5776  0.4311 -0.6118
 3940TIP3    H211827   0.917   5.992   2.848  2.7416  2.5468 -2.4425
 3941TIP3   OH211828   6.078   5.409   0.386  0.2873 -0.3281  0.2584
 3941TIP3    H111829   6.064   5.319   0.358 -1.9464 -0.1797  0.6747
 3941TIP3    H211830   6.157   5.437   0.340  0.4676 -2.1865 -0.6395
 3942TIP3   OH211831   5.556   4.817   2.837  0.0600  0.3275 -0.1818
 3942TIP3    H111832   5.547   4.762   2.914  1.1686 -0.1189 -0.3602
 3942TIP3    H211833   5.650   4.818   2.818 -0.1254  0.9360 -1.1533
 3943TIP3   OH211834   5.976   2.891   4.142 -0.5372 -0.2997 -0.4523
 3943TIP3    H111835   5.949   2.974   4.100 -0.2656  1.0439  1.8643
 3943TIP3    H211836   5.906   2.873   4.205  0.6008 -0.4909  0.7849
 3944TIP3   OH211837   6.323   5.744   0.217  0.2980  0.2882 -0.4316
 3944TIP3    H111838   6.316   5.752   0.122  1.4411 -0.6971 -0.6279
 3944TIP3    H211839   6.398   5.798   0.241  0.6776 -0.3097 -0.2431
 3945TIP3   OH211840   4.540   5.710   4.883  0.1275 -0.0706  0.3956
 3945TIP3    H111841   4.533   5.720   4.978  2.1501 -1.4820  0.7519
 3945TIP3    H211842   4.578   5.793   4.853 -1.5406  0.8176  0.6275
 3946TIP3   OH211843   3.402   0.544   0.866  0.2224 -0.5380  0.1081
 3946TIP3    H111844   3.477   0.496   0.830 -0.7545 -1.4986 -0.7240
 3946TIP3    H211845   3.411   0.535   0.961  1.8123  0.4247  0.0934
 3947TIP3   OH211846   1.845   2.005   1.284 -0.4816  0.4381 -0.6885
 3947TIP3    H111847   1.841   2.052   1.368  1.3623  2.2137 -1.5162
 3947TIP3    H211848   1.760   2.022   1.243 -0.7647  0.9827  0.0990
 3948TIP3   OH211849   1.970   2.454   1.669 -0.2960  0.2168  0.0479
 3948TIP3    H111850   1.907   2.519   1.701  1.1969  1.1252  1.2874
 3948TIP3    H211851   2.026   2.436   1.744  0.3321 -1.3129 -0.7474
 3949TIP3   OH211852   3.357   5.677   1.008  0.8258  0.2866 -0.5553
 3949TIP3    H111853   3.288   5.726   1.052 -0.0452 -0.1364 -1.4018
 3949TIP3    H211854   3.415   5.745   0.973  0.4888  0.6761 -0.3741
 3950TIP3   OH211855   1.652   0.050   3.514  0.2155  0.5189  0.6270
 3950TIP3    H111856   1.599  -0.024   3.484  1.1881  0.2837 -0.5808
 3950TIP3    H211857   1.678   0.026   3.603 -0.4284 -0.0509  0.6726
 3951TIP3   OH211858   1.388   0.454   2.632  0.6476  0.3983  0.2791
 3951TIP3    H111859   1.448   0.381   2.617  0.7363  0.4019  0.6083
 3951TIP3    H211860   1.301   0.414   2.632  0.7738  0.0427  1.9277
 3952TIP3   OH211861   4.656   5.110   0.998 -0.1296  0.1370  0.1584
 3952TIP3    H111862   4.607   5.107   0.916 -0.9446 -2.5257  0.6365
 3952TIP3    H211863   4.625   5.189   1.042 -0.4564  1.0306 -1.5968
 3953TIP3   OH211864   5.248   5.108   0.461  0.0373  0.0474 -0.1278
 3953TIP3    H111865   5.243   5.025   0.414 -0.9195  0.1874 -0.2989
 3953TIP3    H211866   5.204   5.092   0.544  0.4068  0.2150  0.1054
 3954TIP3   OH211867   4.348   5.123   2.457 -0.1194  0.3240 -0.0187
 3954TIP3    H111868   4.412   5.126   2.386  0.7267 -0.0831  0.6996
 3954TIP3    H211869   4.263   5.121   2.413  0.3871 -0.0404 -1.0136
 3955TIP3   OH211870   3.219   2.492   5.069 -0.4804 -0.4296  0.2609
 3955TIP3    H111871   3.252   2.575   5.034  0.1238  0.0045  1.7941
 3955TIP3    H211872   3.140   2.516   5.117 -0.7094 -0.8650  0.1101
 3956TIP3   OH211873   4.964   4.796   0.723 -0.4518  0.2896  0.6456
 3956TIP3    H111874   4.975   4.777   0.630  0.1626  1.5903  0.4363
 3956TIP3    H211875   5.036   4.750   0.766 -0.0665  0.6049  0.3464
 3957TIP3   OH211876   3.249   0.412   4.522 -0.2182 -0.1491 -0.2033
 3957TIP3    H111877   3.161   0.376   4.512 -0.3900  0.3522 -0.5261
 3957TIP3    H211878   3.300   0.341   4.563 -1.0601 -0.0450  1.0907
 3958TIP3   OH211879   0.329   4.014   3.431  0.2388 -0.0402  0.2482
 3958TIP3    H111880   0.410   3.987   3.474 -0.0238  0.2202  0.9229
 3958TIP3    H211881   0.358   4.076   3.364  0.4900  1.4361  1.6303
 3959TIP3   OH211882   2.276   2.210   3.497 -0.4806  0.0401 -0.1824
 3959TIP3    H111883   2.368   2.233   3.512 -0.6556  0.2227  0.7001
 3959TIP3    H211884   2.228   2.287   3.527 -0.9136  0.0163 -0.8208
 3960TIP3   OH211885   6.241   3.155   4.817 -0.7806 -0.2583  0.5997
 3960TIP3    H111886   6.314   3.212   4.843  0.4513 -1.7885  0.6803
 3960TIP3    H211887   6.176   3.214   4.781  0.4924  1.1858  0.5568
 3961TIP3   OH211888   6.215   2.919   0.905 -0.4902 -0.0388 -0.0626
 3961TIP3    H111889   6.297   2.871   0.889 -0.0283  1.1476 -1.5604
 3961TIP3    H211890   6.151   2.875   0.849 -0.2404  0.6005 -0.8718
 3962TIP3   OH211891   2.336   5.541   0.130 -0.1192  0.2434  0.3659
 3962TIP3    H111892   2.427   5.545   0.102 -0.6273 -0.7442 -1.5719
 3962TIP3    H211893   2.318   5.448   0.142 -0.8019  0.4465  0.9786
 3963TIP3   OH211894   2.942   2.018   1.906 -0.2555  0.1744 -0.2649
 3963TIP3    H111895   2.872   1.961   1.939  0.2622 -0.2759  0.0722
 3963TIP3    H211896   3.010   2.015   1.974  1.5940 -2.1263 -2.0347
 3964TIP3   OH211897   3.753   1.712   2.997 -0.1812 -0.3044  0.4248
 3964TIP3    H111898   3.669   1.678   3.030 -0.1461 -2.8424 -1.7226
 3964TIP3    H211899   3.762   1.797   3.038 -4.1520  0.3898  0.2949
 3965TIP3   OH211900   0.503   3.505   5.080 -0.2062  0.1216  0.1517
 3965TIP3    H111901   0.426   3.459   5.113  0.5259 -0.7496  0.6821
 3965TIP3    H211902   0.565   3.504   5.153 -0.2543  2.2163  0.2848
 3966TIP3   OH211903   6.311   3.766   3.559 -0.4734  0.2447  0.1430
 3966TIP3    H111904   6.344   3.802   3.477 -1.1604 -0.3137 -0.3784
 3966TIP3    H211905   6.333   3.673   3.556 -0.7431  0.1687  0.4715
 3967TIP3   OH211906   6.145   4.062   4.440  0.2005  0.5610  0.3151
 3967TIP3    H111907   6.139   4.070   4.535  3.1094  0.4910  0.6004
 3967TIP3    H211908   6.153   4.152   4.409  1.2246  0.4928  0.3562
 3968TIP3   OH211909   0.953   2.284   1.754 -0.1123  0.2031 -0.0988
 3968TIP3    H111910   0.916   2.371   1.768  0.8779  0.6318 -0.0588
 3968TIP3    H211911   0.878   2.228   1.735 -0.6855  1.2352 -0.9401
 3969TIP3   OH211912   0.706   0.701   2.886  0.0130 -0.5107  0.8903
 3969TIP3    H111913   0.637   0.724   2.947  0.6545  0.0840  1.4116
 3969TIP3    H211914   0.783   0.748   2.918  0.2729  0.1517 -0.5958
 3970TIP3   OH211915   5.816   2.554   2.596  0.4459 -0.3272  0.5087
 3970TIP3    H111916   5.807   2.504   2.515 -1.6099 -1.8193  1.5689
 3970TIP3    H211917   5.786   2.642   2.574 -0.9646 -0.9518 -0.1578
 3971TIP3   OH211918   2.685   1.098   4.339  0.4896 -0.5408  0.4101
 3971TIP3    H111919   2.769   1.069   4.303  0.1716 -0.4146 -0.4404
 3971TIP3    H211920   2.619   1.061   4.281 -0.2936 -3.3215  2.8083
 3972TIP3   OH211921   3.817   2.879   1.398  0.8599  1.0481 -0.3020
 3972TIP3    H111922   3.853   2.902   1.312  0.0770  0.8057 -0.6987
 3972TIP3    H211923   3.807   2.784   1.394  1.2867  0.9754  0.2474
 3973TIP3   OH211924   4.243   0.479   0.377 -0.5699 -0.0997  0.0928
 3973TIP3    H111925   4.242   0.494   0.471  1.6246  1.5345 -0.0467
 3973TIP3    H211926   4.161   0.519   0.345 -1.1804 -0.3993  1.2549
 3974TIP3   OH211927   5.730   1.940   2.629  0.3085 -0.2973  0.0218
 3974TIP3    H111928   5.641   1.928   2.663  0.6346  0.3973  1.1850
 3974TIP3    H211929   5.739   1.873   2.561 -0.4889 -1.5799  1.1238
 3975TIP3   OH211930   1.041   0.938   0.145  1.0084  0.1772 -0.2636
 3975TIP3    H111931   0.976   0.912   0.210  0.9174 -0.6630 -0.6829
 3975TIP3    H211932   0.999   1.010   0.097 -0.0054 -0.9410 -1.1204
 3976TIP3   OH211933   5.179   0.877   2.043  0.3237 -0.3114  0.2669
 3976TIP3    H111934   5.140   0.794   2.013  0.7411 -0.6083  0.5392
 3976TIP3    H211935   5.142   0.890   2.130  0.1559 -0.1436  0.1702
 3977TIP3   OH211936   1.932   4.957   1.152 -0.7528 -0.1001 -0.0374
 3977TIP3    H111937   1.930   5.040   1.103 -2.0116 -0.5246 -0.7512
 3977TIP3    H211938   1.914   4.983   1.242 -0.2577  0.4938 -0.0981
 3978TIP3   OH211939   5.218   5.287   0.137 -0.4588 -0.2427 -0.4301
 3978TIP3    H111940   5.280   5.303   0.208 -0.9628 -0.6241  0.1143
 3978TIP3    H211941   5.272   5.268   0.061  0.0936 -0.6253  0.0509
 3979TIP3   OH211942   3.510   4.543   1.945 -0.0846  0.0549 -0.1565
 3979TIP3    H111943   3.471   4.455   1.950  0.8887 -0.3986 -0.3308
 3979TIP3    H211944   3.509   4.564   1.852 -0.5292  0.3347 -0.0920
 3980TIP3   OH211945   3.810   2.007   4.689  0.2681  0.0807  0.0457
 3980TIP3    H111946   3.865   2.084   4.670 -0.0851 -0.2048 -2.3893
 3980TIP3    H211947   3.738   2.042   4.742  0.5379  1.2910 -0.3456
 3981TIP3   OH211948   4.651   4.288   4.465  0.1060 -0.4589 -0.1306
 3981TIP3    H111949   4.620   4.280   4.375  2.0101 -0.0650 -0.8776
 3981TIP3    H211950   4.689   4.376   4.470  1.2269 -0.9561  0.6210
 3982TIP3   OH211951   1.621   4.805   3.144  0.3513  0.5925  0.1511
 3982TIP3    H111952   1.526   4.801   3.156  0.4258 -1.0035  0.3841
 3982TIP3    H211953   1.633   4.806   3.049  0.0647  3.6334  0.0445
 3983TIP3   OH211954   5.725   2.410   0.137 -0.4680 -0.4532 -0.0695
 3983TIP3    H111955   5.758   2.331   0.180 -0.9299 -0.6955 -0.1471
 3983TIP3    H211956   5.769   2.411   0.053 -0.4112 -0.5974 -0.0429
 3984TIP3   OH211957   1.466   3.775   1.260 -0.3041 -0.3300 -0.3683
 3984TIP3    H111958   1.437   3.757   1.170 -1.6188  0.1766 -0.0749
 3984TIP3    H211959   1.441   3.866   1.275  0.9937 -0.0425  0.1143
 3985TIP3   OH211960   4.956   1.295   4.764 -0.7736  0.0044  0.7303
 3985TIP3    H111961   5.044   1.318   4.793 -0.7254  1.1565 -0.2241
 3985TIP3    H211962   4.898   1.328   4.833 -0.4688 -0.7442  1.3537
 3986TIP3   OH211963   1.187   2.446   3.603 -0.3719 -0.0251  0.5182
 3986TIP3    H111964   1.138   2.513   3.556 -1.3754 -0.3898  1.0085
 3986TIP3    H211965   1.145   2.363   3.579  1.4119 -0.5975 -0.7738
 3987TIP3   OH211966   2.313   3.175   2.277  0.8893  0.3581 -0.2823
 3987TIP3    H111967   2.266   3.128   2.346  1.3690  1.6781  1.0032
 3987TIP3    H211968   2.323   3.110   2.207  1.0268 -1.2751  1.1646
 3988TIP3   OH211969   6.329   0.215   1.368  0.0403  0.6860 -0.4897
 3988TIP3    H111970   6.263   0.156   1.405  0.3235  1.1073  0.7223
 3988TIP3    H211971   6.300   0.302   1.395  1.2821  0.8541  0.3994
 3989TIP3   OH211972   5.103   0.435   2.330  0.3332 -0.0015  0.1363
 3989TIP3    H111973   5.040   0.395   2.390  0.2579 -0.2055 -0.0722
 3989TIP3    H211974   5.188   0.403   2.359  0.2503 -0.5725 -0.2089
 3990TIP3   OH211975   0.458   0.338   3.541  0.0010  0.3748 -0.0074
 3990TIP3    H111976   0.542   0.346   3.496  0.3281 -1.5952  0.1436
 3990TIP3    H211977   0.400   0.299   3.476 -0.0046 -0.8490  0.6984
 3991TIP3   OH211978   4.747   1.935   0.769 -0.7380  0.3455 -0.2395
 3991TIP3    H111979   4.714   2.024   0.784  1.0030  1.0347 -0.3340
 3991TIP3    H211980   4.793   1.912   0.849 -1.7120 -0.7495  0.0295
 3992TIP3   OH211981   0.231   4.244   4.562  0.5181  0.8145 -0.0108
 3992TIP3    H111982   0.297   4.313   4.555  0.8070  0.5912  0.4703
 3992TIP3    H211983   0.163   4.279   4.619  0.8107  0.5936  0.4791
 3993TIP3   OH211984   1.748   4.671   4.170  0.2387  0.0200  0.4082
 3993TIP3    H111985   1.789   4.665   4.256 -1.4847  0.3251  1.2989
 3993TIP3    H211986   1.680   4.603   4.172  0.8362 -0.6611 -1.1095
 3994TIP3   OH211987   1.807   4.352   1.999  0.3699 -0.1997 -0.0766
 3994TIP3    H111988   1.787   4.318   2.086  0.0400 -1.2064 -0.5355
 3994TIP3    H211989   1.736   4.413   1.980  0.4225 -0.0048  0.3329
 3995TIP3   OH211990   0.156   3.935   1.362 -0.2581 -0.3851 -0.0048
 3995TIP3    H111991   0.192   3.960   1.277 -2.2390  2.2974 -0.1674
 3995TIP3    H211992   0.061   3.935   1.349 -0.5578 -1.8864  1.7590
 3996TIP3   OH211993   2.129   5.095   4.827  0.3888 -0.3839  0.4309
 3996TIP3    H111994   2.062   5.155   4.859  0.1829 -0.6179  0.4420
 3996TIP3    H211995   2.081   5.031   4.775  0.8307  0.6180 -1.2948
 3997TIP3   OH211996   0.559   2.752   4.403  0.2924 -0.4209  0.2450
 3997TIP3    H111997   0.634   2.794   4.447  0.5562 -1.0888  0.4474
 3997TIP3    H211998   0.590   2.664   4.383 -0.4034 -0.6618  0.2127
 3998TIP3   OH211999   5.912   1.354   3.308  0.2328  0.1352  0.7402
 3998TIP3    H112000   5.836   1.296   3.308 -0.3744  0.8639 -0.6199
 3998TIP3    H212001   5.968   1.320   3.238 -0.4840  1.5471 -0.5902
 3999TIP3   OH212002   3.462   1.226   4.225 -0.4314  0.7318  0.2685
 3999TIP3    H112003   3.370   1.251   4.216 -0.3505  0.9412  0.0103
 3999TIP3    H212004   3.459   1.137   4.261 -0.7504  0.2306 -0.9596
 4000TIP3   OH212005   4.133   2.122   1.337 -0.2632  0.0609  0.3338
 4000TIP3    H112006   4.228   2.113   1.323  0.0341  1.8555  0.8748
 4000TIP3    H212007   4.126   2.144   1.430 -1.1447  0.8673  0.0779
 4001TIP3   OH212008   3.604   1.889   1.631  0.1136 -0.2915  0.4270
 4001TIP3    H112009   3.644   1.900   1.545 -1.2604 -1.0700 -0.3420
 4001TIP3    H212010   3.516   1.925   1.621  0.5384  1.4249  2.0915
 4002TIP3   OH212011   3.826   4.428   4.814 -0.5877 -0.0102 -0.1051
 4002TIP3    H112012   3.788   4.352   4.857 -0.7296  0.3929  0.4852
 4002TIP3    H212013   3.840   4.399   4.723  0.1652 -1.0139  0.3170
 4003TIP3   OH212014   0.234   0.768   0.890  0.0179 -0.8780  0.1811
 4003TIP3    H112015   0.310   0.744   0.836 -1.1292 -1.9363 -1.0244
 4003TIP3    H212016   0.237   0.709   0.965  0.4133 -0.8698  0.1744
 4004TIP3   OH212017   1.616   2.140   0.791  0.6377  0.7665  0.3207
 4004TIP3    H112018   1.685   2.095   0.743 -0.4509 -0.6560  0.0196
 4004TIP3    H212019   1.615   2.098   0.877 -0.5095  0.0357 -0.0234
 4005TIP3   OH212020   3.125   5.156   4.899  0.2842 -0.1209 -0.0003
 4005TIP3    H112021   3.117   5.095   4.973  0.2848 -1.3110 -0.9475
 4005TIP3    H212022   3.166   5.234   4.936  0.9559 -0.9685  1.1049
 4006TIP3   OH212023   2.913   1.939   4.766  0.6680  0.1441  0.1271
 4006TIP3    H112024   2.960   1.891   4.834  1.3611  0.4269 -0.1502
 4006TIP3    H212025   2.975   2.004   4.734  0.1222  0.4645 -0.3092
 4007TIP3   OH212026   1.204   5.954   4.531 -0.0297 -0.3067  0.5059
 4007TIP3    H112027   1.191   5.859   4.531  2.4712 -0.7622  2.8048
 4007TIP3    H212028   1.262   5.971   4.458 -1.5013 -0.2921 -0.7146
 4008TIP3   OH212029   4.677   2.360   2.785  0.0912  0.6837 -0.2770
 4008TIP3    H112030   4.623   2.288   2.753  0.7860  0.0158  0.0158
 4008TIP3    H212031   4.623   2.438   2.773 -0.4360  0.1974 -1.1750
 4009TIP3   OH212032   2.762   2.486   4.239  0.2198 -0.3458 -0.0845
 4009TIP3    H112033   2.720   2.413   4.285  1.0576 -1.5564 -1.1590
 4009TIP3    H212034   2.740   2.563   4.290 -1.5746 -1.2105  0.5253
 4010TIP3   OH212035   2.770   4.962   1.492  0.2122  0.1528  0.4501
 4010TIP3    H112036   2.808   5.033   1.440 -0.0709  1.8232  2.3766
 4010TIP3    H212037   2.728   4.905   1.428  0.7470  1.5236 -1.2210
 4011TIP3   OH212038   4.515   4.527   3.401 -0.3275 -0.2093 -0.2570
 4011TIP3    H112039   4.570   4.453   3.373 -1.1467 -0.7629 -0.4149
 4011TIP3    H212040   4.427   4.504   3.371 -0.9241 -0.0213  1.2820
 4012TIP3   OH212041   4.409   0.114   2.817  0.4062 -0.4027  0.2295
 4012TIP3    H112042   4.327   0.075   2.849 -0.3699  0.2002 -0.9577
 4012TIP3    H212043   4.427   0.069   2.735  1.7358 -1.0975  0.8613
 4013TIP3   OH212044   1.529   0.331   2.207  0.0294  0.8636  0.4132
 4013TIP3    H112045   1.471   0.378   2.148 -1.9935 -0.4223  1.2471
 4013TIP3    H212046   1.531   0.384   2.286  0.1093  1.0024  0.3170
 4014TIP3   OH212047   5.821   2.510   2.325  0.2708 -0.1687 -0.3019
 4014TIP3    H112048   5.865   2.594   2.313  0.3012 -0.0254  0.7293
 4014TIP3    H212049   5.733   2.524   2.289  0.3057  0.2853 -0.2226
 4015TIP3   OH212050   5.979   0.355   0.834  0.2029  0.1748  0.1968
 4015TIP3    H112051   6.033   0.327   0.908 -2.1642 -1.8528  1.3369
 4015TIP3    H212052   5.981   0.281   0.774  2.5087  1.9910 -2.1885
 4016TIP3   OH212053   3.587   5.507   0.575 -0.1170  0.0456 -0.4270
 4016TIP3    H112054   3.509   5.546   0.614 -0.5510 -1.0313 -0.2054
 4016TIP3    H212055   3.555   5.462   0.497  0.0164 -1.6947  0.4864
 4017TIP3   OH212056   6.142   0.378   4.366  0.5922 -0.2128  0.0397
 4017TIP3    H112057   6.236   0.395   4.366  0.5906 -0.2077  0.3467
 4017TIP3    H212058   6.106   0.436   4.432  0.2502  0.4341 -0.6941
 4018TIP3   OH212059   0.755   5.133   3.640 -0.2595 -0.0490 -0.0465
 4018TIP3    H112060   0.714   5.217   3.659  0.4768 -0.1330  2.1599
 4018TIP3    H212061   0.827   5.126   3.703 -0.2772 -2.3217 -0.1906
 4019TIP3   OH212062   3.173   3.339   3.698  0.3018 -0.0027  0.2941
 4019TIP3    H112063   3.120   3.399   3.646  0.2433 -0.1239  0.2136
 4019TIP3    H212064   3.114   3.307   3.766  0.1007 -0.5985 -0.1547
 4020TIP3   OH212065   0.162   4.893   3.644  0.4457  0.2383  0.0323
 4020TIP3    H112066   0.194   4.920   3.730  0.4178 -1.3406  0.5845
 4020TIP3    H212067   0.240   4.866   3.596  0.2921 -0.5907  0.2302
 4021TIP3   OH212068   5.267   2.284   0.045  0.2388  0.1546  0.2254
 4021TIP3    H112069   5.251   2.242   0.129 -0.1442  0.9994  0.5944
 4021TIP3    H212070   5.254   2.378   0.062  1.2791  0.4530 -0.5103
 4022TIP3   OH212071   1.315   1.892   4.026 -0.2163 -0.5148  0.6857
 4022TIP3    H112072   1.248   1.824   4.027 -1.4176  0.5826 -0.9634
 4022TIP3    H212073   1.396   1.846   4.050 -1.1875 -2.2670  0.7507
 4023TIP3   OH212074   1.663   0.397   1.142 -0.3952  0.1716  0.4055
 4023TIP3    H112075   1.684   0.423   1.232  1.8116 -0.2894  0.0881
 4023TIP3    H212076   1.714   0.457   1.087 -1.3020  0.1075 -0.5317
 4024TIP3   OH212077   6.129   1.030   2.966  0.2666  0.2007 -0.0807
 4024TIP3    H112078   6.220   1.002   2.961 -0.2109 -1.3268 -1.7916
 4024TIP3    H212079   6.080   0.957   2.927 -1.8931  0.1724  2.3980
 4025TIP3   OH212080   0.652   5.664   3.034  0.3335  0.4226 -0.7313
 4025TIP3    H112081   0.683   5.675   2.944  0.7004  0.7521 -0.5700
 4025TIP3    H212082   0.604   5.745   3.053  0.0253  0.2398 -0.7184
 4026TIP3   OH212083   1.084   0.375   2.982 -0.1386  0.1592 -0.2597
 4026TIP3    H112084   1.148   0.422   3.034 -1.0258 -0.3269  1.3385
 4026TIP3    H212085   1.047   0.441   2.923  0.0750  0.9958  0.5265
 4027TIP3   OH212086   5.925   4.320   3.380  1.1285  0.5730 -0.2914
 4027TIP3    H112087   5.957   4.281   3.298 -2.0167  1.3480 -2.0529
 4027TIP3    H212088   5.996   4.304   3.443  3.0781 -1.3924 -2.7376
 4028TIP3   OH212089   0.950   1.147   3.636 -0.3011 -0.5406  0.2668
 4028TIP3    H112090   0.865   1.176   3.667 -1.5314 -1.2834 -2.1195
 4028TIP3    H212091   0.930   1.076   3.574  2.0020 -0.3476 -0.8234
 4029TIP3   OH212092   4.532   3.081   4.423 -0.4872  0.0724 -0.2801
 4029TIP3    H112093   4.521   2.991   4.391  0.3638 -0.0594 -0.2070
 4029TIP3    H212094   4.556   3.071   4.515 -0.2512  0.3692 -0.3089
 4030TIP3   OH212095   1.627   5.410   5.083  0.5184  0.5012  0.3248
 4030TIP3    H112096   1.638   5.327   5.038  0.5760  1.0653 -0.7284
 4030TIP3    H212097   1.715   5.447   5.088  0.1870  1.6380 -1.4945
 4031TIP3   OH212098   2.053   4.158   4.947 -0.0932 -0.0352  0.1128
 4031TIP3    H112099   2.046   4.062   4.947  1.9969 -0.3246  2.8419
 4031TIP3    H212100   2.018   4.184   5.032 -1.3310  1.7637 -0.8817
 4032TIP3   OH212101   2.304   5.296   4.243 -0.0486 -0.3422 -0.5491
 4032TIP3    H112102   2.252   5.226   4.203 -0.0806 -1.5602  1.4358
 4032TIP3    H212103   2.395   5.273   4.223 -0.0827 -0.7348 -0.2721
 4033TIP3   OH212104   5.527   3.785   1.906  0.4334 -0.3000  0.3658
 4033TIP3    H112105   5.520   3.871   1.947  1.3346 -0.5083  0.9777
 4033TIP3    H212106   5.446   3.740   1.931  0.1448  0.2110  0.3834
 4034TIP3   OH212107   2.109   1.600   0.307  0.4406  0.1888  0.1243
 4034TIP3    H112108   2.121   1.690   0.338 -1.5931  0.8072 -0.7228
 4034TIP3    H212109   2.070   1.609   0.220  3.3581 -1.5306 -1.5006
 4035TIP3   OH212110   1.256   4.222   0.826 -0.1059 -0.5692 -0.3615
 4035TIP3    H112111   1.343   4.228   0.786  0.8374  0.0774  1.6385
 4035TIP3    H212112   1.206   4.293   0.785  1.1976  0.8416  0.3941
 4036TIP3   OH212113   0.263   4.821   0.653  0.0778 -0.0068  0.1983
 4036TIP3    H112114   0.321   4.747   0.634  0.3076 -0.3614  2.0773
 4036TIP3    H212115   0.227   4.846   0.567 -0.0009 -2.2724 -0.5026
 4037TIP3   OH212116   1.541   3.208   0.960  0.1346 -0.3237  0.2861
 4037TIP3    H112117   1.634   3.195   0.940 -0.0758 -1.1551 -0.1790
 4037TIP3    H212118   1.495   3.145   0.904 -0.7853  0.8448 -0.3232
 4038TIP3   OH212119   0.042   0.937   4.869  0.3221  0.7470 -0.3749
 4038TIP3    H112120   0.015   0.977   4.951  1.0238 -0.2276  0.3677
 4038TIP3    H212121   0.031   0.843   4.884  1.6637  0.4695 -0.9213
 4039TIP3   OH212122   3.019   3.011   1.002  0.4841 -0.0270  0.1653
 4039TIP3    H112123   2.989   2.948   0.937  1.0076 -0.1073 -0.0084
 4039TIP3    H212124   2.949   3.015   1.067  0.8159 -1.4263  0.6279
 4040TIP3   OH212125   4.134   5.331   1.274  0.4524  0.6489 -0.5177
 4040TIP3    H112126   4.126   5.407   1.333  0.0725 -0.0692  0.3761
 4040TIP3    H212127   4.200   5.276   1.315 -1.8664 -1.2818  0.8861
 4041TIP3   OH212128   5.890   5.211   2.552  0.1322  0.3353  0.3398
 4041TIP3    H112129   5.938   5.248   2.626 -0.9701  0.1060  1.1942
 4041TIP3    H212130   5.866   5.286   2.499 -1.4663  0.8441  1.6831
 4042TIP3   OH212131   3.722   3.394   0.016  0.3636 -0.2362 -0.0916
 4042TIP3    H112132   3.713   3.453  -0.059  0.8972  0.7932  0.6298
 4042TIP3    H212133   3.787   3.436   0.072  0.8337 -1.5649  0.4154
 4043TIP3   OH212134   4.756   0.924   4.227  0.2069  0.3870  0.1089
 4043TIP3    H112135   4.821   0.983   4.190  1.1413 -0.8014 -0.2036
 4043TIP3    H212136   4.799   0.887   4.305 -0.1992 -0.1801  0.0715
 4044TIP3   OH212137   3.479   4.491   0.333  0.0766  0.2441  0.6328
 4044TIP3    H112138   3.563   4.490   0.379  0.2709 -0.5284  0.2857
 4044TIP3    H212139   3.485   4.563   0.271  0.5662  0.0713  0.4744
 4045TIP3   OH212140   0.461   4.885   2.362  0.5577  0.0223 -0.0493
 4045TIP3    H112141   0.445   4.939   2.439  0.0169  1.2257 -0.9617
 4045TIP3    H212142   0.548   4.912   2.332  0.3941  0.2028 -0.3625
 4046TIP3   OH212143   2.788   0.087   0.455  0.1537  0.1147 -0.5220
 4046TIP3    H112144   2.839   0.094   0.374  0.8526  3.0747  0.0817
 4046TIP3    H212145   2.706   0.132   0.436 -1.0592 -1.9306 -0.4873
 4047TIP3   OH212146   3.350   2.089   1.890 -0.2702 -0.5891 -0.5113
 4047TIP3    H112147   3.362   2.184   1.892  0.0643 -0.5516 -2.6894
 4047TIP3    H212148   3.381   2.060   1.976 -0.2580  1.2403  0.1525
 4048TIP3   OH212149   2.482   5.616   4.664  0.1620 -0.0349 -0.3717
 4048TIP3    H112150   2.569   5.586   4.640 -0.2295 -0.4021 -1.4280
 4048TIP3    H212151   2.465   5.576   4.749  2.5404  3.1706  1.8459
 4049TIP3   OH212152   2.547   0.177   4.534 -0.0798 -0.0962  0.2032
 4049TIP3    H112153   2.559   0.134   4.619  2.4462  2.3606  1.2359
 4049TIP3    H212154   2.474   0.237   4.548 -0.0229 -0.0862  0.4666
 4050TIP3   OH212155   4.270   5.179   2.989  0.0118 -0.1617 -0.2360
 4050TIP3    H112156   4.333   5.151   2.922 -1.4855 -0.8596 -1.3891
 4050TIP3    H212157   4.301   5.266   3.015  1.3752 -0.4260 -0.8564
 4051TIP3   OH212158   5.002   1.914   1.425 -0.6273  0.1908  0.6358
 4051TIP3    H112159   4.921   1.962   1.410 -0.6607 -0.4714 -1.6802
 4051TIP3    H212160   5.047   1.964   1.493 -2.7168  0.8481  1.6243
 4052TIP3   OH212161   5.467   2.960   4.447 -0.3387  0.5228 -0.2376
 4052TIP3    H112162   5.498   2.881   4.491  0.6835  0.3254 -1.2581
 4052TIP3    H212163   5.456   2.933   4.355  0.9658  1.7972 -0.7935
 4053TIP3   OH212164   4.055   3.406   0.524  0.2261  0.2281  0.0882
 4053TIP3    H112165   4.069   3.411   0.619 -1.0158  1.2356  0.2356
 4053TIP3    H212166   4.096   3.485   0.490 -1.7671  1.3179  0.1230
 4054TIP3   OH212167   3.616   0.014   3.962  0.4378 -0.4337 -0.5676
 4054TIP3    H112168   3.602   0.097   4.007 -1.1668 -0.7019 -0.5025
 4054TIP3    H212169   3.563   0.020   3.883  0.8583 -1.1260 -0.9101
 4055TIP3   OH212170   0.394   0.749   3.739 -0.5762  0.6367 -0.2003
 4055TIP3    H112171   0.454   0.684   3.775 -0.4386 -0.0529 -1.6112
 4055TIP3    H212172   0.331   0.765   3.809  0.4598  0.3843  0.8275
 4056TIP3   OH212173   6.108   5.309   0.051  0.2011 -0.1622  0.2060
 4056TIP3    H112174   6.126   5.215   0.052  1.4899  0.0659  0.1899
 4056TIP3    H212175   6.176   5.346   0.107 -0.9015  0.6683  1.0259
 4057TIP3   OH212176   6.029   2.847   0.669  0.0961  0.5650  0.2496
 4057TIP3    H112177   5.966   2.837   0.739 -0.6518  0.2987 -0.4498
 4057TIP3    H212178   5.979   2.885   0.596  0.8527  0.8352 -0.1434
 4058TIP3   OH212179   0.237   5.857   0.626  0.0499 -0.2111  0.2887
 4058TIP3    H112180   0.273   5.932   0.674 -0.4308 -1.2510  2.3710
 4058TIP3    H212181   0.153   5.888   0.592  0.3471  0.5071  0.1804
 4059TIP3   OH212182   5.455   2.926   3.853 -0.1718 -0.6329 -0.1435
 4059TIP3    H112183   5.381   2.891   3.804 -1.0934  0.0462  0.7408
 4059TIP3    H212184   5.443   3.021   3.849  1.0427 -0.4817 -0.5817
 4060TIP3   OH212185   5.572   1.194   0.677  0.1894  0.3995  0.1537
 4060TIP3    H112186   5.544   1.285   0.685  0.5398  0.5345 -0.1217
 4060TIP3    H212187   5.572   1.177   0.583 -1.5174 -0.4149  0.2707
 4061TIP3   OH212188   0.185   0.597   1.822 -0.1410 -0.0643  0.2119
 4061TIP3    H112189   0.274   0.621   1.847 -0.3149 -0.8658  1.7542
 4061TIP3    H212190   0.143   0.680   1.798  0.7448  0.4391  0.3809
 4062TIP3   OH212191   1.680   4.672   4.848  0.1856 -0.0074  0.6398
 4062TIP3    H112192   1.702   4.579   4.850 -0.7501 -0.2711 -0.2157
 4062TIP3    H212193   1.763   4.718   4.840  0.5799 -0.8251  0.0410
 4063TIP3   OH212194   5.276   3.579   1.206 -0.1546 -0.5832  0.1885
 4063TIP3    H112195   5.237   3.661   1.236 -0.6446 -0.8260  0.2347
 4063TIP3    H212196   5.247   3.571   1.115  0.4221 -0.3904 -0.0149
 4064TIP3   OH212197   0.128   1.670   1.794  0.4922  0.3086 -0.1564
 4064TIP3    H112198   0.125   1.590   1.846  1.4539 -1.5052 -2.6593
 4064TIP3    H212199   0.037   1.689   1.772  0.0289  1.3779  2.4267
 4065TIP3   OH212200   5.795   3.715   1.944  0.3220  0.0044 -0.8919
 4065TIP3    H112201   5.808   3.643   2.006  1.6461  0.7609 -0.2444
 4065TIP3    H212202   5.703   3.739   1.954  0.0858 -1.0370 -0.4935
 4066TIP3   OH212203   1.953   1.560   4.905 -0.4951  0.2825 -0.0040
 4066TIP3    H112204   2.028   1.613   4.877  0.6189 -0.2292  1.8219
 4066TIP3    H212205   1.895   1.558   4.829  1.1816  0.9782 -1.3656
 4067TIP3   OH212206   2.878   0.523   1.245 -0.2651 -0.2476 -0.5557
 4067TIP3    H112207   2.831   0.570   1.314  1.9633 -0.7112  1.3912
 4067TIP3    H212208   2.875   0.582   1.170  0.8883  2.3020  1.2603
 4068TIP3   OH212209   2.651   3.012   5.131 -0.2970  0.2405  0.0169
 4068TIP3    H112210   2.559   3.022   5.107 -0.2792  2.0748  0.5854
 4068TIP3    H212211   2.679   3.100   5.158  1.0791 -0.6504  1.7157
 4069TIP3   OH212212   0.704   0.138   1.081 -0.1735 -0.0717 -0.5080
 4069TIP3    H112213   0.706   0.224   1.039  1.0330  0.8787  1.3512
 4069TIP3    H212214   0.768   0.086   1.033  0.5624  0.7141 -0.3889
 4070TIP3   OH212215   4.024   3.235   1.181 -1.0943  0.6501 -0.3967
 4070TIP3    H112216   4.112   3.271   1.169 -0.3556 -0.9639 -0.1434
 4070TIP3    H212217   4.029   3.147   1.143 -2.0983 -0.1054  1.1085
 4071TIP3   OH212218   2.631   5.254   2.150  0.3999 -0.5055  0.5213
 4071TIP3    H112219   2.584   5.247   2.067  1.1307  1.0779 -0.0531
 4071TIP3    H212220   2.654   5.163   2.172 -0.6246 -1.0368 -0.5086
 4072TIP3   OH212221   4.460   5.273   0.021 -0.0306  0.6001 -0.5945
 4072TIP3    H112222   4.480   5.214   0.095 -0.4986 -2.1574 -2.4927
 4072TIP3    H212223   4.369   5.253  -0.001  0.0761  1.4199 -1.8682
 4073TIP3   OH212224   2.077   0.308   2.957  0.5043  0.4124 -0.0118
 4073TIP3    H112225   2.063   0.284   2.865  3.6656 -0.5112 -0.3585
 4073TIP3    H212226   2.067   0.225   3.004 -1.2850  0.9153  0.5778
 4074TIP3   OH212227   4.968   1.636   1.965 -0.2490 -0.4321  0.0479
 4074TIP3    H112228   4.877   1.667   1.964 -0.4021 -0.7091 -2.7993
 4074TIP3    H212229   4.962   1.547   2.000 -0.5846  0.5851  2.7935
 4075TIP3   OH212230   1.500   3.222   4.304  0.4372  0.2882  0.5534
 4075TIP3    H112231   1.495   3.307   4.350  2.1483  1.5063 -1.3662
 4075TIP3    H212232   1.424   3.223   4.246  0.3834  0.4305  0.6225
 4076TIP3   OH212233   3.357   2.391   2.838  0.4063  0.0469  0.0196
 4076TIP3    H112234   3.403   2.350   2.764 -0.0358  1.0914 -0.8677
 4076TIP3    H212235   3.275   2.343   2.845  0.9917 -0.8918  0.6819
 4077TIP3   OH212236   5.482   5.418   1.317 -0.4709 -0.1605  0.3346
 4077TIP3    H112237   5.422   5.344   1.312 -2.2603  1.1471  1.1668
 4077TIP3    H212238   5.533   5.402   1.397 -2.4463  0.5415  1.8309
 4078TIP3   OH212239   5.175   4.133   2.622  0.1268 -0.8633 -0.5643
 4078TIP3    H112240   5.155   4.151   2.714  0.4030  0.9781 -0.8187
 4078TIP3    H212241   5.193   4.039   2.619  1.0951 -0.7929  1.4517
 4079TIP3   OH212242   1.306   4.678   1.394  0.0414 -0.1662  0.2525
 4079TIP3    H112243   1.251   4.753   1.420 -0.9231 -1.2752  1.5462
 4079TIP3    H212244   1.380   4.682   1.454  0.2259  0.0146  0.0137
 4080TIP3   OH212245   4.503   5.545   0.058 -0.2309  0.2660  0.2410
 4080TIP3    H112246   4.473   5.455   0.070 -0.8884  0.4804  0.2725
 4080TIP3    H212247   4.598   5.540   0.061 -0.2786 -0.3302  0.9826
 4081TIP3   OH212248   2.737   1.976   3.535  0.0506 -0.5497  0.2257
 4081TIP3    H112249   2.810   1.924   3.501 -1.9283 -2.4773 -1.3955
 4081TIP3    H212250   2.743   2.059   3.488  0.4057 -1.2324 -1.0022
 4082TIP3   OH212251   1.907   2.538   3.343  0.6191  0.1283 -0.3852
 4082TIP3    H112252   1.935   2.535   3.435 -3.1406 -0.2094  0.9198
 4082TIP3    H212253   1.831   2.595   3.343 -1.8900 -2.8717 -2.4519
 4083TIP3   OH212254   4.809   0.575   2.512 -0.6017  0.0207  0.1016
 4083TIP3    H112255   4.855   0.499   2.477 -1.4715 -1.2677  1.5740
 4083TIP3    H212256   4.717   0.546   2.518 -1.4455  2.0789 -1.6268
 4084TIP3   OH212257   6.178   2.306   2.065  0.4668 -0.0305  0.2530
 4084TIP3    H112258   6.194   2.368   1.994  0.1360 -0.3005 -0.0628
 4084TIP3    H212259   6.095   2.335   2.104 -0.2676 -0.9103 -0.6029
 4085TIP3   OH212260   5.500   0.620   3.228 -0.0268  0.1185 -0.5390
 4085TIP3    H112261   5.518   0.526   3.228  0.9600  0.2950 -0.0123
 4085TIP3    H212262   5.573   0.659   3.276 -1.1526  1.0269  0.5079
 4086TIP3   OH212263   0.917   1.875   1.469 -0.6059 -0.5451  0.2176
 4086TIP3    H112264   0.829   1.865   1.505 -0.4720  0.1732  0.7751
 4086TIP3    H212265   0.913   1.833   1.383 -2.1374  1.4142 -0.7423
 4087TIP3   OH212266   5.094   0.445   0.112  0.0712 -0.2953  0.3553
 4087TIP3    H112267   5.065   0.524   0.068 -0.0731  0.6844  2.0957
 4087TIP3    H212268   5.023   0.382   0.098 -1.2389  0.8667  1.4346
 4088TIP3   OH212269   5.279   2.933   2.765 -0.4354  0.1042 -0.3605
 4088TIP3    H112270   5.212   2.988   2.725 -0.6404 -0.3745 -0.6791
 4088TIP3    H212271   5.353   2.992   2.781 -1.1709  0.7964  0.6145
 4089TIP3   OH212272   4.269   1.857   0.811  0.9296 -0.8250  0.0419
 4089TIP3    H112273   4.180   1.892   0.821  0.2678 -1.9044 -1.6899
 4089TIP3    H212274   4.304   1.902   0.735  1.0038 -2.0363 -0.6585
 4090TIP3   OH212275   4.191   4.275   0.424 -0.1011  0.6602 -0.1917
 4090TIP3    H112276   4.143   4.288   0.342 -0.8943  0.6997  0.2610
 4090TIP3    H212277   4.237   4.357   0.438 -0.7178  1.0054 -0.1292
 4091TIP3   OH212278   4.396   2.129   1.244  0.0798 -0.3272 -0.3082
 4091TIP3    H112279   4.491   2.116   1.250  0.0599 -0.4736 -0.2997
 4091TIP3    H212280   4.365   2.055   1.193 -0.0674 -0.4440 -0.0538
 4092TIP3   OH212281   0.222   5.870   3.402 -0.2385  0.8372 -1.1741
 4092TIP3    H112282   0.199   5.814   3.328 -2.7063  1.3723 -0.8735
 4092TIP3    H212283   0.152   5.935   3.407 -0.3593  0.6411  1.8049
 4093TIP3   OH212284   2.979   1.230   0.624 -0.2307 -0.1145  0.1107
 4093TIP3    H112285   2.993   1.324   0.609  2.3203 -0.3142  0.7367
 4093TIP3    H212286   2.885   1.217   0.610 -0.0936  1.7331 -4.4103
 4094TIP3   OH212287   6.293   2.318   2.468  0.8613  0.2585 -0.5414
 4094TIP3    H112288   6.204   2.353   2.472  0.5647 -0.4113 -0.9930
 4094TIP3    H212289   6.346   2.381   2.515 -0.2370 -0.5202  1.9042
 4095TIP3   OH212290   2.009   3.736   4.200 -0.0351 -0.2128  0.4058
 4095TIP3    H112291   1.981   3.680   4.128  1.2061 -1.7397  1.0449
 4095TIP3    H212292   2.038   3.817   4.158 -4.0499  1.0605 -0.3941
 4096TIP3   OH212293   5.865   5.762   4.492  0.0781  0.0745  0.1487
 4096TIP3    H112294   5.779   5.794   4.464 -0.5250 -1.4180  0.2256
 4096TIP3    H212295   5.920   5.841   4.495 -1.1389  0.9750 -0.4126
 4097TIP3   OH212296   2.735   3.390   4.076 -0.6548 -0.1026  0.1375
 4097TIP3    H112297   2.684   3.382   4.156  0.0396  0.3951  0.6477
 4097TIP3    H212298   2.807   3.449   4.100  0.1995 -0.8562 -0.5249
 4098TIP3   OH212299   5.744   1.700   4.921 -0.3988 -0.1455  0.9111
 4098TIP3    H112300   5.821   1.755   4.908 -0.7270  0.0079 -0.6198
 4098TIP3    H212301   5.699   1.738   4.996 -0.8263  1.9769 -0.3326
 4099TIP3   OH212302   3.840   1.664   0.347 -0.8856  0.1060 -0.2853
 4099TIP3    H112303   3.924   1.629   0.318 -0.2122 -0.1182  1.7387
 4099TIP3    H212304   3.844   1.757   0.326 -0.0781  0.1159 -0.1218
 4100TIP3   OH212305   0.671   4.250   0.370 -0.1274  0.4267  0.0646
 4100TIP3    H112306   0.617   4.184   0.414  0.4906  0.5710  1.0645
 4100TIP3    H212307   0.754   4.249   0.418  0.2305  1.2540 -0.5177
 4101TIP3   OH212308   1.491   1.827   2.192 -0.3624  0.4493 -0.1683
 4101TIP3    H112309   1.475   1.841   2.099 -1.0131  0.4557 -0.0667
 4101TIP3    H212310   1.439   1.895   2.236  1.4353  1.6856  0.1681
 4102TIP3   OH212311   5.888   0.642   4.857  0.2707  0.0813 -0.5412
 4102TIP3    H112312   5.952   0.704   4.892  0.0312 -0.0760  0.1865
 4102TIP3    H212313   5.811   0.653   4.913  0.0283 -0.4719 -0.7629
 4103TIP3   OH212314   5.429   4.765   3.725 -0.2216 -0.0746  0.3817
 4103TIP3    H112315   5.417   4.845   3.776  0.9074 -0.4180  1.2158
 4103TIP3    H212316   5.499   4.785   3.664  0.4867 -0.6114  1.0086
 4104TIP3   OH212317   1.986   2.455   3.060 -0.5488  0.3608  0.0164
 4104TIP3    H112318   1.987   2.506   3.141 -0.8677 -0.0031  0.2555
 4104TIP3    H212319   2.060   2.394   3.070  0.1976  1.1577 -0.5263
 4105TIP3   OH212320   3.298   4.877   2.609 -0.0110  0.0156 -0.1358
 4105TIP3    H112321   3.296   4.939   2.537 -0.6843 -0.7563 -0.8070
 4105TIP3    H212322   3.391   4.858   2.622  0.0715 -1.0984 -1.9512
 4106TIP3   OH212323   3.917   4.730   2.725  0.0523  0.0480 -0.0339
 4106TIP3    H112324   3.953   4.735   2.636 -0.9342  3.3495 -0.3722
 4106TIP3    H212325   3.989   4.695   2.778  0.6159 -2.1760 -2.0537
 4107TIP3   OH212326   5.124   0.161   2.136  0.2334 -0.6226 -0.3491
 4107TIP3    H112327   5.151   0.248   2.166  1.4881 -1.3497  0.7258
 4107TIP3    H212328   5.200   0.127   2.088  0.6772 -2.0096  1.2189
 4108TIP3   OH212329   5.553   4.756   4.516  0.3514  0.1069  0.6747
 4108TIP3    H112330   5.537   4.713   4.599 -0.9647 -2.2532 -0.6906
 4108TIP3    H212331   5.466   4.769   4.478  0.9648  0.0587 -0.8298
 4109TIP3   OH212332   4.974   1.641   1.012  0.3122 -0.6137  0.0650
 4109TIP3    H112333   5.065   1.612   1.007  0.6540  0.3457  0.5147
 4109TIP3    H212334   4.931   1.598   0.938  1.2496 -0.6639 -0.4598
 4110TIP3   OH212335   5.980   3.203   2.801 -0.2401 -0.0627 -0.1968
 4110TIP3    H112336   5.935   3.272   2.752 -1.4884 -0.9584 -0.3605
 4110TIP3    H212337   5.960   3.123   2.754  1.2085 -0.5593 -0.0139
 4111TIP3   OH212338   4.545   0.130   4.666 -0.3443  0.3797 -0.4878
 4111TIP3    H112339   4.545   0.177   4.750  1.2129 -0.1133 -0.1825
 4111TIP3    H212340   4.587   0.191   4.605  1.9734 -0.6481 -0.0191
 4112TIP3   OH212341   1.203   0.090   0.108 -0.5066 -0.5573 -0.1775
 4112TIP3    H112342   1.281   0.132   0.074 -0.1294 -0.0217  1.2910
 4112TIP3    H212343   1.150   0.072   0.030 -1.4559  4.0786 -0.8806
 4113TIP3   OH212344   0.907   4.307   2.568  0.4979  0.1013  0.2111
 4113TIP3    H112345   0.973   4.324   2.635  0.5116 -0.1423  0.2604
 4113TIP3    H212346   0.870   4.393   2.548  0.1414  0.1101  0.8836
 4114TIP3   OH212347   4.855   1.548   1.452 -0.4040 -0.2314  0.5262
 4114TIP3    H112348   4.884   1.552   1.543 -0.7836  1.8902  0.6066
 4114TIP3    H212349   4.838   1.455   1.436  1.9459 -0.9911  1.8691
 4115TIP3   OH212350   5.900   0.461   0.017  0.0612  0.1396  0.4154
 4115TIP3    H112351   5.808   0.466   0.041 -0.4062  1.9841 -1.4721
 4115TIP3    H212352   5.946   0.450   0.101 -1.7289  1.2931  1.6278
 4116TIP3   OH212353   0.790   0.966   4.590  0.2756 -0.1143  0.0604
 4116TIP3    H112354   0.801   0.872   4.603 -0.0314 -0.3244 -1.1132
 4116TIP3    H212355   0.859   1.006   4.643  1.1854 -1.0503 -0.3959
 4117TIP3   OH212356   5.169   3.877   3.577  0.6974 -0.0923 -0.2025
 4117TIP3    H112357   5.216   3.795   3.560  3.5170  1.1682  0.7908
 4117TIP3    H212358   5.236   3.935   3.613 -2.2172  1.0533  4.1049
 4118TIP3   OH212359   3.259   5.071   3.331  0.2949  0.1628 -0.0986
 4118TIP3    H112360   3.235   5.127   3.405 -1.6675  0.0737 -0.6057
 4118TIP3    H212361   3.295   5.131   3.266 -0.1345  0.5759  0.0429
 4119TIP3   OH212362   6.102   4.100   4.711  1.0521  0.0022 -0.6092
 4119TIP3    H112363   6.144   4.066   4.790 -0.4208 -2.2318 -0.6840
 4119TIP3    H212364   6.067   4.185   4.737  0.3406 -0.8044  1.2801
 4120TIP3   OH212365   6.037   1.465   4.868 -0.3798  0.0239 -0.2478
 4120TIP3    H112366   6.014   1.442   4.778  1.2093  0.6124 -0.8390
 4120TIP3    H212367   6.069   1.555   4.862  1.2260 -0.4462  0.6218
 4121TIP3   OH212368   4.558   3.404   3.919  0.1316 -0.1782 -0.2410
 4121TIP3    H112369   4.628   3.341   3.933  1.0987  0.9569  0.1843
 4121TIP3    H212370   4.486   3.352   3.883  0.9727 -1.4702 -0.1236
 4122TIP3   OH212371   3.818   0.375   0.819 -0.4403  0.7687  0.0199
 4122TIP3    H112372   3.829   0.468   0.839 -0.5080  0.9134 -0.6157
 4122TIP3    H212373   3.732   0.370   0.777 -0.7172  0.3274  0.6183
 4123TIP3   OH212374   0.264   3.095   0.410 -0.5226 -0.0796 -0.1640
 4123TIP3    H112375   0.174   3.125   0.418  0.0212  1.3733  1.0303
 4123TIP3    H212376   0.302   3.108   0.497  0.1013 -3.3113  0.1657
 4124TIP3   OH212377   2.740   3.332   2.031 -0.3928 -0.1941  0.3315
 4124TIP3    H112378   2.675   3.346   1.963 -2.2656 -2.0185  1.6443
 4124TIP3    H212379   2.690   3.311   2.110  1.7129  0.9347  2.0887
 4125TIP3   OH212380   1.987   5.622   3.222  0.3111 -0.7143 -0.0365
 4125TIP3    H112381   1.962   5.596   3.311  0.2504 -0.8234 -0.0850
 4125TIP3    H212382   1.938   5.563   3.165  0.8490 -1.0801 -0.1292
 4126TIP3   OH212383   3.923   5.522   2.302  0.1597 -0.4063 -0.5758
 4126TIP3    H112384   3.935   5.598   2.359 -0.9495 -0.9044  0.3814
 4126TIP3    H212385   4.009   5.481   2.296  0.7481  0.8837 -1.0510
 4127TIP3   OH212386   2.862   3.440   0.884  0.2513 -0.0045 -0.0545
 4127TIP3    H112387   2.862   3.510   0.949  1.2842  2.2202 -2.2981
 4127TIP3    H212388   2.950   3.402   0.889  0.5704  0.6437 -0.5966
 4128TIP3   OH212389   5.057   2.277   1.915  0.3875 -0.0953  0.7785
 4128TIP3    H112390   5.119   2.290   1.843 -1.8117  0.3566 -1.1477
 4128TIP3    H212391   5.050   2.182   1.923  0.8230 -0.1525  0.5369
 4129TIP3   OH212392   2.404   3.986   4.229 -0.5503  0.2030 -0.5208
 4129TIP3    H112393   2.349   3.909   4.239 -0.7753  0.3270 -0.8276
 4129TIP3    H212394   2.427   4.011   4.319  0.5161 -0.9318 -0.4524
 4130TIP3   OH212395   1.648   1.227   2.041  0.2733  0.3335  0.3115
 4130TIP3    H112396   1.694   1.223   2.124 -0.5859  0.9517  0.8330
 4130TIP3    H212397   1.717   1.223   1.975  0.8864 -2.4628  0.9609
 4131TIP3   OH212398   1.353   2.544   2.337  0.0877 -0.8039 -0.1365
 4131TIP3    H112399   1.401   2.508   2.262  0.5347 -1.9206  0.6568
 4131TIP3    H212400   1.269   2.572   2.300  1.4400  1.6178 -1.6582
 4132TIP3   OH212401   2.109   3.965   1.936  0.4107 -0.5771 -0.5606
 4132TIP3    H112402   2.120   3.912   2.015  1.4023  2.0664  1.2363
 4132TIP3    H212403   2.014   3.979   1.930  0.4034  0.3984  1.1117
 4133TIP3   OH212404   0.155   0.397   5.114 -0.0536  0.0508 -0.1289
 4133TIP3    H112405   0.227   0.402   5.177 -0.5800 -2.0436  0.7013
 4133TIP3    H212406   0.196   0.412   5.029  1.2186 -0.3450  0.4000
 4134TIP3   OH212407   3.996   4.883   1.266 -0.1018 -0.6992  0.2633
 4134TIP3    H112408   3.961   4.818   1.204 -0.2018  0.0181 -0.4528
 4134TIP3    H212409   3.996   4.965   1.216  0.3421 -0.2184  1.0461
 4135TIP3   OH212410   1.083   0.095   2.900  0.3245 -0.3606  0.3895
 4135TIP3    H112411   1.162   0.117   2.851 -0.3273  0.6685 -0.2437
 4135TIP3    H212412   1.051   0.180   2.932 -2.1984 -0.2842 -1.9975
 4136TIP3   OH212413   0.611   2.181   1.405  0.3347  0.3311 -0.0776
 4136TIP3    H112414   0.550   2.235   1.454  0.1525 -0.3878  0.5069
 4136TIP3    H212415   0.655   2.242   1.346 -0.3120  1.0018  0.1191
 4137TIP3   OH212416   1.647   2.659   0.658 -0.0760  0.2596 -0.5087
 4137TIP3    H112417   1.715   2.647   0.591  0.7243 -2.6269  0.6829
 4137TIP3    H212418   1.687   2.718   0.722  2.4909 -3.1691  1.3922
 4138TIP3   OH212419   4.075   0.351   2.347  0.2100  0.2816 -0.2737
 4138TIP3    H112420   4.087   0.262   2.314  0.2935 -0.3645  1.3966
 4138TIP3    H212421   4.027   0.340   2.429  0.1353  1.7951 -0.0806
 4139TIP3   OH212422   4.511   2.772   0.605  0.2473  0.0248  0.0202
 4139TIP3    H112423   4.546   2.861   0.604  2.8801 -0.9139 -2.0472
 4139TIP3    H212424   4.552   2.731   0.681 -0.0117  0.2090  0.2638
 4140TIP3   OH212425   3.933   5.931   1.559  0.0236  0.4314 -0.3803
 4140TIP3    H112426   3.902   5.995   1.495  1.0858  0.6485 -0.6905
 4140TIP3    H212427   3.878   5.854   1.544 -1.2800  1.2657  0.0137
 4141TIP3   OH212428   4.982   0.023   3.937  0.7726 -0.4340 -0.2615
 4141TIP3    H112429   4.946   0.073   4.011  0.9304 -0.0190 -0.4630
 4141TIP3    H212430   4.958  -0.067   3.956  1.2404 -0.3994  0.5615
 4142TIP3   OH212431   5.785   3.438   3.054 -0.2429 -0.4503 -0.1784
 4142TIP3    H112432   5.776   3.436   2.959 -0.7575  0.4413 -0.1566
 4142TIP3    H212433   5.746   3.521   3.081 -1.2210 -1.2276  0.9190
 4143TIP3   OH212434   3.862   1.501   4.369 -0.0609  0.4634  0.1014
 4143TIP3    H112435   3.892   1.582   4.329  0.7821  0.0324 -0.1599
 4143TIP3    H212436   3.769   1.495   4.345 -0.3784  1.7973  0.8962
 4144TIP3   OH212437   2.829   2.891   1.766  0.1784 -0.4376  0.2968
 4144TIP3    H112438   2.802   2.967   1.714 -2.0521 -0.9336  0.6538
 4144TIP3    H212439   2.749   2.841   1.780  1.1613 -1.6045  2.1587
 4145TIP3   OH212440   5.369   1.512   4.557  0.0276  0.4657  0.0038
 4145TIP3    H112441   5.393   1.475   4.472 -1.5391  0.1364 -0.3287
 4145TIP3    H212442   5.416   1.460   4.621 -0.0919 -0.3902 -0.5923
 4146TIP3   OH212443   3.636   3.647   3.376  0.5041  0.1298  0.1554
 4146TIP3    H112444   3.642   3.656   3.471  0.8421  0.9278  0.0613
 4146TIP3    H212445   3.703   3.705   3.342  2.3540 -2.2372 -0.5169
 4147TIP3   OH212446   4.366   3.597   4.669  0.0924  0.4698  0.2949
 4147TIP3    H112447   4.388   3.522   4.613 -1.2711  0.6862 -0.6035
 4147TIP3    H212448   4.383   3.566   4.758  0.8259 -0.4371 -0.1386
 4148TIP3   OH212449   0.134   0.454   0.466 -0.2657  0.2737 -0.1394
 4148TIP3    H112450   0.058   0.512   0.462 -0.0100  0.5490 -2.1817
 4148TIP3    H212451   0.208   0.510   0.445  0.1418 -0.4964 -0.8394
 4149TIP3   OH212452   5.245   4.398   1.147  0.3058  0.5107  0.5558
 4149TIP3    H112453   5.166   4.363   1.187  0.0489  1.6129  1.0611
 4149TIP3    H212454   5.310   4.397   1.217  0.7532 -0.3664  0.1503
 4150TIP3   OH212455   1.883   0.945   4.706  0.1836 -0.1344 -0.8094
 4150TIP3    H112456   1.841   0.899   4.634 -0.9248 -0.2485 -0.1182
 4150TIP3    H212457   1.886   0.882   4.778 -0.2430  0.4747 -0.2380
 4151TIP3   OH212458   4.940   2.067   0.479 -0.1786 -0.0586  0.0809
 4151TIP3    H112459   4.923   1.976   0.452 -1.2008 -0.6105  2.3854
 4151TIP3    H212460   5.016   2.061   0.537  0.3520  0.7444 -0.4957
 4152TIP3   OH212461   5.993   2.250   1.422 -0.6876 -0.2953 -0.2330
 4152TIP3    H112462   5.993   2.172   1.367 -1.5963 -2.3383  2.4149
 4152TIP3    H212463   5.914   2.242   1.474  0.5731  0.9282  2.0391
 4153TIP3   OH212464   3.287   3.523   0.708  0.1816 -0.4864 -0.2486
 4153TIP3    H112465   3.352   3.559   0.648  2.0014 -2.0324  0.7127
 4153TIP3    H212466   3.304   3.429   0.708 -3.3621 -1.2923 -1.4626
 4154TIP3   OH212467   1.425   0.214   4.231 -0.0071  0.4229 -0.3689
 4154TIP3    H112468   1.406   0.306   4.210 -0.2862  0.0731 -1.7949
 4154TIP3    H212469   1.484   0.186   4.161 -1.8876 -1.1576 -1.4144
 4155TIP3   OH212470   3.994   4.057   2.946  0.0872  1.0294 -0.2417
 4155TIP3    H112471   4.066   4.118   2.959  0.9674 -0.1810  0.8260
 4155TIP3    H212472   3.923   4.092   2.999  0.6473  1.0479  0.5119
 4156TIP3   OH212473   1.638   0.944   2.010 -0.5758  1.3328  0.1802
 4156TIP3    H112474   1.576   1.012   2.036 -1.5007  1.2580 -1.6780
 4156TIP3    H212475   1.607   0.865   2.055 -1.1672  1.5436  0.1564
 4157TIP3   OH212476   2.123   1.973   0.029 -0.2903  0.3091  0.1737
 4157TIP3    H112477   2.058   1.905   0.045  1.0920 -0.7588  1.5425
 4157TIP3    H212478   2.192   1.930  -0.022  0.2106  0.9162  0.3206
 4158TIP3   OH212479   5.071   5.428   3.270 -0.5371  0.4041  0.0737
 4158TIP3    H112480   4.983   5.398   3.290 -0.6751  0.8804  0.1963
 4158TIP3    H212481   5.107   5.455   3.354 -0.3462  0.4036 -0.0069
 4159TIP3   OH212482   2.952   3.818   3.740  0.2891 -0.4996  0.0539
 4159TIP3    H112483   2.972   3.912   3.736  1.2624 -0.7066 -0.4265
 4159TIP3    H212484   2.986   3.790   3.825 -0.1783 -0.3813  0.2806
 4160TIP3   OH212485   4.924   4.160   0.465  0.0762 -0.2411  0.1053
 4160TIP3    H112486   5.017   4.156   0.484  0.0429 -0.8763  0.1424
 4160TIP3    H212487   4.910   4.251   0.435  0.7255 -0.1818 -0.0422
 4161TIP3   OH212488   4.858   3.534   2.786  0.0778  0.3949 -0.6920
 4161TIP3    H112489   4.815   3.619   2.798 -0.5857 -0.0561  0.2113
 4161TIP3    H212490   4.904   3.542   2.702 -1.7503  0.9070 -1.6949
 4162TIP3   OH212491   4.023   5.554   4.602 -0.1369  0.5995 -0.0863
 4162TIP3    H112492   4.061   5.487   4.543  0.2559 -0.3589  1.2068
 4162TIP3    H212493   3.985   5.618   4.543  0.4361 -0.2150 -1.4045
 4163TIP3   OH212494   1.840   2.291   2.262  0.6041 -0.0477  0.4494
 4163TIP3    H112495   1.785   2.352   2.213 -0.1216  0.1070  1.4371
 4163TIP3    H212496   1.914   2.274   2.204  0.4554  1.2075 -0.1321
 4164TIP3   OH212497   1.076   1.996   3.351 -0.0364  0.3497  0.3268
 4164TIP3    H112498   1.023   1.917   3.361 -2.4048  1.8164  0.2851
 4164TIP3    H212499   1.065   2.021   3.260  2.9106 -0.6500 -0.4067
 4165TIP3   OH212500   5.511   4.814   2.574 -0.5152 -0.1151  0.3549
 4165TIP3    H112501   5.530   4.826   2.667 -0.5972 -0.0860  0.3679
 4165TIP3    H212502   5.597   4.798   2.534 -0.5077 -0.3773  0.4735
 4166TIP3   OH212503   4.550   2.911   0.130 -0.1581  0.3872 -0.1028
 4166TIP3    H112504   4.531   2.836   0.186 -1.5458  0.4372 -0.4785
 4166TIP3    H212505   4.599   2.874   0.056 -2.3430 -0.5218 -1.1943
 4167TIP3   OH212506   4.059   3.329   3.993  0.2211 -0.1410  0.9027
 4167TIP3    H112507   4.128   3.302   4.053  1.5301  0.4837 -0.2583
 4167TIP3    H212508   4.011   3.248   3.974  1.9256 -1.0409  0.1568
 4168TIP3   OH212509   0.588   5.347   2.681  0.2299 -0.2393  0.0174
 4168TIP3    H112510   0.540   5.265   2.670  0.3265 -0.2804 -0.1085
 4168TIP3    H212511   0.680   5.320   2.681  0.2844 -0.0533 -0.7073
 4169TIP3   OH212512   0.186   3.921   0.720  0.6482 -0.1434  0.0323
 4169TIP3    H112513   0.230   3.996   0.681  0.4196  0.2974  0.6138
 4169TIP3    H212514   0.099   3.954   0.743 -0.2842 -1.1777 -1.7504
 4170TIP3   OH212515   5.713   0.048   4.822  0.0994  0.8281 -0.0751
 4170TIP3    H112516   5.731   0.087   4.908  0.5063  0.9564 -0.2123
 4170TIP3    H212517   5.800   0.027   4.787 -0.1555 -1.7104  0.6678
 4171TIP3   OH212518   0.530   0.491   0.011 -0.1443 -0.1096  0.1893
 4171TIP3    H112519   0.535   0.459   0.101  0.0467 -1.7344 -0.3614
 4171TIP3    H212520   0.599   0.557   0.004  0.5434 -0.7333  0.9573
 4172TIP3   OH212521   5.552   1.400   2.240 -0.3333 -0.0602  0.7128
 4172TIP3    H112522   5.597   1.352   2.171 -2.8863  0.8064 -1.7375
 4172TIP3    H212523   5.558   1.492   2.214 -2.7964  0.1552  0.5910
 4173TIP3   OH212524   3.614   3.043   0.452 -0.6716  0.6859 -0.1086
 4173TIP3    H112525   3.659   3.083   0.526  1.7206 -0.3386 -0.9193
 4173TIP3    H212526   3.674   2.976   0.420 -2.5198 -0.3213 -1.7140
 4174TIP3   OH212527   1.005   5.153   0.186 -0.6113  0.1228 -0.4160
 4174TIP3    H112528   0.942   5.121   0.121 -0.7778  1.6794 -1.0816
 4174TIP3    H212529   0.966   5.235   0.218 -0.2992 -0.3817  1.3191
 4175TIP3   OH212530   2.134   4.855   4.319  0.5375 -0.1478  0.5002
 4175TIP3    H112531   2.186   4.775   4.316 -0.0946 -0.5750 -1.8725
 4175TIP3    H212532   2.044   4.824   4.332  0.4057  0.2274  0.4898
 4176TIP3   OH212533   2.529   1.356   0.078  0.4280 -0.1586  0.2365
 4176TIP3    H112534   2.592   1.369   0.149  1.5030  0.6130 -0.8156
 4176TIP3    H212535   2.444   1.372   0.119  1.1113  1.6388  1.0698
 4177TIP3   OH212536   4.444   4.123   2.938  0.0577 -0.7003  0.1447
 4177TIP3    H112537   4.465   4.150   2.848  0.7655  0.5405  0.6704
 4177TIP3    H212538   4.382   4.189   2.969  1.1991 -0.0783  1.1769
 4178TIP3   OH212539   0.547   1.468   3.987 -0.0223  0.1420  0.6133
 4178TIP3    H112540   0.624   1.506   3.944 -0.3385  0.5423  0.4049
 4178TIP3    H212541   0.494   1.543   4.013 -0.0419 -0.1125  1.3290
 4179TIP3   OH212542   5.403   5.725   0.962 -0.3110 -0.1818 -0.1519
 4179TIP3    H112543   5.477   5.780   0.934  0.1946  0.3976  2.1319
 4179TIP3    H212544   5.442   5.639   0.978 -0.3946 -0.2305 -0.2093
 4180TIP3   OH212545   5.743   3.698   3.096  0.2331 -0.1687 -0.1542
 4180TIP3    H112546   5.822   3.744   3.126  0.3020 -0.6870  0.5000
 4180TIP3    H212547   5.674   3.764   3.098  0.6946  0.3504 -0.9569
 4181TIP3   OH212548   4.840   4.401   2.104 -0.0377 -0.2688  0.5571
 4181TIP3    H112549   4.843   4.425   2.197  1.8266 -1.9277  0.9861
 4181TIP3    H212550   4.903   4.459   2.062 -0.2930 -0.0589  0.4627
 4182TIP3   OH212551   5.663   2.719   4.954 -0.2094  0.4821  0.3179
 4182TIP3    H112552   5.724   2.679   4.892  1.3092 -0.2113  2.1788
 4182TIP3    H212553   5.635   2.647   5.011 -1.9374  1.0091  0.1985
 4183TIP3   OH212554   3.329   3.911   3.056 -0.1218  0.0320 -0.6025
 4183TIP3    H112555   3.330   4.002   3.025  1.7108  0.5399  0.7513
 4183TIP3    H212556   3.258   3.908   3.121  0.1737  0.6707 -0.2402
 4184TIP3   OH212557   3.455   1.843   0.116 -0.3575  0.0818  0.0858
 4184TIP3    H112558   3.450   1.888   0.200  0.0868  1.0381 -0.3880
 4184TIP3    H212559   3.440   1.911   0.051  0.3616 -0.4333 -0.6444
 4185TIP3   OH212560   4.840   1.795   0.337  0.2117  0.0377  0.1013
 4185TIP3    H112561   4.899   1.744   0.280  0.1901 -0.9859  0.9749
 4185TIP3    H212562   4.862   1.767   0.425 -1.4460 -0.2038  0.4635
 4186TIP3   OH212563   0.583   3.762   3.272 -0.4814 -0.2379 -0.4118
 4186TIP3    H112564   0.635   3.717   3.205 -0.5330 -1.4626  0.3378
 4186TIP3    H212565   0.509   3.703   3.289 -0.6867  0.2386  0.4339
 4187TIP3   OH212566   2.931   4.619   3.744  0.5398 -0.1837 -0.5423
 4187TIP3    H112567   2.903   4.543   3.695 -0.6335 -0.5063  0.5730
 4187TIP3    H212568   2.998   4.586   3.804 -1.2210 -0.7805  1.2002
 4188TIP3   OH212569   3.525   3.058   5.129 -0.6024 -0.2398 -0.0959
 4188TIP3    H112570   3.506   2.966   5.116  0.0403 -0.4042  0.0873
 4188TIP3    H212571   3.599   3.059   5.189  1.0229  0.3202 -2.0047
 4189TIP3   OH212572   1.680   2.340   1.844 -0.2903  0.4435  0.2563
 4189TIP3    H112573   1.749   2.275   1.837  0.4616  1.2297  0.2063
 4189TIP3    H212574   1.603   2.298   1.805  0.0369 -0.5947  0.7061
 4190TIP3   OH212575   5.200   1.383   4.775  0.2056  0.3197 -1.0566
 4190TIP3    H112576   5.181   1.476   4.762  1.2263  0.7373  0.2169
 4190TIP3    H212577   5.295   1.377   4.764  0.1635 -0.5413 -0.9622
 4191TIP3   OH212578   4.664   3.023   4.697  0.5239 -0.2123 -0.2259
 4191TIP3    H112579   4.741   3.072   4.670  0.2178  1.1424  1.2105
 4191TIP3    H212580   4.698   2.952   4.751  0.8329 -0.2137 -0.4228
 4192TIP3   OH212581   1.491   4.881   2.212 -0.1055  0.0978 -0.0759
 4192TIP3    H112582   1.452   4.799   2.243  0.4712  0.2758  1.1979
 4192TIP3    H212583   1.417   4.940   2.201 -0.3634 -0.0509  0.7867
 4193TIP3   OH212584   1.489   1.630   3.807 -0.0139 -0.4160 -0.2450
 4193TIP3    H112585   1.502   1.663   3.896 -1.3140  1.5255 -0.7059
 4193TIP3    H212586   1.568   1.657   3.761  0.7735 -1.6361  0.3302
 4194TIP3   OH212587   4.886   1.273   0.034  0.2350  0.3804  0.2594
 4194TIP3    H112588   4.899   1.182   0.061  1.7003  0.3725 -0.4093
 4194TIP3    H212589   4.865   1.319   0.115  0.3845 -0.3809  0.7471
 4195TIP3   OH212590   1.890   4.570   1.269  0.5199 -0.1631 -0.2361
 4195TIP3    H112591   1.879   4.600   1.360 -2.0974 -0.8617 -0.2448
 4195TIP3    H212592   1.979   4.537   1.265  1.0862  0.9666  1.7460
 4196TIP3   OH212593   0.510   1.711   4.112  0.0350  0.0818  0.2954
 4196TIP3    H112594   0.521   1.802   4.140 -0.0507  0.1871 -0.0165
 4196TIP3    H212595   0.580   1.695   4.049 -0.2351  0.0771 -0.0074
 4197TIP3   OH212596   1.878   4.305   0.838  0.3150 -0.4663 -0.1468
 4197TIP3    H112597   1.845   4.350   0.761  1.8321 -0.2377 -0.6988
 4197TIP3    H212598   1.943   4.365   0.875  2.0010 -1.9379 -0.5971
 4198TIP3   OH212599   4.938   2.692   0.451  0.6332  0.3722  0.0212
 4198TIP3    H112600   4.927   2.678   0.545 -0.3850  3.0349  0.3784
 4198TIP3    H212601   4.940   2.604   0.414 -1.4326 -0.7233  2.2660
 4199TIP3   OH212602   2.269   0.771   3.502  0.1279  0.1990  0.2214
 4199TIP3    H112603   2.236   0.785   3.413 -1.1395  1.5357  0.8569
 4199TIP3    H212604   2.277   0.676   3.510  0.7629  0.0732 -1.4755
 4200TIP3   OH212605   1.355   2.027   2.970  0.6430 -0.4147 -0.2351
 4200TIP3    H112606   1.319   1.964   2.908 -1.2449  0.1560  0.2114
 4200TIP3    H212607   1.346   1.985   3.055  2.2481 -0.7621 -0.2045
 4201TIP3   OH212608   3.162   4.006   0.889  0.0766  0.1998  0.1931
 4201TIP3    H112609   3.142   3.943   0.820  0.5434 -0.4271  0.6276
 4201TIP3    H212610   3.212   4.075   0.844  0.8333 -0.4637 -0.0032
 4202TIP3   OH212611   3.527   2.986   2.866  0.4824 -0.2000  0.5515
 4202TIP3    H112612   3.519   3.063   2.921  1.6465 -0.5142  1.1965
 4202TIP3    H212613   3.539   3.021   2.777 -2.2952  0.3024  0.2924
 4203TIP3   OH212614   3.675   2.832   4.964  0.1396 -0.1904 -0.0999
 4203TIP3    H112615   3.712   2.758   5.013 -2.5921 -0.4732  1.7687
 4203TIP3    H212616   3.724   2.908   4.995 -1.7061 -0.2999  3.6332
 4204TIP3   OH212617   2.371   4.492   4.597  0.4825  0.3544 -0.4383
 4204TIP3    H112618   2.358   4.411   4.547  0.7609 -0.2488  0.4243
 4204TIP3    H212619   2.466   4.506   4.596  0.3014  1.8852 -2.3759
 4205TIP3   OH212620   4.363   1.934   0.578 -0.5773  0.0412  0.4535
 4205TIP3    H112621   4.367   2.014   0.525 -0.0496  1.0452  1.9262
 4205TIP3    H212622   4.446   1.889   0.561 -0.6050  0.1283  0.0886
 4206TIP3   OH212623   3.438   5.166   0.189 -0.1956 -0.3039 -0.0522
 4206TIP3    H112624   3.388   5.101   0.141 -1.5702  0.8026 -0.1751
 4206TIP3    H212625   3.373   5.229   0.220  1.0833  1.0320  0.0461
 4207TIP3   OH212626   3.374   1.134   2.220  0.4833  0.1202  0.2089
 4207TIP3    H112627   3.413   1.047   2.210  1.1135  0.3134  0.8874
 4207TIP3    H212628   3.303   1.136   2.156  0.5672 -0.8319  0.0719
 4208TIP3   OH212629   2.406   5.644   1.949 -0.4964 -0.2568 -0.2699
 4208TIP3    H112630   2.490   5.646   1.904  0.0257  0.0047  0.6752
 4208TIP3    H212631   2.384   5.737   1.962  1.4711 -0.1320  3.7063
 4209TIP3   OH212632   0.878   5.640   1.716  0.3755  0.1364 -0.3539
 4209TIP3    H112633   0.967   5.617   1.690  0.8516  0.1321  1.1673
 4209TIP3    H212634   0.822   5.598   1.651  1.4406 -0.7685 -0.7103
 4210TIP3   OH212635   5.034   4.772   0.459 -0.1094 -0.2294 -0.6887
 4210TIP3    H112636   5.018   4.741   0.369  1.0905  2.5048 -1.9435
 4210TIP3    H212637   5.124   4.746   0.477 -0.3192 -0.6905 -0.2762
 4211TIP3   OH212638   1.598   1.663   4.584 -0.0895 -0.5891 -0.0382
 4211TIP3    H112639   1.594   1.749   4.544 -0.8098 -0.9490 -0.7795
 4211TIP3    H212640   1.689   1.651   4.609  0.3078 -0.2070 -1.2654
 4212TIP3   OH212641   5.093   0.834   0.500  0.5016  0.1480  0.0906
 4212TIP3    H112642   5.029   0.903   0.511  0.2161 -0.2838  1.2809
 4212TIP3    H212643   5.132   0.851   0.414 -0.3439  1.1151 -0.1222
 4213TIP3   OH212644   3.136   4.122   1.144  0.8718  0.5459 -0.0825
 4213TIP3    H112645   3.227   4.113   1.171  0.6764  2.0918  1.2637
 4213TIP3    H212646   3.129   4.070   1.064  2.5905 -0.6657  0.4998
 4214TIP3   OH212647   2.791   0.232   0.791 -0.0229 -0.1852 -0.0685
 4214TIP3    H112648   2.769   0.153   0.742 -0.8120 -0.7848  1.2180
 4214TIP3    H212649   2.879   0.215   0.826  0.0869 -0.2002 -0.3463
 4215TIP3   OH212650   0.214   2.062   3.639  0.4472  0.4041  0.6275
 4215TIP3    H112651   0.126   2.025   3.648  0.4409  0.4868  0.9414
 4215TIP3    H212652   0.212   2.140   3.694  0.6586  0.5121  0.4812
 4216TIP3   OH212653   5.985   0.686   4.059  0.1275  0.1281  0.1851
 4216TIP3    H112654   5.974   0.605   4.008  0.7613  0.0586  0.1558
 4216TIP3    H212655   5.978   0.658   4.150 -2.0326  0.4019  0.1466
 4217TIP3   OH212656   3.999   5.951   2.322  0.0448  0.0970  0.0339
 4217TIP3    H112657   4.091   5.978   2.331  0.1648  0.4536 -1.9658
 4217TIP3    H212658   3.994   5.870   2.372  1.6128 -0.2743 -0.3504
 4218TIP3   OH212659   1.525   5.523   2.964 -0.3130 -0.5282 -0.7352
 4218TIP3    H112660   1.498   5.569   3.044  2.0274  0.2340 -0.3132
 4218TIP3    H212661   1.443   5.508   2.917 -1.4440  1.9746  0.2488
 4219TIP3   OH212662   2.332   1.931   4.954 -0.8924  0.3155 -0.5076
 4219TIP3    H112663   2.361   1.985   4.881 -1.5170  0.0536 -0.9569
 4219TIP3    H212664   2.320   1.993   5.026 -1.0435  0.6926 -0.8533
 4220TIP3   OH212665   5.231   5.492   3.477 -0.5021  0.0270  0.4205
 4220TIP3    H112666   5.198   5.576   3.508 -0.4601  0.0002  0.5396
 4220TIP3    H212667   5.325   5.505   3.464 -0.3571 -0.2199  1.1920
 4221TIP3   OH212668   4.469   4.340   3.882  0.1408  0.3048 -0.5061
 4221TIP3    H112669   4.454   4.254   3.842  1.2380 -1.0172  1.7025
 4221TIP3    H212670   4.390   4.355   3.935 -0.5323  1.2290 -1.7136
 4222TIP3   OH212671   3.356   2.421   0.974 -0.9727 -0.4517 -0.2184
 4222TIP3    H112672   3.343   2.507   1.015  0.7724  0.1532 -0.8274
 4222TIP3    H212673   3.269   2.382   0.973 -1.7169  1.0715  0.6056
 4223TIP3   OH212674   2.061   0.531   0.953  0.3272  0.7928 -0.2557
 4223TIP3    H112675   2.024   0.492   0.874  0.2222  0.5376 -0.0827
 4223TIP3    H212676   2.006   0.607   0.970  0.3674  0.8639 -0.4442
 4224TIP3   OH212677   2.138   2.993   4.252 -0.4163 -0.7366 -0.3261
 4224TIP3    H112678   2.148   2.912   4.303  1.6192 -0.9947 -1.0464
 4224TIP3    H212679   2.205   2.986   4.184 -2.2815  0.1450 -2.3277
 4225TIP3   OH212680   3.026   3.519   4.431  0.2269 -0.0181 -0.2369
 4225TIP3    H112681   3.044   3.474   4.349  1.2041 -1.6268  0.8096
 4225TIP3    H212682   3.015   3.449   4.495  1.2284  1.2080  1.3576
 4226TIP3   OH212683   1.623   3.974   1.005 -0.4877  0.1894 -0.0293
 4226TIP3    H112684   1.566   3.931   0.942 -0.6039  0.7117 -0.2849
 4226TIP3    H212685   1.702   3.996   0.955 -0.7866  1.0725 -0.1435
 4227TIP3   OH212686   5.372   4.609   1.734  0.0095 -0.0822  0.1974
 4227TIP3    H112687   5.450   4.583   1.783 -0.9723 -0.0372  1.8633
 4227TIP3    H212688   5.406   4.639   1.650  1.6782 -1.1356  0.4364
 4228TIP3   OH212689   1.593   3.576   0.017 -0.1440  0.5287  0.0332
 4228TIP3    H112690   1.532   3.634  -0.029  1.0080  0.7073 -1.3199
 4228TIP3    H212691   1.664   3.633   0.045 -0.3465  0.2397  1.1869
 4229TIP3   OH212692   1.295   5.364   3.963 -0.3907 -0.1593 -0.3852
 4229TIP3    H112693   1.336   5.423   3.900  1.1804  0.3495  1.0634
 4229TIP3    H212694   1.256   5.294   3.908  1.0790  0.1541 -1.8994
 4230TIP3   OH212695   3.811   3.087   0.210  0.1071 -0.6815  0.0732
 4230TIP3    H112696   3.894   3.128   0.185  0.0656 -0.3149  0.5074
 4230TIP3    H212697   3.835   3.020   0.273  0.3095 -2.2648 -1.6056
 4231TIP3   OH212698   4.201   3.977   3.123  0.1242  0.0817 -0.3919
 4231TIP3    H112699   4.282   3.934   3.152  0.5479  0.9435 -0.2538
 4231TIP3    H212700   4.181   4.039   3.193 -2.1785 -1.9621  0.8926
 4232TIP3   OH212701   1.464   3.337   2.305  0.1962  0.1663  0.4120
 4232TIP3    H112702   1.475   3.280   2.229 -1.0540  0.6280 -0.1381
 4232TIP3    H212703   1.486   3.282   2.380 -0.1828 -0.7938 -0.1635
 4233TIP3   OH212704   6.329   0.059   4.360  0.0235  0.0013  0.3509
 4233TIP3    H112705   6.406   0.007   4.338 -0.2608 -0.1790 -0.2259
 4233TIP3    H212706   6.254   0.004   4.335 -0.2754  0.9035 -0.8130
 4234TIP3   OH212707   3.139   0.985   3.257  0.0042 -0.2177 -0.6700
 4234TIP3    H112708   3.060   1.007   3.307  0.6387  0.3511  0.1146
 4234TIP3    H212709   3.108   0.932   3.184 -1.0406 -0.4235 -0.0855
 4235TIP3   OH212710   5.103   1.526   4.472  0.0062 -0.2071 -0.3392
 4235TIP3    H112711   5.094   1.434   4.494  1.5047 -0.2511  0.2421
 4235TIP3    H212712   5.178   1.556   4.525 -0.8393  1.4926 -0.0404
 4236TIP3   OH212713   5.429   3.786   2.174 -0.6506  0.1281  0.1383
 4236TIP3    H112714   5.340   3.815   2.156 -0.8213 -0.7017 -0.4536
 4236TIP3    H212715   5.484   3.860   2.151 -1.0706  0.0370 -1.2471
 4237TIP3   OH212716   4.287   1.711   2.774 -0.4822  0.1445  0.5865
 4237TIP3    H112717   4.293   1.736   2.682  0.1240 -1.0425  0.2735
 4237TIP3    H212718   4.193   1.710   2.793 -0.5685  1.4916  0.3143
 4238TIP3   OH212719   5.870   4.993   3.093 -0.2625  0.4279 -0.0052
 4238TIP3    H112720   5.778   4.984   3.069 -0.4230  1.3925  0.2179
 4238TIP3    H212721   5.883   4.933   3.166  0.1925 -2.4639 -2.3008
 4239TIP3   OH212722   1.544   5.856   2.901  0.0567 -0.1116 -0.5396
 4239TIP3    H112723   1.613   5.838   2.837  0.9590 -0.9574  0.6428
 4239TIP3    H212724   1.574   5.814   2.981 -2.1119 -0.9697 -0.1331
 4240TIP3   OH212725   2.417   5.530   4.932 -0.0795  0.0655 -0.4615
 4240TIP3    H112726   2.399   5.453   4.986 -1.5792  1.4319  1.0905
 4240TIP3    H212727   2.359   5.597   4.966  0.8686  1.7838 -2.0676
 4241TIP3   OH212728   1.128   1.682   4.009  0.4074 -0.5032  0.0378
 4241TIP3    H112729   1.151   1.659   3.919 -0.3399 -0.5432 -0.1518
 4241TIP3    H212730   1.182   1.625   4.064  0.6669 -0.6675 -0.3872
 4242TIP3   OH212731   5.168   3.638   4.522  0.2597 -0.4763 -0.2734
 4242TIP3    H112732   5.169   3.662   4.615  1.8844 -1.6686  0.0359
 4242TIP3    H212733   5.240   3.577   4.511 -0.4277 -1.0211 -2.1691
 4243TIP3   OH212734   1.718   2.356   1.556  0.3661 -0.2225  0.4913
 4243TIP3    H112735   1.628   2.346   1.589  0.3498 -1.7985  0.0502
 4243TIP3    H212736   1.765   2.399   1.627 -0.5358 -0.2010  1.0923
 4244TIP3   OH212737   2.946   5.173   0.243  0.1394 -0.3023 -0.1232
 4244TIP3    H112738   2.990   5.256   0.223 -3.5547  1.8515 -0.2226
 4244TIP3    H212739   2.896   5.153   0.164 -1.0067 -1.2443  0.8082
 4245TIP3   OH212740   4.581   0.147   1.015 -0.7994  0.3186 -0.5567
 4245TIP3    H112741   4.657   0.194   0.980 -0.6635 -0.1772 -0.9344
 4245TIP3    H212742   4.506   0.192   0.976 -0.7084  0.8524 -0.1283
 4246TIP3   OH212743   5.407   5.873   2.130  0.2524  0.0233  1.0488
 4246TIP3    H112744   5.364   5.907   2.208  1.0876  2.0956  0.6551
 4246TIP3    H212745   5.361   5.915   2.057  4.0518  4.1237  0.6155
 4247TIP3   OH212746   0.751   1.903   2.004  0.0539  1.4144 -0.4125
 4247TIP3    H112747   0.703   1.875   1.927  1.3693 -1.5546 -0.2811
 4247TIP3    H212748   0.721   1.992   2.020 -3.9666  0.4371 -1.4082
 4248TIP3   OH212749   5.361   4.019   2.909  0.3724 -0.0685 -0.4975
 4248TIP3    H112750   5.275   4.055   2.930  0.6628  0.6474 -0.5067
 4248TIP3    H212751   5.348   3.970   2.827 -0.0142  0.0704 -0.5193
 4249TIP3   OH212752   1.889   5.315   0.175  0.4844 -0.0866  0.0358
 4249TIP3    H112753   1.902   5.307   0.081 -2.6056 -1.0450 -0.4427
 4249TIP3    H212754   1.938   5.393   0.200 -0.1969  1.3506 -2.7405
 4250TIP3   OH212755   2.518   3.624   0.540  0.2311  0.1230  0.2395
 4250TIP3    H112756   2.430   3.625   0.503 -0.1554 -0.2781  1.1352
 4250TIP3    H212757   2.507   3.657   0.629  0.8857 -0.5065  0.5628
 4251TIP3   OH212758   3.180   0.799   2.655 -0.4345 -0.1866  0.3816
 4251TIP3    H112759   3.219   0.763   2.575  2.1569 -0.1369  1.5458
 4251TIP3    H212760   3.203   0.892   2.653 -0.1672 -0.2260  1.2703
 4252TIP3   OH212761   0.233   3.494   1.804  0.5675 -0.4298 -0.1947
 4252TIP3    H112762   0.253   3.464   1.715 -1.0514 -2.3767  0.0478
 4252TIP3    H212763   0.143   3.465   1.820  1.5929 -2.3367  2.9512
 4253TIP3   OH212764   4.009   1.339   0.823 -0.1991 -0.0518  0.6212
 4253TIP3    H112765   3.915   1.349   0.839  0.3022  0.9526  3.4935
 4253TIP3    H212766   4.029   1.251   0.856 -0.0359 -0.0839  0.4396
 4254TIP3   OH212767   5.160   0.390   0.861  0.0858  0.1018  0.0949
 4254TIP3    H112768   5.169   0.463   0.922  3.0466  1.8229 -2.0897
 4254TIP3    H212769   5.240   0.338   0.874 -0.1841 -0.6000 -0.9287
 4255TIP3   OH212770   5.887   2.594   1.947 -0.1762  0.4697  0.0776
 4255TIP3    H112771   5.929   2.522   1.899 -0.0353  0.6902 -0.1359
 4255TIP3    H212772   5.955   2.625   2.006 -0.4392  0.0145  0.6257
 4256TIP3   OH212773   0.740   0.299   2.188 -0.6327  0.3129 -0.4960
 4256TIP3    H112774   0.811   0.266   2.243 -0.9258  0.2654 -0.1423
 4256TIP3    H212775   0.773   0.290   2.099 -1.7029 -3.5646 -0.6923
 4257TIP3   OH212776   0.301   3.064   4.843  0.5048 -0.0372  0.3132
 4257TIP3    H112777   0.335   3.116   4.915 -1.3756  0.5702  0.8006
 4257TIP3    H212778   0.215   3.035   4.872 -0.5306  0.6476 -1.8550
 4258TIP3   OH212779   1.262   0.561   3.796 -0.4161 -0.1645  0.0150
 4258TIP3    H112780   1.281   0.593   3.884  0.4919 -1.7647  0.4484
 4258TIP3    H212781   1.326   0.605   3.740 -1.2297  1.1327  0.0741
 4259TIP3   OH212782   4.974   3.914   3.114  0.2235 -0.4645 -0.0488
 4259TIP3    H112783   4.945   3.916   3.023  0.6703 -0.3893 -0.1926
 4259TIP3    H212784   5.068   3.934   3.110 -0.3187  2.7779  0.6682
 4260TIP3   OH212785   0.640   0.285   4.480 -0.3312  0.0960  0.5847
 4260TIP3    H112786   0.673   0.219   4.541 -0.5522  0.0250  0.6265
 4260TIP3    H212787   0.546   0.272   4.479 -0.2792 -0.2443 -0.1755
 4261TIP3   OH212788   5.915   3.941   1.481 -0.4186  0.5090  0.3191
 4261TIP3    H112789   5.844   3.877   1.473 -1.5398  1.6439  0.8512
 4261TIP3    H212790   5.946   3.930   1.571  0.3673 -0.2579 -0.0349
 4262TIP3   OH212791   5.534   4.781   2.263 -0.5760  0.1420  0.0770
 4262TIP3    H112792   5.600   4.813   2.325 -0.9236 -0.7524  0.9235
 4262TIP3    H212793   5.464   4.847   2.266 -0.2046  0.5484 -0.0365
 4263TIP3   OH212794   0.461   2.831   4.157  0.6891  0.3538 -0.8818
 4263TIP3    H112795   0.506   2.844   4.240  0.2706  0.8153 -0.7240
 4263TIP3    H212796   0.433   2.918   4.131 -0.7331 -0.0010 -0.6258
 4264TIP3   OH212797   3.452   0.314   3.709 -0.4382 -0.4407 -0.3762
 4264TIP3    H112798   3.402   0.385   3.749 -0.4754 -0.5404 -0.2443
 4264TIP3    H212799   3.542   0.346   3.706 -0.7248  0.3272 -1.9311
 4265TIP3   OH212800   4.361   2.140   0.099 -0.5512  0.1606  0.3527
 4265TIP3    H112801   4.442   2.107   0.060 -1.0986  0.6014 -1.1930
 4265TIP3    H212802   4.367   2.235   0.093 -0.9714  0.2136  0.6805
 4266TIP3   OH212803   1.972   2.528   0.788 -0.1653  0.3485 -0.4395
 4266TIP3    H112804   1.898   2.587   0.800 -0.0534  0.1399  1.6709
 4266TIP3    H212805   2.004   2.511   0.876  2.5849  0.6257 -1.2803
 4267TIP3   OH212806   6.239   0.891   0.230  0.3707 -0.2731  0.7029
 4267TIP3    H112807   6.267   0.948   0.302  0.5186 -0.0068  0.4376
 4267TIP3    H212808   6.172   0.834   0.268  0.5675 -0.2440  1.0911
 4268TIP3   OH212809   2.224   2.260   4.744 -0.1003  0.0046 -0.2044
 4268TIP3    H112810   2.177   2.177   4.758  1.4877 -1.0801 -0.9518
 4268TIP3    H212811   2.317   2.235   4.746  0.4024  1.5415 -1.6770
 4269TIP3   OH212812   1.896   5.502   5.099 -0.6275 -0.2522  0.1504
 4269TIP3    H112813   1.941   5.539   5.023  1.0468 -1.3333  0.5715
 4269TIP3    H212814   1.924   5.557   5.172  0.8954 -1.5295  0.5775
 4270TIP3   OH212815   2.720   1.834   2.662  0.3299 -0.1339 -0.4622
 4270TIP3    H112816   2.744   1.846   2.754  0.6615  1.3121 -0.7086
 4270TIP3    H212817   2.793   1.783   2.625 -0.4257 -1.8690  0.3250
 4271TIP3   OH212818   4.529   0.573   1.722  0.2479 -0.0304 -0.2759
 4271TIP3    H112819   4.525   0.563   1.817 -2.1195 -0.2685 -0.3453
 4271TIP3    H212820   4.460   0.514   1.689  0.7901  0.3132 -2.1149
 4272TIP3   OH212821   5.560   4.246   1.442 -0.2828 -0.6253  0.4171
 4272TIP3    H112822   5.472   4.261   1.476  0.3502  0.2477  1.7931
 4272TIP3    H212823   5.567   4.151   1.432 -1.1276 -0.7585  0.9976
 4273TIP3   OH212824   6.243   2.417   3.721  0.0523  0.1361 -0.3181
 4273TIP3    H112825   6.320   2.460   3.758 -0.9386  1.4520  0.3107
 4273TIP3    H212826   6.170   2.455   3.770 -1.1470  0.3741 -2.2243
 4274TIP3   OH212827   3.488   5.642   1.581  0.0348  0.2112  0.0167
 4274TIP3    H112828   3.512   5.567   1.636 -1.3769 -0.4302 -0.1783
 4274TIP3    H212829   3.401   5.619   1.547 -0.6557  2.1636  0.3567
 4275TIP3   OH212830   3.404   4.895   3.873 -0.1468  0.1058 -0.1038
 4275TIP3    H112831   3.358   4.921   3.952 -0.9707  1.5925 -1.0355
 4275TIP3    H212832   3.417   4.976   3.825 -2.5836 -1.0451 -3.0405
 4276TIP3   OH212833   5.512   3.145   2.706 -0.4869 -0.1169 -0.2259
 4276TIP3    H112834   5.559   3.074   2.750 -1.3821 -0.5827  0.0001
 4276TIP3    H212835   5.558   3.224   2.732  0.1120 -0.5497  0.0671
 4277TIP3   OH212836   3.623   1.424   3.494 -0.3516  0.4312 -0.4299
 4277TIP3    H112837   3.665   1.469   3.420  2.7844 -3.0110 -1.0329
 4277TIP3    H212838   3.557   1.368   3.454 -0.5415  0.5696 -0.3097
 4278TIP3   OH212839   1.056   3.869   0.223  0.0302 -0.3471 -0.4852
 4278TIP3    H112840   1.070   3.818   0.144  0.5154 -1.5374  0.3389
 4278TIP3    H212841   1.141   3.871   0.266 -0.0296  0.9987 -0.3941
 4279TIP3   OH212842   3.812   2.692   3.380  0.1503  0.4765  0.7434
 4279TIP3    H112843   3.734   2.729   3.423  1.4407  1.1120  2.6712
 4279TIP3    H212844   3.822   2.743   3.300  0.3771  2.5844  2.0428
 4280TIP3   OH212845   5.628   3.514   4.720  0.0833  0.2774  0.2464
 4280TIP3    H112846   5.700   3.570   4.749 -0.5192  1.2843 -0.1408
 4280TIP3    H212847   5.598   3.469   4.799  1.0858 -0.1037  0.4210
 4281TIP3   OH212848   1.674   4.197   5.187  0.1004 -0.1290  0.2883
 4281TIP3    H112849   1.683   4.102   5.197 -1.2144 -0.1754  1.2002
 4281TIP3    H212850   1.719   4.216   5.105 -1.2825 -1.8205 -0.9502
 4282TIP3   OH212851   5.559   0.387   3.416  0.0430  0.5042 -0.0713
 4282TIP3    H112852   5.505   0.308   3.423 -0.4439  0.7627 -0.8154
 4282TIP3    H212853   5.609   0.376   3.335 -0.6748  1.3356 -0.6515
 4283TIP3   OH212854   3.683   1.571   0.868  0.8113 -0.0457 -0.2210
 4283TIP3    H112855   3.626   1.639   0.832  1.1980  0.6229  0.4171
 4283TIP3    H212856   3.715   1.524   0.791  0.0100  0.0502 -0.6335
 4284TIP3   OH212857   0.397   4.717   1.370 -0.3315  0.3551  0.1392
 4284TIP3    H112858   0.402   4.779   1.297  1.1693 -0.3292 -0.3708
 4284TIP3    H212859   0.356   4.767   1.441 -0.8775  1.3399 -0.8469
 4285TIP3   OH212860   2.261   0.692   1.237  0.4454 -0.0899 -0.5106
 4285TIP3    H112861   2.179   0.739   1.222 -0.4895 -1.0912  1.2972
 4285TIP3    H212862   2.329   0.758   1.218 -0.7998  1.8383  1.3095
 4286TIP3   OH212863   1.317   0.943   0.012 -0.3624  0.1330  0.0367
 4286TIP3    H112864   1.232   0.957   0.055 -0.0014 -0.0887  0.8379
 4286TIP3    H212865   1.301   0.873  -0.050 -0.4896 -0.7655  1.0503
 4287TIP3   OH212866   2.517   5.771   1.344 -0.1742  0.8778  1.1812
 4287TIP3    H112867   2.534   5.855   1.300  2.5117 -0.3908 -0.4816
 4287TIP3    H212868   2.437   5.738   1.302  1.1727  0.6651 -1.4761
 4288TIP3   OH212869   4.085   1.359   4.390  0.7570 -0.0936  0.3548
 4288TIP3    H112870   3.992   1.380   4.377  0.8422 -0.8523 -2.0039
 4288TIP3    H212871   4.099   1.281   4.337  2.9274  0.4779 -0.0025
 4289TIP3   OH212872   2.808   4.055   3.380  0.0377 -0.3926 -0.0798
 4289TIP3    H112873   2.896   4.038   3.415  0.5340  0.0114 -1.0833
 4289TIP3    H212874   2.799   3.992   3.309  0.3090  0.8259 -1.2409
 4290TIP3   OH212875   1.401   2.764   5.076 -0.2346 -0.3997  0.1332
 4290TIP3    H112876   1.355   2.845   5.096 -0.2018  0.0028 -1.3498
 4290TIP3    H212877   1.340   2.715   5.021  0.9474  0.0171 -1.6293
 4291TIP3   OH212878   4.938   5.565   1.831 -0.3184 -0.0977 -0.4761
 4291TIP3    H112879   4.902   5.516   1.757 -2.1556  1.3459 -0.6144
 4291TIP3    H212880   4.876   5.637   1.844  1.8070  1.7100  0.2310
 4292TIP3   OH212881   4.107   2.630   4.210  0.1589  0.9256  0.3220
 4292TIP3    H112882   4.035   2.690   4.227 -1.3379 -0.4047 -1.0158
 4292TIP3    H212883   4.142   2.658   4.125  0.9783  1.3100  0.7730
 4293TIP3   OH212884   5.861   0.721   0.365 -0.0158 -0.3191  0.0734
 4293TIP3    H112885   5.917   0.740   0.441 -1.2766 -1.8382  1.4569
 4293TIP3    H212886   5.772   0.721   0.400 -0.5456 -2.2476 -1.1302
 4294TIP3   OH212887   1.121   2.632   2.174  0.3452 -0.1287  0.2838
 4294TIP3    H112888   1.083   2.578   2.104 -0.9411  0.7135  0.2997
 4294TIP3    H212889   1.131   2.719   2.134  1.5298 -0.1228  0.5400
 4295TIP3   OH212890   0.535   1.013   2.632  0.1380 -0.1763 -0.3037
 4295TIP3    H112891   0.616   1.015   2.682  0.3178 -1.2957 -0.5164
 4295TIP3    H212892   0.542   1.088   2.573  2.4151 -1.8655 -2.3974
 4296TIP3   OH212893   0.304   3.404   1.541  0.8182 -0.0142 -0.1161
 4296TIP3    H112894   0.375   3.422   1.480  1.2367  1.5821  0.7821
 4296TIP3    H212895   0.228   3.390   1.484  1.8688 -2.1467 -1.0995
 4297TIP3   OH212896   4.606   3.669   3.072  0.0481  0.5178  0.2437
 4297TIP3    H112897   4.656   3.618   3.136 -0.7544 -0.1751  0.3385
 4297TIP3    H212898   4.661   3.745   3.054  0.6630  0.3019  1.1286
 4298TIP3   OH212899   2.350   5.349   3.312  0.7677 -0.0663 -0.0507
 4298TIP3    H112900   2.333   5.280   3.249 -1.1864  1.3951 -1.2070
 4298TIP3    H212901   2.269   5.357   3.362  0.3543  2.3764 -0.9786
 4299TIP3   OH212902   3.450   1.732   0.418  0.0052 -0.0617 -0.0034
 4299TIP3    H112903   3.512   1.664   0.392 -0.5915 -0.7513  0.3535
 4299TIP3    H212904   3.503   1.795   0.467  0.3939 -0.7157  0.4231
 4300TIP3   OH212905   1.359   0.141   2.311 -0.4960  0.1514 -0.5248
 4300TIP3    H112906   1.278   0.161   2.263  0.0702  1.8735 -0.8177
 4300TIP3    H212907   1.419   0.211   2.287  0.5933 -0.2678  0.8726
 4301TIP3   OH212908   4.534   2.196   3.476  0.1435 -0.5798  0.5388
 4301TIP3    H112909   4.576   2.123   3.521  0.8079 -0.0349  0.8262
 4301TIP3    H212910   4.444   2.168   3.463  0.1228 -1.0239  1.5839
 4302TIP3   OH212911   2.717   4.357   4.121  0.3877 -0.4601 -0.4121
 4302TIP3    H112912   2.754   4.313   4.198  0.3494 -0.2172 -0.2546
 4302TIP3    H212913   2.649   4.297   4.090 -0.6713  0.1387  0.6690
 4303TIP3   OH212914   2.388   3.703   1.706  0.6380 -0.0310  0.2975
 4303TIP3    H112915   2.307   3.737   1.668 -0.1118  2.2611  3.4675
 4303TIP3    H212916   2.458   3.745   1.656 -0.2418  1.4821  0.2686
 4304TIP3   OH212917   2.438   2.469   3.805  0.4828  0.0250 -0.3973
 4304TIP3    H112918   2.503   2.525   3.762  0.0038 -0.9134 -2.4869
 4304TIP3    H212919   2.491   2.406   3.855  1.0250  2.1066  1.8195
 4305TIP3   OH212920   1.945   4.085   2.149 -0.1872 -0.6143  0.1271
 4305TIP3    H112921   1.903   4.076   2.064 -0.5412 -0.3941  0.2754
 4305TIP3    H212922   1.947   3.997   2.185 -1.4427 -0.4931  0.5487
 4306TIP3   OH212923   1.523   2.010   0.468  0.1433  0.1075  0.1807
 4306TIP3    H112924   1.544   2.051   0.384  1.0280 -1.3167 -0.3113
 4306TIP3    H212925   1.429   1.992   0.463  0.0714  0.5791 -0.2444
 4307TIP3   OH212926   4.156   4.839   2.212  0.1917 -0.6526 -0.2532
 4307TIP3    H112927   4.239   4.876   2.183  0.2665 -0.4530  0.2157
 4307TIP3    H212928   4.147   4.758   2.162  0.7299 -0.7424 -0.2035
 4308TIP3   OH212929   0.756   2.115   1.627  0.7712 -0.0311  0.2039
 4308TIP3    H112930   0.687   2.113   1.693  0.8245  0.0062  0.2597
 4308TIP3    H212931   0.711   2.095   1.545  0.8042 -0.6959  0.3398
 4309TIP3   OH212932   5.371   5.189   4.104 -0.2368  0.0779 -0.0876
 4309TIP3    H112933   5.407   5.131   4.171 -0.8458 -0.7759 -0.4906
 4309TIP3    H212934   5.447   5.215   4.052 -0.0221 -0.7782 -0.2196
 4310TIP3   OH212935   0.615   3.410   4.454 -0.1041  0.6044  0.3708
 4310TIP3    H112936   0.582   3.499   4.451 -1.1193  0.2132 -1.1875
 4310TIP3    H212937   0.571   3.370   4.528  0.2278  1.3359  0.9731
 4311TIP3   OH212938   3.769   0.255   1.753  0.1747 -0.4856  0.4939
 4311TIP3    H112939   3.774   0.160   1.738  1.1162 -0.2078 -1.3381
 4311TIP3    H212940   3.806   0.267   1.841  2.0527 -1.6661 -0.0658
 4312TIP3   OH212941   5.042   1.489   3.809  0.2013  0.1506  0.0714
 4312TIP3    H112942   5.080   1.406   3.839 -2.0679 -0.7623  0.6039
 4312TIP3    H212943   5.096   1.515   3.735  2.9520 -0.0999  1.8450
 4313TIP3   OH212944   0.470   2.455   3.606 -0.2557 -0.0027 -0.2663
 4313TIP3    H112945   0.480   2.532   3.549  0.2839 -0.4896 -0.8365
 4313TIP3    H212946   0.550   2.454   3.658 -0.0218 -0.4715 -0.6270
 4314TIP3   OH212947   0.546   2.213   3.465 -0.1907  0.0284  0.3706
 4314TIP3    H112948   0.484   2.142   3.481 -0.4645  0.2788  0.4192
 4314TIP3    H212949   0.499   2.293   3.491 -0.5384  0.4194 -1.3392
 4315TIP3   OH212950   5.881   1.846   2.848 -0.2770 -0.0016  0.0135
 4315TIP3    H112951   5.850   1.899   2.774 -2.8031 -0.5942  0.5555
 4315TIP3    H212952   5.874   1.904   2.924  0.0733 -0.1109  0.1315
 4316TIP3   OH212953   5.129   1.895   4.528 -0.3303  0.2895  0.0731
 4316TIP3    H112954   5.216   1.883   4.567 -0.5956  2.0392  1.3416
 4316TIP3    H212955   5.146   1.944   4.447 -0.0269 -0.6226 -0.4206
 4317TIP3   OH212956   2.089   3.744   3.730 -0.2453  0.1502  0.4554
 4317TIP3    H112957   2.096   3.827   3.683 -1.2284 -0.2173 -0.3958
 4317TIP3    H212958   2.179   3.720   3.752  0.0328  1.6240  1.0769
 4318TIP3   OH212959   0.182   2.852   0.245 -0.5898  0.2321 -0.2674
 4318TIP3    H112960   0.108   2.888   0.295 -0.5846 -2.6385  2.1055
 4318TIP3    H212961   0.143   2.786   0.189  0.0286 -0.6070  0.2659
 4319TIP3   OH212962   5.827   2.278   0.690 -0.2021  0.2342 -0.3880
 4319TIP3    H112963   5.872   2.203   0.728 -0.3832  0.4839  0.3535
 4319TIP3    H212964   5.828   2.263   0.596  0.7452 -0.1371 -0.3225
 4320TIP3   OH212965   6.213   1.570   2.257  0.3286  0.3714 -0.3666
 4320TIP3    H112966   6.140   1.632   2.244  0.1870  0.4063  0.5715
 4320TIP3    H212967   6.208   1.546   2.349  1.5578  0.4227 -0.2732
 4321TIP3   OH212968   1.158   1.290   3.213  0.0122  0.5302  0.3823
 4321TIP3    H112969   1.244   1.284   3.171 -0.4042 -0.0230 -0.4163
 4321TIP3    H212970   1.105   1.341   3.152 -0.2030  0.9538  0.9199
 4322TIP3   OH212971   0.967   2.639   1.238 -0.0204  0.4180 -0.1152
 4322TIP3    H112972   0.940   2.646   1.329  4.8218  3.0322  1.4385
 4322TIP3    H212973   0.997   2.548   1.228 -0.1663  0.2355  1.0509
 4323TIP3   OH212974   6.045   1.827   0.302 -0.8186  0.4035  0.7880
 4323TIP3    H112975   6.109   1.756   0.297  1.1246  2.0489  0.6619
 4323TIP3    H212976   5.970   1.796   0.252 -0.3812 -1.8444  1.4218
 4324TIP3   OH212977   3.819   3.953   0.422  0.1324 -0.2211  0.0866
 4324TIP3    H112978   3.792   4.041   0.395 -1.1260 -0.7596 -0.4863
 4324TIP3    H212979   3.864   3.967   0.505  3.3739  1.4117 -1.7036
 4325TIP3   OH212980   2.421   3.240   2.903 -0.3758 -0.0535  0.0948
 4325TIP3    H112981   2.486   3.259   2.835  1.4116  1.9804  2.2261
 4325TIP3    H212982   2.468   3.189   2.968 -1.7912 -1.1319  0.3184
 4326TIP3   OH212983   3.014   4.318   0.392  0.0443 -0.0521 -0.0656
 4326TIP3    H112984   3.086   4.268   0.354  1.0538  1.2122  0.0934
 4326TIP3    H212985   3.010   4.289   0.483  0.4783 -0.0102 -0.0309
 4327TIP3   OH212986   4.007   4.242   1.112  0.5606  0.1850  0.2227
 4327TIP3    H112987   4.091   4.198   1.096  0.1802 -0.7911  0.8817
 4327TIP3    H212988   3.942   4.173   1.105 -0.1523  0.8536  0.1916
 4328TIP3   OH212989   5.591   5.745   1.955  0.2154  0.3527  0.6533
 4328TIP3    H112990   5.544   5.817   1.998 -0.0791  0.2140  0.5718
 4328TIP3    H212991   5.681   5.754   1.984  0.6514  2.0520 -1.0008
 4329TIP3   OH212992   2.954   3.419   2.174  0.0593 -0.0298  0.0484
 4329TIP3    H112993   2.935   3.370   2.254  2.0716 -1.3107 -0.1815
 4329TIP3    H212994   2.885   3.392   2.113 -0.3685 -0.5485  0.7347
 4330TIP3   OH212995   1.456   2.191   2.102  0.1092  0.4485  0.3828
 4330TIP3    H112996   1.444   2.271   2.052  1.3540  0.0703 -0.5877
 4330TIP3    H212997   1.446   2.217   2.193 -1.1145  1.3697  0.0123
 4331TIP3   OH212998   0.934   3.208   0.536 -0.1469 -0.4580  0.7453
 4331TIP3    H112999   0.998   3.204   0.465 -0.2215 -1.0418  0.7060
 4331TIP3    H213000   0.859   3.254   0.499  0.2963  0.3659  0.8364
 4332TIP3   OH213001   2.224   1.476   0.625  0.2242 -0.1298  0.0657
 4332TIP3    H113002   2.234   1.499   0.717  0.8821  0.3896 -0.1297
 4332TIP3    H213003   2.206   1.560   0.581 -2.1229 -0.6044 -0.0233
 4333TIP3   OH213004   5.542   5.450   2.647  0.7181 -0.2109 -0.0377
 4333TIP3    H113005   5.507   5.407   2.725  1.5150  0.3478  0.6499
 4333TIP3    H213006   5.468   5.454   2.587  0.2778 -1.2964  0.4084
 4334TIP3   OH213007   6.135   3.519   1.271  0.1251  0.0094  0.3792
 4334TIP3    H113008   6.101   3.436   1.237  0.3112  0.0485  0.0922
 4334TIP3    H213009   6.057   3.570   1.292 -0.0311  0.4375 -1.0991
 4335TIP3   OH213010   4.510   4.460   0.263  0.2167 -0.2961  0.3241
 4335TIP3    H113011   4.576   4.487   0.200  0.8321 -1.1612  0.5807
 4335TIP3    H213012   4.426   4.483   0.222  0.6340 -0.2382 -0.5094
 4336TIP3   OH213013   4.772   3.310   2.895  0.0692 -0.0299  0.1643
 4336TIP3    H113014   4.720   3.266   2.828 -1.1388  0.4031  0.7816
 4336TIP3    H213015   4.811   3.385   2.850 -0.6006  0.1662 -0.1032
 4337TIP3   OH213016   1.993   1.209   1.443  0.2438  0.6516 -0.9266
 4337TIP3    H113017   1.972   1.121   1.411  1.5181 -0.1922  0.4205
 4337TIP3    H213018   1.913   1.238   1.488  1.1715 -1.8041  2.6821
 4338TIP3   OH213019   5.788   3.698   3.611  0.0140 -0.2049  0.0574
 4338TIP3    H113020   5.723   3.644   3.566 -0.6681 -0.8005  1.6685
 4338TIP3    H213021   5.788   3.665   3.701 -0.5170  2.5659  1.1608
 4339TIP3   OH213022   2.570   1.168   2.888 -0.2607 -0.0840  0.2494
 4339TIP3    H113023   2.656   1.174   2.846 -0.0561 -1.6839  0.3612
 4339TIP3    H213024   2.511   1.143   2.816 -0.7364  1.3583  0.0972
 4340TIP3   OH213025   5.077   0.194   0.656 -0.0692  0.4226 -0.3412
 4340TIP3    H113026   5.156   0.214   0.605 -0.6115  1.1032 -0.9214
 4340TIP3    H213027   5.065   0.270   0.713 -0.6884  0.6353 -0.7427
 4341TIP3   OH213028   0.470   5.271   1.640 -0.3631  0.0987  0.3883
 4341TIP3    H113029   0.480   5.364   1.619  1.8001  0.3167  2.0483
 4341TIP3    H213030   0.550   5.230   1.605 -1.7514 -1.3764 -1.2461
 4342TIP3   OH213031   0.641   2.970   1.933 -0.2954 -0.2359 -0.2374
 4342TIP3    H113032   0.602   2.942   1.850  0.9688 -2.3588 -0.2041
 4342TIP3    H213033   0.654   2.888   1.982  1.3545  0.6862  0.9676
 4343TIP3   OH213034   6.081   4.573   5.146 -0.7488 -0.9434  0.5076
 4343TIP3    H113035   6.078   4.593   5.052 -0.7087 -1.2254  0.4460
 4343TIP3    H213036   6.062   4.657   5.189  0.3559 -0.5581  0.2656
 4344TIP3   OH213037   6.219   1.121   3.621 -0.9545 -0.3193 -0.3051
 4344TIP3    H113038   6.283   1.068   3.574 -0.4604  0.5265 -0.6132
 4344TIP3    H213039   6.149   1.137   3.558 -1.6421 -1.5045  0.1272
 4345TIP3   OH213040   0.847   0.802   0.293  0.5160 -0.2726 -0.1267
 4345TIP3    H113041   0.875   0.711   0.303 -0.7322 -0.8238 -1.2999
 4345TIP3    H213042   0.771   0.811   0.352 -0.2524 -0.4316 -1.0701
 4346TIP3   OH213043   0.459   0.644   2.258  0.2622 -0.4736 -0.3973
 4346TIP3    H113044   0.544   0.688   2.263  0.1857 -0.4805  1.5916
 4346TIP3    H213045   0.473   0.559   2.301 -1.0356  0.0644  1.1805
 4347TIP3   OH213046   2.209   5.213   2.630 -0.3609 -0.0646  0.2945
 4347TIP3    H113047   2.166   5.156   2.693  0.8056 -1.0118  0.2794
 4347TIP3    H213048   2.187   5.176   2.544 -0.6648  0.2908  0.2157
 4348TIP3   OH213049   1.597   4.856   3.604 -0.2130  0.6164  0.1771
 4348TIP3    H113050   1.522   4.888   3.654 -0.4604 -0.6336  0.6346
 4348TIP3    H213051   1.664   4.839   3.670 -1.0018 -2.3780  0.3487
 4349TIP3   OH213052   3.085   4.989   5.105 -0.2960 -0.6552  0.6412
 4349TIP3    H113053   3.082   4.930   5.181 -0.3383  0.4551  1.5357
 4349TIP3    H213054   3.082   5.077   5.144 -0.5199 -0.0689 -0.6727
 4350TIP3   OH213055   1.129   3.036   1.086 -0.1350  0.2711  0.4462
 4350TIP3    H113056   1.075   3.114   1.081  1.1887  1.1965  0.0118
 4350TIP3    H213057   1.081   2.977   1.144 -0.3135  2.1361  2.3446
 4351TIP3   OH213058   5.305   2.264   4.059  0.8606  0.0873  0.6612
 4351TIP3    H113059   5.378   2.302   4.011  0.2535  0.1608 -0.2146
 4351TIP3    H213060   5.330   2.172   4.071  0.6518 -0.1471 -0.5517
 4352TIP3   OH213061   5.619   2.487   2.811  0.6923  0.3433  0.1648
 4352TIP3    H113062   5.667   2.513   2.890  1.4573  0.8089 -0.4339
 4352TIP3    H213063   5.687   2.479   2.744 -0.2753  3.8048 -1.4613
 4353TIP3   OH213064   6.151   4.315   4.282 -0.2705 -0.3152  0.0407
 4353TIP3    H113065   6.104   4.350   4.358  0.3533 -0.3957  0.4720
 4353TIP3    H213066   6.213   4.384   4.258  1.2067 -1.2167  1.1100
 4354TIP3   OH213067   4.677   3.634   0.871 -0.0081  0.0290  0.0923
 4354TIP3    H113068   4.620   3.596   0.938 -0.5459 -0.2430 -0.5135
 4354TIP3    H213069   4.618   3.678   0.810  0.4487 -0.0054 -0.3903
 4355TIP3   OH213070   3.343   1.983   1.561  0.1042  0.2705 -0.6471
 4355TIP3    H113071   3.257   1.953   1.593  0.8408 -0.9328  0.2920
 4355TIP3    H213072   3.333   2.078   1.552 -0.7422  0.4265  1.3582
 4356TIP3   OH213073   6.228   4.781   0.667  0.1871  0.3586  0.2669
 4356TIP3    H113074   6.220   4.686   0.670 -1.1120  0.4057 -0.7129
 4356TIP3    H213075   6.250   4.806   0.757  1.8238 -0.9422  0.2745
 4357TIP3   OH213076   5.289   3.960   3.969 -0.2979 -0.1133 -0.6549
 4357TIP3    H113077   5.383   3.941   3.968  0.0636  1.2709  1.3149
 4357TIP3    H213078   5.281   4.037   4.026 -2.6378 -0.1992 -0.7827
 4358TIP3   OH213079   4.991   5.573   2.448 -0.5472 -0.4447  0.0450
 4358TIP3    H113080   4.989   5.546   2.357 -0.3698  0.2306 -0.1694
 4358TIP3    H213081   5.062   5.522   2.488 -0.5893 -0.6983 -0.2055
 4359TIP3   OH213082   0.182   2.980   4.176 -0.6253  0.8008 -0.1304
 4359TIP3    H113083   0.107   2.988   4.117 -1.8656 -1.1314  1.0567
 4359TIP3    H213084   0.150   3.015   4.259 -0.4474 -0.5644  0.5402
 4360TIP3   OH213085   0.966   4.979   3.427  0.5830  0.1171 -0.1424
 4360TIP3    H113086   0.901   4.938   3.484  0.0186  0.2586 -0.6717
 4360TIP3    H213087   0.970   5.070   3.456 -0.3044  0.3942 -0.8364
 4361TIP3   OH213088   6.230   4.887   0.419  0.0333 -0.1189 -0.9253
 4361TIP3    H113089   6.139   4.916   0.418  0.7548  2.3775 -0.0191
 4361TIP3    H213090   6.238   4.838   0.501 -0.5174 -0.5268 -1.1065
 4362TIP3   OH213091   3.115   1.973   1.708  0.0787 -0.3581  0.1280
 4362TIP3    H113092   3.027   1.984   1.744  0.3789 -1.4822  1.2577
 4362TIP3    H213093   3.173   1.974   1.784  1.0655  0.4729 -0.6097
 4363TIP3   OH213094   6.044   4.553   0.126 -0.2642 -0.0396  0.2519
 4363TIP3    H113095   6.064   4.642   0.096 -1.4366  0.2731  0.3554
 4363TIP3    H213096   5.959   4.561   0.169  0.9787 -0.5977  3.0702
 4364TIP3   OH213097   2.714   5.937   2.064 -0.2114 -0.1328  0.2846
 4364TIP3    H113098   2.637   5.988   2.040  0.1977 -0.3500 -1.5754
 4364TIP3    H213099   2.711   5.860   2.007  2.0456  0.4841 -0.7693
 4365TIP3   OH213100   5.934   1.437   3.905  0.4177  0.2891  0.1489
 4365TIP3    H113101   5.862   1.386   3.941  0.2238  0.4534 -0.0011
 4365TIP3    H213102   5.894   1.520   3.878  0.3064 -0.2775 -1.5601
 4366TIP3   OH213103   5.122   4.642   1.819 -0.5264 -0.0446  0.0672
 4366TIP3    H113104   5.215   4.634   1.796 -0.5270  1.8161 -0.7477
 4366TIP3    H213105   5.075   4.602   1.746 -0.4048  0.3786 -0.2396
 4367TIP3   OH213106   3.961   2.531   4.908 -0.4582  0.3973 -0.0240
 4367TIP3    H113107   3.928   2.620   4.895 -1.1304 -0.0004 -1.1516
 4367TIP3    H213108   4.018   2.516   4.833 -0.4899 -0.1914  0.0676
 4368TIP3   OH213109   6.208   5.309   0.646  0.6475 -0.2038 -0.4242
 4368TIP3    H113110   6.153   5.328   0.571 -0.0523 -2.8590 -0.6717
 4368TIP3    H213111   6.150   5.317   0.722  1.0307  1.1683 -0.2445
 4369TIP3   OH213112   4.349   1.255   3.888 -0.0642 -0.1217  0.0893
 4369TIP3    H113113   4.385   1.305   3.961 -0.2583  1.9120 -1.1119
 4369TIP3    H213114   4.256   1.244   3.909  0.5863 -3.0819  1.9551
 4370TIP3   OH213115   5.441   4.665   5.052 -0.8555  0.2746 -0.1542
 4370TIP3    H113116   5.349   4.685   5.068 -0.9766 -1.0336  1.1011
 4370TIP3    H213117   5.480   4.664   5.139  0.4984  1.3848 -0.7167
 4371TIP3   OH213118   3.954   3.283   5.143 -0.2765  0.2589  0.8884
 4371TIP3    H113119   3.970   3.355   5.205  0.7425  0.2491  0.6557
 4371TIP3    H213120   3.951   3.326   5.058 -1.0848  0.1948  0.8787
 4372TIP3   OH213121   2.575   3.748   2.937  0.4431  0.1122 -0.5741
 4372TIP3    H113122   2.490   3.711   2.963 -0.2980  0.7499 -1.9895
 4372TIP3    H213123   2.635   3.673   2.937 -0.1253 -0.3636  0.3491
 4373TIP3   OH213124   5.057   3.425   1.173  0.0702  0.6581 -0.4690
 4373TIP3    H113125   5.092   3.501   1.219  1.2633 -0.1537  0.0157
 4373TIP3    H213126   4.983   3.459   1.123 -0.1067  1.9248  0.5898
 4374TIP3   OH213127   0.292   1.339   3.441 -0.1355  0.1690 -0.5561
 4374TIP3    H113128   0.221   1.278   3.422 -0.1031  0.4576 -1.6765
 4374TIP3    H213129   0.358   1.285   3.486 -1.1518 -0.0323  0.7519
 4375TIP3   OH213130   2.849   2.399   5.084  0.1058 -0.3940 -0.3106
 4375TIP3    H113131   2.820   2.319   5.040 -1.0142 -1.4369  2.0801
 4375TIP3    H213132   2.928   2.374   5.131  1.1129  0.6057 -1.4060
 4376TIP3   OH213133   4.995   3.780   0.380  1.2237 -0.9393  0.0226
 4376TIP3    H113134   5.072   3.835   0.387  1.7330 -1.6962  0.5212
 4376TIP3    H213135   4.986   3.763   0.286  1.6600 -0.8475 -0.0372
 4377TIP3   OH213136   2.882   2.286   0.609 -0.2293 -0.3370  0.0767
 4377TIP3    H113137   2.894   2.211   0.667  0.1311 -1.5383 -1.4712
 4377TIP3    H213138   2.914   2.256   0.524  1.4636  2.1230 -0.2538
 4378TIP3   OH213139   5.252   1.826   4.058 -0.0763 -0.0309  0.2780
 4378TIP3    H113140   5.294   1.742   4.039 -1.1869 -0.9079  1.5782
 4378TIP3    H213141   5.158   1.809   4.052 -0.3351  0.9172  1.3680
 4379TIP3   OH213142   4.870   5.626   1.003 -0.2782  0.5171  0.5225
 4379TIP3    H113143   4.948   5.635   0.947 -0.2355  0.1181  0.5172
 4379TIP3    H213144   4.851   5.716   1.031  0.2759  0.6012  0.6473
 4380TIP3   OH213145   0.110   1.458   4.406  0.0759  0.2523 -0.1384
 4380TIP3    H113146   0.204   1.471   4.422  0.4679  0.0287 -1.9902
 4380TIP3    H213147   0.074   1.439   4.492  2.0131 -1.2001  0.4469
 4381TIP3   OH213148   6.296   4.275   2.657 -0.0973  0.5122  0.4755
 4381TIP3    H113149   6.288   4.225   2.575  1.1037  1.7007 -0.4183
 4381TIP3    H213150   6.262   4.216   2.724 -1.6666 -0.2802 -0.9401
 4382TIP3   OH213151   2.702   2.887   0.569  0.1436  0.6611  0.0375
 4382TIP3    H113152   2.734   2.872   0.658 -2.1154  2.1616  1.2010
 4382TIP3    H213153   2.660   2.974   0.573 -1.1927  0.1914 -2.1331
 4383TIP3   OH213154   0.916   0.675   3.970 -0.5236  0.5837  0.2587
 4383TIP3    H113155   0.870   0.596   3.940  0.5978 -0.1274  0.3460
 4383TIP3    H213156   0.943   0.654   4.060 -0.6319  1.2650  0.4597
 4384TIP3   OH213157   2.078   4.139   3.164  0.2643  0.4075  0.3409
 4384TIP3    H113158   2.171   4.115   3.159 -0.3082 -2.3652  1.5325
 4384TIP3    H213159   2.072   4.197   3.240  1.0436  0.8586  0.0707
 4385TIP3   OH213160   4.301   5.216   4.721  0.0400 -0.0578  0.5125
 4385TIP3    H113161   4.316   5.303   4.758 -0.6925 -0.7178  2.5098
 4385TIP3    H213162   4.224   5.227   4.665 -0.5967  0.4128  1.4565
 4386TIP3   OH213163   0.215   1.796   4.455  0.1784 -0.2280  0.4959
 4386TIP3    H113164   0.285   1.853   4.486  0.0937  0.5956 -0.7593
 4386TIP3    H213165   0.260   1.724   4.411  0.2550  0.1819 -0.1088
 4387TIP3   OH213166   6.123   2.559   4.509 -0.7535 -0.2740 -0.0268
 4387TIP3    H113167   6.108   2.653   4.513 -0.1935 -0.1997  0.4558
 4387TIP3    H213168   6.176   2.539   4.586  1.0511 -0.5965 -1.2687
 4388TIP3   OH213169   2.262   5.366   4.577  0.0937 -0.1075 -0.0857
 4388TIP3    H113170   2.330   5.389   4.514 -2.1029  0.7488 -2.3185
 4388TIP3    H213171   2.218   5.290   4.538 -2.3894  1.4556 -0.5567
 4389TIP3   OH213172   3.658   3.284   1.584  0.4837 -0.1667 -0.3532
 4389TIP3    H113173   3.715   3.211   1.559 -0.2568 -1.2136  0.8889
 4389TIP3    H213174   3.707   3.362   1.559  1.0928 -1.0736 -2.1784
 4390TIP3   OH213175   6.306   0.520   2.629 -0.5668 -0.0693  0.0916
 4390TIP3    H113176   6.362   0.527   2.552  0.1796 -1.4359  0.4714
 4390TIP3    H213177   6.347   0.577   2.694 -0.0093 -0.5072  0.1322
 4391TIP3   OH213178   1.470   3.582   1.443 -0.1047 -0.7601  0.9324
 4391TIP3    H113179   1.430   3.507   1.399 -0.4294 -0.5754  0.9075
 4391TIP3    H213180   1.473   3.650   1.375 -2.0127  0.0291  1.5863
 4392TIP3   OH213181   4.918   0.186   0.345  0.0032 -0.0654 -0.3425
 4392TIP3    H113182   4.871   0.224   0.419 -1.0611  0.3881 -1.2196
 4392TIP3    H213183   5.007   0.220   0.352 -0.3804  0.8760  0.0980
 4393TIP3   OH213184   4.873   3.624   5.157 -0.1682  0.1627 -0.6332
 4393TIP3    H113185   4.892   3.642   5.249 -0.7909  0.9965 -0.6568
 4393TIP3    H213186   4.936   3.677   5.108 -0.6491  0.6895 -0.6894
 4394TIP3   OH213187   0.865   0.090   0.247  0.0313  0.2380  0.7776
 4394TIP3    H113188   0.950   0.047   0.259  0.0921 -0.1733 -0.8652
 4394TIP3    H213189   0.856   0.146   0.323  3.0611  2.4219 -0.2520
 4395TIP3   OH213190   3.928   4.314   4.107  0.3404 -0.5079 -0.6123
 4395TIP3    H113191   3.955   4.327   4.016 -2.2575  1.0948 -1.2627
 4395TIP3    H213192   3.886   4.396   4.131  0.6787 -1.0001  1.9902
 4396TIP3   OH213193   4.317   3.769   4.189 -0.2021  0.0187  0.5258
 4396TIP3    H113194   4.393   3.712   4.174  0.2333  0.4286  1.1736
 4396TIP3    H213195   4.261   3.754   4.112  1.1056  0.6473 -0.5877
 4397TIP3   OH213196   4.857   5.637   3.197 -0.5095  0.4777  0.4432
 4397TIP3    H113197   4.907   5.642   3.116  1.8745 -1.3282  1.6785
 4397TIP3    H213198   4.851   5.544   3.216 -0.2866  0.8729  2.7419
 4398TIP3   OH213199   3.344   4.291   1.338 -0.7772  0.1703 -0.2237
 4398TIP3    H113200   3.361   4.198   1.323 -0.0916  0.4611 -1.3529
 4398TIP3    H213201   3.249   4.296   1.348 -0.8666 -0.6011 -0.5874
 4399TIP3   OH213202   1.040   1.190   4.964 -0.0641  0.2307 -0.3465
 4399TIP3    H113203   1.109   1.255   4.974  1.5073 -1.5053  0.9360
 4399TIP3    H213204   0.968   1.222   5.018  1.1999  0.2668  1.3792
 4400TIP3   OH213205   3.004   5.428   3.550  0.6864 -0.3398 -0.0909
 4400TIP3    H113206   3.058   5.359   3.588 -0.0746 -0.5494  0.6415
 4400TIP3    H213207   2.966   5.473   3.625  1.1800  0.9005 -0.5539
 4401TIP3   OH213208   4.461   4.708   4.332 -0.3037  0.1956  0.3131
 4401TIP3    H113209   4.415   4.772   4.387  0.0896 -0.5434  1.5399
 4401TIP3    H213210   4.392   4.658   4.290 -0.6245  1.6530 -0.9765
 4402TIP3   OH213211   4.512   5.571   2.468 -0.1983  0.2962 -0.2613
 4402TIP3    H113212   4.576   5.505   2.441  0.9245  1.0972  0.3319
 4402TIP3    H213213   4.467   5.533   2.543 -0.3789 -0.2511 -0.6438
 4403TIP3   OH213214   4.629   3.277   0.397 -0.1168 -0.8117  0.4267
 4403TIP3    H113215   4.639   3.244   0.307 -1.6550  1.3187 -0.6431
 4403TIP3    H213216   4.691   3.227   0.449  2.7690 -0.3474 -2.3018
 4404TIP3   OH213217   1.774   0.403   4.150  0.8399 -0.4310  0.0293
 4404TIP3    H113218   1.720   0.475   4.185 -1.7782 -1.1760 -2.0955
 4404TIP3    H213219   1.788   0.426   4.058  2.0610 -1.5013 -0.0756
 4405TIP3   OH213220   3.630   5.034   2.352 -0.1284  0.1379  0.6888
 4405TIP3    H113221   3.564   4.971   2.322 -0.5847  1.2159 -0.6859
 4405TIP3    H213222   3.658   5.078   2.273  2.4996 -0.4625  1.2044
 4406TIP3   OH213223   5.914   5.689   1.721 -0.0175  0.4534  0.2456
 4406TIP3    H113224   5.893   5.735   1.802 -1.9370 -0.2164  0.1906
 4406TIP3    H213225   5.845   5.715   1.660  1.3838  0.9298 -1.1843
 4407TIP3   OH213226   0.770   0.547   4.427 -0.3082  0.6333 -0.4380
 4407TIP3    H113227   0.742   0.456   4.412  1.5339 -0.1185  0.2887
 4407TIP3    H213228   0.770   0.557   4.522 -0.9647  1.5770 -0.5250
 4408TIP3   OH213229   2.240   5.661   4.031 -0.2444  0.3040  0.2300
 4408TIP3    H113230   2.249   5.620   4.117  0.0645  2.9957  1.5974
 4408TIP3    H213231   2.175   5.731   4.045  0.6270  1.5021 -1.4351
 4409TIP3   OH213232   3.837   3.303   0.384  0.4244 -0.4027  0.0919
 4409TIP3    H113233   3.919   3.304   0.432 -0.3785  0.4591  1.5125
 4409TIP3    H213234   3.820   3.210   0.367  1.1579 -0.6643  0.7284
 4410TIP3   OH213235   2.477   2.864   3.656  0.1372  0.2168 -0.1807
 4410TIP3    H113236   2.424   2.827   3.727  1.3524 -0.3608  0.4514
 4410TIP3    H213237   2.536   2.794   3.631  0.6737  0.8813 -0.8094
 4411TIP3   OH213238   2.363   5.376   0.551  0.4079 -0.1846  0.0153
 4411TIP3    H113239   2.424   5.303   0.558  1.2210  0.5122  0.5254
 4411TIP3    H213240   2.276   5.336   0.553  0.8347 -1.1121  0.4361
 4412TIP3   OH213241   2.744   3.943   3.906 -0.4355 -0.2594 -0.4623
 4412TIP3    H113242   2.751   4.035   3.881 -0.7261 -0.2990 -0.6879
 4412TIP3    H213243   2.745   3.895   3.823 -0.7029 -0.4328 -0.3685
 4413TIP3   OH213244   2.680   1.010   1.820  0.0582 -0.1921  0.4637
 4413TIP3    H113245   2.625   1.088   1.810 -1.0592 -1.1159 -1.3160
 4413TIP3    H213246   2.768   1.044   1.830 -0.0315  1.3969 -2.6285
 4414TIP3   OH213247   5.580   4.739   3.522  0.0162 -0.5398  0.4171
 4414TIP3    H113248   5.606   4.825   3.490  1.9416 -0.0801  2.8984
 4414TIP3    H213249   5.642   4.678   3.483  0.6089 -0.3566  1.0565
 4415TIP3   OH213250   0.375   2.384   1.017  0.1929 -0.5888  0.0700
 4415TIP3    H113251   0.463   2.406   0.985 -0.3298 -0.9609 -1.7876
 4415TIP3    H213252   0.368   2.290   1.004 -0.4618 -0.5708  0.2535
 4416TIP3   OH213253   3.863   3.827   4.055  0.0881  0.4841  0.2361
 4416TIP3    H113254   3.809   3.867   4.123  2.1371  0.5206  1.9704
 4416TIP3    H213255   3.858   3.733   4.072 -1.7060  0.2045 -1.4738
 4417TIP3   OH213256   4.337   0.808   1.795  0.9085  0.2265  0.5013
 4417TIP3    H113257   4.408   0.786   1.856 -1.2511 -1.0276  2.7657
 4417TIP3    H213258   4.285   0.873   1.841 -0.3415 -0.1314 -0.3620
 4418TIP3   OH213259   1.257   5.153   1.525 -0.2078  0.4027 -0.2047
 4418TIP3    H113260   1.206   5.225   1.488  0.1080  1.2282  0.9076
 4418TIP3    H213261   1.348   5.180   1.514  0.0628 -1.1253 -2.3030
 4419TIP3   OH213262   4.946   1.933   4.303 -0.6116 -0.0920  0.1430
 4419TIP3    H113263   4.991   1.849   4.299  1.3995  0.8487  1.2328
 4419TIP3    H213264   4.909   1.936   4.392 -0.5367  0.2362  0.1642
 4420TIP3   OH213265   2.503   3.903   2.098  0.2336  0.5160  0.5100
 4420TIP3    H113266   2.494   3.808   2.102  2.1199  0.2988  0.3071
 4420TIP3    H213267   2.546   3.920   2.014  0.6262  1.4732  0.8908
 4421TIP3   OH213268   2.416   5.122   1.398  0.2292  0.2259 -0.7804
 4421TIP3    H113269   2.411   5.192   1.463 -2.6068  0.4327 -1.0733
 4421TIP3    H213270   2.402   5.042   1.448  0.7466  0.1351 -0.7848
 4422TIP3   OH213271   1.033   2.435   0.442 -0.3733  0.0831 -0.0635
 4422TIP3    H113272   1.020   2.360   0.384  1.2013 -0.4470  0.2166
 4422TIP3    H213273   1.089   2.403   0.512 -1.0950  1.0841  1.0292
 4423TIP3   OH213274   4.500   3.203   3.057  0.3280  0.3439 -0.1738
 4423TIP3    H113275   4.532   3.259   3.127  0.4355  1.9592 -1.4657
 4423TIP3    H213276   4.425   3.250   3.021  0.4636 -0.3044 -1.3471
 4424TIP3   OH213277   2.527   1.643   2.629  0.3309  0.4390 -0.1215
 4424TIP3    H113278   2.574   1.560   2.641  1.3595  0.6151 -2.3951
 4424TIP3    H213279   2.596   1.707   2.609 -0.5886  1.5066  0.0344
 4425TIP3   OH213280   4.759   4.446   1.080  0.4004 -0.0938  0.4118
 4425TIP3    H113281   4.688   4.497   1.119 -0.5362 -0.3009 -0.9696
 4425TIP3    H213282   4.817   4.511   1.041 -0.5081 -0.0391 -0.8772
 4426TIP3   OH213283   3.879   2.849   3.114 -0.1309  0.4907  0.0542
 4426TIP3    H113284   3.919   2.768   3.081 -3.1910 -0.2552 -2.2498
 4426TIP3    H213285   3.903   2.915   3.050  0.2406  0.8561  0.5617
 4427TIP3   OH213286   4.134   4.502   4.678 -0.3824 -0.7473 -0.1974
 4427TIP3    H113287   4.197   4.464   4.739 -2.2925 -1.3977  1.4941
 4427TIP3    H213288   4.085   4.427   4.645 -1.0154 -0.1720 -0.5799
 4428TIP3   OH213289   4.921   4.294   1.545  0.0239 -0.4061  0.3512
 4428TIP3    H113290   4.896   4.203   1.531  1.0340 -0.7590  0.7512
 4428TIP3    H213291   4.919   4.306   1.640  1.3772 -0.4791  0.4176
 4429TIP3   OH213292   0.829   1.470   3.579 -0.5509 -0.1358  0.0879
 4429TIP3    H113293   0.917   1.437   3.559  1.6127  3.7983  1.8750
 4429TIP3    H213294   0.789   1.485   3.494  2.3638  2.0495 -1.0652
 4430TIP3   OH213295   0.618   3.340   3.979  0.1842  0.4019  0.0139
 4430TIP3    H113296   0.575   3.318   3.897  2.1228 -0.0815 -0.9210
 4430TIP3    H213297   0.615   3.436   3.983 -0.2536  0.4077 -0.4247
 4431TIP3   OH213298   5.056   4.866   2.280 -0.1049  0.1297  0.1266
 4431TIP3    H113299   5.112   4.838   2.353  1.5912  0.5554 -0.9319
 4431TIP3    H213300   5.086   4.955   2.261  0.0184 -0.2370 -1.5316
 4432TIP3   OH213301   2.835   5.505   1.425  0.9049  0.0110  0.6760
 4432TIP3    H113302   2.884   5.584   1.448  0.6415  0.4097 -0.0769
 4432TIP3    H213303   2.875   5.475   1.343 -0.4479  0.6745 -0.2710
 4433TIP3   OH213304   1.989   2.362   4.840 -0.3417  0.7623  0.0140
 4433TIP3    H113305   2.015   2.441   4.887  1.8732 -0.2017  0.5577
 4433TIP3    H213306   2.070   2.331   4.799 -0.4991 -2.4950  1.8326
 4434TIP3   OH213307   5.806   4.377   2.073  0.0413  0.0643 -0.6163
 4434TIP3    H113308   5.757   4.418   2.003  0.2738  0.7748 -0.3769
 4434TIP3    H213309   5.836   4.294   2.037 -1.3395 -0.3937 -0.7517
 4435TIP3   OH213310   5.696   5.146   2.862 -0.2011 -0.3464  0.0725
 4435TIP3    H113311   5.773   5.089   2.858  0.0502  0.0036 -0.1927
 4435TIP3    H213312   5.644   5.120   2.786  0.3140  0.3288 -0.5262
 4436TIP3   OH213313   5.844   4.980   1.127 -0.3707  0.2687 -0.7224
 4436TIP3    H113314   5.790   4.902   1.139 -1.9025  1.1199 -1.6752
 4436TIP3    H213315   5.802   5.046   1.182  0.7784  0.4908 -0.0922
 4437TIP3   OH213316   5.215   4.994   2.573 -1.0016 -0.5062 -0.2405
 4437TIP3    H113317   5.294   4.939   2.581 -0.7334 -0.4216 -1.9206
 4437TIP3    H213318   5.174   4.989   2.659  0.8004 -0.6070  0.6729
 4438TIP3   OH213319   5.325   1.861   1.620 -0.0143  0.1829  0.4907
 4438TIP3    H113320   5.259   1.924   1.651  1.4581  1.3063  1.4748
 4438TIP3    H213321   5.349   1.894   1.533 -1.1117 -0.5650 -0.1313
 4439TIP3   OH213322   4.014   1.940   2.519  0.2054 -0.2666  0.0457
 4439TIP3    H113323   3.997   1.935   2.425 -0.4892 -0.4445  0.1753
 4439TIP3    H213324   4.085   2.004   2.528  0.2041 -0.1738 -0.5876
 4440TIP3   OH213325   4.049   1.690   5.009 -0.0059 -0.6728 -0.1796
 4440TIP3    H113326   3.955   1.682   5.029  0.0346 -2.2738 -0.5023
 4440TIP3    H213327   4.060   1.782   4.985 -1.4095 -0.3501  0.2673
 4441TIP3   OH213328   0.355   3.101   1.526  0.0266 -0.0820  0.3621
 4441TIP3    H113329   0.319   3.183   1.561 -2.3862 -0.9498  0.1073
 4441TIP3    H213330   0.281   3.060   1.480  1.3686 -2.0502 -0.1651
 4442TIP3   OH213331   2.083   4.860   2.579  0.0731 -0.0937  0.9123
 4442TIP3    H113332   2.103   4.828   2.491  1.7817 -1.4679  1.7417
 4442TIP3    H213333   2.028   4.937   2.565 -0.9871 -1.1717 -1.2966
 4443TIP3   OH213334   1.236   3.503   0.840  0.5239 -0.7945 -0.4507
 4443TIP3    H113335   1.144   3.527   0.827  0.4032 -1.8466 -1.7087
 4443TIP3    H213336   1.285   3.561   0.782  1.2057  2.9198  3.3337
 4444TIP3   OH213337   3.486   2.825   1.867  0.3279 -0.3056  0.7726
 4444TIP3    H113338   3.550   2.764   1.829  1.7756  1.7237 -0.2480
 4444TIP3    H213339   3.409   2.772   1.883  1.4843 -2.3828 -0.1274
 4445TIP3   OH213340   6.281   4.101   2.434  0.2016 -0.8077  0.3662
 4445TIP3    H113341   6.256   4.012   2.459 -1.6876 -0.2833  0.4798
 4445TIP3    H213342   6.227   4.120   2.357  0.2456  0.3888  0.6170
 4446TIP3   OH213343   2.786   1.429   3.640  0.3537 -0.4028 -0.1056
 4446TIP3    H113344   2.749   1.477   3.565 -0.5755  0.0807  0.6510
 4446TIP3    H213345   2.713   1.376   3.673  0.6352 -0.2612  0.7477
 4447TIP3   OH213346   5.026   0.440   1.366  0.1102  0.2105  0.7129
 4447TIP3    H113347   4.990   0.477   1.447 -1.2823  1.2002 -0.3180
 4447TIP3    H213348   4.950   0.428   1.309  1.1507  0.2302 -0.7308
 4448TIP3   OH213349   2.464   5.215   0.795  0.2732  0.2554 -0.7692
 4448TIP3    H113350   2.449   5.136   0.847  1.9624  1.0172  1.0178
 4448TIP3    H213351   2.485   5.184   0.708  1.5244 -1.3397  0.0524
 4449TIP3   OH213352   2.374   0.161   2.269 -0.2108 -0.0368 -0.3313
 4449TIP3    H113353   2.292   0.111   2.263  0.6359 -1.3206 -2.4429
 4449TIP3    H213354   2.346   0.251   2.282 -2.0045 -0.4127 -1.2488
 4450TIP3   OH213355   3.466   4.132   0.422  0.2838  0.2182 -0.2289
 4450TIP3    H113356   3.420   4.212   0.448 -1.6247 -0.7244 -0.5364
 4450TIP3    H213357   3.404   4.061   0.440  2.0647 -1.2783  0.4177
 4451TIP3   OH213358   2.330   5.932   4.910 -0.0472  0.1852 -0.0124
 4451TIP3    H113359   2.355   6.003   4.969 -0.7529  1.3202 -1.0168
 4451TIP3    H213360   2.376   5.952   4.828 -0.8959 -0.0379 -0.5562
 4452TIP3   OH213361   2.223   2.687   2.706 -0.1674 -0.7158  1.0678
 4452TIP3    H113362   2.248   2.684   2.798  1.3132 -1.2117  0.6745
 4452TIP3    H213363   2.283   2.751   2.667 -1.5665  0.3901  0.6541
 4453TIP3   OH213364   0.732   1.895   3.220  0.0464  0.2048 -0.4958
 4453TIP3    H113365   0.826   1.877   3.215  0.1011 -0.1480  1.2926
 4453TIP3    H213366   0.691   1.816   3.184  0.4293 -0.0597 -0.3633
 4454TIP3   OH213367   3.300   1.315   4.871  0.2204 -0.1550  0.3008
 4454TIP3    H113368   3.263   1.234   4.905 -0.3773 -1.5142 -3.1792
 4454TIP3    H213369   3.244   1.384   4.907 -2.0171 -1.6615 -0.0995
 4455TIP3   OH213370   0.060   1.522   3.485  0.2454 -0.4255  0.7016
 4455TIP3    H113371  -0.019   1.539   3.537 -0.5587 -1.2789 -0.2012
 4455TIP3    H213372   0.109   1.458   3.536 -0.6821 -1.4848  0.3033
 4456TIP3   OH213373   6.182   1.585   3.626  0.8603  0.0816  0.0429
 4456TIP3    H113374   6.134   1.503   3.610  1.3298 -0.0247 -0.8870
 4456TIP3    H213375   6.113   1.652   3.631  0.5157 -0.2770  0.1814
 4457TIP3   OH213376   4.113   5.939   3.295  0.3599 -0.2316  0.3202
 4457TIP3    H113377   4.167   5.879   3.346  0.8725 -0.5370 -0.5619
 4457TIP3    H213378   4.078   5.886   3.223 -2.5172 -0.4802  1.7568
 4458TIP3   OH213379   0.978   1.992   4.317 -0.2002  0.2592 -0.1023
 4458TIP3    H113380   1.068   1.962   4.311 -0.5811 -0.7936 -0.9874
 4458TIP3    H213381   0.979   2.079   4.277  1.0698  1.9285  3.2027
 4459TIP3   OH213382   0.598   5.546   5.135  0.2527 -0.1580 -0.1796
 4459TIP3    H113383   0.672   5.529   5.193  0.2119  1.9190  0.5810
 4459TIP3    H213384   0.633   5.537   5.046  0.4140 -2.9772  0.0672
 4460TIP3   OH213385   6.326   3.206   1.558  0.1547  0.0144  0.1631
 4460TIP3    H113386   6.382   3.269   1.514 -0.3237  0.9838  0.9189
 4460TIP3    H213387   6.239   3.245   1.557 -0.1049 -0.5242  0.8403
 4461TIP3   OH213388   4.530   1.601   5.014  0.0768 -0.1163  0.7815
 4461TIP3    H113389   4.543   1.675   4.955  0.9191 -1.0829 -0.2817
 4461TIP3    H213390   4.617   1.578   5.044 -0.1066 -1.0453  0.6303
 4462TIP3   OH213391   4.300   5.512   4.752  0.1455 -0.6739  0.1928
 4462TIP3    H113392   4.226   5.548   4.703  1.8639  1.1778 -1.2189
 4462TIP3    H213393   4.276   5.524   4.844 -1.3021 -0.1174 -0.2269
 4463TIP3   OH213394   5.802   3.330   4.650 -0.7106  0.0007 -0.0475
 4463TIP3    H113395   5.871   3.327   4.717 -0.7674  1.4053  0.0992
 4463TIP3    H213396   5.746   3.403   4.676 -0.9809  0.2984 -1.3876
 4464TIP3   OH213397   2.708   0.822   0.473  0.5221  0.2041 -0.8596
 4464TIP3    H113398   2.670   0.848   0.557  2.5604  0.3355  0.0623
 4464TIP3    H213399   2.636   0.834   0.410 -0.3457  2.5111  0.4441
 4465TIP3   OH213400   5.471   0.778   2.011  0.0940 -0.4757  0.4921
 4465TIP3    H113401   5.453   0.855   1.957 -2.8967 -2.1369 -1.1775
 4465TIP3    H213402   5.409   0.786   2.084  0.5025 -0.7791  0.8720
 4466TIP3   OH213403   4.538   5.108   4.982 -0.1648  0.4455  0.0838
 4466TIP3    H113404   4.537   5.110   5.077  1.0630 -0.7430  0.1412
 4466TIP3    H213405   4.455   5.067   4.958 -0.5880  0.9693  0.6193
 4467TIP3   OH213406   1.000   0.159   4.757  0.1676  0.2812  0.0433
 4467TIP3    H113407   1.030   0.169   4.848  0.7459 -1.1046  0.0346
 4467TIP3    H213408   1.078   0.177   4.705 -0.3011  1.6217 -0.2240
 4468TIP3   OH213409   1.742   5.809   2.099 -0.3803 -0.1451  0.2087
 4468TIP3    H113410   1.783   5.771   2.021  1.2513 -1.1785  1.5119
 4468TIP3    H213411   1.670   5.749   2.120 -2.0538  1.1082 -1.4649
 4469TIP3   OH213412   4.920   1.780   0.598 -0.3623 -0.5907 -0.2113
 4469TIP3    H113413   4.857   1.838   0.643  0.4072  0.6419 -0.6661
 4469TIP3    H213414   4.916   1.698   0.646 -2.8305 -0.7912 -0.6361
 4470TIP3   OH213415   1.910   4.802   2.827 -0.0723 -0.1883 -0.6864
 4470TIP3    H113416   1.841   4.828   2.766 -0.8685 -0.7070 -0.0182
 4470TIP3    H213417   1.890   4.711   2.848  1.6712 -0.8417 -1.6283
 4471TIP3   OH213418   3.414   0.006   1.142 -0.9114 -0.3517  0.4208
 4471TIP3    H113419   3.349   0.022   1.210 -0.6342  0.1604  0.5675
 4471TIP3    H213420   3.494  -0.016   1.189 -0.7865 -0.2483  0.2584
 4472TIP3   OH213421   6.291   2.402   1.834  0.5163 -0.2411 -0.2424
 4472TIP3    H113422   6.367   2.376   1.885 -0.8899 -0.7096  1.7009
 4472TIP3    H213423   6.325   2.419   1.746  2.6988 -1.2209  0.3780
 4473TIP3   OH213424   1.230   2.934   3.951  0.7391  0.8827  0.1920
 4473TIP3    H113425   1.142   2.910   3.921  0.9356  1.6209 -1.0701
 4473TIP3    H213426   1.239   3.026   3.928  2.2152  0.5614 -0.6735
 4474TIP3   OH213427   1.630   5.533   3.287  0.8550 -0.1730  0.3225
 4474TIP3    H113428   1.555   5.477   3.306  0.0926  0.8547  0.4538
 4474TIP3    H213429   1.702   5.472   3.273 -0.1235 -1.2153 -0.3879
 4475TIP3   OH213430   1.131   4.600   3.598  0.2692  0.0553 -0.3189
 4475TIP3    H113431   1.175   4.681   3.570 -1.0178  0.3665 -1.5020
 4475TIP3    H213432   1.180   4.573   3.676  0.5415  2.1551  0.3018
 4476TIP3   OH213433   1.078   4.517   4.912  0.1103  0.1601  0.1440
 4476TIP3    H113434   1.082   4.575   4.836 -1.0036  0.1622  0.0711
 4476TIP3    H213435   0.984   4.506   4.928  0.3256 -0.7698  0.8049
 4477TIP3   OH213436   1.853   1.802   0.255 -0.1594 -0.3465  0.2401
 4477TIP3    H113437   1.815   1.853   0.184  0.2347  1.1990  1.0888
 4477TIP3    H213438   1.919   1.861   0.294 -0.4899 -1.0715  1.9878
 4478TIP3   OH213439   2.303   4.787   4.909  0.5029 -0.3025 -0.6691
 4478TIP3    H113440   2.378   4.824   4.956  0.9254  0.1249 -1.6435
 4478TIP3    H213441   2.297   4.697   4.940 -0.7410  0.5864  2.0250
 4479TIP3   OH213442   1.690   4.213   3.201  0.5446  0.0129 -0.1656
 4479TIP3    H113443   1.718   4.298   3.237  1.2591  0.0327 -0.7478
 4479TIP3    H213444   1.724   4.149   3.263  0.0149  0.1387  0.2699
 4480TIP3   OH213445   0.788   1.910   0.838  0.1520  0.5440  0.4051
 4480TIP3    H113446   0.874   1.879   0.868 -0.5269 -1.4097  0.4995
 4480TIP3    H213447   0.780   1.998   0.874  0.1876 -0.9039  4.5036
 4481TIP3   OH213448   4.137   2.884   2.393 -0.5365 -0.5382 -0.1681
 4481TIP3    H113449   4.063   2.943   2.385 -0.4810 -0.4376  0.0516
 4481TIP3    H213450   4.170   2.899   2.482 -1.3055 -1.8054  0.3652
 4482TIP3   OH213451   3.958   4.734   4.616  0.5796 -0.5675  0.1533
 4482TIP3    H113452   3.943   4.682   4.538 -0.8638 -0.5987  0.4281
 4482TIP3    H213453   4.043   4.704   4.650  0.5819 -1.4856 -0.6510
 4483TIP3   OH213454   3.988   4.218   0.221 -0.5288  0.2170 -0.1275
 4483TIP3    H113455   4.010   4.136   0.177 -1.0016 -0.3519  0.6651
 4483TIP3    H213456   3.936   4.191   0.297  1.9451  0.9315  1.9915
 4484TIP3   OH213457   2.372   4.368   0.927  0.0748  1.0483 -0.6457
 4484TIP3    H113458   2.329   4.332   1.005  1.4643  0.3891 -0.1534
 4484TIP3    H213459   2.366   4.299   0.862 -0.3874  1.2999 -0.8760
 4485TIP3   OH213460   5.716   2.830   0.647  0.3106  0.1960 -0.8057
 4485TIP3    H113461   5.640   2.866   0.692 -1.1223 -3.6794  0.2777
 4485TIP3    H213462   5.711   2.735   0.662  3.9521 -0.5507 -2.8986
 4486TIP3   OH213463   4.066   1.737   3.133 -0.6544 -0.2251  0.2183
 4486TIP3    H113464   4.031   1.653   3.163  0.5913 -0.8170  0.0738
 4486TIP3    H213465   4.029   1.801   3.193  0.2601 -1.1551  1.8366
 4487TIP3   OH213466   0.083   0.057   4.617 -0.0108 -0.0399  0.7834
 4487TIP3    H113467   0.027   0.121   4.663 -1.4301 -1.1298  0.6311
 4487TIP3    H213468   0.097   0.096   4.531 -0.3863  0.3410  0.8860
 4488TIP3   OH213469   6.043   2.530   3.881 -0.4679 -0.0423  0.0516
 4488TIP3    H113470   6.009   2.619   3.895  1.3191  0.5032  1.1767
 4488TIP3    H213471   6.069   2.500   3.968  0.3925 -1.0621 -0.5381
 4489TIP3   OH213472   0.157   3.393   3.613 -0.0951  0.3237  0.2040
 4489TIP3    H113473   0.102   3.375   3.536 -0.1706 -0.6020  0.4661
 4489TIP3    H213474   0.196   3.479   3.595  0.8283 -0.3939 -1.4118
 4490TIP3   OH213475   3.888   1.476   1.757  0.5150 -0.2192  0.0213
 4490TIP3    H113476   3.854   1.543   1.816 -0.8771 -1.2313  0.4101
 4490TIP3    H213477   3.884   1.517   1.670 -0.3964  0.1875  0.2410
 4491TIP3   OH213478   5.762   4.906   4.358 -0.1645  0.3516  0.0598
 4491TIP3    H113479   5.806   4.821   4.363 -0.0106  0.4276 -0.0020
 4491TIP3    H213480   5.686   4.897   4.415  0.4190  0.5132  0.8730
 4492TIP3   OH213481   3.435   2.757   2.462  0.1309  0.7583  0.4703
 4492TIP3    H113482   3.499   2.811   2.417  0.5139 -0.2478 -0.2379
 4492TIP3    H213483   3.405   2.695   2.395  1.6309 -1.5993  1.8472
 4493TIP3   OH213484   3.418   2.383   1.900  0.0114 -0.1645 -0.3565
 4493TIP3    H113485   3.451   2.351   1.984 -0.1509 -1.8646 -0.8995
 4493TIP3    H213486   3.327   2.408   1.918  0.4191  0.8917  0.2898
 4494TIP3   OH213487   4.987   0.019   2.791 -0.2983 -0.0612 -0.1928
 4494TIP3    H113488   4.905   0.022   2.743  0.2955 -1.8942 -1.4429
 4494TIP3    H213489   5.055   0.011   2.724  1.1494  3.0971  0.6768
 4495TIP3   OH213490   3.317   0.881   3.437 -0.4979  0.5803 -0.0725
 4495TIP3    H113491   3.274   0.921   3.362  1.2426  0.5300 -1.1491
 4495TIP3    H213492   3.248   0.871   3.502 -1.9886  0.9174 -1.5453
 4496TIP3   OH213493   0.468   5.418   4.378  0.4930 -0.3540 -0.1803
 4496TIP3    H113494   0.519   5.452   4.451  1.4723  0.6537 -1.2981
 4496TIP3    H213495   0.461   5.324   4.396  3.6240 -0.7359 -0.4814
 4497TIP3   OH213496   3.986   4.064   1.409 -0.3321  0.3151 -0.5557
 4497TIP3    H113497   3.978   4.018   1.492  1.4057  1.4141  0.2905
 4497TIP3    H213498   3.948   4.151   1.426 -0.0557  0.5145 -0.9385
 4498TIP3   OH213499   2.247   5.671   4.529 -0.6231 -0.8314  0.0687
 4498TIP3    H113500   2.274   5.763   4.527 -2.5861 -0.2174  0.1403
 4498TIP3    H213501   2.312   5.629   4.586  1.1251  0.1902 -1.0823
 4499TIP3   OH213502   2.732   1.931   0.371 -0.4913 -0.1513  0.5306
 4499TIP3    H113503   2.644   1.969   0.368 -1.0288 -1.3346 -2.3832
 4499TIP3    H213504   2.791   2.005   0.353 -1.0931  0.2553  0.1864
 4500TIP3   OH213505   4.171   1.658   1.245  0.1680  0.1710  0.6990
 4500TIP3    H113506   4.248   1.606   1.264 -0.3689 -0.1475  2.0710
 4500TIP3    H213507   4.125   1.609   1.176 -0.0349 -0.8895  1.5660
 4501TIP3   OH213508   5.382   5.218   3.689 -0.5600  0.5481 -0.2578
 4501TIP3    H113509   5.368   5.272   3.611  1.2752 -0.5777 -1.4360
 4501TIP3    H213510   5.442   5.270   3.743 -1.3429  1.0621  0.1272
 4502TIP3   OH213511   6.065   4.716   3.560 -0.1110  0.5966 -0.1891
 4502TIP3    H113512   6.101   4.765   3.633  1.4151  0.8507 -1.0708
 4502TIP3    H213513   6.134   4.718   3.493 -0.6213 -1.3874 -0.8526
 4503TIP3   OH213514   3.665   1.877   2.801 -0.5526 -0.0994  0.4145
 4503TIP3    H113515   3.721   1.833   2.864 -0.4587 -1.0737 -0.3293
 4503TIP3    H213516   3.583   1.892   2.848  0.3998  1.6957  1.6413
 4504TIP3   OH213517   2.686   1.308   1.528 -0.0685  0.1548  1.0163
 4504TIP3    H113518   2.637   1.246   1.473 -1.5251  2.3207 -0.3035
 4504TIP3    H213519   2.777   1.299   1.499 -0.7255  0.8953 -1.5564
 4505TIP3   OH213520   3.798   5.693   3.242 -0.3731  0.6809  0.2696
 4505TIP3    H113521   3.827   5.770   3.290 -1.1878  0.9815  0.3003
 4505TIP3    H213522   3.755   5.638   3.308  0.9611 -0.2143  0.4196
 4506TIP3   OH213523   0.129   5.675   1.279 -0.0486 -0.0667 -0.5036
 4506TIP3    H113524   0.121   5.586   1.315  0.2230  0.3460  0.6310
 4506TIP3    H213525   0.168   5.663   1.193  2.3565 -0.9139  0.6097
 4507TIP3   OH213526   0.338   2.495   4.293 -0.2912 -0.1539 -0.0002
 4507TIP3    H113527   0.394   2.431   4.250  0.4139  0.5509 -0.1365
 4507TIP3    H213528   0.280   2.527   4.224 -0.7426 -0.7405  0.0995
 4508TIP3   OH213529   2.805   1.167   0.347  0.1231 -0.3412  0.4943
 4508TIP3    H113530   2.752   1.247   0.339  0.5245 -0.0671  0.5148
 4508TIP3    H213531   2.782   1.115   0.270  1.6656  0.8935 -0.8644
 4509TIP3   OH213532   1.025   4.988   4.120  0.0245 -0.3268  0.1104
 4509TIP3    H113533   0.947   4.942   4.090 -0.6987  0.0719  1.3344
 4509TIP3    H213534   1.058   4.936   4.193  0.1236  0.2178  0.4641
 4510TIP3   OH213535   3.049   1.999   1.419  0.0720 -0.1205  0.5071
 4510TIP3    H113536   2.971   1.944   1.415 -0.0469  0.1001 -0.3014
 4510TIP3    H213537   3.059   2.020   1.512 -2.5877  2.3428  0.3594
 4511TIP3   OH213538   0.132   0.583   3.375  0.4001  0.1801 -0.2379
 4511TIP3    H113539   0.195   0.650   3.400  0.1298 -0.1485  1.4333
 4511TIP3    H213540   0.165   0.502   3.415  0.6274 -0.6793 -2.0566
 4512TIP3   OH213541   4.751   2.147   4.487 -0.1147 -0.1605  0.0376
 4512TIP3    H113542   4.764   2.124   4.579 -1.6340  0.7923  0.5419
 4512TIP3    H213543   4.839   2.160   4.452  0.4634  1.0963  1.8153
 4513TIP3   OH213544   6.279   3.769   0.103 -0.5002 -0.5855 -0.3740
 4513TIP3    H113545   6.246   3.842   0.156 -0.6082 -0.3398 -0.7817
 4513TIP3    H213546   6.223   3.768   0.026 -0.0581 -0.6660 -0.6947
 4514TIP3   OH213547   4.696   3.751   1.568  0.4049 -0.1996 -0.2428
 4514TIP3    H113548   4.773   3.696   1.580  1.8700  1.7603 -0.0425
 4514TIP3    H213549   4.704   3.818   1.637 -0.5285  1.0485 -1.2971
 4515TIP3   OH213550   4.491   0.478   2.256 -0.3528 -0.3648 -0.1646
 4515TIP3    H113551   4.550   0.432   2.316 -3.3537 -2.2062  1.6460
 4515TIP3    H213552   4.460   0.553   2.306 -0.4784 -0.1154 -0.6142
 4516TIP3   OH213553   2.993   1.415   3.985 -0.2323  0.2916  0.4483
 4516TIP3    H113554   2.996   1.466   3.904  2.6593  0.0601  0.2977
 4516TIP3    H213555   3.040   1.469   4.049  3.0448 -2.0194  0.2462
 4517TIP3   OH213556   2.736   5.688   2.296 -0.5982 -0.1222 -0.0771
 4517TIP3    H113557   2.752   5.594   2.300 -0.5793 -0.0878  0.9721
 4517TIP3    H213558   2.743   5.710   2.203  1.0835 -0.8583 -0.1473
 4518TIP3   OH213559   5.737   5.406   2.927 -0.6675 -0.2823  0.0879
 4518TIP3    H113560   5.727   5.311   2.937 -2.3271 -0.5326 -2.9623
 4518TIP3    H213561   5.650   5.441   2.943 -0.8093  0.3475 -1.8713
 4519TIP3   OH213562   0.047   5.156   3.688 -0.1877  0.3354  0.0158
 4519TIP3    H113563   0.064   5.074   3.641  0.7860  0.8033 -0.4805
 4519TIP3    H213564  -0.036   5.187   3.653  0.3516  0.5016 -1.1618
 4520TIP3   OH213565   4.448   2.562   4.454 -0.4923 -0.0782 -0.7014
 4520TIP3    H113566   4.482   2.472   4.452  1.0874  0.4626 -2.9879
 4520TIP3    H213567   4.439   2.585   4.362  1.0694  2.7785 -0.2371
 4521TIP3   OH213568   3.555   1.774   3.674 -0.0594 -0.3898  0.6681
 4521TIP3    H113569   3.484   1.749   3.615 -2.1099  1.2185  2.2806
 4521TIP3    H213570   3.554   1.869   3.674  3.0876 -0.2398 -0.2538
 4522TIP3   OH213571   3.902   1.128   3.862  0.5549  0.1809 -0.3921
 4522TIP3    H113572   3.956   1.136   3.941  0.6263 -0.8479 -0.3206
 4522TIP3    H213573   3.841   1.201   3.868  0.7698  0.3095  0.4498
 4523TIP3   OH213574   2.063   5.329   3.892  0.0890 -0.2275 -0.1413
 4523TIP3    H113575   2.046   5.289   3.807 -0.2392  2.2523 -1.3067
 4523TIP3    H213576   2.158   5.345   3.892 -0.0756  0.7903 -0.5333
 4524TIP3   OH213577   1.744   5.905   2.702  0.0600  0.0864 -0.1554
 4524TIP3    H113578   1.814   5.852   2.741  0.5418  0.6465 -0.2463
 4524TIP3    H213579   1.727   5.865   2.617  1.3181  0.8338 -0.7763
 4525TIP3   OH213580   3.882   1.376   5.042 -0.2267 -0.2531  0.3384
 4525TIP3    H113581   3.860   1.463   5.074  1.9604 -0.1225  1.7074
 4525TIP3    H213582   3.972   1.384   5.012 -0.4482 -1.7393 -0.8423
 4526TIP3   OH213583   4.466   4.532   1.951 -0.1279 -0.4055 -0.7168
 4526TIP3    H113584   4.486   4.465   2.017 -0.9494 -1.2602 -1.3187
 4526TIP3    H213585   4.391   4.498   1.904 -0.1703  0.6636 -1.4583
 4527TIP3   OH213586   2.533   3.941   3.624  0.0459 -0.2266 -0.1247
 4527TIP3    H113587   2.577   3.864   3.659 -0.5978 -0.8627 -0.6689
 4527TIP3    H213588   2.448   3.908   3.595 -0.2386  0.6936 -0.3665
 4528TIP3   OH213589   2.440   5.317   2.542 -0.2699 -0.1359  0.1427
 4528TIP3    H113590   2.354   5.282   2.565 -0.7577  1.1797  0.4003
 4528TIP3    H213591   2.431   5.345   2.451 -0.1493  0.1238  0.2099
 4529TIP3   OH213592   4.752   4.891   2.575 -0.5195 -0.3545  0.1365
 4529TIP3    H113593   4.843   4.897   2.605 -0.5288 -1.3271  0.3933
 4529TIP3    H213594   4.758   4.863   2.484 -0.5617 -0.4261  0.1556
 4530TIP3   OH213595   6.209   0.520   3.860  0.4777  0.2603  0.5407
 4530TIP3    H113596   6.295   0.561   3.848  1.1132 -1.5808 -2.0877
 4530TIP3    H213597   6.162   0.540   3.779 -0.0232 -2.1625  0.1865
 4531TIP3   OH213598   3.377   3.141   4.919 -0.1913 -0.7199 -0.2062
 4531TIP3    H113599   3.412   3.095   4.996  0.2491 -1.5342 -0.8878
 4531TIP3    H213600   3.352   3.227   4.953 -1.9893 -1.7553  1.3364
 4532TIP3   OH213601   2.385   0.177   0.688 -0.1031  0.2017 -0.0787
 4532TIP3    H113602   2.346   0.224   0.614 -0.1960 -0.7004 -0.6216
 4532TIP3    H213603   2.444   0.240   0.728 -0.3195  0.8210 -0.7090
 4533TIP3   OH213604   3.070   3.343   4.626 -0.2370 -0.2602  0.1072
 4533TIP3    H113605   3.058   3.291   4.705 -0.2148  0.4172  0.5632
 4533TIP3    H213606   3.160   3.323   4.598 -0.5127 -1.1109 -0.2083
 4534TIP3   OH213607   0.012   3.748   4.485  0.3244 -0.7583  0.3751
 4534TIP3    H113608  -0.042   3.720   4.558 -1.5775  0.3274 -0.5243
 4534TIP3    H213609   0.057   3.826   4.517 -0.1243 -0.5722  0.5682
 4535TIP3   OH213610   1.639   0.304   1.551 -0.4260 -0.4767 -0.3824
 4535TIP3    H113611   1.654   0.383   1.500  0.5825  0.0610  0.7121
 4535TIP3    H213612   1.709   0.244   1.524  0.0046 -0.2550  0.2204
 4536TIP3   OH213613   1.326   1.275   2.187  0.4859 -0.0584  0.2934
 4536TIP3    H113614   1.255   1.283   2.251 -0.1733  2.1371 -0.6026
 4536TIP3    H213615   1.289   1.310   2.106  1.8373 -1.1932 -0.8659
 4537TIP3   OH213616   2.738   5.243   1.425  0.8144 -0.3758 -0.2700
 4537TIP3    H113617   2.659   5.226   1.375 -0.1851 -0.1139  1.1723
 4537TIP3    H213618   2.756   5.336   1.410  0.9416 -0.4723 -0.7229
 4538TIP3   OH213619   0.942   4.171   4.418 -0.1521  0.1859 -0.1478
 4538TIP3    H113620   0.950   4.089   4.368  0.3647 -0.6028  1.1976
 4538TIP3    H213621   0.847   4.182   4.429 -0.2601  0.2021 -1.0082
 4539TIP3   OH213622   5.467   2.725   2.803  0.0417 -0.2096 -0.5515
 4539TIP3    H113623   5.441   2.777   2.878 -1.9109 -1.1561 -0.5142
 4539TIP3    H213624   5.520   2.654   2.840 -0.2349 -0.2205 -0.1748
 4540TIP3   OH213625   5.545   2.064   3.084  0.2794 -0.5529  0.5538
 4540TIP3    H113626   5.525   2.120   3.159 -2.3038  0.7904 -0.9946
 4540TIP3    H213627   5.492   1.986   3.098 -1.1589  0.2090 -0.3644
 4541TIP3   OH213628   0.382   4.887   0.259 -0.2089  0.6273  0.0090
 4541TIP3    H113629   0.434   4.965   0.280  0.7617  0.1864 -0.7256
 4541TIP3    H213630   0.302   4.899   0.310 -0.3867  2.4492 -0.6055
 4542TIP3   OH213631   5.093   5.863   2.770  0.2047  0.6954 -0.1493
 4542TIP3    H113632   5.088   5.948   2.813 -0.4068  0.5848 -0.0014
 4542TIP3    H213633   5.184   5.836   2.782  0.4233  1.3535 -0.2518
 4543TIP3   OH213634   3.071   0.100   2.212 -0.4399 -0.2991  0.0462
 4543TIP3    H113635   3.127   0.100   2.290  0.3221  1.9997 -0.4435
 4543TIP3    H213636   3.131   0.100   2.138 -1.1590 -1.6688 -0.5876
 4544TIP3   OH213637   1.400   3.067   3.386  0.5346 -0.2189  0.0291
 4544TIP3    H113638   1.381   3.101   3.298  1.2260  0.2329  0.0429
 4544TIP3    H213639   1.429   3.144   3.435  1.2474 -0.6602  0.3278
 4545TIP3   OH213640   0.592   1.906   1.479  0.0152  0.0630  0.5055
 4545TIP3    H113641   0.553   1.867   1.401  1.4002 -1.8914  0.6927
 4545TIP3    H213642   0.583   2.000   1.467 -1.4488 -0.2376 -1.1149
 4546TIP3   OH213643   1.715   3.616   0.417 -0.2952  0.1389 -0.2310
 4546TIP3    H113644   1.684   3.700   0.453 -0.7322 -0.3164  0.4823
 4546TIP3    H213645   1.635   3.564   0.406  0.0109 -0.3152 -0.3090
 4547TIP3   OH213646   2.648   3.843   4.227 -0.8566  0.1034 -0.0701
 4547TIP3    H113647   2.557   3.833   4.252 -0.4716  1.3409  2.0201
 4547TIP3    H213648   2.694   3.773   4.273 -0.4376  0.9959  0.8883
 4548TIP3   OH213649   6.009   2.286   4.408  0.4002 -0.1772 -0.4298
 4548TIP3    H113650   6.066   2.362   4.403  1.8277 -1.2165 -0.4654
 4548TIP3    H213651   6.068   2.211   4.419 -0.9305 -1.3265 -0.7103
 4549TIP3   OH213652   3.853   2.919   0.433 -0.5882  0.5205 -0.4824
 4549TIP3    H113653   3.924   2.958   0.484  0.6507 -0.0918 -1.6805
 4549TIP3    H213654   3.831   2.839   0.481  0.1228  0.2766 -0.5513
 4550TIP3   OH213655   0.293   2.558   0.780 -0.1466  0.4319  0.6151
 4550TIP3    H113656   0.336   2.519   0.856 -0.6929 -0.5856  0.4297
 4550TIP3    H213657   0.365   2.589   0.725  0.3209 -0.2409  0.8327
 4551TIP3   OH213658   0.192   0.383   3.932 -0.7555 -0.1108  0.2421
 4551TIP3    H113659   0.186   0.478   3.941 -0.0716 -0.0613  0.1874
 4551TIP3    H213660   0.283   0.366   3.907 -1.4315 -0.5899 -2.2085
 4552TIP3   OH213661   1.539   4.311   1.731  0.2301  0.3855 -0.7854
 4552TIP3    H113662   1.534   4.320   1.636  1.4141 -0.9445 -1.0011
 4552TIP3    H213663   1.551   4.217   1.745  1.6904  0.7418  0.5877
 4553TIP3   OH213664   1.610   1.447   3.132 -0.1309 -0.5023  0.6950
 4553TIP3    H113665   1.609   1.541   3.151 -0.1045 -0.3886  0.1576
 4553TIP3    H213666   1.688   1.435   3.077 -0.4029 -0.7500  0.3569
 4554TIP3   OH213667   5.712   1.477   4.740 -0.3900  0.4402 -0.7604
 4554TIP3    H113668   5.757   1.538   4.798 -1.4203  0.8391 -0.3609
 4554TIP3    H213669   5.780   1.447   4.679  0.8112 -0.2645  0.8465
 4555TIP3   OH213670   2.479   1.890   3.474  0.1681  0.3705  0.4827
 4555TIP3    H113671   2.563   1.919   3.510  0.4278  1.4489 -0.9204
 4555TIP3    H213672   2.499   1.808   3.429  0.3782  0.3835  0.5548
 4556TIP3   OH213673   4.814   5.775   3.716 -0.0479  0.3546  0.3985
 4556TIP3    H113674   4.772   5.861   3.709  2.2260  1.4990  0.1382
 4556TIP3    H213675   4.907   5.793   3.707  0.7120 -1.8323  2.7561
 4557TIP3   OH213676   1.251   1.674   0.560  0.4688 -0.2230 -0.0796
 4557TIP3    H113677   1.329   1.625   0.585  0.1314 -1.1387 -0.7283
 4557TIP3    H213678   1.180   1.610   0.565  0.2663 -0.3149 -2.5883
 4558TIP3   OH213679   5.093   1.261   2.022  0.1345  0.0891  1.0746
 4558TIP3    H113680   5.162   1.237   2.084  0.1077 -0.4548  0.9016
 4558TIP3    H213681   5.103   1.198   1.950  1.1540  1.6445 -0.2119
 4559TIP3   OH213682   1.540   3.727   3.164 -0.8435 -0.0057  0.3629
 4559TIP3    H113683   1.479   3.654   3.173 -1.7694  0.8245  1.0046
 4559TIP3    H213684   1.536   3.772   3.249  1.2947 -0.4080  0.7423
 4560TIP3   OH213685   5.060   2.718   3.481 -0.0770 -0.8035  0.7110
 4560TIP3    H113686   5.087   2.649   3.420 -0.9281 -0.9701  0.5087
 4560TIP3    H213687   5.010   2.780   3.428 -0.9011 -0.9934  1.2363
 4561TIP3   OH213688   4.971   3.773   2.111  0.5865  0.2974  0.2570
 4561TIP3    H113689   4.979   3.690   2.064  1.3418  0.9367 -0.7754
 4561TIP3    H213690   4.887   3.808   2.082  1.2157  0.8637 -0.9403
 4562TIP3   OH213691   4.476   4.306   4.227 -0.7033 -0.0785 -0.0999
 4562TIP3    H113692   4.410   4.351   4.175 -0.1807 -0.8386 -1.4825
 4562TIP3    H213693   4.437   4.222   4.249 -1.3237  0.6280  1.6932
 4563TIP3   OH213694   4.845   4.958   1.115  0.2418 -0.3104 -0.4192
 4563TIP3    H113695   4.806   4.978   1.200 -1.6634 -0.8492 -1.1136
 4563TIP3    H213696   4.788   5.002   1.052  0.8442 -1.0071 -1.4721
 4564TIP3   OH213697   0.782   4.317   1.611  0.3706  0.3223 -0.0062
 4564TIP3    H113698   0.813   4.279   1.529  0.4133  0.3706 -0.0125
 4564TIP3    H213699   0.861   4.355   1.651  0.4636 -0.2171  0.3371
 4565TIP3   OH213700   1.326   1.913   3.221  0.5302  1.1539 -0.3017
 4565TIP3    H113701   1.268   1.967   3.275  1.7239  4.4994 -2.0640
 4565TIP3    H213702   1.410   1.915   3.268 -0.0922 -1.9128  1.1693
 4566TIP3   OH213703   1.677   0.932   1.095 -0.4524 -0.2323 -0.2927
 4566TIP3    H113704   1.639   0.897   1.176 -1.2140  1.8584  0.3218
 4566TIP3    H213705   1.603   0.940   1.035 -0.1818 -0.2594 -0.6332
 4567TIP3   OH213706   5.657   3.345   1.885 -0.0879  0.1061 -0.5645
 4567TIP3    H113707   5.722   3.339   1.816  1.1475 -1.3828  0.6566
 4567TIP3    H213708   5.708   3.353   1.966 -1.4552  0.5412  0.3046
 4568TIP3   OH213709   0.993   3.881   3.267  0.5578 -0.1157  0.0981
 4568TIP3    H113710   0.943   3.962   3.260 -0.3055 -0.2549  3.0402
 4568TIP3    H213711   1.084   3.908   3.268  0.2694  0.9344  1.4904
 4569TIP3   OH213712   6.099   3.064   1.782  0.1802  0.1045  0.4883
 4569TIP3    H113713   6.114   3.149   1.822 -0.7393  1.2785 -1.5292
 4569TIP3    H213714   6.011   3.069   1.745  1.2663 -0.4813 -2.4518
 4570TIP3   OH213715   5.440   1.087   4.260  0.0939  0.2410  0.2844
 4570TIP3    H113716   5.418   0.994   4.265 -1.2721  0.5890  1.4580
 4570TIP3    H213717   5.522   1.090   4.210  0.2688 -1.5936  0.3972
 4571TIP3   OH213718   5.433   1.036   1.566  0.1951  0.1481 -0.3418
 4571TIP3    H113719   5.398   1.105   1.623  0.5333  0.6401 -0.7117
 4571TIP3    H213720   5.376   0.961   1.581  1.4489 -0.4338  2.1813
 4572TIP3   OH213721   4.411   5.376   4.375  0.5097 -0.2317  0.1815
 4572TIP3    H113722   4.415   5.468   4.348  3.0726 -1.0055 -2.7484
 4572TIP3    H213723   4.464   5.372   4.455  1.2424  0.7183 -0.2321
 4573TIP3   OH213724   1.034   0.410   3.714 -0.0656 -0.4867 -0.3646
 4573TIP3    H113725   1.065   0.325   3.683  1.9147 -0.6453  1.7928
 4573TIP3    H213726   1.113   0.459   3.734 -1.1924  0.9817  0.7013
 4574TIP3   OH213727   2.298   2.305   4.376  0.3122  0.3167  0.0664
 4574TIP3    H113728   2.361   2.331   4.443 -1.7254  2.3703  1.3405
 4574TIP3    H213729   2.252   2.230   4.413  0.3836  0.3366  0.1945
 4575TIP3   OH213730   5.322   2.413   4.912  0.2691  0.3159  0.1237
 4575TIP3    H113731   5.324   2.325   4.950  2.0305 -0.2814 -1.2286
 4575TIP3    H213732   5.260   2.406   4.839 -1.8122  1.0230  1.7167
 4576TIP3   OH213733   1.971   5.615   3.834  0.0845 -0.0634 -0.1616
 4576TIP3    H113734   1.988   5.659   3.917 -0.1803 -0.6251  0.1987
 4576TIP3    H213735   1.979   5.522   3.854  1.6201 -0.1830 -1.1184
 4577TIP3   OH213736   0.996   5.231   4.297  0.3300  0.3665  0.5499
 4577TIP3    H113737   1.006   5.178   4.217  0.2252 -1.9423  1.9646
 4577TIP3    H213738   0.912   5.203   4.334 -0.7358  3.0381  0.4049
 4578TIP3   OH213739   5.587   3.076   4.863  0.5968  0.2242  0.6183
 4578TIP3    H113740   5.551   3.086   4.952  0.8338  0.8743  0.6482
 4578TIP3    H213741   5.586   3.164   4.827 -4.1427 -0.5486 -1.9114
 4579TIP3   OH213742   1.020   0.379   4.026 -0.2818 -0.1403 -0.1002
 4579TIP3    H113743   0.962   0.303   4.034 -0.2081 -0.1900 -0.0367
 4579TIP3    H213744   1.024   0.395   3.931 -2.0718  1.1672 -0.0116
 4580TIP3   OH213745   2.289   4.892   1.487 -0.0945 -0.5013 -0.2508
 4580TIP3    H113746   2.203   4.878   1.526 -0.2079 -0.7046 -0.5657
 4580TIP3    H213747   2.351   4.859   1.552 -0.3436 -2.2882 -0.8403
 4581TIP3   OH213748   5.010   5.898   1.612  0.0490  0.1013 -0.0482
 4581TIP3    H113749   5.090   5.901   1.560  0.4220  2.9617  0.5166
 4581TIP3    H213750   5.030   5.838   1.685  1.0669 -0.4727 -0.7804
 4582TIP3   OH213751   2.691   3.502   2.949 -0.0195 -0.6677 -0.4533
 4582TIP3    H113752   2.668   3.455   3.029  2.7765 -0.7674  0.3893
 4582TIP3    H213753   2.715   3.434   2.887  1.7945 -0.5268  0.0247
 4583TIP3   OH213754   5.396   3.154   2.295  0.6140 -0.1406 -0.3004
 4583TIP3    H113755   5.426   3.178   2.208  2.0279 -0.0341  0.1869
 4583TIP3    H213756   5.321   3.096   2.280 -0.2430  1.2485 -1.5336
 4584TIP3   OH213757   3.247   2.723   2.013  0.5058  0.2239 -0.6163
 4584TIP3    H113758   3.242   2.819   2.009  0.5796  0.2909  0.6275
 4584TIP3    H213759   3.160   2.694   1.985 -0.1740  0.7320  0.8780
 4585TIP3   OH213760   3.623   0.313   4.496  0.4579 -0.2624 -0.5202
 4585TIP3    H113761   3.704   0.290   4.451  0.2758 -1.2174 -0.3813
 4585TIP3    H213762   3.605   0.237   4.552  0.1170  0.4500  0.3611
 4586TIP3   OH213763   2.764   0.442   0.500 -0.2334  0.0179  0.1026
 4586TIP3    H113764   2.828   0.400   0.442 -0.6355 -0.1461 -0.2275
 4586TIP3    H213765   2.693   0.468   0.441 -0.3208  0.4933  0.4197
 4587TIP3   OH213766   4.726   1.113   1.664 -0.0462  1.0148  0.1943
 4587TIP3    H113767   4.689   1.030   1.635  0.8316  0.9361 -0.7547
 4587TIP3    H213768   4.679   1.180   1.613 -0.8835  1.1196  1.0948
 4588TIP3   OH213769   0.513   5.846   0.282 -0.6346  0.5577 -0.0904
 4588TIP3    H113770   0.483   5.933   0.306 -2.0947 -0.1885  0.9807
 4588TIP3    H213771   0.599   5.837   0.323 -0.0038  1.8335 -1.0763
 4589TIP3   OH213772   1.299   3.193   3.158 -0.4680  0.0569  0.0170
 4589TIP3    H113773   1.365   3.258   3.133 -0.8684  1.0514  1.4087
 4589TIP3    H213774   1.281   3.145   3.077  0.5897  1.0064 -0.8179
 4590TIP3   OH213775   2.276   0.970   2.062 -0.3019  0.0005 -1.1785
 4590TIP3    H113776   2.332   0.909   2.111  0.4489  0.6246 -1.2332
 4590TIP3    H213777   2.336   1.012   2.000 -0.6414  1.3041 -0.6635
 4591TIP3   OH213778   4.823   4.120   2.045  0.4292 -0.5554  0.0657
 4591TIP3    H113779   4.839   4.212   2.062  0.8349 -0.6778  0.3628
 4591TIP3    H213780   4.727   4.113   2.039  0.4332  0.0706 -1.0904
 4592TIP3   OH213781   2.203   1.451   3.920  0.2837  0.0774  0.3117
 4592TIP3    H113782   2.162   1.536   3.938  0.0259 -0.3392  1.8110
 4592TIP3    H213783   2.243   1.462   3.834  0.5536  1.8468  0.6108
 4593TIP3   OH213784   0.261   5.126   4.119 -0.0087 -0.3108  0.0544
 4593TIP3    H113785   0.282   5.034   4.105 -0.0427 -0.1864 -0.8539
 4593TIP3    H213786   0.238   5.159   4.032  3.9083  1.5621 -0.4932
 4594TIP3   OH213787   5.863   5.406   4.977 -0.0894  0.2952 -0.2118
 4594TIP3    H113788   5.930   5.462   4.939 -0.2264  1.2392  0.8840
 4594TIP3    H213789   5.878   5.320   4.937  1.1335  0.7312 -0.7295
 4595TIP3   OH213790   1.155   2.121   2.740  0.0315  0.6644 -0.2396
 4595TIP3    H113791   1.204   2.097   2.661  0.9140 -1.9478  0.9661
 4595TIP3    H213792   1.208   2.188   2.782 -0.4123  2.0385 -1.7839
 4596TIP3   OH213793   4.441   2.429   5.118 -0.0502  0.2189 -0.2863
 4596TIP3    H113794   4.403   2.515   5.100 -0.1558  0.1922 -0.1903
 4596TIP3    H213795   4.438   2.383   5.034 -2.0058 -0.4804  0.1204
 4597TIP3   OH213796   3.700   5.042   0.281 -0.7961 -0.3503  0.3812
 4597TIP3    H113797   3.615   5.085   0.289 -0.6891 -0.3346  1.7870
 4597TIP3    H213798   3.683   4.965   0.227 -0.8101  1.8377 -3.0001
 4598TIP3   OH213799   1.379   3.632   1.714  0.0289 -0.4565  1.0099
 4598TIP3    H113800   1.362   3.600   1.626 -0.9510 -1.0607  1.4068
 4598TIP3    H213801   1.293   3.647   1.752  0.3233 -2.6657  2.7297
 4599TIP3   OH213802   3.966   1.526   3.832 -0.3294 -0.4411  0.0467
 4599TIP3    H113803   3.996   1.476   3.756 -1.0332 -0.3887 -0.2713
 4599TIP3    H213804   3.871   1.527   3.825 -0.4139 -0.5307  0.9979
 4600TIP3   OH213805   5.014   2.827   0.894  0.1462 -0.3045 -0.4221
 4600TIP3    H113806   4.941   2.773   0.924 -0.2837 -0.4590 -1.6683
 4600TIP3    H213807   5.087   2.765   0.886 -0.4594 -0.8668 -2.2731
 4601TIP3   OH213808   6.087   1.079   4.673  0.1386  0.0026 -0.2847
 4601TIP3    H113809   6.115   1.025   4.599 -0.1838  0.1763 -0.5365
 4601TIP3    H213810   6.167   1.122   4.703  0.5356 -1.1362  0.3638
 4602TIP3   OH213811   5.396   0.797   4.344 -0.0161  0.3657 -0.1828
 4602TIP3    H113812   5.487   0.819   4.362  0.5371  0.2030 -2.5352
 4602TIP3    H213813   5.396   0.758   4.257 -2.2437 -0.4021  0.0676
 4603TIP3   OH213814   1.325   3.645   3.372  0.3583  0.2123 -0.1518
 4603TIP3    H113815   1.274   3.652   3.452  0.2303  1.1005 -0.2943
 4603TIP3    H213816   1.382   3.722   3.373  0.5154  0.1145 -0.7944
 4604TIP3   OH213817   2.245   3.098   0.308 -0.5291 -0.3471 -0.3235
 4604TIP3    H113818   2.152   3.109   0.288 -0.7759  0.8635  1.3201
 4604TIP3    H213819   2.282   3.186   0.300  0.5103 -0.8217 -1.0307
 4605TIP3   OH213820   4.105   2.657   1.343 -0.1967  0.2183 -0.1603
 4605TIP3    H113821   4.134   2.580   1.295  2.9903  0.2112  1.5116
 4605TIP3    H213822   4.155   2.729   1.305 -1.7778  1.1937 -0.4808
 4606TIP3   OH213823   3.610   1.176   1.375 -0.1472  0.1389 -0.0338
 4606TIP3    H113824   3.622   1.253   1.430 -2.0655  0.3997  0.0741
 4606TIP3    H213825   3.661   1.195   1.296  0.8426  0.7158  0.7227
 4607TIP3   OH213826   1.464   0.287   0.177 -0.2990  0.7499  0.1311
 4607TIP3    H113827   1.515   0.206   0.179 -1.6757 -0.1795 -0.7811
 4607TIP3    H213828   1.498   0.334   0.101  1.0886  1.4699  1.1505
 4608TIP3   OH213829   2.947   4.991   1.905  0.0981  0.0127  0.2534
 4608TIP3    H113830   2.982   4.909   1.941 -1.5449 -0.4263  0.9458
 4608TIP3    H213831   2.984   4.995   1.816  0.3095 -1.4252  0.2422
 4609TIP3   OH213832   1.265   5.849   2.865 -0.0186  0.2527 -0.0752
 4609TIP3    H113833   1.258   5.803   2.781  1.1154 -1.2187  0.5930
 4609TIP3    H213834   1.358   5.864   2.877 -0.0165 -0.8237  1.5510
 4610TIP3   OH213835   4.541   2.951   1.750  0.5740  0.0733 -0.0827
 4610TIP3    H113836   4.539   2.859   1.726 -0.3126 -0.3810  1.5819
 4610TIP3    H213837   4.497   2.955   1.835 -1.1548  2.3006 -0.9948
 4611TIP3   OH213838   5.543   4.204   5.102  0.2309 -0.1065 -0.2870
 4611TIP3    H113839   5.639   4.211   5.097  0.4606 -1.4251  1.4302
 4611TIP3    H213840   5.518   4.163   5.019  1.0074  1.1330 -1.1817
 4612TIP3   OH213841   0.012   4.892   4.626 -0.5202 -0.1111 -0.0994
 4612TIP3    H113842  -0.071   4.867   4.666  0.1162 -1.3795  0.5046
 4612TIP3    H213843   0.073   4.823   4.652  0.4529  0.1682 -1.5062
 4613TIP3   OH213844   2.074   2.887   3.954 -0.4473 -0.4353  0.1615
 4613TIP3    H113845   2.156   2.900   3.906 -1.0408  0.2224 -0.6861
 4613TIP3    H213846   2.093   2.814   4.013  0.8515 -0.0786  0.2151
 4614TIP3   OH213847   5.712   3.455   2.803  0.4603 -0.7897  0.0563
 4614TIP3    H113848   5.704   3.547   2.779 -1.2601 -0.8810  0.1615
 4614TIP3    H213849   5.769   3.417   2.735 -0.8605 -0.1539 -1.4801
 4615TIP3   OH213850   3.029   3.409   2.496  0.2569  0.2710 -0.2405
 4615TIP3    H113851   3.058   3.339   2.555  0.8650  1.7957  1.3652
 4615TIP3    H213852   2.947   3.376   2.459 -0.3398 -0.6710  1.7342
 4616TIP3   OH213853   1.768   2.803   5.161 -0.2869 -0.1382  0.3053
 4616TIP3    H113854   1.777   2.798   5.066  0.0614  1.6272  0.2127
 4616TIP3    H213855   1.850   2.841   5.190  0.3011 -2.1714  1.5256
 4617TIP3   OH213856   4.079   2.402   3.714 -0.1055  0.5195 -0.5462
 4617TIP3    H113857   4.141   2.336   3.684 -0.7927  0.6110 -2.2679
 4617TIP3    H213858   3.998   2.383   3.666 -2.1015 -0.7539  2.9664
 4618TIP3   OH213859   1.858   2.237   5.067  0.5588  0.1311  0.3372
 4618TIP3    H113860   1.881   2.257   4.977 -0.3937 -0.8319 -0.1534
 4618TIP3    H213861   1.924   2.282   5.120  0.9863  0.9088 -0.8220
 4619TIP3   OH213862   0.344   5.307   5.038 -0.6972  0.1235 -0.3494
 4619TIP3    H113863   0.388   5.248   4.978 -1.3711  0.2599 -1.0016
 4619TIP3    H213864   0.366   5.275   5.125  1.4686  0.7653 -0.6073
 4620TIP3   OH213865   5.627   2.919   2.110 -0.0391  0.5293  0.2309
 4620TIP3    H113866   5.640   2.861   2.185 -0.2317  0.1555 -0.0230
 4620TIP3    H213867   5.667   2.872   2.036  0.4163  1.0283  0.1544
 4621TIP3   OH213868   4.423   0.276   0.404  0.3019 -0.0774 -0.2804
 4621TIP3    H113869   4.343   0.328   0.405 -0.0217 -0.4928 -1.9565
 4621TIP3    H213870   4.395   0.189   0.377  1.0091 -0.8738  1.3572
 4622TIP3   OH213871   2.700   3.575   1.695 -0.0901 -0.4419 -0.4071
 4622TIP3    H113872   2.772   3.576   1.757 -0.5066  0.8277  0.0929
 4622TIP3    H213873   2.633   3.521   1.737 -0.7956  1.2736  0.8187
 4623TIP3   OH213874   6.123   3.800   1.651  0.3632  0.3721  0.2947
 4623TIP3    H113875   6.142   3.825   1.742 -1.5901  1.7960  0.3656
 4623TIP3    H213876   6.076   3.718   1.658  0.8842  0.0868  0.5091
 4624TIP3   OH213877   1.399   2.743   4.087  0.1956 -0.0629  0.3750
 4624TIP3    H113878   1.328   2.777   4.034  0.6787  0.0620 -0.1966
 4624TIP3    H213879   1.384   2.780   4.174  1.6436  3.0534 -0.5780
 4625TIP3   OH213880   3.484   0.757   5.161  0.7818 -0.0743  0.6073
 4625TIP3    H113881   3.417   0.688   5.156 -0.4007  1.0945 -0.7486
 4625TIP3    H213882   3.442   0.828   5.210  1.4098  0.2869  0.6338
 4626TIP3   OH213883   3.455   0.533   2.272  0.0231 -0.4326 -0.2297
 4626TIP3    H113884   3.468   0.462   2.335 -0.3045 -1.1709 -0.9865
 4626TIP3    H213885   3.489   0.499   2.189 -0.9604 -0.0514 -0.8123
 4627TIP3   OH213886   6.296   5.226   2.033 -0.1491  0.0266 -0.5624
 4627TIP3    H113887   6.291   5.289   1.962 -1.2572 -0.6826 -1.1374
 4627TIP3    H213888   6.259   5.271   2.109  1.3597  0.9070 -0.3116
 4628TIP3   OH213889   4.258   2.431   1.239  0.1054  0.7596  0.0601
 4628TIP3    H113890   4.272   2.336   1.238  1.7759  0.9193  2.1859
 4628TIP3    H213891   4.346   2.468   1.241 -0.5184  2.4118 -0.9634
 4629TIP3   OH213892   1.386   2.739   3.744  0.1544  0.0065  0.4017
 4629TIP3    H113893   1.447   2.792   3.795  1.2099 -1.4810  0.7642
 4629TIP3    H213894   1.300   2.764   3.777  0.3324  3.3155 -1.2172
 4630TIP3   OH213895   0.203   3.152   3.767 -0.3475  0.5123 -0.2899
 4630TIP3    H113896   0.122   3.131   3.814 -0.8700  0.6854 -1.0943
 4630TIP3    H213897   0.179   3.222   3.706  0.0174 -0.4540 -1.6068
 4631TIP3   OH213898   2.689   4.642   0.981 -0.4168  0.2936  0.2641
 4631TIP3    H113899   2.611   4.621   1.032 -0.2381 -0.0711  0.3918
 4631TIP3    H213900   2.760   4.639   1.044 -0.3221  0.8053  0.1833
 4632TIP3   OH213901   3.732   0.001   4.424  0.1868  0.0135  0.0264
 4632TIP3    H113902   3.823   0.001   4.452  0.6080 -0.2768 -1.2965
 4632TIP3    H213903   3.682   0.006   4.506  1.3628 -0.6792  0.8181
 4633TIP3   OH213904   1.211   5.549   3.353 -0.5200 -0.1128  0.1256
 4633TIP3    H113905   1.131   5.590   3.321  0.6320  2.2422  0.0752
 4633TIP3    H213906   1.279   5.579   3.293  0.7551 -0.3001  1.4275
 4634TIP3   OH213907   0.735   3.785   1.741 -0.0079  0.1342  0.0391
 4634TIP3    H113908   0.682   3.840   1.799  0.0238  0.7894 -0.5406
 4634TIP3    H213909   0.687   3.703   1.735 -1.7183  1.1775 -1.5715
 4635TIP3   OH213910   5.765   4.628   4.380 -0.0465 -0.4555 -0.2238
 4635TIP3    H113911   5.676   4.643   4.409 -0.4372 -1.1314 -1.0268
 4635TIP3    H213912   5.785   4.539   4.406  0.0752 -0.6037 -0.7966
 4636TIP3   OH213913   0.814   1.419   2.812  0.0331  0.5235  0.2397
 4636TIP3    H113914   0.796   1.380   2.727  2.2877 -0.7733  0.2816
 4636TIP3    H213915   0.821   1.513   2.794  1.1082  0.2096 -1.1707
 4637TIP3   OH213916   2.354   2.510   3.441  0.1226 -0.0144  0.1976
 4637TIP3    H113917   2.321   2.555   3.520  2.1031  2.5998 -0.3504
 4637TIP3    H213918   2.443   2.483   3.464 -0.3051 -1.9247 -0.2182
 4638TIP3   OH213919   0.935   2.890   0.348 -0.2665  0.3661  0.1265
 4638TIP3    H113920   0.840   2.880   0.342 -0.2750  1.4030 -2.9021
 4638TIP3    H213921   0.970   2.845   0.271  1.4984  1.8650 -0.0348
 4639TIP3   OH213922   1.277   3.329   0.574  0.6471  0.2663 -0.0354
 4639TIP3    H113923   1.204   3.314   0.515  0.8207  1.2497 -0.5215
 4639TIP3    H213924   1.318   3.243   0.584  0.5761  0.0781 -1.2936
 4640TIP3   OH213925   3.763   0.245   0.501  0.5442 -0.2571 -0.0965
 4640TIP3    H113926   3.857   0.238   0.484  0.5267  0.0526 -0.3132
 4640TIP3    H213927   3.755   0.314   0.567  0.4628 -0.2479 -0.1159
 4641TIP3   OH213928   0.808   1.084   3.266  0.1853 -0.0138 -0.6507
 4641TIP3    H113929   0.865   1.044   3.332 -2.3752 -1.1691  1.0153
 4641TIP3    H213930   0.747   1.137   3.317  0.2970  1.9309 -2.4455
 4642TIP3   OH213931   4.410   2.692   3.841 -0.0215 -0.7713  0.1700
 4642TIP3    H113932   4.427   2.709   3.934 -0.3656 -1.1657  0.3055
 4642TIP3    H213933   4.399   2.597   3.836  3.3336 -1.2695 -0.7841
 4643TIP3   OH213934   1.861   0.795   2.066  0.9251 -0.5139 -0.0206
 4643TIP3    H113935   1.789   0.850   2.037  0.8289  0.1198  1.3218
 4643TIP3    H213936   1.860   0.720   2.007 -0.3802 -0.1716 -0.4552
 4644TIP3   OH213937   3.555   1.337   2.084 -0.1414  0.4061  0.3321
 4644TIP3    H113938   3.491   1.272   2.111 -1.3195  1.4537  0.1779
 4644TIP3    H213939   3.585   1.377   2.165 -1.1899  1.2648  0.3217
 4645TIP3   OH213940   5.471   1.981   0.656 -0.4248 -0.9116 -0.1001
 4645TIP3    H113941   5.533   2.045   0.621 -1.5913  0.7736  0.7808
 4645TIP3    H213942   5.525   1.919   0.705  0.9124 -1.6058 -2.2919
 4646TIP3   OH213943   1.159   4.131   1.059  0.0602 -0.3334 -0.1685
 4646TIP3    H113944   1.191   4.156   0.972 -1.3031  1.0131 -0.3316
 4646TIP3    H213945   1.064   4.126   1.049 -0.3906  2.2385  1.7142
 4647TIP3   OH213946   3.647   4.872   5.031 -0.1000  0.0352 -0.2550
 4647TIP3    H113947   3.564   4.824   5.036  0.9860 -1.8027  1.1548
 4647TIP3    H213948   3.703   4.816   4.978 -0.1500  2.0120 -2.5684
 4648TIP3   OH213949   5.613   1.832   5.125 -0.4050 -0.8248  0.7319
 4648TIP3    H113950   5.678   1.891   5.165 -1.6144  0.2421  1.2137
 4648TIP3    H213951   5.575   1.883   5.053  1.4460 -2.5816 -1.6281
 4649TIP3   OH213952   4.316   3.271   2.355 -0.1213  0.6212  0.5135
 4649TIP3    H113953   4.236   3.234   2.316  0.6519  0.1062 -0.6669
 4649TIP3    H213954   4.306   3.365   2.344 -0.4399  0.5437  0.0939
 4650TIP3   OH213955   1.666   4.409   2.636 -0.1893  0.5058 -0.1928
 4650TIP3    H113956   1.584   4.440   2.675 -1.0656 -0.3266 -1.2993
 4650TIP3    H213957   1.654   4.315   2.625  1.7345  0.0142  1.4636
 4651TIP3   OH213958   1.408   3.914   0.818 -0.2864  0.1910  0.2997
 4651TIP3    H113959   1.415   3.975   0.745  0.4076  0.8944  0.9378
 4651TIP3    H213960   1.314   3.905   0.834 -0.3868  1.2656  0.3492
 4652TIP3   OH213961   5.883   3.346   1.712  0.2959  1.2531 -0.7246
 4652TIP3    H113962   5.955   3.301   1.755 -0.4581  0.0129 -0.7107
 4652TIP3    H213963   5.898   3.332   1.619 -0.2677  0.4022 -0.7021
 4653TIP3   OH213964   5.660   5.910   3.034 -0.7354  0.0773 -0.3130
 4653TIP3    H113965   5.733   5.922   2.974 -1.0527 -0.8443 -0.9013
 4653TIP3    H213966   5.648   5.815   3.038  0.4810 -0.0522  2.6614
 4654TIP3   OH213967   1.054   4.211   3.126  0.1071 -0.1067  0.5787
 4654TIP3    H113968   0.983   4.218   3.190  0.2209 -0.5455  0.7542
 4654TIP3    H213969   1.038   4.129   3.080  0.4878 -0.2024  0.6110
 4655TIP3   OH213970   4.723   5.556   0.775  0.0931  0.3350  0.0166
 4655TIP3    H113971   4.771   5.616   0.717 -1.8836  1.6680 -0.3421
 4655TIP3    H213972   4.760   5.571   0.862  2.2882 -0.8273 -0.6386
 4656TIP3   OH213973   2.500   3.384   0.980  0.3921  0.3368  0.3009
 4656TIP3    H113974   2.413   3.355   1.006 -0.3672  1.4744 -0.8484
 4656TIP3    H213975   2.505   3.364   0.886  1.3839  0.2723  0.3556
 4657TIP3   OH213976   4.082   5.036   4.491 -0.3725 -0.3919  0.1106
 4657TIP3    H113977   4.024   5.073   4.424 -0.7626  0.5084  0.9159
 4657TIP3    H213978   4.023   5.005   4.559 -0.0903 -3.0897 -0.7681
 4658TIP3   OH213979   1.354   1.226   4.835 -0.4151 -0.1112 -0.1661
 4658TIP3    H113980   1.285   1.263   4.780 -3.7616 -1.4949  2.7046
 4658TIP3    H213981   1.341   1.268   4.921 -1.0446 -3.8580  1.7953
 4659TIP3   OH213982   1.190   1.303   3.749 -0.3094  0.2137 -0.2837
 4659TIP3    H113983   1.113   1.282   3.696 -1.4028  0.9224  0.9338
 4659TIP3    H213984   1.174   1.258   3.832  0.0433  1.2466  0.3650
 4660TIP3   OH213985   3.400   5.097   4.761  0.4099 -0.0417 -0.1895
 4660TIP3    H113986   3.399   5.034   4.689  1.1783  0.5022 -0.6934
 4660TIP3    H213987   3.315   5.088   4.803  0.4433 -1.2823 -0.3681
 4661TIP3   OH213988   3.164   1.175   3.521 -0.2615  0.1926  0.1435
 4661TIP3    H113989   3.154   1.092   3.568  0.9856 -0.4160 -0.6148
 4661TIP3    H213990   3.074   1.204   3.504 -0.8210 -2.4628 -2.0880
 4662TIP3   OH213991   3.152   0.703   4.566  0.5369  0.6458 -0.1070
 4662TIP3    H113992   3.105   0.775   4.523  0.4462  0.6901  0.0627
 4662TIP3    H213993   3.220   0.679   4.504  0.0522  0.3202 -0.5258
 4663TIP3   OH213994   5.576   1.416   2.566  0.5446 -0.6258 -0.0060
 4663TIP3    H113995   5.550   1.416   2.474 -0.7021  0.6939  0.3179
 4663TIP3    H213996   5.572   1.324   2.593 -1.3593 -0.7749 -0.6691
 4664TIP3   OH213997   4.854   0.646   1.130  0.1008 -0.2882  0.1606
 4664TIP3    H113998   4.832   0.574   1.071  1.5817 -0.7718  0.1447
 4664TIP3    H213999   4.772   0.692   1.145 -0.3361 -0.1912 -2.2086
 4665TIP3   OH214000   3.692   1.282   4.045 -0.4479  0.1187 -0.2355
 4665TIP3    H114001   3.655   1.355   4.094  2.0278  1.3338 -0.0580
 4665TIP3    H214002   3.760   1.246   4.102  0.0564 -0.7235 -1.3345
 4666TIP3   OH214003   6.058   5.349   0.876 -0.3678  0.0555  0.7730
 4666TIP3    H114004   6.077   5.268   0.924  1.9209  0.7771  1.2342
 4666TIP3    H214005   6.127   5.409   0.904 -1.2585  1.7599 -0.5369
 4667TIP3   OH214006   5.183   3.896   5.000  0.0252 -0.4993  0.5233
 4667TIP3    H114007   5.137   3.902   5.084 -2.2320 -0.7690 -0.6172
 4667TIP3    H214008   5.128   3.839   4.947  0.4157  1.1568 -1.7780
 4668TIP3   OH214009   0.564   4.980   0.028  0.0118 -0.0066 -0.3805
 4668TIP3    H114010   0.547   5.034   0.106  0.8219 -0.0590 -0.1628
 4668TIP3    H214011   0.551   4.890   0.058  1.3158 -0.0893 -0.0331
 4669TIP3   OH214012   1.840   4.469   3.926  0.1218  0.2065  0.1751
 4669TIP3    H114013   1.842   4.444   3.834  0.5828 -0.9706  0.4864
 4669TIP3    H214014   1.753   4.441   3.956 -0.0854  0.7272  0.0612
 4670TIP3   OH214015   4.314   1.024   4.939  0.2314 -0.1831  0.2339
 4670TIP3    H114016   4.250   1.088   4.908 -0.5642 -0.5986  0.9572
 4670TIP3    H214017   4.306   1.026   5.034 -1.4326 -2.8784  0.2799
 4671TIP3   OH214018   1.752   2.472   2.895 -0.1961 -0.4474 -0.3081
 4671TIP3    H114019   1.841   2.455   2.924 -0.9625 -3.3936  0.6769
 4671TIP3    H214020   1.697   2.415   2.950 -2.5059 -0.1428 -2.1149
 4672TIP3   OH214021   3.016   4.908   2.685  0.0424  0.3217  0.0615
 4672TIP3    H114022   2.982   4.829   2.643 -1.1065 -2.0158  4.7167
 4672TIP3    H214023   3.111   4.903   2.674  0.1517 -2.6622  1.4403
 4673TIP3   OH214024   3.888   1.509   3.493 -0.3550  0.3990 -0.0454
 4673TIP3    H114025   3.804   1.486   3.532 -0.9991 -0.0234 -1.5855
 4673TIP3    H214026   3.871   1.510   3.398  1.4339  0.0348 -0.4151
 4674TIP3   OH214027   4.836   2.779   0.186  0.2728 -0.1995  0.6535
 4674TIP3    H114028   4.849   2.764   0.280  0.3539 -0.8464  0.5461
 4674TIP3    H214029   4.870   2.699   0.145  0.7259  0.3014  0.0437
 4675TIP3   OH214030   1.506   0.088   4.775  0.1068 -0.7116  0.2214
 4675TIP3    H114031   1.570   0.149   4.738 -0.3476 -0.7410 -0.6307
 4675TIP3    H214032   1.479   0.129   4.857 -0.3062  0.3139 -0.4112
 4676TIP3   OH214033   3.467   3.629   1.838 -0.5054  0.1059 -0.4101
 4676TIP3    H114034   3.425   3.557   1.886 -2.0809 -0.0936 -1.9805
 4676TIP3    H214035   3.394   3.678   1.800  0.6305 -0.2977 -3.3696
 4677TIP3   OH214036   2.690   3.714   3.382 -0.4000  0.0692 -0.2509
 4677TIP3    H114037   2.712   3.713   3.475 -0.7987 -0.8378 -0.1532
 4677TIP3    H214038   2.725   3.797   3.349  2.0246 -0.6911  0.1543
 4678TIP3   OH214039   4.752   5.834   2.394 -0.1746  0.0450 -0.1238
 4678TIP3    H114040   4.812   5.806   2.325 -1.1005 -1.4984 -0.3273
 4678TIP3    H214041   4.665   5.813   2.361 -0.7209  0.5851  0.9265
 4679TIP3   OH214042   3.965   4.566   4.414 -0.0950  0.0372 -0.1279
 4679TIP3    H114043   3.887   4.510   4.412 -0.1083  0.0698 -1.3549
 4679TIP3    H214044   4.039   4.506   4.416 -0.1382  0.0070  1.4869
 4680TIP3   OH214045   0.718   2.432   3.354 -0.0508 -1.1651  0.5824
 4680TIP3    H114046   0.803   2.401   3.324  0.8066  0.2420  1.4636
 4680TIP3    H214047   0.667   2.352   3.367  0.8220 -1.9968 -0.7667
 4681TIP3   OH214048   1.135   2.558   3.858  0.3091  0.0543 -0.0434
 4681TIP3    H114049   1.160   2.523   3.773  0.0003  0.3914 -0.2786
 4681TIP3    H214050   1.073   2.628   3.837 -2.9955 -2.4583  0.5910
 4682TIP3   OH214051   0.974   1.850   4.575 -0.2017 -0.1981  0.5164
 4682TIP3    H114052   0.889   1.874   4.612 -0.5912 -0.0336 -0.4633
 4682TIP3    H214053   0.981   1.901   4.495 -0.0817 -1.7414 -0.4933
 4683TIP3   OH214054   1.765   1.713   3.762  0.2140  0.0552  0.0036
 4683TIP3    H114055   1.795   1.714   3.671 -0.7882 -1.7450 -0.3949
 4683TIP3    H214056   1.846   1.720   3.814  0.8031  1.0615 -1.0003
 4684TIP3   OH214057   2.763   0.994   0.107 -0.4805  0.7276 -0.1940
 4684TIP3    H114058   2.724   0.980   0.020 -0.5998  0.1187 -0.0462
 4684TIP3    H214059   2.842   0.940   0.106  0.6735  2.3405 -0.6782
 4685TIP3   OH214060   3.596   0.842   1.572 -0.4488  0.4973  0.1693
 4685TIP3    H114061   3.590   0.848   1.476 -1.2967 -1.7852  0.0149
 4685TIP3    H214062   3.667   0.780   1.587 -1.1247 -0.0980  0.9687
 4686TIP3   OH214063   4.810   5.373   4.044  0.1255 -0.1386  0.3944
 4686TIP3    H114064   4.901   5.347   4.053 -0.2602 -2.1189 -0.8310
 4686TIP3    H214065   4.814   5.464   4.014  1.6380  0.2490  1.6730
 4687TIP3   OH214066   4.751   5.766   1.847 -0.3612 -0.0819 -0.2670
 4687TIP3    H114067   4.678   5.735   1.793 -1.4095  0.0617  1.0007
 4687TIP3    H214068   4.742   5.861   1.847 -0.4354 -0.0872  0.2341
 4688TIP3   OH214069   2.021   4.936   3.083  0.0772 -0.6164 -0.4819
 4688TIP3    H114070   1.981   4.900   3.004  0.6897 -0.4190 -0.8938
 4688TIP3    H214071   1.951   4.984   3.126 -0.0376  0.0596 -1.3927
 4689TIP3   OH214072   2.388   2.492   2.414  1.0879 -0.0795 -0.6372
 4689TIP3    H114073   2.414   2.409   2.454  1.5274 -0.1202 -0.9932
 4689TIP3    H214074   2.448   2.556   2.451  0.1206  0.2629  0.3851
 4690TIP3   OH214075   2.472   4.617   3.045 -0.4031 -0.0969  0.1349
 4690TIP3    H114076   2.387   4.612   3.001 -0.3004 -1.5075  0.0498
 4690TIP3    H214077   2.532   4.573   2.986  0.2887  0.3717  0.4712
 4691TIP3   OH214078   3.179   5.974   1.784 -0.1708  0.3503  0.0435
 4691TIP3    H114079   3.268   5.939   1.797 -0.7370 -1.5394 -0.8237
 4691TIP3    H214080   3.128   5.937   1.855 -0.3625  1.1299  0.3201
 4692TIP3   OH214081   2.576   4.461   3.408  0.6868  0.1084 -0.3006
 4692TIP3    H114082   2.506   4.445   3.345  0.3205  1.9099 -0.4064
 4692TIP3    H214083   2.610   4.374   3.430 -1.4674 -0.8016 -0.3701
 4693TIP3   OH214084   1.173   0.244   1.720 -0.3533  0.2813 -0.2170
 4693TIP3    H114085   1.091   0.261   1.766  0.1411  0.5245  0.5861
 4693TIP3    H214086   1.194   0.152   1.739  0.5529  0.7497  1.2134
 4694TIP3   OH214087   0.200   0.111   4.988  0.0775  0.0453 -0.1091
 4694TIP3    H114088   0.114   0.098   4.947  0.0682  1.8417 -0.7299
 4694TIP3    H214089   0.187   0.087   5.079 -0.1858 -3.0062 -0.8287
 4695TIP3   OH214090   3.374   0.151   4.946  0.5058  0.5296  0.3272
 4695TIP3    H114091   3.308   0.177   5.010  0.5068  0.1744  0.4735
 4695TIP3    H214092   3.340   0.069   4.908  0.1313  1.1232 -0.6722
 4696TIP3   OH214093   4.047   4.107   4.238  0.5151 -0.4039  0.1557
 4696TIP3    H114094   4.000   4.182   4.201  0.0614  0.2418  1.9471
 4696TIP3    H214095   4.062   4.050   4.163 -0.6214  0.6907 -0.9697
 4697TIP3   OH214096   0.641   1.196   3.453  0.8891  0.2982  0.5850
 4697TIP3    H114097   0.658   1.227   3.542  1.4699 -1.2800  1.0599
 4697TIP3    H214098   0.592   1.115   3.465 -1.5461  1.4945 -0.6347
 4698TIP3   OH214099   5.334   3.129   0.452  0.0690  0.2476  0.1813
 4698TIP3    H114100   5.281   3.173   0.518 -0.5144  1.6030 -1.1197
 4698TIP3    H214101   5.292   3.044   0.438  1.4549 -1.0306  3.0475
 4699TIP3   OH214102   6.045   4.280   2.385 -0.0866 -0.3208  0.0228
 4699TIP3    H114103   6.100   4.301   2.309  0.1769 -0.8409  0.0629
 4699TIP3    H214104   6.038   4.363   2.433 -0.2104 -0.0020 -0.5383
 4700TIP3   OH214105   5.307   2.467   2.761 -0.4957 -0.1132 -0.1011
 4700TIP3    H114106   5.396   2.454   2.791 -0.7787 -1.5094  0.2101
 4700TIP3    H214107   5.266   2.381   2.768 -1.4873  0.1989 -1.4968
 4701TIP3   OH214108   3.481   0.734   3.731 -0.6331  0.0735 -0.3587
 4701TIP3    H114109   3.475   0.721   3.826  0.9614 -0.4807 -0.3037
 4701TIP3    H214110   3.473   0.829   3.719 -1.5372  0.0796  0.2630
 4702TIP3   OH214111   5.858   3.128   4.097  0.0190  0.0108 -0.6303
 4702TIP3    H114112   5.816   3.101   4.178  1.6158  0.9781  0.5710
 4702TIP3    H214113   5.852   3.223   4.096 -0.6895 -0.0157 -2.0808
 4703TIP3   OH214114   4.075   5.605   3.700 -0.2275  0.4071  0.6062
 4703TIP3    H114115   4.026   5.636   3.776  0.6071  0.7865  1.0020
 4703TIP3    H214116   4.102   5.517   3.723  0.6691  0.7885  1.0858
 4704TIP3   OH214117   5.559   1.871   1.861  0.0733 -0.3872  0.1399
 4704TIP3    H114118   5.643   1.857   1.817  0.0210 -2.6421  0.6336
 4704TIP3    H214119   5.499   1.898   1.791  0.8261 -0.4254 -0.5246
 4705TIP3   OH214120   4.088   3.205   2.214 -0.2844  0.1148  0.4774
 4705TIP3    H114121   4.120   3.275   2.157 -0.1337 -0.5432 -0.2575
 4705TIP3    H214122   4.019   3.162   2.164 -1.1679  0.4415  1.3752
 4706TIP3   OH214123   2.905   4.077   2.694  0.4415  0.2252  0.2759
 4706TIP3    H114124   2.838   4.134   2.656  0.3118  0.4663  0.8641
 4706TIP3    H214125   2.884   3.990   2.660  0.8703  0.5698 -0.9493
 4707TIP3   OH214126   2.831   0.405   4.193  0.3132 -0.1431  0.2840
 4707TIP3    H114127   2.890   0.330   4.195 -0.5430 -0.8623 -0.2573
 4707TIP3    H214128   2.851   0.449   4.110  0.8534  0.2610  0.6275
 4708TIP3   OH214129   4.591   0.419   3.572  0.3198 -0.3409 -0.5718
 4708TIP3    H114130   4.605   0.513   3.561  0.2578 -0.2722 -0.1019
 4708TIP3    H214131   4.679   0.383   3.578  0.3981  0.0848  2.3170
 4709TIP3   OH214132   6.089   0.356   1.234 -0.2841  0.4743 -0.3321
 4709TIP3    H114133   6.177   0.388   1.254  0.8497 -3.3117  1.9437
 4709TIP3    H214134   6.100   0.307   1.152  0.1390 -0.9406  0.5186
 4710TIP3   OH214135   5.241   5.978   3.741 -0.4708 -0.0635 -0.9896
 4710TIP3    H114136   5.236   5.909   3.674 -0.0183 -0.9653 -0.1221
 4710TIP3    H214137   5.317   6.030   3.716  0.1769 -0.8738 -0.7464
 4711TIP3   OH214138   2.758   1.250   3.074  0.3746 -0.1936 -0.0613
 4711TIP3    H114139   2.675   1.207   3.050 -0.1178 -0.2210  1.5890
 4711TIP3    H214140   2.764   1.324   3.014 -1.7825  0.8882  0.9303
 4712TIP3   OH214141   0.329   5.151   0.702  0.0393  0.2923  0.0841
 4712TIP3    H114142   0.349   5.058   0.714 -1.9387  0.1220  3.0583
 4712TIP3    H214143   0.253   5.152   0.644 -0.5632 -0.0220  0.8646
 4713TIP3   OH214144   0.189   0.561   1.392  0.0423  0.6344 -0.4237
 4713TIP3    H114145   0.263   0.615   1.420 -0.1274  0.6129  0.0751
 4713TIP3    H214146   0.180   0.495   1.460  0.5651 -0.3532 -1.2888
 4714TIP3   OH214147   5.838   0.801   1.380 -1.0814 -0.3598  0.4527
 4714TIP3    H114148   5.758   0.844   1.348 -0.4604  1.0853  0.7484
 4714TIP3    H214149   5.807   0.740   1.447 -2.1062 -1.1932 -0.7451
 4715TIP3   OH214150   3.957   2.442   1.471  0.3466 -0.0769 -0.5221
 4715TIP3    H114151   4.031   2.383   1.481 -0.8032 -1.2930  1.2896
 4715TIP3    H214152   3.997   2.525   1.444  2.1290 -1.2297 -1.6987
 4716TIP3   OH214153   3.907   2.217   0.557  0.0717 -0.5384  0.2009
 4716TIP3    H114154   3.843   2.239   0.490  0.5158  1.9926  0.5215
 4716TIP3    H214155   3.972   2.163   0.511 -1.4803 -1.9251 -0.4595
 4717TIP3   OH214156   1.338   0.459   4.178  0.2480 -0.3584  0.0755
 4717TIP3    H114157   1.277   0.487   4.246  1.3356  0.0846  0.8883
 4717TIP3    H214158   1.333   0.528   4.112 -0.3778 -0.5015 -0.0401
 4718TIP3   OH214159   1.516   3.172   4.687  0.2075 -0.1731  0.1387
 4718TIP3    H114160   1.429   3.209   4.703 -0.0383  0.0369 -1.4676
 4718TIP3    H214161   1.499   3.089   4.643  0.7804  0.7911 -2.0541
 4719TIP3   OH214162   3.800   2.720   2.759 -0.3254 -0.1454 -0.3635
 4719TIP3    H114163   3.859   2.788   2.792 -0.3507 -0.0442 -0.5261
 4719TIP3    H214164   3.744   2.765   2.696  0.6724 -0.6268 -1.6441
 4720TIP3   OH214165   1.615   1.096   3.796 -0.0848 -0.1523  0.0922
 4720TIP3    H114166   1.690   1.059   3.749 -0.1893  1.7920 -1.8041
 4720TIP3    H214167   1.646   1.111   3.885  2.0411  1.1982 -0.8138
 4721TIP3   OH214168   5.814   4.533   3.076  0.1467 -0.2056  0.2560
 4721TIP3    H114169   5.783   4.616   3.113  0.4156  0.5006 -1.0267
 4721TIP3    H214170   5.734   4.480   3.066 -0.2911  0.5735 -0.5169
 4722TIP3   OH214171   0.608   4.693   3.140 -0.3493 -0.6226 -0.4214
 4722TIP3    H114172   0.655   4.633   3.198  2.8040  1.5298 -0.5011
 4722TIP3    H214173   0.641   4.672   3.053 -1.7596 -0.9313 -0.9082
 4723TIP3   OH214174   2.957   4.985   2.367 -0.2266  0.3670  0.0620
 4723TIP3    H114175   2.913   4.926   2.428 -1.8844  0.8597 -0.6155
 4723TIP3    H214176   3.030   4.934   2.334  0.7082  0.0535  2.3675
 4724TIP3   OH214177   0.831   5.493   0.130 -0.0829  0.4246 -0.3818
 4724TIP3    H114178   0.817   5.574   0.177 -1.7108  0.1987 -0.4284
 4724TIP3    H214179   0.845   5.427   0.198 -1.5374  0.2611 -0.2152
 4725TIP3   OH214180   3.849   4.248   2.449  0.3652 -0.3046 -0.0055
 4725TIP3    H114181   3.805   4.190   2.511  0.6360 -3.0115 -2.1852
 4725TIP3    H214182   3.779   4.303   2.414 -0.4194 -1.2043  0.1144
 4726TIP3   OH214183   0.818   1.896   3.676  0.1349 -0.1561  0.2598
 4726TIP3    H114184   0.761   1.903   3.599 -0.8433 -0.7642  0.9129
 4726TIP3    H214185   0.877   1.824   3.655 -1.0550 -1.2770  0.6280
 4727TIP3   OH214186   6.003   4.975   1.579 -0.1264  0.7240  0.4278
 4727TIP3    H114187   6.012   5.055   1.528  2.0038  1.0081  1.1578
 4727TIP3    H214188   6.091   4.939   1.583 -1.0682 -1.8799 -0.1730
 4728TIP3   OH214189   5.800   0.471   3.548  0.0806  0.0627 -0.1740
 4728TIP3    H114190   5.741   0.420   3.492  1.4454  0.2006 -1.8183
 4728TIP3    H214191   5.752   0.551   3.567 -0.7047 -0.3124 -0.5401
 4729TIP3   OH214192   1.115   3.923   4.562 -0.4367  0.1278 -0.1837
 4729TIP3    H114193   1.079   3.995   4.614  1.3672  0.0092  1.3555
 4729TIP3    H214194   1.052   3.852   4.571 -1.4155  0.9572 -0.3294
 4730TIP3   OH214195   4.077   5.659   3.132  0.1671  0.0574 -0.2006
 4730TIP3    H114196   4.028   5.724   3.081  0.8122  1.2867  0.6820
 4730TIP3    H214197   4.019   5.637   3.205  0.4883  0.7385  0.2775
 4731TIP3   OH214198   1.441   1.370   0.800  0.4048 -0.2384 -0.7772
 4731TIP3    H114199   1.438   1.436   0.731  1.6583 -0.7579 -1.3696
 4731TIP3    H214200   1.529   1.378   0.837 -0.7397  1.1232  1.9151
 4732TIP3   OH214201   6.110   2.603   4.847  0.3112  0.1626  0.4076
 4732TIP3    H114202   6.079   2.512   4.849 -0.1077  0.2752 -0.5220
 4732TIP3    H214203   6.079   2.641   4.930 -1.1475 -0.0239 -0.0358
 4733TIP3   OH214204   2.177   5.618   0.942 -0.2567  0.2987 -0.1516
 4733TIP3    H114205   2.195   5.526   0.922  0.3950  0.2044  0.8242
 4733TIP3    H214206   2.087   5.618   0.976 -1.1632  0.3779 -2.3243
 4734TIP3   OH214207   1.052   1.772   0.916  0.0031  0.1252 -0.0547
 4734TIP3    H114208   1.067   1.681   0.942 -2.1634 -0.0101  0.9470
 4734TIP3    H214209   1.124   1.821   0.956 -0.8470 -0.6844  2.6502
 4735TIP3   OH214210   2.119   1.887   0.367 -0.3578 -0.1468  0.0980
 4735TIP3    H114211   2.196   1.908   0.313  0.5398 -0.6006  1.1672
 4735TIP3    H214212   2.069   1.969   0.370  1.1008  0.7484  1.0160
 4736TIP3   OH214213   1.242   1.988   0.513 -0.4725 -0.9367  0.4681
 4736TIP3    H114214   1.235   1.898   0.545 -0.2075 -0.8784  0.6980
 4736TIP3    H214215   1.156   2.007   0.475 -0.8189 -0.9860  1.2133
 4737TIP3   OH214216   2.643   2.044   2.896 -0.0671  0.0044  0.0815
 4737TIP3    H114217   2.554   2.067   2.870  0.1253 -0.3109 -0.9274
 4737TIP3    H214218   2.633   1.985   2.970 -0.6331  1.3670  1.1328
 4738TIP3   OH214219   4.472   1.646   0.140 -0.1617 -0.0917  0.1435
 4738TIP3    H114220   4.443   1.640   0.231  0.3777 -0.3344  0.3058
 4738TIP3    H214221   4.493   1.556   0.115  2.3131  0.2442  0.6872
 4739TIP3   OH214222   3.685   3.232   4.929 -0.3206 -1.1584  1.0594
 4739TIP3    H114223   3.679   3.327   4.938  0.0390 -0.9893 -0.2144
 4739TIP3    H214224   3.600   3.200   4.959 -1.5045 -0.1807 -1.0298
 4740TIP3   OH214225   0.933   3.984   1.828  0.1315  0.1192  0.7534
 4740TIP3    H114226   0.898   4.062   1.870 -1.5113  1.0896 -2.1087
 4740TIP3    H214227   0.859   3.924   1.824 -0.7889  1.2132 -3.1295
 4741TIP3   OH214228   4.691   3.638   0.137  0.3976 -0.0587  0.2239
 4741TIP3    H114229   4.720   3.608   0.223 -2.2610 -1.7290  0.6618
 4741TIP3    H214230   4.696   3.560   0.082 -1.2486  0.0739 -0.1662
 4742TIP3   OH214231   5.896   2.769   0.901 -0.4268 -0.2510  0.1265
 4742TIP3    H114232   5.948   2.704   0.948 -1.7717 -0.4301  1.4580
 4742TIP3    H214233   5.808   2.759   0.936 -1.4947 -0.2291 -2.3116
 4743TIP3   OH214234   0.077   4.524   1.059 -0.1761 -0.4515 -0.6256
 4743TIP3    H114235   0.101   4.539   1.150  0.5028  0.7694 -0.9840
 4743TIP3    H214236   0.106   4.603   1.013  1.6915 -2.0110 -2.3135
 4744TIP3   OH214237   4.670   1.702   0.931  0.4446 -0.3028  0.1017
 4744TIP3    H114238   4.723   1.648   0.873  0.2499  0.0917 -0.4467
 4744TIP3    H214239   4.685   1.665   1.018 -0.9078 -2.2429 -0.4291
 4745TIP3   OH214240   3.979   3.464   4.930 -0.5335 -0.1157 -0.2846
 4745TIP3    H114241   3.977   3.558   4.944 -0.6073  0.0571 -1.3638
 4745TIP3    H214242   3.928   3.451   4.850  0.9896 -0.8698 -1.1697
 4746TIP3   OH214243   2.163   1.764   4.819  0.3759  0.2092 -0.3974
 4746TIP3    H114244   2.216   1.820   4.876  0.8801 -1.2969  0.6690
 4746TIP3    H214245   2.226   1.713   4.769  0.0194 -2.0335  1.3136
 4747TIP3   OH214246   5.988   4.631   4.870 -0.5050  0.4265 -0.3363
 4747TIP3    H114247   5.909   4.655   4.822 -0.7452 -1.0851 -0.7435
 4747TIP3    H214248   6.052   4.699   4.847 -1.0022  0.4300 -1.7986
 4748TIP3   OH214249   2.921   2.537   0.691  0.3630  0.5643 -0.1774
 4748TIP3    H114250   2.867   2.527   0.770  1.9492  1.2997  1.0765
 4748TIP3    H214251   2.918   2.451   0.649  0.0705 -0.0753  1.1031
 4749TIP3   OH214252   6.146   0.050   3.872  0.1052 -0.3477 -0.6830
 4749TIP3    H114253   6.228   0.099   3.876 -0.0729 -0.0859 -0.1810
 4749TIP3    H214254   6.106   0.077   3.789 -0.2448  0.7696 -0.1664
 4750TIP3   OH214255   4.695   4.271   5.011  0.4486  0.2238 -0.3169
 4750TIP3    H114256   4.660   4.182   5.019  1.6052 -0.2345 -0.1291
 4750TIP3    H214257   4.669   4.315   5.092 -0.0253  0.0280 -0.3586
 4751TIP3   OH214258   1.159   3.782   4.233  0.0740  0.6986 -0.3533
 4751TIP3    H114259   1.253   3.761   4.226 -0.3074 -1.1774 -0.3803
 4751TIP3    H214260   1.120   3.739   4.157 -1.0776 -0.3405  0.7801
 4752TIP3   OH214261   1.220   4.362   3.829  0.2123  0.1178  0.3808
 4752TIP3    H114262   1.293   4.422   3.840  0.3383  0.2235 -0.8685
 4752TIP3    H214263   1.157   4.386   3.897  0.4152  1.4293  0.1211
 4753TIP3   OH214264   3.412   2.912   4.359  0.0133  0.3281 -0.2148
 4753TIP3    H114265   3.389   2.916   4.266  1.4153 -2.5162 -0.7869
 4753TIP3    H214266   3.328   2.909   4.405 -0.7653 -1.5120 -1.6503
 4754TIP3   OH214267   5.003   1.069   3.814  0.4681 -0.0556 -0.2356
 4754TIP3    H114268   4.965   1.040   3.731  0.3461  0.2594 -0.2898
 4754TIP3    H214269   5.094   1.038   3.811  0.3290 -0.4700 -0.2721
 4755TIP3   OH214270   1.566   2.150   2.800 -0.1542  0.0819 -0.4766
 4755TIP3    H114271   1.500   2.201   2.753  0.1477 -1.1290 -2.3109
 4755TIP3    H214272   1.520   2.114   2.876 -0.9852  1.0644 -0.4970
 4756TIP3   OH214273   3.911   3.571   2.579 -0.2663 -0.1244  0.6685
 4756TIP3    H114274   3.849   3.521   2.526  0.2292 -1.0521  0.9526
 4756TIP3    H214275   3.941   3.510   2.646  0.7718  0.3823  0.6875
 4757TIP3   OH214276   2.553   2.567   1.594 -0.6971 -0.3087  0.3452
 4757TIP3    H114277   2.636   2.548   1.551 -0.5364 -2.1456  1.3539
 4757TIP3    H214278   2.573   2.637   1.656 -0.3257  0.4786 -0.6476
 4758TIP3   OH214279   1.672   4.482   0.397  0.2252 -0.1326 -0.7143
 4758TIP3    H114280   1.730   4.511   0.467 -1.0425  1.4902 -0.2822
 4758TIP3    H214281   1.596   4.446   0.442 -0.7792  1.2949 -1.2017
 4759TIP3   OH214282   1.708   4.375   1.260 -0.1577 -0.0264 -0.3520
 4759TIP3    H114283   1.765   4.451   1.250  1.1324 -0.8363  0.5937
 4759TIP3    H214284   1.624   4.404   1.225  0.4458  1.6612 -0.4995
 4760TIP3   OH214285   1.435   0.928   0.976 -0.3230  0.6027 -0.4647
 4760TIP3    H114286   1.342   0.934   0.999 -0.4798  3.1610 -1.4100
 4760TIP3    H214287   1.437   0.873   0.898 -0.8041 -0.7068  0.3965
 4761TIP3   OH214288   2.475   3.318   0.690 -0.6734 -0.0537 -0.1595
 4761TIP3    H114289   2.392   3.348   0.727 -0.9743 -0.5278 -0.4323
 4761TIP3    H214290   2.457   3.310   0.596  0.4684  2.4835 -0.6681
 4762TIP3   OH214291   0.486   1.246   1.389  0.1835 -0.0772 -0.5274
 4762TIP3    H114292   0.416   1.210   1.443 -0.2996  0.4852 -0.7657
 4762TIP3    H214293   0.441   1.301   1.324  0.9092  1.3577  0.1331
 4763TIP3   OH214294   0.711   5.121   3.073 -0.2867 -0.4139 -0.0468
 4763TIP3    H114295   0.797   5.162   3.065  0.0099 -1.1903 -1.0523
 4763TIP3    H214296   0.722   5.055   3.142 -0.1974 -0.2139  0.1306
 4764TIP3   OH214297   1.823   3.211   0.932  0.1828 -0.0396 -0.4150
 4764TIP3    H114298   1.839   3.249   1.018 -0.9667  2.1266 -1.0898
 4764TIP3    H214299   1.867   3.126   0.935  2.2137  0.9818  1.4587
 4765TIP3   OH214300   5.245   4.415   2.109 -0.1235 -0.4321  0.5922
 4765TIP3    H114301   5.322   4.464   2.138  1.0257 -1.6423 -0.3026
 4765TIP3    H214302   5.180   4.482   2.090  0.8869  0.6577  0.8751
 4766TIP3   OH214303   4.325   3.282   3.466 -0.1583  0.0405 -0.0599
 4766TIP3    H114304   4.362   3.280   3.554 -0.3678 -0.3186  0.0213
 4766TIP3    H214305   4.270   3.203   3.460 -1.9308  1.1812  0.2676
 4767TIP3   OH214306   6.055   2.052   0.475 -0.6773 -0.5464  0.2527
 4767TIP3    H114307   6.057   1.964   0.437  0.4094 -0.5716  0.3140
 4767TIP3    H214308   6.049   2.111   0.400 -2.0297 -0.6795  0.2438
 4768TIP3   OH214309   4.757   0.641   1.432 -0.0059 -0.2228  0.5194
 4768TIP3    H114310   4.781   0.561   1.387 -1.5594 -0.2888 -0.2588
 4768TIP3    H214311   4.796   0.633   1.519  1.2884 -1.0300 -0.1176
 4769TIP3   OH214312   2.866   1.742   0.550  0.2219 -0.3254  0.2306
 4769TIP3    H114313   2.867   1.815   0.489 -1.5914  0.4145  1.0287
 4769TIP3    H214314   2.878   1.665   0.496  1.4957  0.4752 -0.7042
 4770TIP3   OH214315   1.853   2.753   2.061 -0.0928  0.1665  0.0471
 4770TIP3    H114316   1.879   2.751   1.969  1.4497 -0.4991  0.4677
 4770TIP3    H214317   1.818   2.841   2.074 -1.2199 -0.0283 -1.3890
 4771TIP3   OH214318   0.778   1.004   1.953  0.0093  0.2476 -0.2338
 4771TIP3    H114319   0.856   1.019   1.898 -0.6781  1.1299 -0.9859
 4771TIP3    H214320   0.704   1.012   1.893 -0.8642  2.6381  1.0535
 4772TIP3   OH214321   1.435   5.447   2.443 -0.3559 -0.3266 -0.0828
 4772TIP3    H114322   1.377   5.380   2.480 -1.1683  1.2556  1.6653
 4772TIP3    H214323   1.493   5.471   2.515 -0.9685  1.7593 -0.2141
 4773TIP3   OH214324   1.937   1.706   3.110  0.3512  0.7286 -0.4077
 4773TIP3    H114325   1.847   1.698   3.077  0.4662  1.4250 -0.9344
 4773TIP3    H214326   1.984   1.749   3.038  1.3129 -0.4155 -0.4841
 4774TIP3   OH214327   0.491   5.764   0.583  0.2251 -0.4165  0.1199
 4774TIP3    H114328   0.539   5.827   0.638 -0.4434 -0.2085  0.4694
 4774TIP3    H214329   0.402   5.798   0.581  0.1602 -0.6366 -0.7882
 4775TIP3   OH214330   2.823   1.370   0.055  0.2294  0.5534  0.4139
 4775TIP3    H114331   2.847   1.450   0.009  1.4746 -0.5679 -0.9520
 4775TIP3    H214332   2.732   1.354   0.029  0.9132 -0.0789 -1.7764
 4776TIP3   OH214333   5.896   1.975   1.977  0.1642 -0.5521 -0.4895
 4776TIP3    H114334   5.858   1.998   1.892  0.9360 -0.2397 -0.7641
 4776TIP3    H214335   5.823   1.939   2.027 -0.4430 -0.1468 -1.0617
 4777TIP3   OH214336   2.710   1.107   0.609 -0.3793 -0.3173  0.5301
 4777TIP3    H114337   2.738   1.123   0.519 -1.8537  1.2197  0.2851
 4777TIP3    H214338   2.629   1.057   0.601 -1.3598  1.1601  0.9036
 4778TIP3   OH214339   2.325   2.076   1.443 -0.2793 -0.6897  0.4232
 4778TIP3    H114340   2.258   2.140   1.420 -0.1195 -0.5281  0.4082
 4778TIP3    H214341   2.404   2.128   1.461  0.0162 -0.9147 -0.1856
 4779TIP3   OH214342   0.341   2.661   4.512  0.1205  0.3346 -0.1444
 4779TIP3    H114343   0.409   2.715   4.471  2.5540 -1.1642  1.6321
 4779TIP3    H214344   0.334   2.585   4.453  1.2158 -0.2595  0.4517
 4780TIP3   OH214345   0.079   3.970   3.084  0.4679  0.3463  0.3717
 4780TIP3    H114346   0.094   3.881   3.050  1.0784  0.1893  1.0107
 4780TIP3    H214347   0.114   4.028   3.017 -1.2395  0.1621 -0.7051
 4781TIP3   OH214348   3.509   5.449   0.324 -0.0225 -1.0285 -0.0366
 4781TIP3    H114349   3.449   5.379   0.298 -1.3131  0.9438 -2.8522
 4781TIP3    H214350   3.504   5.513   0.253  0.3436  2.4047  2.7543
 4782TIP3   OH214351   1.309   4.877   3.711 -1.0925 -0.2447  0.1738
 4782TIP3    H114352   1.312   4.790   3.752  2.5233 -0.2687  0.1801
 4782TIP3    H214353   1.313   4.859   3.617  0.1720 -0.0937  0.1950
 4783TIP3   OH214354   2.183   3.653   0.889  0.1556 -0.0323  0.1918
 4783TIP3    H114355   2.151   3.737   0.858 -1.4052 -1.1289 -1.3902
 4783TIP3    H214356   2.141   3.640   0.973  0.4362  0.7674  0.4581
 4784TIP3   OH214357   3.720   4.779   1.691 -0.1549 -0.1104  0.5637
 4784TIP3    H114358   3.814   4.780   1.711  0.0571 -0.5581 -0.3256
 4784TIP3    H214359   3.694   4.871   1.695  0.5159  0.1185  0.0160
 4785TIP3   OH214360   0.550   4.960   4.685  0.7445 -0.5864  0.0892
 4785TIP3    H114361   0.644   4.975   4.679  0.4932  0.4716 -2.0981
 4785TIP3    H214362   0.536   4.936   4.777  2.6970  2.4230  1.3348
 4786TIP3   OH214363   5.911   1.958   4.671  0.5791  0.4245  0.1357
 4786TIP3    H114364   5.923   1.991   4.760 -1.0309  0.0906  0.5042
 4786TIP3    H214365   5.862   2.027   4.626  0.6278  0.2184 -0.2389
 4787TIP3   OH214366   0.859   2.542   1.767 -0.4542 -0.2289  0.4271
 4787TIP3    H114367   0.847   2.556   1.673 -0.1725 -1.6544  0.1583
 4787TIP3    H214368   0.822   2.621   1.808 -2.3091 -0.3959 -0.7884
 4788TIP3   OH214369   3.869   3.526   0.989  0.3714  0.1110 -0.2430
 4788TIP3    H114370   3.790   3.516   1.042  1.0824  0.0163  0.8132
 4788TIP3    H214371   3.919   3.595   1.032  0.7531  0.3584 -1.0564
 4789TIP3   OH214372   5.648   3.971   3.859 -0.7488  0.3457 -0.2037
 4789TIP3    H114373   5.708   4.024   3.808  0.0618 -1.1427 -0.8719
 4789TIP3    H214374   5.703   3.903   3.898 -1.7986 -0.2853  0.2294
 4790TIP3   OH214375   3.679   5.951   1.805 -0.3399 -0.3584  0.2420
 4790TIP3    H114376   3.718   5.909   1.728  0.6152 -0.1007  0.5736
 4790TIP3    H214377   3.598   5.990   1.772  0.7897  1.0806 -1.0224
 4791TIP3   OH214378   3.874   0.142   1.159  0.3059  0.2634 -0.5117
 4791TIP3    H114379   3.890   0.077   1.227 -0.6523  0.3099 -0.2177
 4791TIP3    H214380   3.782   0.127   1.133  0.4588  0.6677 -1.3355
 4792TIP3   OH214381   0.759   2.377   1.236  0.6207 -0.3217 -0.3322
 4792TIP3    H114382   0.734   2.468   1.253  0.1446 -0.0973 -2.0259
 4792TIP3    H214383   0.853   2.381   1.218  0.2985  0.1296 -2.0727
 4793TIP3   OH214384   2.710   4.548   1.506 -0.1042  0.2301  0.6616
 4793TIP3    H114385   2.675   4.634   1.481 -0.4068  0.8355  2.9219
 4793TIP3    H214386   2.798   4.567   1.539  0.1618 -0.4662  0.3634
 4794TIP3   OH214387   4.711   3.155   1.825 -0.5976  0.2332 -0.0915
 4794TIP3    H114388   4.646   3.088   1.804 -1.9933  1.1806  1.0501
 4794TIP3    H214389   4.728   3.198   1.741 -1.1545 -0.2802 -0.4804
 4795TIP3   OH214390   2.916   0.676   2.707 -0.6945  0.0548 -0.4381
 4795TIP3    H114391   2.962   0.606   2.752 -1.2683  0.7309  1.2935
 4795TIP3    H214392   2.981   0.745   2.694 -0.5767 -0.0564 -0.4281
 4796TIP3   OH214393   5.200   2.603   3.253  0.1034 -0.3571  0.0020
 4796TIP3    H114394   5.293   2.611   3.229 -0.1008 -0.8589 -0.9795
 4796TIP3    H214395   5.170   2.525   3.207 -0.0891 -1.9286  2.5995
 4797TIP3   OH214396   0.900   3.475   4.591  0.6774  0.3873  0.2775
 4797TIP3    H114397   0.828   3.475   4.528  1.9295  0.0096 -1.2289
 4797TIP3    H214398   0.911   3.383   4.614  0.8829  0.4071  0.2574
 4798TIP3   OH214399   6.190   4.322   5.171 -0.4249 -0.3748 -0.3473
 4798TIP3    H114400   6.285   4.336   5.163 -0.3843 -0.4413  0.0019
 4798TIP3    H214401   6.151   4.403   5.137 -0.1566  1.6397  3.5613
 4799TIP3   OH214402   1.533   5.528   4.853  0.2407  0.1469  0.3565
 4799TIP3    H114403   1.564   5.536   4.943 -0.3108  0.9816  0.4847
 4799TIP3    H214404   1.603   5.482   4.807  0.3563 -0.6421  1.2958
 4800TIP3   OH214405   4.705   2.315   4.785  0.2253 -0.5922 -0.3753
 4800TIP3    H114406   4.774   2.381   4.797  0.4711 -0.8858 -0.1556
 4800TIP3    H214407   4.742   2.234   4.821 -0.6120 -0.5258  0.6825
 4801TIP3   OH214408   2.738   5.054   2.732 -0.2424  0.2958 -0.3839
 4801TIP3    H114409   2.834   5.059   2.736 -0.1861 -0.6388 -0.4314
 4801TIP3    H214410   2.710   5.146   2.726  0.6469  0.5787 -0.4112
 4802TIP3   OH214411   2.003   3.224   0.229  0.7940 -0.2339 -0.7228
 4802TIP3    H114412   2.003   3.299   0.171  0.7465 -0.9729 -1.6965
 4802TIP3    H214413   1.912   3.217   0.260  0.1499 -1.4256 -2.6967
 4803TIP3   OH214414   6.192   3.159   4.056  0.0233  0.2158  0.5949
 4803TIP3    H114415   6.135   3.135   4.128  0.4571 -0.5907  0.6851
 4803TIP3    H214416   6.168   3.249   4.034 -1.5431 -0.2275  0.3728
 4804TIP3   OH214417   3.340   4.089   0.026 -0.9587 -0.0246 -0.4155
 4804TIP3    H114418   3.310   4.148  -0.044 -1.6026  2.1837  1.5898
 4804TIP3    H214419   3.432   4.113   0.038 -0.8479 -0.4070 -0.4945
 4805TIP3   OH214420   1.298   5.569   0.149  0.0287 -0.4559 -0.1033
 4805TIP3    H114421   1.237   5.642   0.136  0.0169 -0.2584  1.0125
 4805TIP3    H214422   1.279   5.509   0.077 -1.3615 -0.3129  0.1278
 4806TIP3   OH214423   0.796   4.453   4.761  0.3361 -0.3715 -0.1804
 4806TIP3    H114424   0.871   4.451   4.703 -0.4816 -0.1736 -1.2830
 4806TIP3    H214425   0.802   4.373   4.812  0.6120 -0.9776 -1.1428
 4807TIP3   OH214426   4.151   5.569   1.747 -0.0446 -0.3178  0.1138
 4807TIP3    H114427   4.097   5.647   1.759 -0.4112 -0.3203 -1.3847
 4807TIP3    H214428   4.237   5.595   1.780 -0.4648  0.3282  0.7260
 4808TIP3   OH214429   1.368   4.647   2.308 -0.1830 -0.3469 -0.0720
 4808TIP3    H114430   1.411   4.568   2.341  0.9369  0.3175  0.1196
 4808TIP3    H214431   1.276   4.633   2.327  0.0155 -1.5188  0.1529
 4809TIP3   OH214432   4.242   0.411   2.082 -0.2184  0.8008 -0.4110
 4809TIP3    H114433   4.236   0.444   1.992 -0.9277  1.1196 -0.2545
 4809TIP3    H214434   4.306   0.468   2.124 -0.6482  1.3042 -0.4344
 4810TIP3   OH214435   5.683   0.971   1.074 -0.0867 -0.2458 -0.3078
 4810TIP3    H114436   5.626   0.994   1.147  0.6626  1.5991 -0.2457
 4810TIP3    H214437   5.640   0.896   1.033 -1.0789 -0.6527  1.3706
 4811TIP3   OH214438   1.458   0.117   0.799  1.0418 -0.2585  0.3441
 4811TIP3    H114439   1.397   0.100   0.727  0.4661 -1.9406  1.1693
 4811TIP3    H214440   1.404   0.157   0.867  0.7025 -2.0821  1.2154
 4812TIP3   OH214441   4.925   5.780   4.142 -0.0361 -0.0826 -0.0394
 4812TIP3    H114442   4.899   5.869   4.167 -1.5646 -0.7242  0.8132
 4812TIP3    H214443   5.012   5.768   4.180  0.5665  1.3324 -0.9076
 4813TIP3   OH214444   5.071   2.156   4.871 -0.0774 -0.3872 -0.4742
 4813TIP3    H114445   5.068   2.062   4.856 -0.0899 -0.1535 -2.1087
 4813TIP3    H214446   5.002   2.172   4.936  2.4524 -1.9443  2.9265
 4814TIP3   OH214447   1.813   3.741   1.062 -0.1700 -0.5484  0.2675
 4814TIP3    H114448   1.901   3.776   1.051 -0.5188  0.2206 -0.1394
 4814TIP3    H214449   1.756   3.818   1.067 -0.8253 -1.0320  0.5173
 4815TIP3   OH214450   4.544   5.679   1.741 -0.6365  0.1505  0.4217
 4815TIP3    H114451   4.485   5.703   1.670 -0.3414 -1.1273 -0.2735
 4815TIP3    H214452   4.488   5.638   1.806 -0.4217 -2.0361 -0.6986
 4816TIP3   OH214453   1.068   2.359   1.187 -0.0025  0.5657  0.3648
 4816TIP3    H114454   1.059   2.284   1.246  0.2468  0.3495  0.1284
 4816TIP3    H214455   1.154   2.348   1.146 -0.5517  0.2046 -0.7447
 4817TIP3   OH214456   1.353   3.168   3.867  0.2111  0.2187  0.0646
 4817TIP3    H114457   1.349   3.199   3.957 -0.0535  1.1521 -0.2534
 4817TIP3    H214458   1.445   3.144   3.853  0.1974 -0.1977  0.6602
 4818TIP3   OH214459   5.355   1.607   3.946 -0.3910  0.5584 -0.4381
 4818TIP3    H114460   5.323   1.519   3.924  0.7537 -0.2750  1.0298
 4818TIP3    H214461   5.370   1.649   3.861  0.3725 -1.1656 -1.2058
 4819TIP3   OH214462   2.192   1.063   3.281  0.8550  0.2185 -0.1067
 4819TIP3    H114463   2.130   1.111   3.227  1.0861  2.2241  1.2943
 4819TIP3    H214464   2.269   1.052   3.225  0.7014  1.3098 -0.5567
 4820TIP3   OH214465   5.831   5.033   1.940 -0.0103 -0.1035 -0.1788
 4820TIP3    H114466   5.887   5.090   1.888 -1.7109  1.0137 -0.8958
 4820TIP3    H214467   5.844   5.060   2.030  1.1319 -0.3794 -0.2479
 4821TIP3   OH214468   3.326   4.826   3.257 -0.2583  0.1586  0.0038
 4821TIP3    H114469   3.263   4.825   3.185  0.5346 -0.7557 -0.7035
 4821TIP3    H214470   3.304   4.905   3.307 -1.7927 -0.0026 -0.3545
 4822TIP3   OH214471   5.348   4.346   0.873 -0.3959  0.1021  0.0540
 4822TIP3    H114472   5.434   4.378   0.898  0.3258 -0.4906 -1.5341
 4822TIP3    H214473   5.295   4.353   0.952  1.0218  0.7576  0.9700
 4823TIP3   OH214474   1.411   5.480   1.995  0.2013 -0.5482  0.3171
 4823TIP3    H114475   1.506   5.473   1.994  0.2935  0.4699 -0.5337
 4823TIP3    H214476   1.381   5.418   1.929  0.1955 -1.5760  1.2633
 4824TIP3   OH214477   3.543   4.360   3.615 -0.3592  0.2142  0.4478
 4824TIP3    H114478   3.548   4.451   3.642  1.9988 -0.0553  1.1668
 4824TIP3    H214479   3.620   4.319   3.655 -1.2292 -2.0429 -0.0422
 4825TIP3   OH214480   6.343   4.263   1.078 -0.1077 -0.2622  0.4340
 4825TIP3    H114481   6.266   4.288   1.129 -0.2966  2.1621 -0.8929
 4825TIP3    H214482   6.401   4.339   1.084  0.8172 -0.8048 -1.0782
 4826TIP3   OH214483   0.703   0.521   3.210  0.3589 -0.1859  0.6381
 4826TIP3    H114484   0.630   0.495   3.153  0.2664 -0.5167  0.9066
 4826TIP3    H214485   0.701   0.617   3.209  0.6093 -0.1819 -0.2413
 4827TIP3   OH214486   5.315   1.882   3.113 -0.3444  0.1189  0.0965
 4827TIP3    H114487   5.311   1.830   3.033 -0.8464  1.1191 -0.5591
 4827TIP3    H214488   5.276   1.827   3.181  2.8641 -2.0055  0.4306
 4828TIP3   OH214489   1.059   3.411   1.442 -0.0743  0.1372  0.0768
 4828TIP3    H114490   1.105   3.489   1.410  1.5814 -0.8792 -0.1410
 4828TIP3    H214491   1.124   3.365   1.496 -0.7246 -1.5285 -0.4916
 4829TIP3   OH214492   3.703   5.214   3.081 -0.3918  0.3925  0.1200
 4829TIP3    H114493   3.675   5.288   3.136 -0.7035  0.0454  0.4323
 4829TIP3    H214494   3.788   5.189   3.116 -1.3513 -0.9544  1.6029
 4830TIP3   OH214495   5.454   4.930   0.647 -0.6113 -0.1527 -0.2327
 4830TIP3    H114496   5.458   4.975   0.732  0.9631 -0.6026 -0.0351
 4830TIP3    H214497   5.362   4.936   0.622 -0.9230  0.9194  0.9986
 4831TIP3   OH214498   0.253   5.226   3.844 -0.0050 -0.7802 -0.2864
 4831TIP3    H114499   0.262   5.313   3.806 -1.0442 -0.1527  0.8135
 4831TIP3    H214500   0.181   5.185   3.796 -1.1929 -0.0591  0.8290
 4832TIP3   OH214501   6.295   3.113   2.257  0.0818  0.2311 -0.4742
 4832TIP3    H114502   6.210   3.154   2.270 -0.0771 -0.6276  1.7797
 4832TIP3    H214503   6.358   3.176   2.293  0.2224  0.1516 -0.5788
 4833TIP3   OH214504   1.817   5.507   3.046 -0.0990  0.1350 -0.2705
 4833TIP3    H114505   1.842   5.415   3.056  0.3467  0.1762 -0.9071
 4833TIP3    H214506   1.740   5.504   2.989  0.1415  0.1736 -0.6019
 4834TIP3   OH214507   4.460   5.876   4.265  0.2422 -0.9524 -0.1306
 4834TIP3    H114508   4.495   5.900   4.351 -0.5744 -0.3244  0.0382
 4834TIP3    H214509   4.495   5.943   4.206  0.1016 -0.8789 -0.1310
 4835TIP3   OH214510   2.255   0.665   2.442 -0.3903  0.1825 -0.1558
 4835TIP3    H114511   2.258   0.669   2.538  0.5307  0.5933 -0.1955
 4835TIP3    H214512   2.215   0.749   2.416  0.2150  0.4713 -0.1647
 4836TIP3   OH214513   0.177   5.880   2.785  0.3028 -0.1641 -0.2723
 4836TIP3    H114514   0.229   5.958   2.803 -0.0232  0.4618 -1.8911
 4836TIP3    H214515   0.150   5.889   2.694 -0.3750 -1.8105 -0.2772
 4837TIP3   OH214516   5.908   5.830   0.706 -0.0014 -1.0585 -0.4074
 4837TIP3    H114517   5.975   5.768   0.677  1.3503  1.0341 -2.1434
 4837TIP3    H214518   5.910   5.899   0.640 -1.4856  0.7742  1.3413
 4838TIP3   OH214519   2.202   5.784   1.636 -0.5184 -0.2160  0.5266
 4838TIP3    H114520   2.227   5.839   1.711 -1.6222  2.5791 -0.9932
 4838TIP3    H214521   2.108   5.774   1.644 -0.6099 -0.1256 -0.3147
 4839TIP3   OH214522   2.027   3.331   4.713  0.1181  0.1187  0.0651
 4839TIP3    H114523   2.001   3.404   4.769  1.1745 -0.7480  1.7833
 4839TIP3    H214524   1.965   3.261   4.733  0.0241  0.0481 -0.4500
 4840TIP3   OH214525   4.639   2.013   2.492 -0.4353 -0.1138 -0.0132
 4840TIP3    H114526   4.667   1.932   2.449 -0.6828  0.4807 -1.3666
 4840TIP3    H214527   4.574   2.050   2.432 -1.1194  0.5483  1.1115
 4841TIP3   OH214528   3.175   4.132   3.330 -0.5633  0.1954  0.4282
 4841TIP3    H114529   3.165   4.047   3.288  0.9068 -0.0813  0.5810
 4841TIP3    H214530   3.252   4.123   3.386  0.4263  1.9580 -0.5097
 4842TIP3   OH214531   4.016   5.033   0.608  0.2060  0.1891  0.1615
 4842TIP3    H114532   4.048   4.954   0.565 -1.6827 -0.6165  0.1102
 4842TIP3    H214533   3.922   5.017   0.620  0.1858  1.4893  2.2037
 4843TIP3   OH214534   4.151   5.310   4.496  0.1665 -0.0775 -0.2729
 4843TIP3    H114535   4.130   5.227   4.454  0.0418  0.7352 -1.9209
 4843TIP3    H214536   4.233   5.337   4.455 -1.6785  2.4113 -2.7478
 4844TIP3   OH214537   5.348   2.548   4.268  0.1400 -0.6006  0.8745
 4844TIP3    H114538   5.314   2.628   4.308  0.0873  0.0952 -0.5294
 4844TIP3    H214539   5.310   2.547   4.180  1.8318 -1.0567  0.1147
 4845TIP3   OH214540   2.281   1.382   4.563  0.0576  0.6455 -0.1828
 4845TIP3    H114541   2.310   1.293   4.585  0.6184  1.2130  1.6083
 4845TIP3    H214542   2.351   1.438   4.596 -0.6283  1.7874 -0.6225
 4846TIP3   OH214543   0.334   0.277   0.136 -0.0442 -0.1879 -0.0875
 4846TIP3    H114544   0.412   0.229   0.164 -0.6893 -0.4118  1.4081
 4846TIP3    H214545   0.323   0.253   0.044  1.4953 -0.3410 -0.2667
 4847TIP3   OH214546   6.194   3.267   5.109 -0.3001  0.0050 -0.6779
 4847TIP3    H114547   6.280   3.232   5.132 -0.0803  0.1034 -1.3378
 4847TIP3    H214548   6.146   3.268   5.191  0.6086  0.7411 -0.1311
 4848TIP3   OH214549   4.304   3.513   0.317  0.1017 -0.3379 -0.1329
 4848TIP3    H114550   4.295   3.424   0.352  0.5642 -0.5688 -0.5732
 4848TIP3    H214551   4.348   3.562   0.386  0.7224 -0.7074 -0.2580
 4849TIP3   OH214552   3.607   3.946   1.599  0.6862  0.6903 -0.5782
 4849TIP3    H114553   3.581   4.037   1.588  1.8591  1.1815  0.5301
 4849TIP3    H214554   3.599   3.930   1.693  1.0465 -0.1740 -0.6861
 4850TIP3   OH214555   5.271   0.037   2.904 -0.1984 -0.0994  0.2132
 4850TIP3    H114556   5.221   0.117   2.917 -1.9451 -0.9725 -0.7077
 4850TIP3    H214557   5.286   0.003   2.992  0.5636  1.1985  0.6147
 4851TIP3   OH214558   1.424   2.500   0.591 -0.4622 -0.0457  0.1533
 4851TIP3    H114559   1.505   2.545   0.617  0.5829 -0.6707 -1.7956
 4851TIP3    H214560   1.448   2.407   0.593 -0.6968 -0.1682 -1.7239
 4852TIP3   OH214561   0.467   1.064   5.182  0.0223 -0.3371  0.4549
 4852TIP3    H114562   0.403   1.067   5.111  0.0982 -1.3386  0.3195
 4852TIP3    H214563   0.551   1.086   5.140 -0.1737  0.6488  0.5666
 4853TIP3   OH214564   2.038   1.629   3.590  0.1308 -0.1711  0.6864
 4853TIP3    H114565   2.058   1.539   3.565  0.1342  0.1333 -0.4659
 4853TIP3    H214566   1.963   1.654   3.535  0.3014  0.6200  0.7897
 4854TIP3   OH214567   2.880   5.449   2.050 -0.2170 -0.1270 -0.3502
 4854TIP3    H114568   2.937   5.374   2.034 -0.3334 -0.4478  0.6793
 4854TIP3    H214569   2.794   5.411   2.070 -0.1874  0.2568  0.5487
 4855TIP3   OH214570   1.319   5.496   2.791 -0.1236 -0.5792 -0.3847
 4855TIP3    H114571   1.270   5.434   2.737  0.3883 -0.2833 -1.2245
 4855TIP3    H214572   1.326   5.574   2.736  0.2039 -0.1772  0.2157
 4856TIP3   OH214573   4.290   2.454   3.926  0.1410  0.1422 -0.1571
 4856TIP3    H114574   4.218   2.480   3.869  0.7887  1.0128 -0.6027
 4856TIP3    H214575   4.313   2.366   3.898 -0.4739  0.0212 -0.2879
 4857TIP3   OH214576   2.447   5.402   2.947  0.0826  0.1554 -0.4346
 4857TIP3    H114577   2.442   5.457   3.026  1.0565  0.1905 -0.3869
 4857TIP3    H214578   2.360   5.409   2.908 -0.5255 -0.1231  0.8068
 4858TIP3   OH214579   5.235   4.229   3.828  0.3365 -0.4259 -0.1625
 4858TIP3    H114580   5.320   4.242   3.785  0.9548  0.0920  1.1677
 4858TIP3    H214581   5.233   4.135   3.849  0.4715 -0.4826 -0.3963
 4859TIP3   OH214582   2.921   2.754   0.446 -0.6538  0.3012 -0.4260
 4859TIP3    H114583   2.943   2.676   0.496  0.0973  0.2248 -0.8703
 4859TIP3    H214584   2.837   2.783   0.483  0.1583  0.5966  1.3035
 4860TIP3   OH214585   1.420   2.521   3.129 -0.4791 -0.4335  0.5151
 4860TIP3    H114586   1.450   2.430   3.134  0.4498 -0.1165  0.9908
 4860TIP3    H214587   1.421   2.551   3.220 -0.5089  0.1362  0.3320
 4861TIP3   OH214588   1.390   0.436   1.099  0.2384  0.1616 -0.1335
 4861TIP3    H114589   1.372   0.488   1.178  1.4617  1.2277 -0.5249
 4861TIP3    H214590   1.481   0.408   1.108  0.9173  1.6155 -1.8389
 4862TIP3   OH214591   3.855   3.109   4.656  0.2383 -0.7016  0.0633
 4862TIP3    H114592   3.925   3.082   4.716  1.8888  2.4595 -0.2491
 4862TIP3    H214593   3.896   3.112   4.570 -0.7463 -0.3435 -0.4103
 4863TIP3   OH214594   0.812   5.661   4.511 -0.0067 -0.1269  0.1267
 4863TIP3    H114595   0.771   5.592   4.563  0.3876 -0.9267 -0.5881
 4863TIP3    H214596   0.761   5.740   4.530 -1.1297 -0.8415  0.1522
 4864TIP3   OH214597   2.210   0.202   3.236  0.5145  0.0159 -1.2354
 4864TIP3    H114598   2.217   0.141   3.163  0.7049 -0.5979 -0.7143
 4864TIP3    H214599   2.301   0.222   3.261  0.4704  1.0589 -1.8347
 4865TIP3   OH214600   1.665   0.621   4.274 -0.2724  0.4013 -0.8612
 4865TIP3    H114601   1.589   0.612   4.332 -0.1857 -1.9166 -1.0099
 4865TIP3    H214602   1.653   0.705   4.230 -1.3067  1.3456  1.1275
 4866TIP3   OH214603   1.597   2.171   4.343  0.2046 -0.0139 -0.3993
 4866TIP3    H114604   1.618   2.261   4.317 -0.7775 -0.0527 -1.3922
 4866TIP3    H214605   1.569   2.179   4.435  0.4850  0.6356 -0.3650
 4867TIP3   OH214606   1.124   4.901   1.524 -0.1006 -0.3722 -0.0648
 4867TIP3    H114607   1.035   4.899   1.489 -1.2138  0.0048  2.4766
 4867TIP3    H214608   1.135   4.992   1.554  0.8090 -0.6173  0.3705
 4868TIP3   OH214609   5.990   0.261   2.544 -0.1838 -0.6218  0.1218
 4868TIP3    H114610   6.064   0.259   2.484 -0.1934  0.0002  0.0763
 4868TIP3    H214611   6.028   0.248   2.631  0.0300  0.0353  0.1348
 4869TIP3   OH214612   3.725   1.190   0.778  0.3883  0.1467 -0.2312
 4869TIP3    H114613   3.718   1.162   0.869 -1.2802  0.7321 -0.1419
 4869TIP3    H214614   3.808   1.153   0.748  1.5513  0.9070  1.8405
 4870TIP3   OH214615   3.844   1.671   1.953 -1.0118 -0.1432  0.4347
 4870TIP3    H114616   3.929   1.699   1.986 -0.5952 -0.2586 -0.5132
 4870TIP3    H214617   3.787   1.674   2.030 -0.3434  0.6776  0.9276
 4871TIP3   OH214618   5.885   5.302   3.457 -0.0582 -0.3807  0.5177
 4871TIP3    H114619   5.879   5.398   3.451  0.1559 -0.3731  0.4102
 4871TIP3    H214620   5.873   5.272   3.368 -0.5989 -0.4851  0.6212
 4872TIP3   OH214621   5.813   4.200   5.040  0.1426 -0.4963  0.1576
 4872TIP3    H114622   5.819   4.218   4.946 -0.5612 -2.2442 -0.2555
 4872TIP3    H214623   5.827   4.105   5.047 -0.9399 -0.5700  1.6917
 4873TIP3   OH214624   1.298   5.084   2.215  0.4571  0.1041 -0.4951
 4873TIP3    H114625   1.255   5.117   2.137 -0.1493  0.7453  0.1049
 4873TIP3    H214626   1.230   5.082   2.282  1.5135  2.0490  0.7444
 4874TIP3   OH214627   5.337   1.011   2.759 -0.4860 -0.4615  0.0013
 4874TIP3    H114628   5.426   1.036   2.786 -0.0840 -0.7777 -0.9881
 4874TIP3    H214629   5.306   0.954   2.830  0.2851 -0.7469  0.1257
 4875TIP3   OH214630   5.909   4.568   3.765 -0.3828 -0.2766  0.0275
 4875TIP3    H114631   5.951   4.559   3.851 -1.5168 -2.7093  0.4104
 4875TIP3    H214632   5.978   4.601   3.708  0.9044 -0.3551  1.4731
 4876TIP3   OH214633   2.491   3.870   3.949  0.3174 -0.2479 -0.8003
 4876TIP3    H114634   2.480   3.873   4.044  1.5150  2.3223 -0.6426
 4876TIP3    H214635   2.579   3.905   3.934  0.4780 -1.3886 -2.8327
 4877TIP3   OH214636   2.223   3.477   2.158  0.0195 -0.3935  0.0178
 4877TIP3    H114637   2.137   3.467   2.200  0.0570 -1.0917 -0.0561
 4877TIP3    H214638   2.279   3.414   2.204  0.5765  0.2856  0.2799
 4878TIP3   OH214639   0.027   0.658   4.882  0.2146  0.3086 -0.1124
 4878TIP3    H114640   0.087   0.592   4.847  2.1192  1.5437  0.6501
 4878TIP3    H214641  -0.047   0.607   4.916  0.8194 -1.2860 -1.0472
 4879TIP3   OH214642   4.965   5.985   3.876  0.2779  0.0272  0.7743
 4879TIP3    H114643   5.008   6.042   3.813 -0.1390  2.1831  2.3033
 4879TIP3    H214644   5.034   5.927   3.908  0.9976  0.4239 -0.0368
 4880TIP3   OH214645   2.215   4.558   5.152 -0.1308 -0.2969 -0.3098
 4880TIP3    H114646   2.177   4.503   5.083 -2.7477 -0.4214  1.1105
 4880TIP3    H214647   2.147   4.623   5.171  0.7637  0.1078  1.7125
 4881TIP3   OH214648   6.041   1.359   0.404 -0.1586  0.0090  0.2143
 4881TIP3    H114649   6.074   1.442   0.438 -0.7549  0.7498 -0.9285
 4881TIP3    H214650   6.117   1.301   0.404  1.4193  1.7948 -2.7453
 4882TIP3   OH214651   3.587   4.740   0.219 -0.0783 -0.6782 -0.3026
 4882TIP3    H114652   3.576   4.779   0.132  1.8455  1.4152  0.3159
 4882TIP3    H214653   3.682   4.729   0.229 -0.3952 -4.5853  0.0621
 4883TIP3   OH214654   2.169   3.968   0.961  0.4106 -0.5177  0.8948
 4883TIP3    H114655   2.139   4.019   1.036  1.7507  1.4256  0.2094
 4883TIP3    H214656   2.237   3.910   0.996  0.2832 -0.3936  1.3558
 4884TIP3   OH214657   5.775   4.240   4.775  0.2485  0.0505  0.0567
 4884TIP3    H114658   5.734   4.162   4.738 -0.5779  0.0154  1.0159
 4884TIP3    H214659   5.730   4.314   4.733 -0.4923  0.0084  0.7452
 4885TIP3   OH214660   6.063   2.321   1.012 -0.1808  0.2416 -1.0400
 4885TIP3    H114661   6.139   2.333   1.069 -2.4610  3.9310  1.6831
 4885TIP3    H214662   6.073   2.387   0.944 -0.4289 -0.0600 -1.3764
 4886TIP3   OH214663   2.042   2.215   2.117  0.1392  0.6795 -0.1510
 4886TIP3    H114664   2.137   2.199   2.118  0.0680  0.1689 -0.8601
 4886TIP3    H214665   2.003   2.133   2.147 -0.1119  0.5783 -0.7475
 4887TIP3   OH214666   4.884   5.982   0.447  0.1897  0.0776  0.8032
 4887TIP3    H114667   4.891   5.888   0.432 -0.9416  0.1275 -0.2033
 4887TIP3    H214668   4.863   5.990   0.540 -0.2704 -0.7115  0.7768
 4888TIP3   OH214669   1.295   0.535   1.796 -0.1673  0.2828 -0.6506
 4888TIP3    H114670   1.306   0.440   1.792  1.1323  0.3751  0.2092
 4888TIP3    H214671   1.384   0.570   1.785 -0.6438  1.4133 -1.1043
 4889TIP3   OH214672   6.124   4.991   1.237 -0.3293 -0.0211  0.0283
 4889TIP3    H114673   6.149   5.054   1.305 -0.2345 -0.6029  0.5419
 4889TIP3    H214674   6.053   5.034   1.190 -1.2899 -0.1145  1.3221
 4890TIP3   OH214675   0.345   1.710   0.028 -0.1446 -0.1867 -0.1906
 4890TIP3    H114676   0.353   1.716   0.123  2.7082  0.0846 -0.3499
 4890TIP3    H214677   0.281   1.640   0.013  1.4646 -2.2936  1.9896
 4891TIP3   OH214678   5.207   2.929   1.983 -0.0342 -0.0968 -0.5458
 4891TIP3    H114679   5.295   2.932   1.946  0.0329  2.5951 -0.3346
 4891TIP3    H214680   5.149   2.947   1.909 -0.1719  1.2447 -0.1288
 4892TIP3   OH214681   3.923   1.798   3.345 -0.6459 -0.0869  0.4500
 4892TIP3    H114682   3.836   1.811   3.308 -0.3501  2.1693  0.3941
 4892TIP3    H214683   3.923   1.849   3.426 -0.0612 -1.8898  1.6472
 4893TIP3   OH214684   2.865   3.915   1.626  0.0768 -0.0065 -0.1032
 4893TIP3    H114685   2.821   3.980   1.680 -0.3213  0.3174 -0.8035
 4893TIP3    H214686   2.954   3.912   1.659 -0.1036  0.3460  0.4231
 4894TIP3   OH214687   5.878   5.311   0.666  0.0163 -0.1629  0.3419
 4894TIP3    H114688   5.925   5.335   0.746 -2.2547 -1.0549  2.0641
 4894TIP3    H214689   5.841   5.394   0.635  2.1176  0.4457 -0.7051
 4895TIP3   OH214690   4.788   3.282   4.140  0.4759  0.2420  0.4718
 4895TIP3    H114691   4.744   3.212   4.093 -0.3501  0.3847  1.0104
 4895TIP3    H214692   4.851   3.318   4.077  0.2409 -0.3581 -0.1125
 4896TIP3   OH214693   4.767   5.693   2.647  0.2810 -0.2665 -0.3082
 4896TIP3    H114694   4.792   5.641   2.571 -1.5231  0.2470 -1.3058
 4896TIP3    H214695   4.790   5.783   2.624  3.0435 -0.4294  1.2621
 4897TIP3   OH214696   2.503   5.760   3.966  0.0965  0.6400  0.1254
 4897TIP3    H114697   2.522   5.739   4.057  2.9127  0.8993 -0.3201
 4897TIP3    H214698   2.419   5.717   3.948  0.8903 -1.9001  1.9811
 4898TIP3   OH214699   0.821   3.601   4.270  0.0481 -0.1505  0.5870
 4898TIP3    H114700   0.766   3.607   4.349 -0.1645 -0.9785  0.5073
 4898TIP3    H214701   0.842   3.692   4.249 -1.1039  0.1756  0.7582
 4899TIP3   OH214702   2.332   1.021   1.468 -0.4143  0.1538  0.1380
 4899TIP3    H114703   2.426   1.038   1.467 -0.5279  0.8771  0.5332
 4899TIP3    H214704   2.305   1.031   1.376 -0.0324 -0.5256 -0.0485
 4900TIP3   OH214705   3.069   0.073   3.634  0.1227 -0.2500 -0.1432
 4900TIP3    H114706   2.977   0.067   3.657  0.4168 -3.4946  0.6592
 4900TIP3    H214707   3.116   0.062   3.718  1.2337  0.0822 -0.6957
 4901TIP3   OH214708   5.461   3.523   4.329 -0.3881  0.0417  0.2315
 4901TIP3    H114709   5.477   3.569   4.412 -0.9468  1.7719 -0.5691
 4901TIP3    H214710   5.368   3.499   4.334 -0.9010  1.6959 -0.5654
 4902TIP3   OH214711   2.987   0.932   4.455 -0.4122  0.0093 -0.2131
 4902TIP3    H114712   2.929   0.963   4.525  1.2382 -0.0451  1.2439
 4902TIP3    H214713   2.985   1.002   4.390 -2.1357 -0.0223 -0.2510
 4903TIP3   OH214714   5.046   1.934   3.363 -0.9322  0.6055 -0.1091
 4903TIP3    H114715   5.052   1.839   3.354  2.4126  0.7727 -1.1220
 4903TIP3    H214716   4.977   1.960   3.302 -1.5010 -1.0928 -0.2369
 4904TIP3   OH214717   4.901   3.525   3.586  0.3893 -0.0230  0.0252
 4904TIP3    H114718   4.870   3.444   3.626 -0.0903 -0.3203 -0.9203
 4904TIP3    H214719   4.988   3.503   3.553  0.0167 -0.3525 -0.7727
 4905TIP3   OH214720   3.126   0.356   1.785 -0.3495 -0.3382 -0.0610
 4905TIP3    H114721   3.205   0.396   1.748 -0.9341  2.0765  1.0920
 4905TIP3    H214722   3.094   0.298   1.716  1.5893 -0.2484 -1.1218
 4906TIP3   OH214723   5.702   1.687   4.052  0.2308  0.7499  0.6000
 4906TIP3    H114724   5.640   1.753   4.081  0.4808  0.9976  0.5747
 4906TIP3    H214725   5.744   1.656   4.133 -0.4613  0.0387  0.6960
 4907TIP3   OH214726   3.180   3.710   1.716  0.2857 -0.1942  0.0092
 4907TIP3    H114727   3.141   3.665   1.791 -0.3847 -0.7632 -0.6682
 4907TIP3    H214728   3.165   3.652   1.642 -0.0504  0.8568 -0.7769
 4908TIP3   OH214729   5.060   4.863   1.961 -0.2871 -0.5133 -0.0554
 4908TIP3    H114730   5.079   4.785   1.910  2.8700  0.7879 -1.1346
 4908TIP3    H214731   5.127   4.863   2.030  0.2859  1.5334 -0.5291
 4909TIP3   OH214732   0.289   5.939   1.421  0.2110  0.3485  0.0242
 4909TIP3    H114733   0.271   6.028   1.449  1.9021  0.2349  1.6754
 4909TIP3    H214734   0.374   5.918   1.460 -0.6469 -2.3978  0.6687
 4910TIP3   OH214735   6.086   1.712   2.706  0.7171  0.3893  0.6191
 4910TIP3    H114736   6.165   1.766   2.713  0.1277  1.1156  1.9730
 4910TIP3    H214737   6.016   1.768   2.740 -0.2088 -0.6194  0.4145
 4911TIP3   OH214738   3.703   1.562   3.766 -0.3241 -0.2645  0.0625
 4911TIP3    H114739   3.670   1.651   3.770 -1.2089 -0.6223  1.1606
 4911TIP3    H214740   3.625   1.507   3.761  0.2366 -0.9358 -2.2153
 4912TIP3   OH214741   3.174   4.661   4.551  0.3699  0.1577  0.6889
 4912TIP3    H114742   3.116   4.660   4.628 -2.4567 -2.3968 -1.2336
 4912TIP3    H214743   3.170   4.571   4.517  0.8254  1.3284 -2.8610
 4913TIP3   OH214744   1.832   0.633   0.091 -0.4389 -0.0710 -0.4420
 4913TIP3    H114745   1.857   0.675   0.173  0.8821 -1.2457 -0.2010
 4913TIP3    H214746   1.787   0.553   0.118 -1.5486  0.3717 -0.8929
 4914TIP3   OH214747   1.438   1.210   2.882 -0.0929 -0.3510  0.6725
 4914TIP3    H114748   1.431   1.304   2.864  0.0522 -0.5460 -0.4355
 4914TIP3    H214749   1.525   1.185   2.850 -0.6410 -1.1206 -0.2697
 4915TIP3   OH214750   3.748   3.699   1.190  0.3807 -0.2354 -0.1810
 4915TIP3    H114751   3.706   3.710   1.275 -0.7038 -0.8166 -0.6225
 4915TIP3    H214752   3.678   3.671   1.132  1.0509  0.3997 -1.3370
 4916TIP3   OH214753   3.113   1.617   4.724 -0.6954  1.1594  0.1106
 4916TIP3    H114754   3.206   1.594   4.715 -0.7259  0.0695  1.9916
 4916TIP3    H214755   3.108   1.665   4.807 -1.8364  1.0789  0.1091
 4917TIP3   OH214756   4.243   4.366   4.434  0.1093 -0.0977  0.4835
 4917TIP3    H114757   4.309   4.307   4.471  0.9041  1.5688  1.8664
 4917TIP3    H214758   4.293   4.439   4.399 -0.9630  1.1237  1.3957
 4918TIP3   OH214759   4.792   1.529   3.906 -0.8116  0.2766  0.2027
 4918TIP3    H114760   4.868   1.509   3.852 -1.1182  0.2309 -0.2237
 4918TIP3    H214761   4.797   1.467   3.978 -1.3366 -0.8618 -0.7047
 4919TIP3   OH214762   3.398   2.050   2.800  0.4017 -0.2970  0.8889
 4919TIP3    H114763   3.361   2.005   2.724  1.6867 -0.8049  0.5288
 4919TIP3    H214764   3.453   2.119   2.762  0.3338  0.0392  1.3869
 4920TIP3   OH214765   3.916   2.686   3.707 -0.4335 -0.1861 -0.0743
 4920TIP3    H114766   3.905   2.618   3.773  1.1384 -0.2606  0.1564
 4920TIP3    H214767   4.008   2.680   3.681  0.4288  3.2788  1.5705
 4921TIP3   OH214768   5.775   2.167   4.540 -0.4247  0.7202  0.0497
 4921TIP3    H114769   5.838   2.180   4.470 -1.2858  1.3974 -0.6042
 4921TIP3    H214770   5.811   2.215   4.614  0.0082  0.7947 -0.2089
 4922TIP3   OH214771   4.104   1.216   4.050  0.3071 -0.7558  0.5659
 4922TIP3    H114772   4.038   1.211   4.119  1.9998 -2.7572  2.2007
 4922TIP3    H214773   4.187   1.223   4.098  1.3783  0.6806 -1.3690
 4923TIP3   OH214774   3.973   0.670   3.847  0.2976  0.0098  0.1621
 4923TIP3    H114775   3.893   0.722   3.832 -0.6475 -1.2645  0.6128
 4923TIP3    H214776   3.945   0.600   3.906  2.1293  0.4283  1.6034
 4924TIP3   OH214777   3.114   0.291   0.915 -0.7248  0.2067  0.0553
 4924TIP3    H114778   3.097   0.301   1.009  0.1322  1.2035  0.1292
 4924TIP3    H214779   3.132   0.380   0.885 -1.9342  0.0549 -1.2702
 4925TIP3   OH214780   3.461   3.114   3.277  0.2931 -0.0683 -0.6280
 4925TIP3    H114781   3.451   3.183   3.342 -0.9951 -0.2013 -0.6436
 4925TIP3    H214782   3.512   3.046   3.321  0.8402  0.5306 -0.3285
 4926TIP3   OH214783   5.834   1.904   3.140  0.9199 -0.2132  0.3154
 4926TIP3    H114784   5.808   1.893   3.232  1.1277 -0.0960  0.3893
 4926TIP3    H214785   5.926   1.929   3.144  1.1666 -1.0352  0.0400
 4927TIP3   OH214786   1.257   1.554   4.724  0.0672 -0.0762 -0.2764
 4927TIP3    H114787   1.344   1.543   4.763  0.6132  1.7238 -0.9259
 4927TIP3    H214788   1.197   1.535   4.796  0.8168 -4.0737 -0.4355
 4928TIP3   OH214789   3.187   0.556   3.110  0.4604 -0.1041  0.3571
 4928TIP3    H114790   3.196   0.549   3.205  0.9800 -0.3899  0.2893
 4928TIP3    H214791   3.094   0.542   3.094  0.5549 -1.2255  0.7260
 4929TIP3   OH214792   5.241   0.248   1.379  0.1813 -0.4503  0.4651
 4929TIP3    H114793   5.215   0.166   1.336 -0.3622 -0.6560  1.1662
 4929TIP3    H214794   5.163   0.304   1.373  1.3804  1.0987 -2.4652
 4930TIP3   OH214795   1.358   1.003   0.276 -0.6537  0.4835  0.0369
 4930TIP3    H114796   1.365   1.021   0.182 -0.5466 -0.5006 -0.1566
 4930TIP3    H214797   1.434   1.046   0.314  0.2621 -0.5261 -0.5730
 4931TIP3   OH214798   5.673   0.459   0.180 -0.3366  0.0423  0.3843
 4931TIP3    H114799   5.677   0.375   0.226  0.1617  0.7785  1.7735
 4931TIP3    H214800   5.584   0.491   0.198 -1.0539 -0.8304 -1.4115
 4932TIP3   OH214801   3.625   0.791   2.318  0.2926 -0.6655 -0.3599
 4932TIP3    H114802   3.566   0.718   2.338  0.8917 -0.3746  2.9865
 4932TIP3    H214803   3.713   0.752   2.321  0.5302 -0.1413 -0.3770
 4933TIP3   OH214804   3.956   1.948   4.965  0.2943 -0.3031  0.0805
 4933TIP3    H114805   3.864   1.966   4.945  0.5602  1.5063  0.2853
 4933TIP3    H214806   4.005   2.003   4.904  1.1507  1.5765  2.2868
 4934TIP3   OH214807   0.867   0.187   0.737 -0.3885 -0.2561 -0.1834
 4934TIP3    H114808   0.786   0.137   0.733 -0.3948 -0.5196  1.9844
 4934TIP3    H214809   0.937   0.122   0.732 -0.3175 -0.1385 -0.8337
 4935TIP3   OH214810   2.772   2.483   1.423 -0.5688 -0.5008 -0.3618
 4935TIP3    H114811   2.733   2.402   1.389 -0.7559  0.0987 -1.6473
 4935TIP3    H214812   2.850   2.454   1.470 -0.6089 -1.4269 -0.8387
 4936TIP3   OH214813   0.136   3.577   2.532 -0.2841  0.0003 -0.4961
 4936TIP3    H114814   0.041   3.570   2.542 -0.5436  0.3246 -2.2942
 4936TIP3    H214815   0.169   3.491   2.555 -1.2524 -0.7901 -1.8831
 4937TIP3   OH214816   5.171   2.908   0.412 -0.2371  0.3992  0.1972
 4937TIP3    H114817   5.137   2.822   0.439  0.0345  0.0092 -0.6720
 4937TIP3    H214818   5.164   2.908   0.317  0.9478  0.8361  0.0906
 4938TIP3   OH214819   0.280   3.746   0.279  0.0548  0.0503 -0.6522
 4938TIP3    H114820   0.283   3.658   0.241  1.8914  0.2088 -0.9461
 4938TIP3    H214821   0.309   3.804   0.209 -1.0139  0.9025 -0.4188
 4939TIP3   OH214822   1.168   3.257   2.025  0.1807 -0.5102  0.4762
 4939TIP3    H114823   1.260   3.231   2.030 -0.1321 -1.6144  0.6949
 4939TIP3    H214824   1.156   3.284   1.934  1.1012  1.1739  0.8241
 4940TIP3   OH214825   3.453   1.294   0.777 -0.1182 -0.2114  0.3325
 4940TIP3    H114826   3.444   1.362   0.711 -0.3164 -1.1803 -0.6737
 4940TIP3    H214827   3.547   1.278   0.782 -0.0670  0.1757  0.6134
 4941TIP3   OH214828   5.082   0.918   3.261 -0.3151  0.3161 -0.6354
 4941TIP3    H114829   5.075   1.013   3.266  0.9603  0.3779  3.0996
 4941TIP3    H214830   5.172   0.903   3.229 -0.1496  0.3891 -0.2075
 4942TIP3   OH214831   4.812   5.252   4.444  0.4138  0.6094  0.5914
 4942TIP3    H114832   4.784   5.221   4.358 -1.5995  0.1599  1.3517
 4942TIP3    H214833   4.874   5.323   4.426  2.8126 -1.7311 -1.2170
 4943TIP3   OH214834   1.304   4.530   4.177  0.4568 -0.3572  0.2826
 4943TIP3    H114835   1.219   4.485   4.172  0.3612 -0.1800  0.3136
 4943TIP3    H214836   1.359   4.470   4.228  1.1584 -1.7258 -1.9639
 4944TIP3   OH214837   0.534   5.265   3.811 -0.0933 -0.6179 -0.1730
 4944TIP3    H114838   0.451   5.238   3.849  1.0538 -0.1131  2.9432
 4944TIP3    H214839   0.580   5.309   3.882  1.5063  2.1555 -2.6887
 4945TIP3   OH214840   6.065   1.351   1.251  0.3724  0.1329  0.1526
 4945TIP3    H114841   6.140   1.406   1.275 -0.2354  0.3957  1.5519
 4945TIP3    H214842   6.086   1.265   1.285  0.4207 -0.0174 -0.2479
 4946TIP3   OH214843   5.818   1.086   3.255 -0.1457  0.3971  0.3654
 4946TIP3    H114844   5.824   1.009   3.198  1.0274 -0.2772  1.3569
 4946TIP3    H214845   5.785   1.155   3.198  3.5668  0.5160 -1.9679
 4947TIP3   OH214846   4.939   3.743   1.727 -0.6202 -0.3369 -0.6841
 4947TIP3    H114847   4.874   3.770   1.793  0.0786  1.0052 -0.4984
 4947TIP3    H214848   5.017   3.794   1.749  0.0906 -0.9635 -1.6805
 4948TIP3   OH214849   5.174   1.210   5.122 -0.1517 -0.2653 -0.0837
 4948TIP3    H114850   5.152   1.302   5.104  0.1097 -0.2371 -0.2554
 4948TIP3    H214851   5.091   1.164   5.112 -0.7781  0.2666  2.2057
 4949TIP3   OH214852   2.252   2.804   3.482 -0.0576  0.2434  0.2561
 4949TIP3    H114853   2.215   2.891   3.464 -1.7680 -0.4509  0.2850
 4949TIP3    H214854   2.339   2.823   3.520  0.3892  1.8756 -1.4432
 4950TIP3   OH214855   0.539   5.304   1.180  0.3564  0.2240 -0.6560
 4950TIP3    H114856   0.553   5.265   1.266  0.7119  2.0397  0.1501
 4950TIP3    H214857   0.613   5.274   1.128 -0.0279 -1.1470 -0.4622
 4951TIP3   OH214858   2.636   0.024   3.042 -0.0543 -0.5054 -0.3666
 4951TIP3    H114859   2.587  -0.018   3.113 -0.7052 -1.4709 -1.3376
 4951TIP3    H214860   2.723   0.039   3.078  0.3175 -3.0364 -0.0369
 4952TIP3   OH214861   3.179   1.757   0.203 -0.1003 -0.0210  0.2170
 4952TIP3    H114862   3.153   1.674   0.242 -0.3228 -0.2889 -0.4910
 4952TIP3    H214863   3.274   1.752   0.195 -0.3609 -1.7717 -3.2193
 4953TIP3   OH214864   3.785   5.531   4.734  0.5996 -0.0833 -0.3489
 4953TIP3    H114865   3.868   5.546   4.690  0.8424 -1.8581 -0.5759
 4953TIP3    H214866   3.738   5.470   4.677 -0.2094 -0.2976  0.5131
 4954TIP3   OH214867   2.708   5.512   3.685  0.4103  0.1174  0.0112
 4954TIP3    H114868   2.651   5.437   3.667  0.6731  0.1759 -1.1694
 4954TIP3    H214869   2.731   5.503   3.778 -0.5317 -0.5771  0.1956
 4955TIP3   OH214870   2.528   3.431   1.884  1.2468 -0.1361  0.2290
 4955TIP3    H114871   2.502   3.507   1.936  1.4854  0.9513 -1.1546
 4955TIP3    H214872   2.447   3.383   1.869  0.9304  0.3532  0.3564
 4956TIP3   OH214873   5.085   0.163   3.255  0.3779  0.1292  0.2419
 4956TIP3    H114874   5.075   0.075   3.219  3.8066  0.3871 -1.7876
 4956TIP3    H214875   5.059   0.155   3.346  0.4340 -2.9597  0.0782
 4957TIP3   OH214876   0.971   1.036   1.389  0.4958  0.4472 -0.2350
 4957TIP3    H114877   0.939   0.958   1.344  1.0010  0.9528 -1.5210
 4957TIP3    H214878   0.915   1.107   1.357 -0.1217  0.6068  1.1076
 4958TIP3   OH214879   1.740   5.476   4.644  0.1648 -0.2302 -0.2768
 4958TIP3    H114880   1.819   5.425   4.628  0.8311  1.0751 -1.3538
 4958TIP3    H214881   1.767   5.567   4.631 -1.1931  0.3576  0.6955
 4959TIP3   OH214882   0.080   3.487   0.396 -0.0252  0.1826 -0.0023
 4959TIP3    H114883   0.129   3.528   0.467  0.0314  0.8634 -0.4304
 4959TIP3    H214884   0.139   3.490   0.321 -1.1121  2.0916 -0.8445
 4960TIP3   OH214885   2.371   5.201   4.812  0.4332 -0.2848  0.1587
 4960TIP3    H114886   2.281   5.171   4.822  0.1140  1.2413  2.9230
 4960TIP3    H214887   2.371   5.250   4.730 -0.4981 -2.5578 -1.2871
 4961TIP3   OH214888   2.710   3.738   3.683 -0.0743  0.6811 -0.0928
 4961TIP3    H114889   2.692   3.662   3.737 -0.0292  0.4130 -0.4466
 4961TIP3    H214890   2.805   3.747   3.684  0.0734 -0.3696 -1.5025
 4962TIP3   OH214891   2.919   4.585   0.120 -0.4242 -0.0658 -0.5656
 4962TIP3    H114892   2.850   4.647   0.097  0.1435  1.5090  1.5785
 4962TIP3    H214893   2.873   4.502   0.134 -1.5312  0.3905 -1.3916
 4963TIP3   OH214894   1.697   0.240   0.780 -0.0620 -0.4252 -0.1055
 4963TIP3    H114895   1.667   0.328   0.760  0.0511  0.1195  1.8922
 4963TIP3    H214896   1.619   0.185   0.771 -0.4476  0.1061 -0.0639
 4964TIP3   OH214897   4.702   1.240   4.629 -0.2049  0.1830 -0.1883
 4964TIP3    H114898   4.662   1.298   4.694 -1.3718  0.2212 -0.9304
 4964TIP3    H214899   4.795   1.238   4.653  0.0307  2.9706 -0.5745
 4965TIP3   OH214900   0.345   3.725   4.054 -0.7461 -0.2421 -0.1000
 4965TIP3    H114901   0.349   3.702   4.147 -0.0844  0.2823  0.0124
 4965TIP3    H214902   0.300   3.651   4.013 -1.5066 -0.2436  0.7090
 4966TIP3   OH214903   0.641   4.915   1.572  0.5270 -0.1288 -0.1518
 4966TIP3    H114904   0.580   4.980   1.536 -3.2160 -2.4098  1.4141
 4966TIP3    H214905   0.620   4.834   1.525  1.6819 -1.2196  1.1324
 4967TIP3   OH214906   0.222   0.435   4.820  0.2312  0.5974  0.2006
 4967TIP3    H114907   0.287   0.376   4.781  0.6723  0.3430  1.2843
 4967TIP3    H214908   0.138   0.391   4.806  0.5370 -0.2196  0.8404
 4968TIP3   OH214909   1.173   3.813   1.825  0.0981  0.4010  0.1387
 4968TIP3    H114910   1.102   3.876   1.810 -0.5371 -0.5330 -0.9760
 4968TIP3    H214911   1.132   3.728   1.809  1.4285 -0.1636 -0.3428
 4969TIP3   OH214912   0.541   3.706   0.516  0.3921 -0.4310 -0.2302
 4969TIP3    H114913   0.542   3.752   0.600 -0.0351 -1.0724  0.1324
 4969TIP3    H214914   0.469   3.643   0.524 -0.1897  0.0508 -1.3706
 4970TIP3   OH214915   5.832   5.930   2.471 -0.0210 -0.0711  0.0111
 4970TIP3    H114916   5.841   5.869   2.398  1.3239  1.4024 -1.1171
 4970TIP3    H214917   5.911   5.984   2.468 -1.5942  2.4101  0.3203
 4971TIP3   OH214918   0.847   3.964   0.865  0.4306 -0.0307  0.5844
 4971TIP3    H114919   0.774   3.928   0.815 -0.9387 -0.1606  2.5617
 4971TIP3    H214920   0.807   4.031   0.921  1.8821  0.1193  1.4928
 4972TIP3   OH214921   5.204   5.096   3.041  0.5196  0.2209  0.4964
 4972TIP3    H114922   5.258   5.161   3.084  0.4044  1.0015 -0.5135
 4972TIP3    H214923   5.257   5.064   2.968  0.7187 -1.0974  1.1838
 4973TIP3   OH214924   5.995   2.076   2.225 -0.0823  0.2899 -0.1770
 4973TIP3    H114925   5.994   2.164   2.189  2.0638  0.2556 -0.4295
 4973TIP3    H214926   5.980   2.018   2.150 -0.4331  0.3839 -0.1824
 4974TIP3   OH214927   4.547   3.850   0.206 -0.2548 -0.1976  0.1769
 4974TIP3    H114928   4.601   3.859   0.284  0.8704  0.5934 -0.6725
 4974TIP3    H214929   4.575   3.768   0.166 -1.0453 -0.7583  0.7494
 4975TIP3   OH214930   4.477   3.942   3.142 -0.1617 -0.0917  0.4495
 4975TIP3    H114931   4.571   3.941   3.162 -0.0722 -1.5782  0.0983
 4975TIP3    H214932   4.469   4.001   3.068  0.4056  0.5499  0.8900
 4976TIP3   OH214933   3.655   1.286   4.781  0.0039 -0.7495  0.4626
 4976TIP3    H114934   3.690   1.374   4.796 -0.1893 -0.4431 -0.7624
 4976TIP3    H214935   3.592   1.297   4.710 -0.6313 -1.7486  0.8473
 4977TIP3   OH214936   2.122   2.402   2.336 -0.4422  0.1691 -0.0635
 4977TIP3    H114937   2.102   2.410   2.242  0.0484 -0.8807 -0.2645
 4977TIP3    H214938   2.202   2.453   2.347 -0.6199  0.4780 -0.1602
 4978TIP3   OH214939   1.845   1.566   2.802  0.0410 -0.0809 -0.4170
 4978TIP3    H114940   1.932   1.543   2.833 -0.2425  1.1533  1.4960
 4978TIP3    H214941   1.851   1.660   2.783 -1.2538  0.4673  1.5125
 4979TIP3   OH214942   3.658   4.095   2.906  0.0291 -0.5065 -0.1632
 4979TIP3    H114943   3.662   4.152   2.830  0.3870 -0.2696  0.0297
 4979TIP3    H214944   3.725   4.029   2.890 -0.8606 -1.3066 -0.7218
 4980TIP3   OH214945   3.675   3.371   1.973  0.0663  0.3642 -0.7815
 4980TIP3    H114946   3.644   3.309   1.906  0.0841 -0.1440 -0.3314
 4980TIP3    H214947   3.595   3.400   2.017  0.0848  0.3982 -0.7711
 4981TIP3   OH214948   1.094   4.698   4.716 -1.0915 -0.4371  0.0076
 4981TIP3    H114949   1.150   4.776   4.724 -0.7170 -0.4655 -1.7515
 4981TIP3    H214950   1.026   4.725   4.653 -1.8404 -1.0719  0.5319
 4982TIP3   OH214951   5.250   1.469   1.936 -0.1472  0.1330 -0.1903
 4982TIP3    H114952   5.193   1.404   1.977 -0.3123  0.6597  0.4187
 4982TIP3    H214953   5.319   1.417   1.895 -0.0681 -0.4151  0.6177
 4983TIP3   OH214954   0.060   1.931   5.121 -0.0605 -0.3297  0.3406
 4983TIP3    H114955  -0.010   1.879   5.159 -0.6908  0.7742  0.7320
 4983TIP3    H214956   0.134   1.871   5.115 -0.3768 -0.9311  1.9782
 4984TIP3   OH214957   2.379   3.331   0.385  0.0403 -0.1092  0.1834
 4984TIP3    H114958   2.424   3.405   0.345  0.2928  0.0346  0.7183
 4984TIP3    H214959   2.298   3.367   0.421  0.4277  0.0350  0.9426
 4985TIP3   OH214960   4.658   4.194   1.036 -0.5440 -0.5124  0.3779
 4985TIP3    H114961   4.589   4.190   1.102 -0.2463  0.1206  0.7321
 4985TIP3    H214962   4.690   4.284   1.039  0.0665 -0.7075 -0.0175
 4986TIP3   OH214963   5.153   3.849   1.840  0.0764  0.5271 -0.8737
 4986TIP3    H114964   5.209   3.791   1.893  0.6343  0.7324 -1.2300
 4986TIP3    H214965   5.149   3.930   1.891 -0.6497  0.2105 -0.4072
 4987TIP3   OH214966   4.856   2.454   4.277  0.0785  0.0150 -0.5152
 4987TIP3    H114967   4.869   2.403   4.357  0.1443  0.4314 -0.2554
 4987TIP3    H214968   4.940   2.449   4.231  0.0634 -0.1659 -0.5220
 4988TIP3   OH214969   0.371   4.154   3.210  0.4249 -0.4635  0.3440
 4988TIP3    H114970   0.366   4.244   3.241  0.2721 -1.4403  3.5076
 4988TIP3    H214971   0.404   4.161   3.120  1.6655  2.6317  0.9308
 4989TIP3   OH214972   5.948   5.047   0.585 -0.2087  0.7459  0.5295
 4989TIP3    H114973   5.988   5.052   0.498  0.1576  0.1211  0.6572
 4989TIP3    H214974   5.938   5.139   0.612 -0.0023  0.9342 -0.0242
 4990TIP3   OH214975   1.180   5.375   1.733  0.2072 -0.4975 -0.6391
 4990TIP3    H114976   1.273   5.356   1.719  0.0519 -0.7244 -1.4266
 4990TIP3    H214977   1.164   5.456   1.685 -0.4719 -1.6005 -2.3897
 4991TIP3   OH214978   3.409   1.886   3.009 -0.0070  0.1767  0.1696
 4991TIP3    H114979   3.373   1.944   2.941 -0.8834 -0.0002  0.4824
 4991TIP3    H214980   3.385   1.928   3.091 -3.8307 -2.3595  0.5631
 4992TIP3   OH214981   3.390   3.367   1.639 -0.3103  0.1909  1.2613
 4992TIP3    H114982   3.355   3.293   1.689 -1.2393 -0.5998 -0.4820
 4992TIP3    H214983   3.485   3.352   1.638 -0.5391 -1.5631  0.1463
 4993TIP3   OH214984   6.310   6.012   3.029  0.5771  0.5502 -0.3868
 4993TIP3    H114985   6.352   5.928   3.010 -1.1158 -0.1703 -1.2139
 4993TIP3    H214986   6.220   6.000   3.000  0.2463  2.6181 -0.3432
 4994TIP3   OH214987   1.238   2.058   3.651  0.2292 -0.7255  0.0373
 4994TIP3    H114988   1.156   2.038   3.696  0.4723 -1.5172  0.1371
 4994TIP3    H214989   1.299   2.081   3.721  0.5777 -1.8541  0.1178
 4995TIP3   OH214990   1.111   4.011   2.951  0.3551  0.2279  0.0683
 4995TIP3    H114991   1.038   4.004   2.889  1.0961 -1.0745 -0.7065
 4995TIP3    H214992   1.184   4.045   2.900  0.8448 -0.4067  0.3331
 4996TIP3   OH214993   5.165   2.111   2.738  0.1162  0.2344  0.0580
 4996TIP3    H114994   5.167   2.158   2.655 -0.3546 -0.3408 -0.2926
 4996TIP3    H214995   5.234   2.150   2.791  0.5737  0.4461 -0.6948
 4997TIP3   OH214996   6.057   5.760   0.356  0.0593 -0.0020 -0.0157
 4997TIP3    H114997   6.057   5.709   0.437  1.2933  2.9706  2.0475
 4997TIP3    H214998   6.146   5.749   0.320 -0.0085 -0.1472 -0.1379
 4998TIP3   OH214999   2.274   5.236   3.576  0.0033 -0.3219 -0.2816
 4998TIP3    H115000   2.279   5.156   3.524 -0.1041 -1.0038  0.7279
 4998TIP3    H215001   2.182   5.244   3.601 -0.0725  0.3674 -0.7370
 4999TIP3   OH215002   4.812   2.272   2.321  0.0970  0.2273  0.1926
 4999TIP3    H115003   4.800   2.361   2.355  1.9055  0.5635  0.0464
 4999TIP3    H215004   4.836   2.221   2.398  0.3468  0.1574  0.0704
 5000TIP3   OH215005   3.270   5.239   4.380  0.3041  0.2451  0.1515
 5000TIP3    H115006   3.294   5.239   4.287  3.5157  0.7675  0.8515
 5000TIP3    H215007   3.217   5.318   4.391 -0.7640 -0.2116 -1.3162
 5001TIP3   OH215008   5.810   2.514   3.034 -0.3863  0.4698  0.2905
 5001TIP3    H115009   5.904   2.526   3.019  0.3513 -1.4781  2.7451
 5001TIP3    H215010   5.788   2.577   3.102 -0.3624 -0.3507  1.0850
 5002TIP3   OH215011   4.913   1.535   1.725 -0.3137 -0.0839  0.4264
 5002TIP3    H115012   4.873   1.456   1.760  0.0794 -0.2543  0.4985
 5002TIP3    H215013   4.951   1.578   1.801  1.0243 -0.7352  0.1529
 5003TIP3   OH215014   0.467   3.279   3.764  0.1978  0.4623 -0.2290
 5003TIP3    H115015   0.521   3.270   3.686  0.4146 -1.7427  0.0889
 5003TIP3    H215016   0.382   3.308   3.731  0.5308  0.4073 -1.1767
 5004TIP3   OH215017   3.296   5.258   0.570 -0.2653 -0.1127 -0.0612
 5004TIP3    H115018   3.288   5.353   0.578 -0.1777 -0.1403  0.3924
 5004TIP3    H215019   3.206   5.225   0.578 -0.3048 -0.0638 -0.2963
 5005TIP3   OH215020   0.594   1.862   2.806 -0.5261  0.0209  0.1432
 5005TIP3    H115021   0.667   1.805   2.779 -0.7089 -0.0718 -0.1564
 5005TIP3    H215022   0.529   1.802   2.842 -0.0587  0.1883  1.3337
 5006TIP3   OH215023   5.092   4.665   2.739  0.2038 -0.3906  0.0110
 5006TIP3    H115024   5.083   4.596   2.673  0.8786 -0.7420  0.2649
 5006TIP3    H215025   5.104   4.617   2.821  2.1090 -0.0330  0.0065
 5007TIP3   OH215026   1.543   0.524   2.396  0.1284 -0.3283 -0.4222
 5007TIP3    H115027   1.472   0.510   2.459  0.8813 -1.7609  0.1491
 5007TIP3    H215028   1.621   0.540   2.450  0.6414 -0.8737 -0.9882
 5008TIP3   OH215029   2.451   0.178   3.372  0.3453  0.2898 -0.1647
 5008TIP3    H115030   2.517   0.152   3.436 -1.8094 -1.2000  1.6422
 5008TIP3    H215031   2.460   0.115   3.301  0.3866 -0.3931  0.4316
 5009TIP3   OH215032   6.074   2.062   3.196  0.4798 -0.5724  0.4306
 5009TIP3    H115033   6.068   2.124   3.124 -1.6180  0.1589  1.1317
 5009TIP3    H215034   6.165   2.034   3.197  1.2355  1.5889 -0.6807
 5010TIP3   OH215035   5.353   0.389   2.422  0.2814 -0.5194 -0.1716
 5010TIP3    H115036   5.349   0.441   2.503  0.1646 -0.7920 -0.0015
 5010TIP3    H215037   5.446   0.391   2.398 -0.1699  3.4268 -2.5836
 5011TIP3   OH215038   4.901   3.071   0.849 -0.3544 -0.2258  0.1627
 5011TIP3    H115039   4.875   3.093   0.939 -0.3285 -0.6285  0.2692
 5011TIP3    H215040   4.949   2.989   0.857  0.9295  0.4753 -0.0393
 5012TIP3   OH215041   4.659   3.615   4.927  0.0096  0.0446 -0.4926
 5012TIP3    H115042   4.730   3.618   4.990  0.1399 -1.0367 -0.5595
 5012TIP3    H215043   4.662   3.699   4.882  1.6729 -0.2275 -0.9565
 5013TIP3   OH215044   3.570   3.564   1.587  0.2321  0.1712  0.0195
 5013TIP3    H115045   3.523   3.544   1.668 -1.1045  1.8674 -0.2962
 5013TIP3    H215046   3.519   3.519   1.519 -0.7543  1.6686 -0.2720
 5014TIP3   OH215047   0.109   0.674   2.452  0.5149  0.0614  0.3741
 5014TIP3    H115048   0.154   0.759   2.451 -0.7357  0.7439 -0.3518
 5014TIP3    H215049   0.136   0.632   2.370  0.7810 -0.0553  0.5200
 5015TIP3   OH215050   5.264   4.146   0.258 -0.4400 -0.3549 -0.3791
 5015TIP3    H115051   5.198   4.175   0.196 -0.9441  0.2974  0.4445
 5015TIP3    H215052   5.230   4.063   0.292 -2.1323  1.1466  1.8730
 5016TIP3   OH215053   0.802   5.087   4.666 -0.0424  0.8446 -0.2659
 5016TIP3    H115054   0.893   5.101   4.691  0.3792 -1.4280 -0.3277
 5016TIP3    H215055   0.803   5.086   4.570  0.0640 -0.2396 -0.2584
 5017TIP3   OH215056   1.402   1.014   3.385  0.0987  0.1280 -0.1096
 5017TIP3    H115057   1.407   1.101   3.345  1.0308  0.8436  1.4663
 5017TIP3    H215058   1.404   1.030   3.479 -1.4110 -1.5268  0.2698
 5018TIP3   OH215059   3.898   4.753   4.230 -0.2115  0.5665  0.1096
 5018TIP3    H115060   3.930   4.700   4.302  2.8443  1.4846 -0.4547
 5018TIP3    H215061   3.856   4.828   4.272  1.8778  1.2948  1.0291
 5019TIP3   OH215062   5.403   4.278   4.442 -0.7203  0.5284  0.2964
 5019TIP3    H115063   5.404   4.350   4.379 -0.8117  0.0279 -0.2801
 5019TIP3    H215064   5.483   4.228   4.423  0.3882  1.5376  1.9605
 5020TIP3   OH215065   6.105   5.006   3.779  1.0299  0.1441 -0.2887
 5020TIP3    H115066   6.098   5.075   3.713 -0.6125 -0.7953 -1.1612
 5020TIP3    H215067   6.053   5.039   3.853  0.1904 -0.1604 -0.7300
 5021TIP3   OH215068   4.230   4.725   3.242  0.0816  0.3645  0.0868
 5021TIP3    H115069   4.274   4.794   3.193 -0.3464  0.2852 -0.4323
 5021TIP3    H215070   4.226   4.757   3.332  0.6017  0.6558  0.0106
 5022TIP3   OH215071   0.697   5.368   2.378  0.2345 -0.5160  0.2367
 5022TIP3    H115072   0.687   5.359   2.283  2.9546 -1.4004 -0.0437
 5022TIP3    H215073   0.682   5.461   2.395 -1.8584 -0.5971 -0.7677
 5023TIP3   OH215074   0.155   2.938   1.360  0.3888  0.3407 -0.4296
 5023TIP3    H115075   0.087   2.977   1.305 -0.5861  0.6873  0.9665
 5023TIP3    H215076   0.221   2.907   1.298 -0.0891  1.7740 -1.7263
 5024TIP3   OH215077   3.432   4.642   5.054 -0.4842  0.2239 -0.5768
 5024TIP3    H115078   3.447   4.598   5.138  1.5105 -0.1746 -1.0915
 5024TIP3    H215079   3.413   4.570   4.993 -1.0639  0.4410 -0.6630
 5025TIP3   OH215080   6.233   2.176   0.798 -0.0780 -0.8461  0.7951
 5025TIP3    H115081   6.237   2.190   0.892  0.1612 -0.1831  0.6911
 5025TIP3    H215082   6.193   2.090   0.788  0.3776 -1.1472  1.5172
 5026TIP3   OH215083   4.991   3.958   3.781  0.3384  0.1466 -0.0717
 5026TIP3    H115084   4.921   3.895   3.793  1.0114 -0.6233 -0.0960
 5026TIP3    H215085   5.051   3.916   3.719  0.3815  1.1596 -0.7500
 5027TIP3   OH215086   4.677   0.065   1.278 -0.1793  0.2760 -0.3509
 5027TIP3    H115087   4.709   0.065   1.187 -2.5254 -3.1918 -1.3496
 5027TIP3    H215088   4.603   0.126   1.276 -0.2567  0.1757 -0.7755
 5028TIP3   OH215089   1.829   3.311   2.523  0.1078 -0.3465 -0.0336
 5028TIP3    H115090   1.749   3.317   2.576  0.7081  1.3643  0.7765
 5028TIP3    H215091   1.848   3.218   2.518 -0.3342 -0.6175  2.2636
 5029TIP3   OH215092   5.770   3.286   0.725 -0.3375  0.6345  0.0104
 5029TIP3    H115093   5.710   3.277   0.651  0.5514  1.6165 -0.8627
 5029TIP3    H215094   5.771   3.200   0.766  0.2104 -0.3436 -1.9473
 5030TIP3   OH215095   3.088   3.004   1.621 -0.0155  0.3167 -0.2282
 5030TIP3    H115096   3.066   2.976   1.532 -1.8787 -0.9256  0.5532
 5030TIP3    H215097   3.007   2.992   1.670  1.2821 -0.1480  1.9095
 5031TIP3   OH215098   1.929   2.227   3.605  0.0021 -0.2752 -0.3064
 5031TIP3    H115099   1.912   2.178   3.685  0.1646  0.7432  0.3714
 5031TIP3    H215100   1.893   2.314   3.622  0.8487  0.2256 -0.9860
 5032TIP3   OH215101   3.833   3.187   2.646  0.4465  0.0820 -0.7306
 5032TIP3    H115102   3.797   3.241   2.717  1.3179  0.3088 -0.4389
 5032TIP3    H215103   3.770   3.116   2.635  0.4003 -0.0716  0.4227
 5033TIP3   OH215104   3.368   2.598   2.231  0.0096  0.7678  0.6393
 5033TIP3    H115105   3.315   2.653   2.173  0.2729  0.1597 -0.1990
 5033TIP3    H215106   3.455   2.597   2.191 -0.3770 -1.5596 -0.3252
 5034TIP3   OH215107   2.339   0.298   2.641 -0.5068  0.4317  0.2713
 5034TIP3    H115108   2.355   0.344   2.558  0.8879 -2.6843 -1.3228
 5034TIP3    H215109   2.273   0.232   2.619 -0.3529 -0.2360  1.7280
 5035TIP3   OH215110   4.741   5.010   4.651  0.2164  0.2748 -0.2265
 5035TIP3    H115111   4.700   5.053   4.726  0.0212  0.3112 -0.3545
 5035TIP3    H215112   4.796   5.078   4.612 -0.2056  0.4525 -0.5151
 5036TIP3   OH215113   3.614   5.826   2.282 -0.4324  0.0387 -0.4315
 5036TIP3    H115114   3.570   5.804   2.364 -0.5681  2.7817  0.3286
 5036TIP3    H215115   3.549   5.874   2.231  0.2878  0.1515 -1.2831
 5037TIP3   OH215116   3.727   2.312   0.347  0.3999  0.6951  0.0374
 5037TIP3    H115117   3.801   2.353   0.303  0.0735  0.7379 -0.4883
 5037TIP3    H215118   3.660   2.381   0.349  0.0841  0.3953 -0.2400
 5038TIP3   OH215119   4.099   0.036   1.486 -1.0691 -0.0947 -0.0153
 5038TIP3    H115120   4.166   0.097   1.455 -0.2700 -0.5338  0.8043
 5038TIP3    H215121   4.086   0.059   1.578 -0.7903 -1.1062  0.2943
 5039TIP3   OH215122   4.088   2.865   0.049  0.6096 -0.6926 -0.2296
 5039TIP3    H115123   4.170   2.905   0.019  1.8372 -2.5832  0.4617
 5039TIP3    H215124   4.111   2.821   0.131 -1.4426 -0.1094  0.7270
 5040TIP3   OH215125   5.735   2.836   1.859 -0.5679 -1.1448 -0.6073
 5040TIP3    H115126   5.808   2.781   1.887  0.1967 -0.0078 -0.3076
 5040TIP3    H215127   5.771   2.889   1.787 -1.7830 -2.2190 -2.0612
 5041TIP3   OH215128   0.168   1.165   4.542 -0.1579  0.0969 -0.2983
 5041TIP3    H115129   0.260   1.190   4.546  0.1036 -0.9054  0.3386
 5041TIP3    H215130   0.135   1.182   4.631 -0.6747  0.7400 -0.6034
 5042TIP3   OH215131   2.369   3.963   2.435  0.4183  0.2426  0.0603
 5042TIP3    H115132   2.455   3.935   2.404  0.3472  0.0433  0.0380
 5042TIP3    H215133   2.321   3.988   2.356  1.3952  3.1319  0.2625
 5043TIP3   OH215134   2.684   2.984   4.554  0.2608  0.1644  0.2517
 5043TIP3    H115135   2.667   2.941   4.637  0.8995  1.7310  1.2466
 5043TIP3    H215136   2.604   3.035   4.537  0.7494  1.1246  0.7632
 5044TIP3   OH215137   4.099   4.272   2.555 -0.0418 -0.1061  0.2597
 5044TIP3    H115138   4.126   4.360   2.529  0.1167 -0.3430 -0.3787
 5044TIP3    H215139   4.007   4.267   2.528  0.0485 -0.2616 -0.0143
 5045TIP3   OH215140   3.508   1.789   0.752  0.4245  0.4621  0.3014
 5045TIP3    H115141   3.536   1.866   0.701 -1.1135  0.4085 -0.6799
 5045TIP3    H215142   3.438   1.822   0.808 -0.2283 -0.2130 -0.1101
 5046TIP3   OH215143   3.017   4.974   1.656  0.1627  0.2317 -0.4025
 5046TIP3    H115144   3.081   4.945   1.591 -1.8557 -0.1617 -2.3391
 5046TIP3    H215145   2.957   5.030   1.608 -1.9789 -0.8244  0.8498
 5047TIP3   OH215146   6.186   3.502   0.119  0.3636 -0.4105  0.1022
 5047TIP3    H115147   6.224   3.587   0.098 -0.1508 -0.6176 -1.8720
 5047TIP3    H215148   6.110   3.522   0.174 -0.4708  0.5456 -1.3305
 5048TIP3   OH215149   5.298   1.729   2.885  0.0245  0.7445 -0.0699
 5048TIP3    H115150   5.344   1.661   2.836  0.8160  1.0755  0.2076
 5048TIP3    H215151   5.213   1.690   2.905  0.4646 -0.1629  0.0856
 5049TIP3   OH215152   4.835   4.986   3.430 -0.0462 -1.1428  0.2511
 5049TIP3    H115153   4.756   4.933   3.440 -0.6081 -0.4601 -0.4905
 5049TIP3    H215154   4.902   4.939   3.480 -0.9103 -1.7406  0.8700
 5050TIP3   OH215155   0.644   2.633   1.308  0.0432  0.7796 -0.3124
 5050TIP3    H115156   0.680   2.716   1.275 -2.1476  0.9533 -2.5853
 5050TIP3    H215157   0.578   2.659   1.372 -1.5861  0.9438 -1.9885
 5051TIP3   OH215158   0.806   0.383   2.759  0.3420  0.1115  0.4166
 5051TIP3    H115159   0.878   0.446   2.761  0.1516  0.3714 -0.4937
 5051TIP3    H215160   0.728   0.436   2.741  0.3105 -0.4868 -1.3346
 5052TIP3   OH215161   5.857   5.466   4.077 -0.6879  0.2501  0.1628
 5052TIP3    H115162   5.871   5.528   4.005 -0.9628  0.0404 -0.0713
 5052TIP3    H215163   5.945   5.435   4.098 -0.6763 -0.2241 -0.5635
 5053TIP3   OH215164   2.342   4.748   0.976 -0.1647  0.3737 -0.0729
 5053TIP3    H115165   2.318   4.656   0.980  2.6723 -0.4276  0.4233
 5053TIP3    H215166   2.312   4.785   1.060 -0.1771 -0.3864  0.2582
 5054TIP3   OH215167   2.636   3.512   1.401  0.2619  0.6064 -0.1658
 5054TIP3    H115168   2.701   3.458   1.445  0.2575  0.1398 -0.7290
 5054TIP3    H215169   2.552   3.472   1.424  0.2576  0.3856 -0.5690
 5055TIP3   OH215170   4.796   0.342   1.250 -0.5130  0.6044  0.7630
 5055TIP3    H115171   4.701   0.330   1.260 -0.6157  0.3699 -0.3261
 5055TIP3    H215172   4.831   0.253   1.252 -0.4382  0.6140  0.1452
 5056TIP3   OH215173   4.973   1.112   1.516  0.7406  0.5171  0.1234
 5056TIP3    H115174   4.952   1.097   1.609  1.9361  0.3603  0.3855
 5056TIP3    H215175   4.918   1.050   1.469 -0.0160  0.7223  0.7086
 5057TIP3   OH215176   6.129   0.836   1.887 -0.1304 -0.3098  0.3968
 5057TIP3    H115177   6.094   0.755   1.926  0.4900 -0.2219  1.1520
 5057TIP3    H215178   6.129   0.899   1.959  2.8206 -0.6650  0.8103
 5058TIP3   OH215179   5.962   3.654   4.209  0.4750  0.5284  0.1067
 5058TIP3    H115180   6.056   3.662   4.227  0.2099 -0.1467  1.9821
 5058TIP3    H215181   5.923   3.731   4.251  0.0327 -0.0541  0.7848
 5059TIP3   OH215182   0.050   2.440   1.567  0.1602 -0.0715 -0.1951
 5059TIP3    H115183   0.102   2.397   1.499 -0.9683  0.2251 -1.2620
 5059TIP3    H215184   0.087   2.528   1.572  1.6136 -0.7107  1.0765
 5060TIP3   OH215185   5.422   4.284   0.616  0.9771  0.8146  0.3544
 5060TIP3    H115186   5.476   4.207   0.634  0.1630  0.2111  0.2376
 5060TIP3    H215187   5.381   4.303   0.700  0.3730  0.4885  0.1372
 5061TIP3   OH215188   5.788   3.646   2.599  0.4480 -0.7864  0.1226
 5061TIP3    H115189   5.695   3.628   2.585  0.1521 -0.7396  1.7671
 5061TIP3    H215190   5.806   3.724   2.547 -0.8373  0.0879  0.9146
 5062TIP3   OH215191   3.944   5.259   4.731 -1.2601 -0.2196  0.0093
 5062TIP3    H115192   3.967   5.173   4.696  2.4541  0.6784 -0.2304
 5062TIP3    H215193   3.956   5.318   4.656 -2.5565  0.6826  0.4837
 5063TIP3   OH215194   1.719   3.212   0.240  0.4037  0.2945  0.6472
 5063TIP3    H115195   1.681   3.132   0.275  0.3875  0.7353  1.6685
 5063TIP3    H215196   1.672   3.228   0.158  0.0653 -0.4582  0.6906
 5064TIP3   OH215197   3.849   0.190   3.749  0.4368 -0.0320  0.4002
 5064TIP3    H115198   3.787   0.259   3.775  0.4170  0.5376 -1.0571
 5064TIP3    H215199   3.793   0.120   3.716  0.5211  0.1390 -0.1196
 5065TIP3   OH215200   1.766   3.400   4.546 -0.3516 -0.3686 -0.7436
 5065TIP3    H115201   1.817   3.478   4.523  1.2624 -1.1487  0.0511
 5065TIP3    H215202   1.758   3.404   4.641 -0.9789 -0.7634 -0.7710
 5066TIP3   OH215203   0.035   4.612   3.899 -0.0190  0.2413 -0.3159
 5066TIP3    H115204  -0.009   4.687   3.858 -0.6960 -1.3270 -2.6926
 5066TIP3    H215205  -0.008   4.536   3.860  3.3063 -1.4155 -1.0890
 5067TIP3   OH215206   1.128   4.803   4.297 -0.2838  0.4959  0.1809
 5067TIP3    H115207   1.062   4.750   4.340  2.0462 -4.4503 -1.5744
 5067TIP3    H215208   1.182   4.838   4.369 -3.0605  2.5641  1.4779
 5068TIP3   OH215209   5.648   5.531   0.375  0.0213 -0.2186 -0.3792
 5068TIP3    H115210   5.644   5.514   0.281  0.7307 -0.9650 -0.2879
 5068TIP3    H215211   5.584   5.601   0.390  0.0560  0.0566 -1.4473
 5069TIP3   OH215212   3.060   1.971   2.157 -0.2949  0.2062 -0.1559
 5069TIP3    H115213   3.042   1.993   2.249  2.7756  1.0269  0.3735
 5069TIP3    H215214   3.039   1.878   2.150 -3.0902  0.6928  0.5850
 5070TIP3   OH215215   0.679   5.239   4.030 -0.1093  0.5765 -0.2631
 5070TIP3    H115216   0.664   5.322   4.076  1.5619  0.2777  0.8872
 5070TIP3    H215217   0.773   5.237   4.015 -0.3162 -0.4974 -1.5235
 5071TIP3   OH215218   6.095   3.399   3.984  0.5404 -0.1182 -0.1929
 5071TIP3    H115219   6.005   3.411   3.953  0.0634  0.6873  1.3751
 5071TIP3    H215220   6.136   3.485   3.973 -0.1348  0.7023  2.7167
 5072TIP3   OH215221   2.131   2.878   1.120  0.7877 -0.3562  1.1586
 5072TIP3    H115222   2.105   2.804   1.175 -0.8093 -2.3673 -1.9904
 5072TIP3    H215223   2.212   2.850   1.078 -0.3971 -0.9536 -0.8950
 5073TIP3   OH215224   0.563   0.303   0.823  0.0520  0.1110  0.3182
 5073TIP3    H115225   0.515   0.339   0.749 -0.9300  0.2817  1.0125
 5073TIP3    H215226   0.585   0.379   0.877  0.0244 -0.0928  0.6196
 5074TIP3   OH215227   5.546   4.544   2.719 -0.2118  0.1294  0.1055
 5074TIP3    H115228   5.543   4.628   2.764  0.0098 -0.3731  1.0819
 5074TIP3    H215229   5.552   4.479   2.789 -0.4687 -0.7100 -0.6281
 5075TIP3   OH215230   0.414   2.780   2.394 -0.5899 -0.1783  0.4809
 5075TIP3    H115231   0.359   2.714   2.351 -0.2707  0.3611 -0.8078
 5075TIP3    H215232   0.429   2.847   2.327 -0.9874  1.2795  1.7833
 5076TIP3   OH215233   1.710   3.254   3.960 -0.5993 -0.5975  0.2426
 5076TIP3    H115234   1.676   3.182   4.014 -0.0329 -0.5802  0.6310
 5076TIP3    H215235   1.738   3.320   4.024 -1.0240 -0.0727 -0.1101
 5077TIP3   OH215236   1.731   5.062   0.499 -0.2699 -0.4963 -0.4532
 5077TIP3    H115237   1.667   5.086   0.566 -0.4551 -1.0623 -0.4246
 5077TIP3    H215238   1.780   5.143   0.482 -0.2913 -0.3209  0.2928
 5078TIP3   OH215239   0.630   4.915   1.055  0.2079  0.0112  0.3441
 5078TIP3    H115240   0.690   4.990   1.052 -0.8569  0.8781 -2.8343
 5078TIP3    H215241   0.684   4.841   1.026  1.2485 -0.5809  3.4441
 5079TIP3   OH215242   6.129   1.823   1.175  0.0278 -0.1680 -0.4312
 5079TIP3    H115243   6.082   1.880   1.114 -1.1459 -0.6559  0.0071
 5079TIP3    H215244   6.071   1.749   1.189  1.2317 -1.1321 -0.4175
 5080TIP3   OH215245   1.190   0.695   1.606 -0.3304 -0.2573  0.0753
 5080TIP3    H115246   1.205   0.641   1.684 -1.3385 -1.1852 -0.3417
 5080TIP3    H215247   1.223   0.781   1.630  0.6847 -0.8778  1.0162
 5081TIP3   OH215248   5.612   2.696   4.524 -0.3378 -0.2822  0.3211
 5081TIP3    H115249   5.705   2.716   4.514 -0.1259 -1.4905 -0.3371
 5081TIP3    H215250   5.576   2.772   4.569  0.9578  0.2233  0.5535
 5082TIP3   OH215251   3.748   3.939   3.486  0.5361 -0.0413 -0.0013
 5082TIP3    H115252   3.684   3.999   3.447  0.2892 -0.3050 -0.0038
 5082TIP3    H215253   3.805   3.914   3.413  1.5774  1.3606  0.2842
 5083TIP3   OH215254   6.365   0.884   1.201 -0.0664 -0.0241  0.3847
 5083TIP3    H115255   6.299   0.947   1.171  0.4464  1.5082  2.2464
 5083TIP3    H215256   6.320   0.833   1.268 -0.5949 -2.0046 -1.3830
 5084TIP3   OH215257   5.698   5.038   1.620 -0.1835  0.7582 -0.2549
 5084TIP3    H115258   5.654   5.012   1.539 -1.3994  0.7594  0.3880
 5084TIP3    H215259   5.786   4.999   1.612 -0.8952 -0.8449 -0.7466
 5085TIP3   OH215260   0.787   5.052   0.834 -0.5387 -0.6646  0.0552
 5085TIP3    H115261   0.878   5.051   0.864 -0.0600 -0.4745 -1.2833
 5085TIP3    H215262   0.745   5.120   0.886  0.3733  0.0076 -0.0669
 5086TIP3   OH215263   4.409   3.060   1.529 -0.1297 -0.5998  0.2216
 5086TIP3    H115264   4.446   3.012   1.603  1.9782  0.8187  0.1556
 5086TIP3    H215265   4.404   3.151   1.559  2.2883  0.2992 -1.8368
 5087TIP3   OH215266   3.592   3.092   4.464 -0.0149 -0.4122 -0.0614
 5087TIP3    H115267   3.593   3.100   4.559  0.1648 -0.6443 -0.0432
 5087TIP3    H215268   3.506   3.058   4.443  0.1189 -0.8291  0.0574
 5088TIP3   OH215269   5.277   4.689   3.495  0.3822 -0.1507 -0.0907
 5088TIP3    H115270   5.334   4.685   3.572 -0.7323 -1.6268  0.7172
 5088TIP3    H215271   5.188   4.685   3.530 -0.1783 -0.2103 -1.4347
 5089TIP3   OH215272   1.903   1.290   4.606  0.4041  0.3696  0.1207
 5089TIP3    H115273   1.974   1.288   4.670  1.1240  2.2985 -0.5498
 5089TIP3    H215274   1.936   1.240   4.531  0.7372  0.5542  0.1411
 5090TIP3   OH215275   3.973   5.873   3.004 -0.0703  0.2920  0.1521
 5090TIP3    H115276   3.946   5.894   2.915 -0.9635  2.4625  0.8549
 5090TIP3    H215277   3.942   5.947   3.056 -1.1986 -1.7385  2.5868
 5091TIP3   OH215278   2.173   2.692   0.700  0.1645  0.1479  0.3597
 5091TIP3    H115279   2.107   2.628   0.726  0.2561  0.2756  0.9315
 5091TIP3    H215280   2.227   2.646   0.636  0.6166 -0.5723  1.2388
 5092TIP3   OH215281   0.183   2.481   0.344 -0.0786 -0.0652  0.2056
 5092TIP3    H115282   0.271   2.443   0.336  1.0547  2.0467  1.4428
 5092TIP3    H215283   0.158   2.502   0.254  0.5193 -1.0256 -0.2026
 5093TIP3   OH215284   0.273   3.322   4.651  0.3878 -0.6235  0.2205
 5093TIP3    H115285   0.316   3.261   4.711 -2.0314 -1.4971  1.2192
 5093TIP3    H215286   0.217   3.375   4.707 -0.1260  0.1956 -1.0286
 5094TIP3   OH215287   5.799   4.229   0.669 -0.2733 -0.0958 -0.2858
 5094TIP3    H115288   5.802   4.290   0.595  0.4953  1.7143  1.1824
 5094TIP3    H215289   5.844   4.151   0.637  1.0959  1.0889 -1.3584
 5095TIP3   OH215290   0.902   5.001   2.642  0.0465 -0.3374  0.3684
 5095TIP3    H115291   0.840   5.014   2.714 -0.0311 -3.1870  0.9375
 5095TIP3    H215292   0.983   4.973   2.684  1.1177  1.2298 -0.5153
 5096TIP3   OH215293   1.606   5.174   2.790  0.4365  0.4696  0.1621
 5096TIP3    H115294   1.547   5.188   2.863 -0.1899  1.8012 -0.5593
 5096TIP3    H215295   1.551   5.140   2.720  1.0907 -1.1206  0.3741
 5097TIP3   OH215296   2.912   3.683   3.014 -0.6773  0.5628 -0.0086
 5097TIP3    H115297   2.856   3.608   2.992 -2.3029  1.6179  0.3321
 5097TIP3    H215298   2.962   3.699   2.934 -0.9593 -0.3234 -0.3783
 5098TIP3   OH215299   0.140   4.070   1.968  0.2737  0.2009  0.3065
 5098TIP3    H115300   0.128   4.011   2.043 -0.2509 -0.1009 -0.0048
 5098TIP3    H215301   0.054   4.112   1.958  0.5359  0.7397  0.2889
 5099TIP3   OH215302   4.111   1.085   1.297  0.6044 -0.2686  0.0769
 5099TIP3    H115303   4.115   1.176   1.328 -0.3162  0.6725 -2.3412
 5099TIP3    H215304   4.160   1.087   1.215  0.7940 -2.0602  0.1242
 5100TIP3   OH215305  -0.013   1.752   3.910  0.5237  0.0867 -0.2375
 5100TIP3    H115306   0.061   1.812   3.921  1.0272 -0.6291  0.3551
 5100TIP3    H215307   0.023   1.679   3.860  0.0199  0.0812 -0.5985
 5101TIP3   OH215308   3.613   1.523   0.350 -0.3506 -0.2388  0.3392
 5101TIP3    H115309   3.700   1.558   0.370 -1.3336  1.2185  2.3221
 5101TIP3    H215310   3.609   1.526   0.254  1.0917  1.4613  0.2634
 5102TIP3   OH215311   2.905   4.698   2.535 -0.0564  0.5231  0.1900
 5102TIP3    H115312   2.888   4.608   2.560  0.4134  0.4595  0.2904
 5102TIP3    H215313   2.826   4.726   2.488  1.1482 -1.1282 -3.1161
 5103TIP3   OH215314   5.245   3.857   0.030  0.3002  0.0365  0.0768
 5103TIP3    H115315   5.167   3.879   0.080 -0.7220  0.0655 -1.4604
 5103TIP3    H215316   5.262   3.765   0.050  0.9501  0.4811  1.7661
 5104TIP3   OH215317   5.954   0.042   4.073  0.4286 -0.2214  0.3103
 5104TIP3    H115318   5.971   0.127   4.114 -1.4307 -0.5091  1.8056
 5104TIP3    H215319   5.970   0.057   3.980 -2.8886  2.7628 -0.0036
 5105TIP3   OH215320   1.753   5.752   4.991 -0.1846 -0.1163  0.1306
 5105TIP3    H115321   1.776   5.799   5.071 -1.5728 -1.1903  1.2089
 5105TIP3    H215322   1.657   5.750   4.990 -0.1865 -1.8777 -0.4682
 5106TIP3   OH215323   2.342   4.227   2.531 -0.3757  0.3297  0.1104
 5106TIP3    H115324   2.304   4.205   2.616  0.6912 -0.5277  0.3987
 5106TIP3    H215325   2.332   4.148   2.479 -1.7797  1.1162 -0.8858
 5107TIP3   OH215326   0.947   1.339   4.538 -0.1766 -0.0077 -0.2171
 5107TIP3    H115327   0.945   1.301   4.450  0.0849  0.4528 -0.4251
 5107TIP3    H215328   0.864   1.386   4.546  0.0581  0.4496 -0.4451
 5108TIP3   OH215329   3.184   4.286   5.092  0.3308 -0.3748  0.7872
 5108TIP3    H115330   3.263   4.331   5.063 -0.5597  0.7936  0.0157
 5108TIP3    H215331   3.135   4.353   5.140 -2.3047  0.5097 -2.6597
 5109TIP3   OH215332   2.461   0.656   0.113 -0.7535 -0.1995 -0.5589
 5109TIP3    H115333   2.461   0.707   0.194 -1.9137 -1.5369  0.3221
 5109TIP3    H215334   2.554   0.645   0.092 -0.3900 -0.7297  1.1909
 5110TIP3   OH215335   6.030   1.916   4.428  0.5839  0.7037  0.3183
 5110TIP3    H115336   6.096   1.919   4.497  0.6877 -0.5312  0.2903
 5110TIP3    H215337   5.947   1.926   4.474  0.6728  0.2238  0.5867
 5111TIP3   OH215338   1.155   4.264   0.145  0.2684 -0.3191 -0.2628
 5111TIP3    H115339   1.097   4.249   0.071  1.9688 -1.6004 -1.4217
 5111TIP3    H215340   1.101   4.310   0.209 -0.6557  3.0966 -3.1799
 5112TIP3   OH215341   5.596   2.649   2.277  0.0945  0.5463  0.1103
 5112TIP3    H115342   5.527   2.584   2.287  1.1519 -0.6580 -0.1488
 5112TIP3    H215343   5.603   2.690   2.363 -0.6200  0.3658  0.2653
 5113TIP3   OH215344   6.218   0.317   2.078 -0.1632  0.0376  0.2619
 5113TIP3    H115345   6.147   0.262   2.113  0.3871  0.1977  1.7308
 5113TIP3    H215346   6.264   0.260   2.016 -2.5462  0.4634 -2.0750
 5114TIP3   OH215347   3.803   5.785   3.629  0.1772  0.1257 -1.0543
 5114TIP3    H115348   3.741   5.843   3.673 -0.0563  0.1841 -1.4539
 5114TIP3    H215349   3.869   5.766   3.695  0.4152  1.0842 -0.9995
 5115TIP3   OH215350   2.295   1.958   1.203 -0.1837  0.4025 -0.3225
 5115TIP3    H115351   2.384   1.928   1.184  0.0435 -1.3335  2.7462
 5115TIP3    H215352   2.303   2.007   1.285 -1.8510  1.5641 -0.8080
 5116TIP3   OH215353   4.070   2.731   3.963  0.6891  0.5283 -0.0073
 5116TIP3    H115354   4.017   2.805   3.989 -2.3461 -1.3983 -0.2368
 5116TIP3    H215355   4.121   2.762   3.889 -0.7872  2.2494 -0.3554
 5117TIP3   OH215356   2.892   3.141   1.251 -0.8033  0.1129  0.1586
 5117TIP3    H115357   2.825   3.166   1.187  1.1816  3.5635 -0.8792
 5117TIP3    H215358   2.936   3.224   1.273  0.0806 -1.2281  4.4030
 5118TIP3   OH215359   0.642   1.520  -0.001 -0.1896  0.2448  0.6100
 5118TIP3    H115360   0.689   1.596   0.032  0.8007 -0.0888  0.0091
 5118TIP3    H215361   0.601   1.482   0.077  0.5933  0.5173  1.1723
 5119TIP3   OH215362   3.515   5.858   0.819 -0.5329 -0.4368  0.1408
 5119TIP3    H115363   3.449   5.875   0.752  1.5035 -2.0572 -2.5314
 5119TIP3    H215364   3.569   5.937   0.819 -0.1750 -0.6617 -0.6857
 5120TIP3   OH215365   3.448   0.546   1.135 -0.0822  0.2650 -0.2129
 5120TIP3    H115366   3.536   0.510   1.126 -0.8731 -1.4773 -2.0110
 5120TIP3    H215367   3.395   0.471   1.162 -1.0683  1.2003  0.5027
 5121TIP3   OH215368   1.386   0.880   4.214 -0.0018  0.2149  0.1724
 5121TIP3    H115369   1.389   0.955   4.154 -0.3832  0.4028  0.3862
 5121TIP3    H215370   1.326   0.907   4.283  0.3298 -0.0534  0.5720
 5122TIP3   OH215371   6.178   2.668   0.135  0.0225  0.4576  0.5204
 5122TIP3    H115372   6.115   2.706   0.197  0.4943 -0.9090  1.9048
 5122TIP3    H215373   6.247   2.735   0.127  0.5783  0.1961  2.4879
 5123TIP3   OH215374   1.805   2.739   3.057 -0.3121  0.2437 -0.0549
 5123TIP3    H115375   1.758   2.715   3.137  1.8429 -1.3591  0.8266
 5123TIP3    H215376   1.808   2.658   3.006  1.1922  0.3762 -0.2132
 5124TIP3   OH215377   3.484   1.327   4.547  0.2446  0.3580  0.0698
 5124TIP3    H115378   3.390   1.308   4.549 -0.3740  3.0765  0.6062
 5124TIP3    H215379   3.490   1.421   4.566  3.0145  0.5114 -1.1109
 5125TIP3   OH215380   1.219   3.782   3.038  0.5272 -0.2358 -0.1095
 5125TIP3    H115381   1.172   3.857   3.001  1.3755  1.1082  1.4186
 5125TIP3    H215382   1.162   3.751   3.109  1.4649  0.8723  1.1951
 5126TIP3   OH215383   4.886   0.165   0.977 -1.0228 -0.1812 -0.1210
 5126TIP3    H115384   4.946   0.099   1.011 -1.0927 -0.5417 -0.6776
 5126TIP3    H215385   4.848   0.125   0.899 -0.9374  0.5811 -0.5677
 5127TIP3   OH215386   5.644   0.352   2.469 -0.4799 -0.5150 -0.2139
 5127TIP3    H115387   5.586   0.402   2.526 -0.7746 -0.5798 -0.4591
 5127TIP3    H215388   5.732   0.370   2.504 -0.5870  0.1238 -0.2600
 5128TIP3   OH215389   2.311   1.422   4.932  0.0087 -0.5682  0.1193
 5128TIP3    H115390   2.388   1.478   4.928 -0.7724  0.4997 -1.0786
 5128TIP3    H215391   2.321   1.371   5.012  0.3931  1.8403  1.6899
 5129TIP3   OH215392   0.963   0.542   0.356 -0.6797 -0.0734  0.1316
 5129TIP3    H115393   1.056   0.559   0.371 -0.1114 -1.6921 -1.2042
 5129TIP3    H215394   0.951   0.451   0.385 -1.4549 -0.4113 -1.1634
 5130TIP3   OH215395   2.753   5.679   1.962  0.1042 -0.3238  0.4696
 5130TIP3    H115396   2.789   5.596   1.993  0.4476 -0.6939 -0.8444
 5130TIP3    H215397   2.771   5.679   1.868 -0.3740  1.0016  0.3572
 5131TIP3   OH215398   5.597   2.743   2.539  0.7017 -0.5047  0.6535
 5131TIP3    H115399   5.566   2.718   2.626  0.6212 -1.7301  0.2842
 5131TIP3    H215400   5.554   2.827   2.522 -1.1991 -1.3768  0.8268
 5132TIP3   OH215401   1.370   2.651   0.886 -0.5954  0.6823 -0.5059
 5132TIP3    H115402   1.302   2.624   0.947  0.5552 -0.3761  0.3726
 5132TIP3    H215403   1.381   2.576   0.827  2.6575 -1.0991  1.9813
 5133TIP3   OH215404   1.732   4.871   2.358  0.1099  0.3623 -0.2618
 5133TIP3    H115405   1.647   4.874   2.314  0.2995  0.5455 -0.6241
 5133TIP3    H215406   1.782   4.806   2.308  0.7370  1.4329 -1.0765
 5134TIP3   OH215407   2.561   1.268   1.759 -0.3369 -0.1847 -0.3476
 5134TIP3    H115408   2.591   1.277   1.669 -2.0718 -1.3312 -1.0674
 5134TIP3    H215409   2.466   1.264   1.753 -0.5265  0.4268  1.6095
 5135TIP3   OH215410   1.781   2.439   0.461  0.4152  0.1158  0.2866
 5135TIP3    H115411   1.804   2.532   0.457  0.1876  0.1400 -0.5004
 5135TIP3    H215412   1.778   2.420   0.555  0.0693  0.9945  0.4640
 5136TIP3   OH215413   5.949   3.436   5.069 -0.2699  0.4962 -0.4598
 5136TIP3    H115414   5.906   3.417   5.153  0.7640  1.3128  0.2883
 5136TIP3    H215415   6.030   3.481   5.094  0.2462  0.3974 -1.8932
 5137TIP3   OH215416   3.205   3.842   0.130  0.1190  0.0122  0.0105
 5137TIP3    H115417   3.121   3.802   0.108  0.2815  0.2867 -1.1756
 5137TIP3    H215418   3.211   3.919   0.075  0.8341  0.4003  0.6058
 5138TIP3   OH215419   5.114   2.884   3.121  0.6332  0.1721  0.4643
 5138TIP3    H115420   5.152   2.936   3.192 -0.9690  0.7168  0.9639
 5138TIP3    H215421   5.020   2.885   3.138  0.3520 -0.9524 -0.8407
 5139TIP3   OH215422   1.254   3.820   3.872  0.7654 -0.0431 -0.3102
 5139TIP3    H115423   1.232   3.899   3.922  1.9763  0.3785 -0.4061
 5139TIP3    H215424   1.183   3.759   3.890  0.9567  0.2371  1.6163
 5140TIP3   OH215425   6.233   3.509   2.518  0.7259 -0.5924 -0.0957
 5140TIP3    H115426   6.217   3.431   2.464 -1.7740 -1.1344  1.3078
 5140TIP3    H215427   6.172   3.574   2.485 -1.2381 -1.0978  2.2658
 5141TIP3   OH215428   0.250   1.193   0.771  0.3050 -0.2693  0.3418
 5141TIP3    H115429   0.226   1.171   0.861  1.4104  0.4348  0.8321
 5141TIP3    H215430   0.279   1.284   0.776  0.9378 -0.4089 -0.6095
 5142TIP3   OH215431   4.940   5.446   0.464  0.5189 -0.1957  0.2337
 5142TIP3    H115432   4.933   5.380   0.395  0.7530 -2.5806  2.3194
 5142TIP3    H215433   4.865   5.428   0.521  1.3441  0.4572  1.5574
 5143TIP3   OH215434   5.845   2.147   0.224 -0.2624 -0.2013  0.6046
 5143TIP3    H115435   5.940   2.155   0.215 -0.0038 -0.9769  2.2432
 5143TIP3    H215436   5.815   2.121   0.137  0.7396  2.0687 -0.4919
 5144TIP3   OH215437   0.796   2.969   4.196  0.2576 -0.0454  0.1667
 5144TIP3    H115438   0.867   2.942   4.254  0.8631  0.1969 -0.4431
 5144TIP3    H215439   0.764   3.050   4.234  0.5813  0.0590  0.2246
 5145TIP3   OH215440   2.326   2.964   0.680 -0.6229  1.0793 -0.1398
 5145TIP3    H115441   2.297   2.873   0.683  0.7931  0.6344  0.8832
 5145TIP3    H215442   2.390   2.966   0.609 -1.4201  1.5506 -0.8753
 5146TIP3   OH215443   2.210   3.698   2.439 -0.1766  0.1479 -0.4820
 5146TIP3    H115444   2.160   3.630   2.484  0.5044  0.4974  0.8700
 5146TIP3    H215445   2.297   3.659   2.425  0.0342  0.5182 -0.2342
 5147TIP3   OH215446   2.622   5.311   2.749  0.0753 -0.4982 -0.1155
 5147TIP3    H115447   2.569   5.353   2.816 -0.8923 -0.4638 -0.8816
 5147TIP3    H215448   2.576   5.329   2.667  1.4602 -0.1489 -0.8640
 5148TIP3   OH215449   5.694   1.304   1.067  0.3436  0.6348  0.4805
 5148TIP3    H115450   5.629   1.240   1.093 -0.4862  1.0477 -0.5285
 5148TIP3    H215451   5.778   1.258   1.076 -0.1746 -0.3348  0.4857
 5149TIP3   OH215452   1.991   3.879   3.102  0.5123 -0.0063  0.8201
 5149TIP3    H115453   2.027   3.856   3.016  1.2927 -0.2002  1.1863
 5149TIP3    H215454   2.022   3.968   3.117 -0.3814  0.3688  0.5169
 5150TIP3   OH215455   5.409   4.670   4.724 -0.2820  0.3801 -0.1662
 5150TIP3    H115456   5.337   4.621   4.684  1.3371 -2.6411  0.3048
 5150TIP3    H215457   5.377   4.694   4.811 -1.9271  2.3040 -1.2380
 5151TIP3   OH215458   3.129   1.144   2.041  0.1121  0.0615 -0.1576
 5151TIP3    H115459   3.065   1.123   1.973  0.4345  2.7898 -1.4617
 5151TIP3    H215460   3.129   1.240   2.044  3.0071  0.1174  0.8926
 5152TIP3   OH215461   4.254   4.454   3.268 -0.3544 -0.1296  0.3432
 5152TIP3    H115462   4.254   4.547   3.247  0.3704 -0.7948 -3.2417
 5152TIP3    H215463   4.165   4.424   3.249 -0.0024 -0.5445 -0.7025
 5153TIP3   OH215464   5.498   3.865   3.441  0.1119 -0.5214 -0.2027
 5153TIP3    H115465   5.502   3.960   3.426  1.8737 -0.5885 -0.3752
 5153TIP3    H215466   5.470   3.856   3.532 -0.6678  0.1437 -0.3648
 5154TIP3   OH215467   1.974   5.143   2.250  0.3346 -0.2352  0.1437
 5154TIP3    H115468   1.889   5.171   2.218  0.8959  0.9016 -0.4416
 5154TIP3    H215469   2.005   5.081   2.184  0.5840  0.4959 -0.4466
 5155TIP3   OH215470   5.205   2.735   1.111  0.1451  0.0036  0.0082
 5155TIP3    H115471   5.199   2.643   1.086 -0.5057 -0.3542  1.3765
 5155TIP3    H215472   5.122   2.754   1.155 -0.0575  1.4768 -0.9056
 5156TIP3   OH215473   0.908   4.581   0.227  0.9158 -0.2715  0.3107
 5156TIP3    H115474   0.953   4.664   0.239  0.5426  0.4205 -2.3792
 5156TIP3    H215475   0.815   4.601   0.238  0.6867  0.0902 -1.7851
 5157TIP3   OH215476   1.613   0.007   5.149  0.3017  0.1827 -0.2976
 5157TIP3    H115477   1.613   0.038   5.240  0.7310 -0.3272 -0.1217
 5157TIP3    H215478   1.552   0.065   5.104 -0.7322 -0.2227  0.5444
 5158TIP3   OH215479   1.421   0.771   0.737 -0.1129  0.1759 -0.2865
 5158TIP3    H115480   1.371   0.852   0.727 -0.8772  0.0677  1.9963
 5158TIP3    H215481   1.512   0.796   0.722 -0.5552  0.9053 -2.0329
 5159TIP3   OH215482   2.628   0.954   2.181 -0.3234  0.0527 -0.1969
 5159TIP3    H115483   2.603   0.873   2.137 -1.0406  0.9812 -1.5883
 5159TIP3    H215484   2.671   1.005   2.112 -0.6577  1.1992  0.4267
 5160TIP3   OH215485   0.797   4.547   2.491  0.3672  0.1901  0.0822
 5160TIP3    H115486   0.879   4.565   2.445 -0.0671  2.3110  0.0486
 5160TIP3    H215487   0.730   4.548   2.423  0.1674 -0.3544  0.2686
 5161TIP3   OH215488   5.542   2.491   5.060  0.1217 -0.0076  0.0153
 5161TIP3    H115489   5.473   2.464   4.999  0.5724  0.2678 -0.6118
 5161TIP3    H215490   5.622   2.455   5.024  0.4201  0.3269  0.3352
 5162TIP3   OH215491   1.766   0.618   0.472  0.2312 -0.2362 -0.0814
 5162TIP3    H115492   1.698   0.660   0.419  0.1693 -1.5216 -1.0536
 5162TIP3    H215493   1.818   0.692   0.505 -0.4018  0.6645 -1.0138
 5163TIP3   OH215494   0.268   4.016   1.090 -0.3421  0.4258  0.0265
 5163TIP3    H115495   0.355   3.997   1.055 -0.1628 -0.0323  0.7073
 5163TIP3    H215496   0.267   4.112   1.098  0.6185  0.3570  1.3018
 5164TIP3   OH215497   0.585   3.353   3.521 -0.3948 -0.5172  0.2084
 5164TIP3    H115498   0.671   3.322   3.490 -0.6604 -0.7114 -0.3615
 5164TIP3    H215499   0.604   3.430   3.574  0.2094 -1.1145  0.8728
 5165TIP3   OH215500   6.337   2.819   0.616  0.1470 -0.1910  0.3811
 5165TIP3    H115501   6.242   2.825   0.604 -0.2306 -0.6513  2.7095
 5165TIP3    H215502   6.372   2.881   0.552 -1.7307  0.3325 -0.2303
 5166TIP3   OH215503   3.986   1.065   5.030  0.0528 -0.1701 -0.2457
 5166TIP3    H115504   3.966   1.040   4.940  0.5057  0.3187 -0.4908
 5166TIP3    H215505   3.936   1.146   5.044  0.3364  0.0026 -0.2160
 5167TIP3   OH215506   1.039   3.531   4.825  0.4317 -0.8938  0.5620
 5167TIP3    H115507   0.983   3.502   4.753  0.8638 -0.6275  0.1110
 5167TIP3    H215508   1.115   3.570   4.781  0.5562 -0.4596  1.1673
 5168TIP3   OH215509   3.325   4.982   1.730 -0.4468 -0.3642 -0.0359
 5168TIP3    H115510   3.302   5.074   1.712 -0.1781 -0.5596 -1.5676
 5168TIP3    H215511   3.402   4.987   1.787 -0.4343  0.3628 -0.1053
 5169TIP3   OH215512   2.888   2.422   0.256  0.7195  0.3795 -0.0852
 5169TIP3    H115513   2.932   2.406   0.173 -0.4083 -0.2783 -0.5796
 5169TIP3    H215514   2.959   2.422   0.321  1.3197 -3.0586 -0.5229
 5170TIP3   OH215515   1.973   3.516   1.852 -0.0929 -0.2318  0.0321
 5170TIP3    H115516   1.965   3.580   1.782  0.3580  0.8101  0.8979
 5170TIP3    H215517   1.932   3.559   1.928 -0.4423 -1.2687  0.4501
 5171TIP3   OH215518   1.389   0.901   2.567 -0.2488  0.1166 -0.9126
 5171TIP3    H115519   1.481   0.915   2.587 -0.0215  0.3242 -2.0421
 5171TIP3    H215520   1.364   0.826   2.621  1.3480 -1.7585 -2.6074
 5172TIP3   OH215521   5.232   1.115   4.793  0.1884 -0.7411 -0.3526
 5172TIP3    H115522   5.323   1.090   4.812  0.7976  0.8121 -1.0651
 5172TIP3    H215523   5.226   1.206   4.819 -0.3042  0.0519 -2.9523
 5173TIP3   OH215524   5.320   4.400   3.064 -0.0141  0.4188 -0.4156
 5173TIP3    H115525   5.387   4.363   3.006 -0.9656 -0.9621 -0.6809
 5173TIP3    H215526   5.367   4.464   3.118  1.7347 -1.2207  0.0931
 5174TIP3   OH215527   5.142   1.440   3.127 -0.8593 -0.0086 -0.2220
 5174TIP3    H115528   5.178   1.507   3.184 -1.6546  0.3670 -0.1456
 5174TIP3    H215529   5.079   1.486   3.072  0.3757 -0.2103 -1.9067
 5175TIP3   OH215530   2.175   3.363   3.054 -0.2533 -0.0256 -0.0729
 5175TIP3    H115531   2.109   3.425   3.084  0.3478 -0.0393  1.3533
 5175TIP3    H215532   2.231   3.414   2.996 -0.6854  0.3467 -0.1681
 5176TIP3   OH215533   5.352   5.375   0.527  0.2245 -0.2387  0.5946
 5176TIP3    H115534   5.318   5.298   0.483  1.8855 -0.4423 -0.4380
 5176TIP3    H215535   5.279   5.437   0.527 -0.1465 -0.5850 -1.6202
 5177TIP3   OH215536   3.974   0.010   4.557  0.4017  0.7016  0.1702
 5177TIP3    H115537   4.023  -0.067   4.586  1.5412  1.2396 -0.2716
 5177TIP3    H215538   3.998   0.079   4.619  0.5556  1.0897 -0.3137
 5178TIP3   OH215539   5.513   2.902   0.881  0.4137 -0.5155  0.4663
 5178TIP3    H115540   5.544   2.816   0.911 -1.4307 -1.0829  0.8579
 5178TIP3    H215541   5.444   2.926   0.943  0.2147  0.8011 -0.2265
 5179TIP3   OH215542   1.061   1.250   4.317  0.3307 -0.0766  0.1941
 5179TIP3    H115543   1.015   1.207   4.245  0.3481  0.1478  0.0483
 5179TIP3    H215544   1.091   1.178   4.372  0.6263 -0.2700 -0.2090
 5180TIP3   OH215545   1.081   3.363   3.083  0.2334 -0.2938  0.1999
 5180TIP3    H115546   1.122   3.442   3.116  2.8877 -0.9895 -1.1862
 5180TIP3    H215547   1.131   3.291   3.122 -0.5130 -1.2390 -0.5149
 5181TIP3   OH215548   2.469   0.592   3.922 -0.0802 -0.1502 -0.4251
 5181TIP3    H115549   2.452   0.551   3.837 -0.9586 -1.0975  0.1758
 5181TIP3    H215550   2.546   0.546   3.956 -0.1248 -0.2326 -0.4338
 5182TIP3   OH215551   2.290   0.027   2.537 -0.3527 -0.6330  0.0571
 5182TIP3    H115552   2.213   0.056   2.586  1.0718  1.5725  1.1579
 5182TIP3    H215553   2.254  -0.015   2.459 -2.6617  0.6283  0.3546
 5183TIP3   OH215554   3.346   0.067   3.764  0.3432  0.0361  0.6348
 5183TIP3    H115555   3.382   0.154   3.746  0.5566  0.3149  2.2017
 5183TIP3    H215556   3.302   0.077   3.849  0.2346 -1.3473  0.7593
 5184TIP3   OH215557   3.307   0.404   0.532 -0.8637 -0.2204 -0.2914
 5184TIP3    H115558   3.226   0.354   0.546 -0.5423 -0.8984 -0.8040
 5184TIP3    H215559   3.294   0.485   0.582 -1.6926 -0.4968 -0.0414
 5185TIP3   OH215560   0.524   5.889   0.004  0.7123 -0.1675  0.1306
 5185TIP3    H115561   0.530   5.857   0.094 -0.6994  0.2298  0.3802
 5185TIP3    H215562   0.597   5.951  -0.004  0.4352  0.3286  1.2291
 5186TIP3   OH215563   0.522   0.032   1.940  0.3556 -0.0404  0.2689
 5186TIP3    H115564   0.542   0.023   2.033  1.9097  0.1482 -0.0296
 5186TIP3    H215565   0.450   0.096   1.938  1.5298  1.3782  1.2456
 5187TIP3   OH215566   3.946   5.844   2.025 -0.0673 -0.0975 -0.1505
 5187TIP3    H115567   3.926   5.752   2.013 -1.2103  0.1056  0.0587
 5187TIP3    H215568   3.930   5.861   2.118  2.1564 -0.1375  0.2897
 5188TIP3   OH215569   0.782   4.620   3.876  0.3453  0.0658 -0.4989
 5188TIP3    H115570   0.801   4.678   3.950  0.8420 -0.6351 -0.0738
 5188TIP3    H215571   0.687   4.624   3.867  0.4083  1.3334 -0.7980
 5189TIP3   OH215572   3.175   2.951   0.674 -0.0354  0.0009  0.0327
 5189TIP3    H115573   3.196   2.923   0.763  0.6157  0.9481  0.1857
 5189TIP3    H215574   3.255   2.991   0.641 -0.0831 -0.8602 -1.2048
 5190TIP3   OH215575   3.928   4.471   5.113  0.1021 -0.4201 -0.2976
 5190TIP3    H115576   4.022   4.489   5.114  0.3464 -1.6187  0.1208
 5190TIP3    H215577   3.903   4.477   5.021  1.2799 -3.2722 -0.9023
 5191TIP3   OH215578   1.494   1.553   0.602 -0.3419  0.0871  0.2464
 5191TIP3    H115579   1.557   1.547   0.530 -1.7970  1.6615 -1.2484
 5191TIP3    H215580   1.520   1.633   0.648  0.9178 -1.1945  1.9008
 5192TIP3   OH215581   2.960   3.051   3.385 -0.3644  0.3082 -0.6913
 5192TIP3    H115582   2.928   3.019   3.470 -0.1712  0.7895 -0.4316
 5192TIP3    H215583   2.961   2.974   3.329  0.0249 -0.1290 -0.0982
 5193TIP3   OH215584   0.561   3.384   0.606 -0.2125 -0.3640  0.3256
 5193TIP3    H115585   0.533   3.318   0.670 -0.2355  1.2715  2.1115
 5193TIP3    H215586   0.480   3.417   0.569 -0.2798 -0.3737  0.4620
 5194TIP3   OH215587   1.174   1.052   0.458 -0.6127  0.8651  0.0342
 5194TIP3    H115588   1.245   1.035   0.396 -0.7324  0.9703 -0.1334
 5194TIP3    H215589   1.097   1.064   0.403 -1.1499 -1.0827  0.2749
 5195TIP3   OH215590   1.635   5.774   3.140  0.1102  0.0226  0.0699
 5195TIP3    H115591   1.671   5.843   3.195  0.1702 -0.0508  0.1224
 5195TIP3    H215592   1.653   5.693   3.187  2.0878 -0.2502 -1.0428
 5196TIP3   OH215593   4.368   4.953   4.506 -0.1563 -0.4546 -0.0982
 5196TIP3    H115594   4.277   4.977   4.527  0.3122 -0.0249  1.6071
 5196TIP3    H215595   4.390   5.005   4.429 -0.7975  0.8116  0.5423
 5197TIP3   OH215596   5.202   2.055   3.852  0.3088 -0.0680  0.4230
 5197TIP3    H115597   5.154   2.088   3.928 -0.3078  1.1392 -0.4444
 5197TIP3    H215598   5.214   1.962   3.870  1.4518  0.4496  2.6370
 5198TIP3   OH215599   5.543   2.177   1.972 -0.4626  0.6021 -0.3261
 5198TIP3    H115600   5.527   2.097   1.921  1.1749 -1.3512  2.0088
 5198TIP3    H215601   5.601   2.229   1.916 -0.6025 -0.3556 -1.4072
 5199TIP3   OH215602   3.421   5.007   0.837  0.5289 -0.5331  0.1011
 5199TIP3    H115603   3.410   4.987   0.744  0.2716  0.5200 -0.1083
 5199TIP3    H215604   3.363   4.945   0.882 -1.5006  0.7238 -0.6168
 5200TIP3   OH215605   0.344   1.001   0.256  0.5553  0.1663 -0.0714
 5200TIP3    H115606   0.276   1.017   0.191 -0.6818 -2.1623  0.5493
 5200TIP3    H215607   0.405   0.941   0.213 -0.7567 -2.1288  1.1054
 5201TIP3   OH215608   4.560   0.124   3.916  0.1233 -0.2474 -0.8535
 5201TIP3    H115609   4.607   0.067   3.855 -1.1923 -1.9422 -0.3771
 5201TIP3    H215610   4.479   0.146   3.869  1.3203  2.7851 -1.7513
 5202TIP3   OH215611   1.180   2.668   2.663  0.1404  0.1564 -0.7005
 5202TIP3    H115612   1.142   2.614   2.732 -1.1596  2.0943  0.1956
 5202TIP3    H215613   1.105   2.694   2.609  0.5775  1.6286 -0.6511
 5203TIP3   OH215614   0.444   2.191   2.817 -0.6580  0.4692 -0.4210
 5203TIP3    H115615   0.508   2.147   2.761  0.1550 -2.7625  2.6991
 5203TIP3    H215616   0.359   2.165   2.782 -0.1775 -1.0526 -0.5201
 5204TIP3   OH215617   2.744   2.217   3.323 -0.1315 -0.2735 -0.7021
 5204TIP3    H115618   2.666   2.232   3.270 -0.6578 -0.7389 -0.0915
 5204TIP3    H215619   2.778   2.304   3.342  0.1092 -0.1083 -1.8563
 5205TIP3   OH215620   0.286   1.568   3.249 -0.1776  0.1827  0.3555
 5205TIP3    H115621   0.258   1.575   3.340 -1.5167  0.9372 -0.0845
 5205TIP3    H215622   0.371   1.526   3.253 -0.3082  0.0212  1.9425
 5206TIP3   OH215623   0.782   0.366   0.173 -0.2666  0.1684  0.1389
 5206TIP3    H115624   0.837   0.440   0.199 -0.2802  0.8790 -1.6696
 5206TIP3    H215625   0.841   0.310   0.122 -0.6494 -0.2658  0.1691
 5207TIP3   OH215626   4.027   1.684   2.858 -0.6330  0.1822  0.5708
 5207TIP3    H115627   4.069   1.731   2.930  1.2372 -1.2782  0.5106
 5207TIP3    H215628   3.956   1.636   2.900  0.4097 -0.6275  1.4984
 5208TIP3   OH215629   3.298   1.605   2.321 -0.1874  0.5308 -0.2485
 5208TIP3    H115630   3.343   1.683   2.354  0.0954  0.6705 -0.9521
 5208TIP3    H215631   3.288   1.621   2.228  0.0101 -0.3454 -0.4263
 5209TIP3   OH215632   3.996   4.361   3.216 -0.8276  0.2182 -0.6809
 5209TIP3    H115633   3.925   4.376   3.153 -0.0302 -0.7167 -1.8470
 5209TIP3    H215634   3.971   4.280   3.261 -1.0308  0.4879 -0.2992
 5210TIP3   OH215635   0.978   3.149   3.227 -0.2244  0.0747 -0.1755
 5210TIP3    H115636   0.964   3.205   3.151  0.1238  0.2297 -0.1233
 5210TIP3    H215637   0.907   3.085   3.222 -2.1305  1.9564  1.1223
 5211TIP3   OH215638   4.333   0.020   0.474 -0.1241  0.2913 -0.0377
 5211TIP3    H115639   4.309   0.031   0.566 -0.7482  1.1530 -0.2863
 5211TIP3    H215640   4.418  -0.024   0.477 -0.3508 -0.1132  0.9386
 5212TIP3   OH215641   5.411   5.191   4.775 -0.1723 -0.3429 -0.8171
 5212TIP3    H115642   5.352   5.225   4.708  0.0210 -0.0321 -0.8306
 5212TIP3    H215643   5.474   5.262   4.790 -1.0319  0.1292  0.6988
 5213TIP3   OH215644   2.194   3.166   4.505 -0.4088  0.2372  0.1801
 5213TIP3    H115645   2.125   3.128   4.558 -1.2138 -0.2205 -1.1470
 5213TIP3    H215646   2.194   3.259   4.527 -2.0973  0.4143 -0.4738
 5214TIP3   OH215647   5.153   3.039   0.679  0.0889  0.3429 -0.2492
 5214TIP3    H115648   5.129   2.985   0.604  0.7671  0.4243 -0.5320
 5214TIP3    H215649   5.174   2.977   0.748  1.3952  0.2059 -0.7361
 5215TIP3   OH215650   1.498   0.430   0.632  0.4341  0.8196  0.5587
 5215TIP3    H115651   1.504   0.492   0.560 -1.4122  1.2500  0.7293
 5215TIP3    H215652   1.442   0.473   0.697 -0.9602 -0.9969  0.6446
 5216TIP3   OH215653   2.757   1.513   4.950 -0.4177  0.1414 -0.1527
 5216TIP3    H115654   2.668   1.531   4.921 -0.5615 -0.5022 -0.1376
 5216TIP3    H215655   2.756   1.532   5.044 -0.5980 -0.0669 -0.1110
 5217TIP3   OH215656   4.839   5.290   1.895  0.0745  0.1364 -0.0452
 5217TIP3    H115657   4.909   5.225   1.906  0.5703  0.6490 -0.1009
 5217TIP3    H215658   4.886   5.372   1.879 -0.4091  1.2635  3.4668
 5218TIP3   OH215659   0.790   1.442   4.920 -0.3941  0.1587 -0.3269
 5218TIP3    H115660   0.834   1.376   4.974  3.7954  0.6134 -2.7197
 5218TIP3    H215661   0.707   1.400   4.894  0.5518 -2.7673  0.9241
 5219TIP3   OH215662   0.224   2.716   3.478 -0.2280  0.3001 -0.2411
 5219TIP3    H115663   0.268   2.721   3.394  0.5242 -0.3610  0.1022
 5219TIP3    H215664   0.161   2.788   3.477 -0.7692 -0.1708 -1.6671
 5220TIP3   OH215665   2.454   2.190   0.060  0.1765  0.2666 -0.2550
 5220TIP3    H115666   2.398   2.268   0.055 -1.6002 -0.9359  0.0095
 5220TIP3    H215667   2.429   2.149   0.143 -0.9364 -2.0268 -1.6501
 5221TIP3   OH215668   3.717   3.393   3.999 -0.0748  0.2567  0.1391
 5221TIP3    H115669   3.710   3.450   4.075  0.3415 -0.6461  0.8707
 5221TIP3    H215670   3.712   3.452   3.924  0.2145  1.2371  0.8773
 5222TIP3   OH215671   3.212   1.193   3.034  0.1266  0.6912 -0.3886
 5222TIP3    H115672   3.155   1.115   3.030  0.5830  0.3884 -3.8355
 5222TIP3    H215673   3.300   1.158   3.046  0.2264  0.7059 -1.0295
 5223TIP3   OH215674   6.248   1.359   0.119  0.4119 -0.1195 -0.1909
 5223TIP3    H115675   6.246   1.269   0.085  1.4646  0.6973 -2.5752
 5223TIP3    H215676   6.218   1.413   0.047  0.7534  1.5689  0.8797
 5224TIP3   OH215677   4.422   4.902   0.578  0.7306  0.2063 -0.1597
 5224TIP3    H115678   4.340   4.858   0.554  0.3894  1.9083 -2.4794
 5224TIP3    H215679   4.489   4.859   0.525  1.1628 -0.3623  0.8214
 5225TIP3   OH215680   2.844   3.672   5.165  0.2118  0.0441 -0.6331
 5225TIP3    H115681   2.841   3.752   5.217  0.4951 -0.1236 -0.3596
 5225TIP3    H215682   2.914   3.686   5.102  0.3142 -0.0191 -0.5337
 5226TIP3   OH215683   5.027   2.625   2.667 -0.0543 -0.0525 -0.4591
 5226TIP3    H115684   4.962   2.660   2.606  0.2450 -0.5773 -1.0822
 5226TIP3    H215685   4.979   2.562   2.721 -0.4216  0.7400  0.1620
 5227TIP3   OH215686   0.850   3.655   3.499  0.3243 -0.0731  0.7143
 5227TIP3    H115687   0.928   3.599   3.499  0.2190 -0.2233  0.3639
 5227TIP3    H215688   0.782   3.602   3.458  0.6769  0.9240 -1.2450
 5228TIP3   OH215689   0.321   3.076   0.135 -0.4939 -0.3036 -0.7109
 5228TIP3    H115690   0.282   2.989   0.124 -0.8191 -0.3164  0.3858
 5228TIP3    H215691   0.308   3.096   0.228 -1.9964  1.6703 -1.2831
 5229TIP3   OH215692   5.512   1.059   3.114  0.5148  0.1135 -0.1810
 5229TIP3    H115693   5.555   1.093   3.035 -2.2292  2.4688 -0.8439
 5229TIP3    H215694   5.522   1.128   3.179 -0.3447 -0.2306  0.3379
 5230TIP3   OH215695   0.804   2.567   4.632 -0.0147  0.4561  0.0683
 5230TIP3    H115696   0.718   2.558   4.674 -0.1030 -0.7783 -0.3425
 5230TIP3    H215697   0.799   2.512   4.554  0.3256  2.3041 -1.3287
 5231TIP3   OH215698   6.209   3.972   1.447  0.6995 -0.4695 -0.1681
 5231TIP3    H115699   6.139   4.030   1.418  0.3773 -0.6626  0.2092
 5231TIP3    H215700   6.167   3.914   1.511  0.6202 -2.1614 -1.6879
 5232TIP3   OH215701   2.209   2.922   2.141 -0.3319 -0.5201  0.4429
 5232TIP3    H115702   2.258   2.843   2.118  1.4546  0.2978  1.2848
 5232TIP3    H215703   2.123   2.888   2.169  0.6687 -2.2684  1.6245
 5233TIP3   OH215704   4.284   5.455   3.088  0.2548 -0.7050 -0.0395
 5233TIP3    H115705   4.206   5.510   3.099 -0.1555 -1.3205  0.1420
 5233TIP3    H215706   4.333   5.498   3.017  1.9973  2.2564  2.6850
 5234TIP3   OH215707   1.005   0.554   1.461  0.2259  0.3294  0.3209
 5234TIP3    H115708   0.970   0.634   1.501  0.3628 -0.1937  1.5445
 5234TIP3    H215709   1.096   0.550   1.490 -0.0650 -0.7949  1.1705
 5235TIP3   OH215710   0.699   3.275   2.754  0.6029 -0.3072  0.1728
 5235TIP3    H115711   0.694   3.370   2.764  2.4718 -0.3968  3.0429
 5235TIP3    H215712   0.608   3.248   2.739 -0.2039  1.7745  0.8945
 5236TIP3   OH215713   1.269   1.348   5.065 -0.6208  0.0136  0.4279
 5236TIP3    H115714   1.198   1.395   5.021 -1.4564 -0.3029  1.4144
 5236TIP3    H215715   1.293   1.404   5.139 -0.1376 -0.0905  0.3531
 5237TIP3   OH215716   4.903   3.022   0.059 -0.0512 -0.2289 -0.1902
 5237TIP3    H115717   4.958   3.088   0.101 -0.4382  0.3660 -0.6016
 5237TIP3    H215718   4.926   2.940   0.103 -1.4134  0.5451  2.1715
 5238TIP3   OH215719   4.011   4.515   0.148 -0.1329  0.1266 -0.2605
 5238TIP3    H115720   3.960   4.549   0.075 -1.1317 -0.8362 -0.0441
 5238TIP3    H215721   3.993   4.421   0.147  0.3645  0.0092  0.8247
 5239TIP3   OH215722   4.765   0.076   4.116 -0.0198 -0.5100 -0.1361
 5239TIP3    H115723   4.717   0.031   4.186 -0.2599 -0.6799 -0.4096
 5239TIP3    H215724   4.698   0.101   4.053 -0.0707  1.2020  0.5124
 5240TIP3   OH215725   0.559   3.911   4.381 -0.5847  0.3464  0.0096
 5240TIP3    H115726   0.600   3.992   4.410  0.4213  0.2971 -1.1843
 5240TIP3    H215727   0.465   3.927   4.388 -0.4359  2.0878 -1.3827
 5241TIP3   OH215728   2.268   0.053   0.238  0.1938 -0.4748 -0.2446
 5241TIP3    H115729   2.244   0.136   0.278  1.2380 -0.6364  0.7784
 5241TIP3    H215730   2.228   0.056   0.151 -1.1922  0.3596  0.3871
 5242TIP3   OH215731   4.921   2.308   0.326 -0.0292 -0.2814 -0.4032
 5242TIP3    H115732   4.936   2.224   0.370 -0.6449 -0.4191 -0.4466
 5242TIP3    H215733   5.007   2.350   0.325  0.2642 -0.8622 -0.2796
 5243TIP3   OH215734   2.749   5.011   2.195  0.5512  0.0925  0.2179
 5243TIP3    H115735   2.840   5.023   2.222  1.1783  0.1849 -1.7548
 5243TIP3    H215736   2.703   4.988   2.275  1.7792  2.6857  1.8031
 5244TIP3   OH215737   5.142   1.235   1.347  0.3193 -0.0607  0.1184
 5244TIP3    H115738   5.162   1.323   1.381 -2.5121  1.1715 -1.0485
 5244TIP3    H215739   5.095   1.193   1.419 -2.1842  1.1011 -0.7049
 5245TIP3   OH215740   0.051   5.261   1.146  0.7103 -0.1033  0.3089
 5245TIP3    H115741   0.054   5.333   1.209  1.2788  0.6337 -0.5235
 5245TIP3    H215742   0.138   5.260   1.106  0.5066 -0.8396 -0.1520
 5246TIP3   OH215743   1.548   4.132   4.878  0.1646 -0.3298 -0.0213
 5246TIP3    H115744   1.498   4.145   4.798 -0.1546  0.5723  0.3014
 5246TIP3    H215745   1.496   4.070   4.929  0.8420 -1.6362 -0.8893
 5247TIP3   OH215746   3.605   5.139   2.835 -0.4898  0.4165 -0.5675
 5247TIP3    H115747   3.648   5.167   2.916  1.8048 -0.6093 -1.3373
 5247TIP3    H215748   3.515   5.120   2.861  0.3444 -0.5733  1.9102
 5248TIP3   OH215749   4.113   5.877   4.717 -0.4019 -0.0546  0.2516
 5248TIP3    H115750   4.190   5.916   4.676 -0.6198 -1.4565 -1.6244
 5248TIP3    H215751   4.111   5.787   4.684 -0.9620 -1.1296  2.9128
 5249TIP3   OH215752   0.729   1.773   0.101  0.1415 -0.7168  0.1696
 5249TIP3    H115753   0.672   1.849   0.086 -0.1319 -1.2154 -1.4202
 5249TIP3    H215754   0.810   1.811   0.136  0.5944  0.5023 -2.0436
 5250TIP3   OH215755   0.325   4.147   2.274  0.0040 -0.0798  0.4191
 5250TIP3    H115756   0.268   4.132   2.349  1.9146  0.8375  2.1848
 5250TIP3    H215757   0.305   4.236   2.246 -0.7316 -0.4330 -0.1885
 5251TIP3   OH215758   4.938   4.336   1.253 -0.3073  0.0324 -0.4927
 5251TIP3    H115759   4.869   4.384   1.206 -0.0031  1.9415  0.8873
 5251TIP3    H215760   4.912   4.340   1.345 -0.0192 -2.1569 -0.2675
 5252TIP3   OH215761   3.756   5.537   5.165 -0.4279 -0.2617 -0.0078
 5252TIP3    H115762   3.814   5.488   5.106  1.1188  0.6794  0.6851
 5252TIP3    H215763   3.764   5.492   5.249  1.7403  1.6406  0.8844
 5253TIP3   OH215764   2.970   3.075   0.493 -0.3206  0.5024  0.2559
 5253TIP3    H115765   3.012   3.062   0.408 -0.7151  0.3123  0.0843
 5253TIP3    H215766   2.957   2.986   0.527 -1.2307  0.5109 -0.0235
 5254TIP3   OH215767   3.422   1.827   5.026 -0.9461  0.2328  0.1748
 5254TIP3    H115768   3.428   1.734   5.051 -1.3640  0.2081  0.1906
 5254TIP3    H215769   3.366   1.866   5.092 -0.2546  0.6416  0.5363
 5255TIP3   OH215770   0.390   4.930   1.214 -0.2428  0.4625 -0.0117
 5255TIP3    H115771   0.465   4.954   1.159 -1.3792  2.1241 -0.9222
 5255TIP3    H215772   0.318   4.982   1.180 -1.2392  0.8270  2.4793
 5256TIP3   OH215773   5.461   1.378   4.319 -0.3356  0.1761  0.4544
 5256TIP3    H115774   5.448   1.285   4.301  0.7363  0.2963 -1.1094
 5256TIP3    H215775   5.554   1.387   4.336 -0.3449  1.0481  0.0732
 5257TIP3   OH215776   4.234   0.558   0.656  0.2219  0.1462  0.4740
 5257TIP3    H115777   4.292   0.632   0.672 -2.0219  1.8163  1.5048
 5257TIP3    H215778   4.220   0.520   0.743 -1.6657  0.9938  0.5909
 5258TIP3   OH215779   2.687   2.078   2.514 -0.2228  0.7501  0.3616
 5258TIP3    H115780   2.764   2.128   2.541 -0.5978  0.5899  1.8221
 5258TIP3    H215781   2.686   2.003   2.573 -1.0138  0.2824 -0.2298
 5259TIP3   OH215782   4.019   1.934   0.896 -0.0494  0.0952  0.3059
 5259TIP3    H115783   3.947   1.992   0.872 -0.2017 -0.2998 -0.2137
 5259TIP3    H215784   3.997   1.904   0.984 -1.7680 -1.8423 -0.6771
 5260TIP3   OH215785   1.643   0.899   0.158  0.1033  0.3680  0.3062
 5260TIP3    H115786   1.719   0.914   0.214 -0.6054  0.6437  1.2362
 5260TIP3    H215787   1.637   0.978   0.104  0.7153  0.1622 -0.0616
 5261TIP3   OH215788   6.102   3.493   0.916 -0.0932 -0.5109  0.1826
 5261TIP3    H115789   6.123   3.435   0.990  1.5804 -0.1016  0.0632
 5261TIP3    H215790   6.111   3.581   0.952 -2.0026 -0.2778  0.1934
 5262TIP3   OH215791   0.693   1.039   5.043 -0.2276  0.3934 -0.2344
 5262TIP3    H115792   0.735   1.023   5.127 -2.7435  1.8725  1.4125
 5262TIP3    H215793   0.667   0.952   5.012  1.9828 -0.3254 -0.2885
 5263TIP3   OH215794   3.490   2.542   3.732 -0.3147  0.0020  0.6367
 5263TIP3    H115795   3.505   2.551   3.826 -1.7992  1.1584  0.8034
 5263TIP3    H215796   3.399   2.514   3.725 -0.0760 -0.5625 -0.4544
 5264TIP3   OH215797   3.759   3.397   3.352  0.5408 -0.2788 -0.4606
 5264TIP3    H115798   3.759   3.492   3.342  0.5023 -0.4018 -1.7958
 5264TIP3    H215799   3.821   3.381   3.423  0.7435  0.7273 -0.3926
 5265TIP3   OH215800   3.012   5.234   1.017  0.1203  0.3175  0.3776
 5265TIP3    H115801   3.070   5.311   1.016 -0.5900  0.8728 -0.7874
 5265TIP3    H215802   3.063   5.166   0.973  0.5440  0.2777  0.9184
 5266TIP3   OH215803   3.445   1.564   5.102  0.3471  0.0574  0.1749
 5266TIP3    H115804   3.529   1.518   5.093  0.3419  0.1864 -0.6653
 5266TIP3    H215805   3.381   1.494   5.113  0.4165 -0.1178 -0.4672
 5267TIP3   OH215806   3.180   2.347   2.506 -0.5397  0.0481  0.0381
 5267TIP3    H115807   3.205   2.433   2.540 -1.2748  0.3315 -0.1028
 5267TIP3    H215808   3.136   2.366   2.423  0.7359 -0.5946 -0.8139
 5268TIP3   OH215809   4.609   5.701   3.310 -0.5472  0.1564 -0.3411
 5268TIP3    H115810   4.676   5.686   3.242 -0.4340  0.7829 -0.3744
 5268TIP3    H215811   4.597   5.615   3.351  0.5262  0.0984 -0.1152
 5269TIP3   OH215812   2.978   4.289   4.817 -0.1732 -0.5927  0.5071
 5269TIP3    H115813   2.998   4.361   4.877 -0.4164  1.0782 -1.2821
 5269TIP3    H215814   2.919   4.232   4.866  0.8247 -0.1276  2.3371
 5270TIP3   OH215815   2.406   0.552   3.259  0.0666  0.0458 -0.1636
 5270TIP3    H115816   2.475   0.611   3.290  0.3722 -1.4489  2.2688
 5270TIP3    H215817   2.393   0.577   3.168  1.6030  2.4683  0.1828
 5271TIP3   OH215818   5.340   3.463   3.567 -0.6173 -0.1288 -0.2991
 5271TIP3    H115819   5.260   3.461   3.514  1.3952 -0.4371 -3.6038
 5271TIP3    H215820   5.365   3.371   3.575 -1.3484 -0.1933  2.1955
 5272TIP3   OH215821   3.110   1.600   4.133 -0.5962 -0.0776 -0.0517
 5272TIP3    H115822   3.117   1.689   4.097 -1.8026  1.0899  2.3501
 5272TIP3    H215823   3.199   1.564   4.124 -0.1826  1.1882 -1.4560
 5273TIP3   OH215824   4.541   0.998   4.656 -0.3833  0.0493 -0.0330
 5273TIP3    H115825   4.535   0.962   4.567  2.5497  0.2467 -0.4069
 5273TIP3    H215826   4.605   1.069   4.648 -1.5191  1.3622  1.8960
 5274TIP3   OH215827   1.100   2.462   2.851  0.1286 -0.1852 -0.6165
 5274TIP3    H115828   1.013   2.468   2.812 -0.0251  2.2053 -0.0533
 5274TIP3    H215829   1.086   2.483   2.943  1.2043 -0.5308 -0.3621
 5275TIP3   OH215830   5.427   1.012   0.883 -0.7669 -0.3751 -0.0307
 5275TIP3    H115831   5.502   1.052   0.926  0.0891 -0.6796 -1.1782
 5275TIP3    H215832   5.445   0.918   0.885 -0.1821 -0.3483 -1.8996
 5276TIP3   OH215833   1.165   5.937   4.069  0.2283  0.0126 -0.0114
 5276TIP3    H115834   1.195   5.849   4.046 -2.4548 -1.3552  1.1838
 5276TIP3    H215835   1.194   5.950   4.159  0.9289  0.5359 -0.3033
 5277TIP3   OH215836   0.969   3.444   0.197  0.1474  0.0450  0.6078
 5277TIP3    H115837   0.891   3.477   0.242 -0.3388  0.4050 -0.4717
 5277TIP3    H215838   1.003   3.519   0.149  1.6123  0.0890  1.6613
 5278TIP3   OH215839   1.650   2.675   4.427  0.3156 -0.6610 -0.4425
 5278TIP3    H115840   1.586   2.717   4.368 -0.1261 -0.7710 -0.0490
 5278TIP3    H215841   1.735   2.700   4.391  0.0640 -1.3689 -1.5965
 5279TIP3   OH215842   1.017   2.306   3.914  0.1965 -0.1729 -0.2027
 5279TIP3    H115843   1.077   2.381   3.906 -1.0255  0.7810 -0.6883
 5279TIP3    H215844   0.931   2.342   3.893 -0.4945 -1.6168  0.0646
 5280TIP3   OH215845   2.726   1.285   2.006  0.1374  0.1569  0.6942
 5280TIP3    H115846   2.762   1.243   2.084 -0.8302 -0.7034  0.6998
 5280TIP3    H215847   2.635   1.303   2.029 -0.5464 -1.3275 -0.6829
 5281TIP3   OH215848   0.022   2.106   1.615  0.0550 -0.2862 -0.2405
 5281TIP3    H115849   0.081   2.174   1.582 -0.8173  0.4552 -0.3241
 5281TIP3    H215850   0.005   2.051   1.539 -0.2155  0.1390 -0.4944
 5282TIP3   OH215851   3.426   5.272   0.917  0.4118 -0.0219 -0.2588
 5282TIP3    H115852   3.470   5.222   0.986 -0.8853 -1.3475 -0.3449
 5282TIP3    H215853   3.391   5.205   0.858 -2.2555  0.8889  0.1441
 5283TIP3   OH215854   3.191   3.276   3.088  1.0210 -0.2543 -0.1385
 5283TIP3    H115855   3.250   3.218   3.040  0.3533 -0.6535 -0.4944
 5283TIP3    H215856   3.248   3.343   3.125  1.6599 -0.4603 -0.7258
 5284TIP3   OH215857   0.432   2.990   2.199 -0.2671 -0.3126  0.2506
 5284TIP3    H115858   0.454   3.015   2.109 -1.2867  0.7307  0.2727
 5284TIP3    H215859   0.341   3.017   2.210  0.2053  0.6763  1.9930
 5285TIP3   OH215860   2.825   5.109   3.990 -0.4286 -0.0839  0.0059
 5285TIP3    H115861   2.820   5.027   4.038  0.9938 -0.8790 -1.1237
 5285TIP3    H215862   2.762   5.099   3.918  0.4438 -0.6217 -0.7071
 5286TIP3   OH215863   1.626   4.043   4.126  0.5621  0.1607  0.4278
 5286TIP3    H115864   1.697   4.080   4.074 -0.3409  2.5876  0.8119
 5286TIP3    H215865   1.610   3.957   4.086  2.8585  0.0545 -0.4203
 5287TIP3   OH215866   1.404   5.463   3.666 -0.1848 -0.1153 -0.3326
 5287TIP3    H115867   1.495   5.472   3.639 -0.6055  1.6021 -1.2897
 5287TIP3    H215868   1.386   5.369   3.655  1.8125 -0.7528  1.2007
 5288TIP3   OH215869   5.932   4.006   0.182 -0.1424 -0.1717 -0.0333
 5288TIP3    H115870   5.899   3.975   0.097 -1.8363  0.9566  0.1634
 5288TIP3    H215871   5.928   4.102   0.175  3.3254  0.1233 -0.0149
 5289TIP3   OH215872   5.195   4.180   2.242 -0.5699  0.3600 -0.6342
 5289TIP3    H115873   5.140   4.206   2.316  0.4754  1.1204 -0.0927
 5289TIP3    H215874   5.209   4.262   2.194  2.6382  0.9063  0.9876
 5290TIP3   OH215875   3.700   4.751   2.095  0.2529  0.2078 -0.4504
 5290TIP3    H115876   3.702   4.658   2.072 -1.0889  0.2102 -0.6181
 5290TIP3    H215877   3.647   4.755   2.175 -1.6605  1.0642 -1.7056
 5291TIP3   OH215878   5.976   5.523   4.368  0.4732 -0.3354 -0.0502
 5291TIP3    H115879   5.915   5.596   4.381  0.9813 -0.0765  0.9637
 5291TIP3    H215880   5.943   5.453   4.425  2.0185  0.3824  1.8546
 5292TIP3   OH215881   0.705   3.559   2.835  0.2136  0.2190 -0.5276
 5292TIP3    H115882   0.734   3.583   2.924  0.1547 -1.4995 -0.0194
 5292TIP3    H215883   0.774   3.592   2.778 -0.0234  1.8727  0.0672
 5293TIP3   OH215884   0.875   2.537   0.014  0.1962  0.1896 -0.8746
 5293TIP3    H115885   0.783   2.543   0.040  0.5800 -0.2593  0.7311
 5293TIP3    H215886   0.923   2.542   0.097  1.3982 -4.5130 -1.0176
 5294TIP3   OH215887   2.950   1.688   2.563 -0.0036 -0.2332 -0.6360
 5294TIP3    H115888   2.982   1.614   2.615  0.4758  1.0550  0.9907
 5294TIP3    H215889   3.023   1.711   2.506  0.4834  0.0766  0.1027
 5295TIP3   OH215890   6.296   5.364   2.519 -0.2324 -0.2076 -0.2988
 5295TIP3    H115891   6.327   5.399   2.602  0.5559 -1.3937 -0.0702
 5295TIP3    H215892   6.203   5.349   2.532 -0.3215  0.5527  0.0202
 5296TIP3   OH215893   4.513   3.572   4.134  0.3014  0.3570 -0.0416
 5296TIP3    H115894   4.519   3.509   4.205  0.3209  0.3157 -0.0802
 5296TIP3    H215895   4.506   3.519   4.054  0.3936  0.4037 -0.0803
 5297TIP3   OH215896   5.252   0.993   0.245  0.1349 -0.1677  0.1402
 5297TIP3    H115897   5.271   1.086   0.253 -0.7184  0.0582 -0.3427
 5297TIP3    H215898   5.171   0.989   0.195  0.9441 -1.2202 -1.1651
 5298TIP3   OH215899   2.618   3.049   3.942 -0.3227  0.3905  0.3164
 5298TIP3    H115900   2.559   3.063   3.868  2.2083 -0.0761 -1.9526
 5298TIP3    H215901   2.666   3.132   3.950  2.1744 -0.7756 -1.3093
 5299TIP3   OH215902   4.554   0.940   0.751  0.4865  0.5014 -0.0712
 5299TIP3    H115903   4.525   0.851   0.772  2.7712 -0.4952 -0.8610
 5299TIP3    H215904   4.539   0.989   0.832  0.2036 -0.8729  0.7493
 5300TIP3   OH215905   4.833   5.108   1.655  0.0770  0.3238 -0.6640
 5300TIP3    H115906   4.923   5.088   1.630  0.1030 -1.0396  0.3539
 5300TIP3    H215907   4.840   5.159   1.735 -0.0366 -0.1544 -0.3402
 5301TIP3   OH215908   2.612   5.527   0.112  0.5840  0.0058  0.3220
 5301TIP3    H115909   2.674   5.594   0.085 -0.3858  1.2364  1.0235
 5301TIP3    H215910   2.641   5.501   0.199  0.4147  0.2274  0.4473
 5302TIP3   OH215911   5.811   3.955   2.805 -0.2211 -0.4904 -0.1879
 5302TIP3    H115912   5.798   3.996   2.719 -0.0282 -0.3536 -0.1507
 5302TIP3    H215913   5.784   4.022   2.868 -0.3523 -0.5868 -0.1408
 5303TIP3   OH215914   1.348   3.983   4.408 -0.3929  0.3957 -0.5607
 5303TIP3    H115915   1.268   3.961   4.455 -0.3795  0.6602 -0.4167
 5303TIP3    H215916   1.324   4.057   4.352 -0.2730  0.4128 -0.5909
 5304TIP3   OH215917   2.639   4.965   1.948  0.0661 -0.1304  0.1029
 5304TIP3    H115918   2.692   4.990   1.872 -1.2072  0.0365 -0.7736
 5304TIP3    H215919   2.696   4.978   2.023  1.7074 -1.2907 -0.8935
 5305TIP3   OH215920   4.868   2.346   3.486 -0.1464 -0.6191 -0.1508
 5305TIP3    H115921   4.884   2.276   3.550  0.2222 -0.2311  0.1859
 5305TIP3    H215922   4.872   2.301   3.401  2.4623 -0.6463 -0.0935
 5306TIP3   OH215923   4.273   4.379   1.802 -0.2170 -0.4947 -0.3659
 5306TIP3    H115924   4.265   4.402   1.709  0.5689 -1.1702 -0.6109
 5306TIP3    H215925   4.195   4.328   1.820 -1.1754  0.9491 -0.2283
 5307TIP3   OH215926   1.202   0.724   4.424  0.5667 -0.3500  0.0915
 5307TIP3    H115927   1.211   0.730   4.519 -0.7203 -1.1368  0.2894
 5307TIP3    H215928   1.285   0.687   4.394  1.0705  0.1232  0.8723
 5308TIP3   OH215929   5.615   0.987   1.368 -0.3638  0.1064 -0.0443
 5308TIP3    H115930   5.530   0.980   1.412 -0.2559  1.1474  0.3572
 5308TIP3    H215931   5.678   0.994   1.439  0.1610 -1.4356 -0.3222
 5309TIP3   OH215932   2.847   4.896   3.335 -0.2489 -0.2253 -0.0201
 5309TIP3    H115933   2.754   4.901   3.358 -0.0126  1.2442  0.7629
 5309TIP3    H215934   2.893   4.897   3.419  0.5039  0.7355 -0.4130
 5310TIP3   OH215935   4.094   1.369   3.608 -0.6221 -0.0849  0.1467
 5310TIP3    H115936   4.135   1.316   3.540  2.1442  0.9507  0.8869
 5310TIP3    H215937   4.028   1.421   3.562 -0.9179 -1.5521 -1.1715
 5311TIP3   OH215938   1.695   2.218   0.215 -0.2934 -0.1059 -0.2523
 5311TIP3    H115939   1.747   2.245   0.291 -0.1183  1.1526 -0.7999
 5311TIP3    H215940   1.759   2.210   0.144 -0.1318 -3.1448  0.0974
 5312TIP3   OH215941   4.364   4.807   0.028  0.2146  0.5899 -0.3442
 5312TIP3    H115942   4.302   4.839  -0.037  2.4838  2.5760 -1.7144
 5312TIP3    H215943   4.363   4.874   0.097 -0.2582 -0.1503  0.3806
 5313TIP3   OH215944   1.377   4.372   2.095 -0.2294 -0.2673 -0.0575
 5313TIP3    H115945   1.394   4.324   2.176  1.3461  0.6677  0.2030
 5313TIP3    H215946   1.308   4.322   2.051 -1.2728 -0.6779  1.9496
 5314TIP3   OH215947   4.067   4.075   5.035  0.1253  0.4802 -0.6702
 5314TIP3    H115948   3.994   4.044   4.982 -0.6221  0.8992  0.0838
 5314TIP3    H215949   4.119   4.128   4.976  1.1592 -1.7411 -1.8568
 5315TIP3   OH215950   2.013   3.231   4.166 -0.2793  0.1837  0.1343
 5315TIP3    H115951   2.078   3.206   4.232 -0.0503  3.6599  1.4728
 5315TIP3    H215952   1.929   3.218   4.210 -0.1638  1.4723  0.8020
 5316TIP3   OH215953   1.538   3.790   0.555 -0.1597 -0.2010  0.0903
 5316TIP3    H115954   1.492   3.874   0.554  0.7601  0.3144 -1.5092
 5316TIP3    H215955   1.491   3.738   0.621 -0.4352  1.7213  1.4984
 5317TIP3   OH215956   4.942   0.339   5.083  0.3300 -0.6211 -0.6093
 5317TIP3    H115957   5.036   0.328   5.071  0.2788 -1.2504 -0.4512
 5317TIP3    H215958   4.920   0.414   5.028  0.8922 -0.5717 -0.7767
 5318TIP3   OH215959   1.274   1.989   2.300  0.1139  0.1438  0.1048
 5318TIP3    H115960   1.292   1.975   2.393  1.2361  0.3937 -0.0672
 5318TIP3    H215961   1.288   2.082   2.287  2.9053 -0.3315 -0.9072
 5319TIP3   OH215962   5.267   4.387   1.520  0.2668  0.7243 -0.0139
 5319TIP3    H115963   5.236   4.459   1.575  0.3877  0.1500  0.8208
 5319TIP3    H215964   5.188   4.354   1.477  0.2249  1.4104 -0.4737
 5320TIP3   OH215965   0.159   4.697   0.884  0.2941  0.0342 -0.5169
 5320TIP3    H115966   0.183   4.766   0.823  1.4858 -0.5056 -0.7036
 5320TIP3    H215967   0.153   4.618   0.829 -2.2163  0.1556 -0.5109
 5321TIP3   OH215968   4.673   2.088   4.244 -0.3130 -0.2906 -0.3408
 5321TIP3    H115969   4.691   2.096   4.338  0.4986  0.2935 -0.5358
 5321TIP3    H215970   4.753   2.049   4.208 -1.5490 -2.8883 -0.4463
 5322TIP3   OH215971   5.872   3.070   3.004  0.1033 -0.2551  0.1601
 5322TIP3    H115972   5.927   3.074   3.082 -1.2393 -0.8537  1.1781
 5322TIP3    H215973   5.906   3.140   2.947 -1.6591  3.3461  3.1216
 5323TIP3   OH215974   1.601   4.783   1.968 -0.1221 -0.2627 -0.2955
 5323TIP3    H115975   1.566   4.814   2.052 -2.7903 -0.5407 -1.2174
 5323TIP3    H215976   1.607   4.688   1.979  0.3499 -0.2226 -0.1662
 5324TIP3   OH215977   6.034   0.794   3.546 -0.7319 -0.0812  0.3652
 5324TIP3    H115978   6.015   0.816   3.637 -0.6436  0.9405  0.1496
 5324TIP3    H215979   6.032   0.699   3.543  0.9310 -0.1981  1.7874
 5325TIP3   OH215980   2.461   5.755   3.353  0.4896  0.0262 -0.2670
 5325TIP3    H115981   2.466   5.850   3.348 -0.6735  0.0495 -1.2272
 5325TIP3    H215982   2.424   5.737   3.440  1.1022  0.4197  0.0810
 5326TIP3   OH215983   4.512   5.872   3.117  0.2575 -0.5151  0.1723
 5326TIP3    H115984   4.423   5.844   3.094  0.7901 -1.0194 -1.4730
 5326TIP3    H215985   4.545   5.802   3.174  0.2652 -1.3753 -0.8421
 5327TIP3   OH215986   5.166   1.191   4.180  0.3226 -0.3030 -0.4239
 5327TIP3    H115987   5.119   1.266   4.217 -0.8277 -0.9142 -0.5876
 5327TIP3    H215988   5.255   1.198   4.216 -0.5173 -0.4516  1.8930
 5328TIP3   OH215989   4.623   4.764   1.476 -0.5313  0.5685 -0.2288
 5328TIP3    H115990   4.619   4.706   1.399 -0.6576  0.3386 -0.0531
 5328TIP3    H215991   4.601   4.706   1.550  0.9225  0.4694  0.1525
 5329TIP3   OH215992   5.958   3.517   0.663 -0.0953 -0.0384 -0.1508
 5329TIP3    H115993   6.028   3.516   0.597  0.6184  0.2941  0.5752
 5329TIP3    H215994   5.995   3.467   0.737 -1.7188 -2.3630 -0.7982
 5330TIP3   OH215995   4.019   4.791   2.440  0.4168  0.6212 -0.7637
 5330TIP3    H115996   3.999   4.881   2.468  2.2758  1.2427 -1.2370
 5330TIP3    H215997   4.065   4.802   2.357 -0.0843 -0.8499 -1.2579
 5331TIP3   OH215998   1.999   1.550   1.622  0.5113  0.2623  0.1079
 5331TIP3    H115999   1.970   1.635   1.588 -0.2471  0.0987  0.3371
 5331TIP3    H216000   2.073   1.571   1.679  0.2735  0.7821  0.2343
 5332TIP3   OH216001   0.629   3.490   1.062 -0.0095 -0.7051 -0.0721
 5332TIP3    H116002   0.697   3.427   1.040 -0.5323 -1.1481 -0.4578
 5332TIP3    H216003   0.547   3.448   1.034 -0.5912 -0.7603  1.6135
 5333TIP3   OH216004   2.003   3.502   2.364 -0.4278 -0.2147  0.0044
 5333TIP3    H116005   1.936   3.570   2.359  1.6952  2.0822  0.8014
 5333TIP3    H216006   1.955   3.423   2.391 -2.5104  1.9212  3.2274
 5334TIP3   OH216007   2.987   5.949   1.604 -0.2769  0.0878 -0.5447
 5334TIP3    H116008   2.917   5.998   1.648 -0.9173 -1.6732  0.5327
 5334TIP3    H216009   3.060   5.950   1.666  0.2153  0.8576 -1.1273
 5335TIP3   OH216010   1.225   4.045   3.378  0.2824  0.3688 -0.1280
 5335TIP3    H116011   1.151   4.086   3.422  1.0615 -0.1847  1.7770
 5335TIP3    H216012   1.277   4.119   3.345 -1.7045  0.7663 -2.6955
 5336TIP3   OH216013   3.597   2.232   3.220  0.1779  0.1514  0.2459
 5336TIP3    H116014   3.568   2.323   3.222  3.0116  1.1282  0.6634
 5336TIP3    H216015   3.627   2.218   3.131 -0.9920 -0.6718 -0.0394
 5337TIP3   OH216016   5.719   0.719   0.730 -0.1321 -0.1286 -0.1315
 5337TIP3    H116017   5.797   0.672   0.702 -1.7060 -1.9145 -1.8969
 5337TIP3    H216018   5.742   0.812   0.725  1.5381 -0.5904 -1.5660
 5338TIP3   OH216019   4.045   4.175   2.237 -0.2784  0.4575 -0.0581
 5338TIP3    H116020   3.981   4.223   2.289  0.1937 -0.5621  1.5451
 5338TIP3    H216021   4.101   4.243   2.200 -0.4094  1.2347  1.0904
 5339TIP3   OH216022   1.028   3.358   1.174 -0.0028  0.0581  0.0032
 5339TIP3    H116023   1.016   3.384   1.265 -0.1129 -0.8305  0.2501
 5339TIP3    H216024   1.118   3.383   1.153  0.6376 -1.3545  0.9208
 5340TIP3   OH216025   1.872   0.086   5.057  0.3303 -0.5979  0.5048
 5340TIP3    H116026   1.783   0.101   5.025  0.8796 -0.1756 -0.9159
 5340TIP3    H216027   1.862   0.026   5.130 -1.0777 -0.9618  0.0405
 5341TIP3   OH216028   3.166   4.138   0.233 -0.0598 -0.0199 -0.2607
 5341TIP3    H116029   3.212   4.069   0.185  2.0177 -0.7281  2.4915
 5341TIP3    H216030   3.219   4.216   0.219  0.2876 -0.1215  0.4363
 5342TIP3   OH216031   0.892   2.173   4.861  0.3061 -0.0008 -0.1559
 5342TIP3    H116032   0.979   2.194   4.827  0.7740  0.2315  1.1494
 5342TIP3    H216033   0.908   2.137   4.948 -0.8292 -1.0782 -0.3650
 5343TIP3   OH216034   5.585   4.467   0.925 -0.3895 -0.5158 -0.1157
 5343TIP3    H116035   5.564   4.560   0.921  0.4033 -0.3695 -1.9279
 5343TIP3    H216036   5.677   4.464   0.952  0.3482 -0.5941 -2.4230
 5344TIP3   OH216037   1.965   0.172   0.670 -0.2489  0.1391 -0.6252
 5344TIP3    H116038   1.881   0.170   0.715 -0.6790  0.5387 -1.3852
 5344TIP3    H216039   1.943   0.197   0.580  0.8538  2.2423 -0.3855
 5345TIP3   OH216040   1.574   1.816   0.661  0.1162  0.3394  0.6599
 5345TIP3    H116041   1.554   1.871   0.586  0.1942 -0.8021 -0.2202
 5345TIP3    H216042   1.499   1.825   0.719 -0.0123  1.1206  0.3751
 5346TIP3   OH216043   2.783   1.713   2.915 -0.4041  0.0590 -0.0925
 5346TIP3    H116044   2.858   1.768   2.936  0.2027 -0.7573 -0.0652
 5346TIP3    H216045   2.708   1.758   2.953  0.2681  0.1341  1.1773
 5347TIP3   OH216046   6.280   0.242   2.504 -0.8443 -0.5524  0.2515
 5347TIP3    H116047   6.284   0.318   2.447 -1.3050 -1.4104 -0.9830
 5347TIP3    H216048   6.342   0.261   2.575  1.7103 -0.4897 -1.8666
 5348TIP3   OH216049   1.348   1.583   2.091  0.1509  0.6918  0.5939
 5348TIP3    H116050   1.438   1.589   2.124  0.3236 -0.8653  0.4610
 5348TIP3    H216051   1.298   1.642   2.148  1.0062  0.5139  1.5654
 5349TIP3   OH216052   5.771   1.646   1.278 -0.3052 -0.2718 -0.2457
 5349TIP3    H116053   5.789   1.628   1.370  0.0498  0.0940 -0.2390
 5349TIP3    H216054   5.843   1.604   1.231 -1.8360 -2.7423 -0.5809
 5350TIP3   OH216055   3.960   3.055   4.415 -0.0027 -0.3585  0.1018
 5350TIP3    H116056   3.913   3.090   4.340  0.9867  1.4000  0.2468
 5350TIP3    H216057   4.049   3.088   4.405  0.4644 -1.1506  1.3836
 5351TIP3   OH216058   4.071   1.589   4.611 -0.3736  0.2014  0.3378
 5351TIP3    H116059   4.056   1.534   4.533  0.0290  0.8331 -0.1935
 5351TIP3    H216060   4.046   1.533   4.684  1.1690 -1.1476 -0.0974
 5352TIP3   OH216061   2.534   1.072   2.418 -0.0592  0.0336 -0.7569
 5352TIP3    H116062   2.520   0.991   2.467  0.4227  1.0950  1.2355
 5352TIP3    H216063   2.556   1.043   2.329 -0.6987 -1.9733 -0.3068
 5353TIP3   OH216064   0.958   3.013   3.655  0.0261 -0.0051 -0.6062
 5353TIP3    H116065   1.025   3.017   3.586  0.0381  2.9489 -0.5171
 5353TIP3    H216066   0.876   3.031   3.609 -0.3363 -0.6150 -0.2187
 5354TIP3   OH216067   1.292   4.726   0.290  0.1085  0.2545  0.0892
 5354TIP3    H116068   1.347   4.803   0.278  0.4621 -0.2229 -1.5835
 5354TIP3    H216069   1.202   4.758   0.276  0.3238  0.2114 -1.5853
 5355TIP3   OH216070   6.335   0.143   3.472  0.2077 -0.4836  0.3722
 5355TIP3    H116071   6.298   0.086   3.405 -1.6380 -0.8367  1.5968
 5355TIP3    H216072   6.305   0.105   3.555  1.0733  0.8233  1.3205
 5356TIP3   OH216073   1.657   0.881   0.683 -0.0897 -0.2267  0.4121
 5356TIP3    H116074   1.740   0.834   0.675 -0.3270 -0.3844 -1.4642
 5356TIP3    H216075   1.679   0.971   0.661 -0.8473 -0.7561 -3.1008
 5357TIP3   OH216076   5.735   1.168   3.552  0.4691 -0.4900 -0.1567
 5357TIP3    H116077   5.710   1.120   3.630  0.9840  1.4137  1.2751
 5357TIP3    H216078   5.830   1.173   3.556  0.5428 -0.8431 -1.2117
 5358TIP3   OH216079   2.008   1.627   4.436  0.1401 -0.4784  0.5445
 5358TIP3    H116080   2.034   1.546   4.393 -1.5409 -1.7439  1.7994
 5358TIP3    H216081   2.088   1.680   4.437  1.2424 -2.0370 -0.4511
 5359TIP3   OH216082   5.358   0.843   3.180 -0.0272 -0.2904  0.7435
 5359TIP3    H116083   5.406   0.925   3.170  0.2854 -0.4432  0.9818
 5359TIP3    H216084   5.426   0.776   3.192 -0.2508 -0.7048 -0.2525
 5360TIP3   OH216085   0.346   3.050   1.924  0.2217 -0.3932  0.5409
 5360TIP3    H116086   0.428   3.070   1.879  0.2665 -3.0783 -0.8026
 5360TIP3    H216087   0.278   3.089   1.868  0.4953  0.2411  0.6485
 5361TIP3   OH216088   2.125   0.666   3.309 -0.2951  0.1088 -0.1196
 5361TIP3    H116089   2.151   0.680   3.218 -0.9070  1.8528 -0.0585
 5361TIP3    H216090   2.086   0.578   3.310 -0.6857  0.2497 -1.6311
 5362TIP3   OH216091   0.298   4.027   2.585 -0.2539 -0.0099 -0.2760
 5362TIP3    H116092   0.387   4.050   2.612  0.9257 -2.2203 -2.0253
 5362TIP3    H216093   0.274   3.954   2.642 -0.0427 -0.8699 -1.2710
 5363TIP3   OH216094   1.848   5.786   3.654  0.2728  0.3813  0.5354
 5363TIP3    H116095   1.892   5.734   3.721  0.3025 -2.9076 -1.8056
 5363TIP3    H216096   1.914   5.849   3.626  1.2906 -0.2516  1.4274
 5364TIP3   OH216097   5.005   4.550   5.071  0.1413  0.2734 -0.1999
 5364TIP3    H116098   5.078   4.589   5.023  1.5133 -1.6722  0.1975
 5364TIP3    H216099   4.935   4.542   5.007  0.8685  0.5765 -1.0501
 5365TIP3   OH216100   1.115   2.318   4.498 -0.0442 -0.2343 -0.0090
 5365TIP3    H116101   1.135   2.281   4.584  2.7416  1.1202  0.0293
 5365TIP3    H216102   1.134   2.412   4.507 -0.4862  0.0792 -1.8872
 5366TIP3   OH216103   0.423   0.661   4.635 -0.0223 -0.1795 -0.4643
 5366TIP3    H116104   0.440   0.571   4.664 -1.8992 -0.3868  0.1377
 5366TIP3    H216105   0.327   0.667   4.631 -0.0415  2.3844  1.4702
 5367TIP3   OH216106   2.654   4.916   2.428 -0.1956  0.4348 -0.4158
 5367TIP3    H116107   2.568   4.876   2.417 -2.0259  2.9801  2.7488
 5367TIP3    H216108   2.658   4.940   2.520  2.9053  2.6908 -0.9561
 5368TIP3   OH216109   4.015   5.269   0.475 -0.2228  0.1277 -0.1133
 5368TIP3    H116110   4.009   5.338   0.542 -0.0720 -0.2561  0.3052
 5368TIP3    H216111   4.029   5.189   0.526  2.5957  0.1574 -0.6997
 5369TIP3   OH216112   3.092   1.137   3.939 -0.5480 -0.5749 -0.3466
 5369TIP3    H116113   3.169   1.085   3.919 -1.0148 -1.3641 -0.1243
 5369TIP3    H216114   3.113   1.180   4.022  0.1937  0.3276 -0.9782
 5370TIP3   OH216115   5.264   0.661   5.153  0.1360 -0.0767  0.5930
 5370TIP3    H116116   5.271   0.756   5.143  1.2437 -0.0522  1.4623
 5370TIP3    H216117   5.177   0.640   5.118  0.1822  1.1475 -0.3293
 5371TIP3   OH216118   1.642   0.101   0.087  0.4577 -0.2332 -0.4551
 5371TIP3    H116119   1.704   0.137   0.024  0.5621 -1.3236 -1.0036
 5371TIP3    H216120   1.672   0.010   0.101  0.5362  0.0141  1.2846
 5372TIP3   OH216121   1.387   3.882   0.038 -0.3086 -0.3548 -0.1238
 5372TIP3    H116122   1.387   3.973   0.009 -1.0866 -0.6587 -1.1316
 5372TIP3    H216123   1.340   3.883   0.121  1.3804  0.4261  0.8938
 5373TIP3   OH216124   4.720   2.213   2.072  0.2660  0.3563  0.1999
 5373TIP3    H116125   4.734   2.222   2.166 -2.0182  1.7110  0.4860
 5373TIP3    H216126   4.748   2.297   2.036  0.0417  0.2701 -0.1785
 5374TIP3   OH216127   0.688   5.184   3.378  0.4260 -0.1315 -0.1553
 5374TIP3    H116128   0.706   5.169   3.471 -2.7295  0.6638  0.7178
 5374TIP3    H216129   0.659   5.100   3.344 -1.1824  0.1871  0.3723
 5375TIP3   OH216130   1.905   2.156   1.527  0.3897 -0.0018 -0.0138
 5375TIP3    H116131   1.942   2.138   1.614 -2.1200 -1.9378  0.7722
 5375TIP3    H216132   1.825   2.206   1.545 -0.7043 -1.2993 -1.0821
 5376TIP3   OH216133   2.562   4.910   3.381 -0.4205 -0.5807 -0.6391
 5376TIP3    H116134   2.540   4.899   3.288  0.9513 -0.9000 -0.9406
 5376TIP3    H216135   2.553   5.003   3.398 -1.6074 -0.6445 -0.8384
 5377TIP3   OH216136   0.279   5.136   1.795 -0.0305  0.0398 -0.3648
 5377TIP3    H116137   0.345   5.168   1.732  0.2485 -1.9145 -1.1177
 5377TIP3    H216138   0.277   5.204   1.863  3.5740 -0.2465  0.2640
 5378TIP3   OH216139   1.476   2.494   4.229  0.0743  0.1881 -0.1632
 5378TIP3    H116140   1.484   2.520   4.138  0.2116 -1.1235 -0.5503
 5378TIP3    H216141   1.401   2.544   4.262 -0.4356  0.1356 -1.2005
 5379TIP3   OH216142   1.390   4.199   4.134  0.1169  0.6932  0.3415
 5379TIP3    H116143   1.451   4.129   4.112  0.4142  0.7045  1.1087
 5379TIP3    H216144   1.445   4.277   4.141  0.3022  0.4030  2.7161
 5380TIP3   OH216145   1.628   5.932   3.692 -0.0494 -0.2673  0.2233
 5380TIP3    H116146   1.562   5.876   3.733  0.6493 -0.1468  1.5718
 5380TIP3    H216147   1.707   5.878   3.689  0.2242  0.1351  0.1176
 5381TIP3   OH216148   2.272   5.194   2.067  0.0804  0.7160 -0.0340
 5381TIP3    H116149   2.343   5.198   2.002 -1.3317  0.2653 -1.6899
 5381TIP3    H216150   2.193   5.211   2.016 -1.2473 -1.0175  1.3175
 5382TIP3   OH216151   2.954   3.032   4.584  0.3570  0.3261 -0.2497
 5382TIP3    H116152   2.880   3.090   4.568  1.1479  1.6014  0.5503
 5382TIP3    H216153   2.927   2.977   4.657 -0.5184 -0.5865 -1.2192
 5383TIP3   OH216154   0.346   0.265   1.292  0.7490 -0.2704  0.2931
 5383TIP3    H116155   0.429   0.264   1.338  0.4639  0.4649  0.8597
 5383TIP3    H216156   0.316   0.356   1.298 -1.2065 -0.9390  2.1757
 5384TIP3   OH216157   6.096   1.433   2.865 -0.1051  0.5255 -0.3831
 5384TIP3    H116158   6.101   1.525   2.841  1.0297 -0.0426 -2.5331
 5384TIP3    H216159   6.187   1.404   2.869 -0.3976 -0.2936  1.3194
 5385TIP3   OH216160   3.681   2.644   1.195 -0.3310  0.1589 -0.4266
 5385TIP3    H116161   3.659   2.555   1.223 -0.3908 -0.1185 -1.2998
 5385TIP3    H216162   3.764   2.633   1.148  0.9830  0.9599  1.5894
 5386TIP3   OH216163   2.782   2.876   1.163  0.0077  0.1844 -0.6250
 5386TIP3    H116164   2.767   2.827   1.244  3.0767 -1.3550 -0.8218
 5386TIP3    H216165   2.757   2.966   1.185 -3.2273 -0.8644  0.6207
 5387TIP3   OH216166   6.101   4.285   0.868  0.3590 -0.3382  0.0807
 5387TIP3    H116167   6.151   4.242   0.937 -1.8029 -1.0827  1.2887
 5387TIP3    H216168   6.012   4.291   0.903  0.2712  4.3788 -0.3457
 5388TIP3   OH216169  -0.003   1.160   4.344 -0.2607  0.1598 -0.1914
 5388TIP3    H116170   0.036   1.212   4.273 -0.0464  2.1532  1.3228
 5388TIP3    H216171   0.047   1.184   4.422 -3.0358  1.1580  1.4146
 5389TIP3   OH216172   4.406   1.515   4.639 -0.2104 -0.5452 -0.1221
 5389TIP3    H116173   4.363   1.514   4.554 -0.8694 -0.3128  0.1996
 5389TIP3    H216174   4.429   1.607   4.653  2.1588 -0.9214 -1.1434
 5390TIP3   OH216175   1.369   5.273   0.162  0.0077 -0.0809  0.2976
 5390TIP3    H116176   1.459   5.243   0.178 -0.1054 -0.4036  0.3348
 5390TIP3    H216177   1.364   5.358   0.206  0.0537 -0.4307  1.0059
 5391TIP3   OH216178   0.309   1.060   4.847 -0.0916 -0.1258 -0.2501
 5391TIP3    H116179   0.360   0.990   4.807 -2.0061 -0.8866 -1.4872
 5391TIP3    H216180   0.237   1.015   4.892 -0.7448  0.9939 -0.1395
 5392TIP3   OH216181   0.590   5.548   1.339  0.0763  0.0005  0.4056
 5392TIP3    H116182   0.605   5.632   1.296  0.3340  0.1862  0.8418
 5392TIP3    H216183   0.576   5.486   1.268 -0.0055  0.3951  0.0773
 5393TIP3   OH216184   0.777   2.484   0.785 -0.2863 -0.2908 -0.0692
 5393TIP3    H116185   0.859   2.476   0.833 -1.1992  2.1385  2.1769
 5393TIP3    H216186   0.802   2.485   0.693  2.5627  2.8255  0.5547
 5394TIP3   OH216187   1.370   3.955   4.965 -0.0854 -0.3947 -0.3385
 5394TIP3    H116188   1.393   3.868   4.998 -0.7116 -0.3438  0.2385
 5394TIP3    H216189   1.349   4.005   5.044 -0.4003  0.0831 -0.7270
 5395TIP3   OH216190   1.541   5.247   1.549 -0.0539 -0.4008  0.2742
 5395TIP3    H116191   1.606   5.204   1.493  1.4542 -1.7271  2.8556
 5395TIP3    H216192   1.553   5.340   1.534  0.8100 -0.6941 -1.0117
 5396TIP3   OH216193   1.273   4.103   2.768 -0.1826 -0.0297  0.5379
 5396TIP3    H116194   1.241   4.185   2.731 -0.9588 -0.6323 -0.1723
 5396TIP3    H216195   1.368   4.110   2.765 -0.2311  1.1070  1.1118
 5397TIP3   OH216196   3.172   4.463   3.809 -0.0201 -0.6580 -0.3966
 5397TIP3    H116197   3.156   4.403   3.737 -1.4935 -0.8513  0.0590
 5397TIP3    H216198   3.168   4.408   3.888  0.7473 -0.3094 -0.0996
 5398TIP3   OH216199   5.095   1.724   2.206  0.6855  0.1352 -0.1211
 5398TIP3    H116200   5.060   1.702   2.119  0.1883  2.4670 -0.5823
 5398TIP3    H216201   5.187   1.745   2.190  0.6259  0.4416 -0.0550
 5399TIP3   OH216202   2.824   3.444   3.355 -0.1984 -0.1048  0.2699
 5399TIP3    H116203   2.764   3.370   3.350 -0.5105  0.1110  0.7111
 5399TIP3    H216204   2.777   3.515   3.311  0.7572 -0.5694 -1.6151
 5400TIP3   OH216205   0.662   0.243   3.720 -0.1401 -0.4212 -0.1395
 5400TIP3    H116206   0.636   0.286   3.638 -1.5225 -0.7781  0.0881
 5400TIP3    H216207   0.639   0.151   3.707  0.0175 -0.5532  0.4966
 5401TIP3   OH216208   0.546   0.388   1.871 -0.4683  0.3253  0.3238
 5401TIP3    H116209   0.497   0.312   1.902  0.8681  0.2552  2.5023
 5401TIP3    H216210   0.517   0.460   1.927 -0.5022  1.0443 -0.5964
 5402TIP3   OH216211   4.721   0.256   4.838  0.2544 -0.0013 -0.3400
 5402TIP3    H116212   4.665   0.326   4.873 -0.8519  0.1516 -2.2727
 5402TIP3    H216213   4.787   0.302   4.785 -0.3888 -0.3638 -1.4972
 5403TIP3   OH216214   3.224   0.393   1.433  0.0297 -0.6063  0.0171
 5403TIP3    H116215   3.135   0.428   1.430  1.0121  2.0256 -1.3093
 5403TIP3    H216216   3.257   0.418   1.520  0.3999  1.0609 -0.5664
 5404TIP3   OH216217   3.315   5.397   2.014  0.2889  0.5016  0.1838
 5404TIP3    H116218   3.330   5.369   2.104 -1.3589  0.3134  0.4373
 5404TIP3    H216219   3.238   5.347   1.986  1.1554  0.0403 -1.5759
 5405TIP3   OH216220   3.185   5.656   3.982 -0.3382 -0.9206 -0.1008
 5405TIP3    H116221   3.148   5.709   3.912 -1.1733  0.2836  1.2083
 5405TIP3    H216222   3.122   5.584   3.994  0.5577 -1.9918 -1.5550
 5406TIP3   OH216223   0.529   1.980   0.052 -0.2329 -0.0630 -0.4581
 5406TIP3    H116224   0.473   1.906   0.028  1.1671 -2.0572  1.9843
 5406TIP3    H216225   0.540   2.029  -0.030 -1.9100 -2.0445 -1.9773
 5407TIP3   OH216226   2.715   4.590   0.400  0.9796 -0.2223 -0.3568
 5407TIP3    H116227   2.680   4.676   0.379 -1.6734 -1.4157 -1.3200
 5407TIP3    H216228   2.810   4.601   0.400  0.7166  2.6441 -0.5174
 5408TIP3   OH216229   0.575   1.369   4.241  0.3149 -0.1329  0.3353
 5408TIP3    H116230   0.599   1.277   4.253  0.6096 -0.2086 -0.6901
 5408TIP3    H216231   0.590   1.385   4.148  5.9228  2.5179  1.2716
 5409TIP3   OH216232   1.647   5.167   0.974  0.4280  0.4490 -0.2902
 5409TIP3    H116233   1.635   5.248   0.924  0.3942  1.0362  0.6490
 5409TIP3    H216234   1.738   5.171   1.005  0.1152  0.6437  0.6326
 5410TIP3   OH216235   5.668   0.262   4.094 -0.3797  0.2925  0.2823
 5410TIP3    H116236   5.646   0.313   4.016  0.0347  1.3837  0.8602
 5410TIP3    H216237   5.763   0.261   4.096 -0.3446 -1.6931 -0.4560
 5411TIP3   OH216238   4.926   0.840   1.700  0.6795 -0.2448  0.1743
 5411TIP3    H116239   4.833   0.849   1.679  1.2348  1.5046 -1.8141
 5411TIP3    H216240   4.949   0.752   1.670 -0.0588 -0.2074 -0.5324
 5412TIP3   OH216241   3.992   4.590   1.805 -0.3375 -0.2270  0.0189
 5412TIP3    H116242   3.934   4.517   1.786 -1.0082  0.2502  0.1962
 5412TIP3    H216243   4.007   4.632   1.720 -1.1840  0.3173  0.1155
 5413TIP3   OH216244   2.388   1.122   3.107  0.0730  0.6362  0.3636
 5413TIP3    H116245   2.463   1.120   3.048 -1.7786  0.5416 -2.1892
 5413TIP3    H216246   2.395   1.206   3.153  1.7971  0.5392  0.3477
 5414TIP3   OH216247   2.129   4.574   3.590 -0.1348 -0.1733 -0.5517
 5414TIP3    H116248   2.120   4.572   3.495  0.4815 -1.6194 -0.6033
 5414TIP3    H216249   2.162   4.661   3.609 -1.0630  0.4268 -1.5773
 5415TIP3   OH216250   1.565   1.343   3.481 -0.0727  0.0725 -0.0145
 5415TIP3    H116251   1.603   1.385   3.558 -0.5977  1.4267 -0.4665
 5415TIP3    H216252   1.487   1.298   3.513 -1.8900  2.9102 -0.1053
 5416TIP3   OH216253   5.528   1.257   3.329  0.1772  0.6471  0.3344
 5416TIP3    H116254   5.564   1.342   3.302  1.9874 -0.7007 -1.8058
 5416TIP3    H216255   5.568   1.241   3.415  1.1848  1.1930 -0.0138
 5417TIP3   OH216256   0.715   1.912   4.335  0.2324 -0.1858 -0.3979
 5417TIP3    H116257   0.749   1.843   4.392  1.3269 -1.0627 -2.0433
 5417TIP3    H216258   0.791   1.964   4.311 -0.0911 -0.1755 -1.4924
 5418TIP3   OH216259   3.085   5.254   3.967 -0.8995  0.3045  0.3863
 5418TIP3    H116260   3.014   5.190   3.961 -0.2664 -0.3673 -0.1430
 5418TIP3    H216261   3.053   5.331   3.919 -0.9477 -0.3082 -0.5962
 5419TIP3   OH216262   4.633   1.294   0.824  0.0768  0.2996  0.0557
 5419TIP3    H116263   4.682   1.218   0.792  1.2174  1.5811 -1.3687
 5419TIP3    H216264   4.683   1.370   0.795 -1.6352  1.6428  0.4164
 5420TIP3   OH216265   0.075   4.692   2.409 -0.2475  0.9266  0.4028
 5420TIP3    H116266   0.106   4.761   2.468  1.1914  1.6143 -1.0692
 5420TIP3    H216267   0.027   4.632   2.465 -1.7083  3.1860  1.7465
 5421TIP3   OH216268   2.286   5.630   0.480  0.2904 -0.2015 -0.5790
 5421TIP3    H116269   2.252   5.692   0.544 -1.9484 -0.1308 -1.7234
 5421TIP3    H216270   2.304   5.550   0.530 -2.1200 -0.3968  0.1030
 5422TIP3   OH216271   2.307   5.569   4.282  0.1931  0.3580 -0.1446
 5422TIP3    H116272   2.301   5.601   4.372  0.0403  0.2811 -0.1273
 5422TIP3    H216273   2.276   5.478   4.287 -2.1905  1.0993 -0.6988
 5423TIP3   OH216274   4.938   3.628   1.030  0.1269 -0.0216  0.1361
 5423TIP3    H116275   5.008   3.682   0.994 -0.4241  3.1077  3.2139
 5423TIP3    H216276   4.867   3.634   0.966  1.3427 -0.0985 -1.2541
 5424TIP3   OH216277   4.990   0.778  -0.011  0.3887  0.6193 -0.1887
 5424TIP3    H116278   4.948   0.725   0.057 -0.1231  0.9202 -0.2614
 5424TIP3    H216279   5.079   0.743  -0.017 -0.3698 -1.3129 -1.3261
 5425TIP3   OH216280   4.550   5.338   1.866 -0.2699  0.9577  0.5968
 5425TIP3    H116281   4.504   5.258   1.892 -0.3470  0.8191  0.0419
 5425TIP3    H216282   4.643   5.315   1.873 -0.2195 -0.0981 -2.1447
 5426TIP3   OH216283   0.471   1.596   4.599  0.0924 -0.2253  0.5701
 5426TIP3    H116284   0.424   1.586   4.517 -0.2066 -1.8370  0.9046
 5426TIP3    H216285   0.469   1.509   4.639  3.1867 -0.3780  0.6932
 5427TIP3   OH216286   3.674   2.991   2.306 -0.0380  0.3522  0.2330
 5427TIP3    H116287   3.611   3.063   2.315 -0.8520 -0.3254  0.0377
 5427TIP3    H216288   3.760   3.035   2.302 -0.5656  1.3533 -0.5694
 5428TIP3   OH216289   2.659   0.530   1.420 -0.3057  0.1931  0.2645
 5428TIP3    H116290   2.643   0.622   1.399  1.5817  0.1850 -1.4762
 5428TIP3    H216291   2.622   0.482   1.346 -1.7870 -0.5469  1.4306
 5429TIP3   OH216292   0.331   1.838   5.051  0.4008  0.3520  0.0071
 5429TIP3    H116293   0.420   1.856   5.082  0.2949 -0.7763  1.0795
 5429TIP3    H216294   0.336   1.749   5.015 -0.4453 -0.0336  0.8008
 5430TIP3   OH216295   6.240   3.751   2.808 -0.0215 -0.0301 -0.2671
 5430TIP3    H116296   6.206   3.799   2.732  0.2639 -2.1937 -1.8498
 5430TIP3    H216297   6.169   3.692   2.832  0.3832 -0.2754  0.3552
 5431TIP3   OH216298   4.502   3.813   3.754 -0.0084 -0.1104 -0.0006
 5431TIP3    H116299   4.504   3.752   3.681  0.4736  0.5521 -0.5535
 5431TIP3    H216300   4.570   3.782   3.814  1.1826  0.6540 -0.9241
 5432TIP3   OH216301   0.688   5.660   2.752 -0.2360  0.0975  0.2764
 5432TIP3    H116302   0.625   5.629   2.688 -0.4881 -0.8234  0.9399
 5432TIP3    H216303   0.757   5.701   2.701 -1.6334  1.6498 -0.4412
 5433TIP3   OH216304   3.804   5.256   1.951  0.4418  0.1428 -0.0245
 5433TIP3    H116305   3.869   5.302   1.900  1.1101 -0.1242  0.5636
 5433TIP3    H216306   3.849   5.233   2.033 -0.4545  0.1570  0.4894
 5434TIP3   OH216307   5.634   1.145   2.890  0.0042  0.0160  0.3663
 5434TIP3    H116308   5.676   1.224   2.854 -0.7045  0.2268 -0.0094
 5434TIP3    H216309   5.689   1.073   2.860 -0.1180  0.2554 -0.4499
 5435TIP3   OH216310   2.267   2.355   3.208 -0.8771 -0.0358 -0.3123
 5435TIP3    H116311   2.312   2.409   3.273  0.8454 -0.5609 -1.0118
 5435TIP3    H216312   2.192   2.318   3.256 -0.5384  0.8094  0.9243
 5436TIP3   OH216313   0.072   5.946   3.695 -0.0052 -0.3223  0.3250
 5436TIP3    H116314   0.028   5.955   3.610 -0.2125 -0.9554  0.3611
 5436TIP3    H216315   0.157   5.990   3.682 -0.3741  0.3213  0.0538
 5437TIP3   OH216316   0.296   1.721   0.332 -0.4149  0.0128  0.3467
 5437TIP3    H116317   0.252   1.802   0.359  0.8543  0.7905  0.1344
 5437TIP3    H216318   0.379   1.721   0.379 -0.2316 -1.0021  0.0597
 5438TIP3   OH216319   1.837   2.010   0.707 -0.7191 -0.4797 -0.2521
 5438TIP3    H116320   1.893   1.949   0.755  1.5999  1.9278  0.3360
 5438TIP3    H216321   1.898   2.075   0.671 -3.0056  1.4949 -0.8132
 5439TIP3   OH216322   1.368   0.767   5.162 -0.0612 -0.1547  0.6471
 5439TIP3    H116323   1.321   0.825   5.222 -0.5675 -0.3686  0.4662
 5439TIP3    H216324   1.418   0.826   5.106 -0.6573  0.1253  0.3927
 5440TIP3   OH216325   1.635   3.776   5.115  0.1565  0.5851 -0.0486
 5440TIP3    H116326   1.571   3.709   5.093  2.8191 -1.6130 -1.7370
 5440TIP3    H216327   1.666   3.809   5.031  1.7382  1.0146  0.6598
 5441TIP3   OH216328   4.327   1.839   5.011 -0.6532 -0.3395 -0.1430
 5441TIP3    H116329   4.296   1.777   5.076  1.5969  1.7866  3.2832
 5441TIP3    H216330   4.422   1.843   5.025 -0.3572  1.8066 -2.0991
 5442TIP3   OH216331   2.063   2.749   4.689 -0.4777  0.7072 -0.3903
 5442TIP3    H116332   1.972   2.733   4.664 -0.7019 -0.5103  1.0790
 5442TIP3    H216333   2.098   2.662   4.709  0.4532  1.3369  0.8653
 5443TIP3   OH216334   1.257   1.848   2.778 -0.0337  0.2657  0.6870
 5443TIP3    H116335   1.253   1.754   2.764 -0.9520  0.0523  2.1691
 5443TIP3    H216336   1.277   1.884   2.692  0.6596 -1.2917  0.1622
 5444TIP3   OH216337   4.965   3.914   4.518  0.2130 -0.4200 -0.0042
 5444TIP3    H116338   4.905   3.980   4.482 -0.1263  0.1308  1.4990
 5444TIP3    H216339   5.052   3.951   4.508  0.2159 -0.6651 -1.0280
 5445TIP3   OH216340   4.182   3.209   1.867  0.0027  0.1237 -0.1183
 5445TIP3    H116341   4.089   3.231   1.866  0.3942  2.1145  1.3219
 5445TIP3    H216342   4.184   3.113   1.863 -2.1105  0.0342 -0.0222
 5446TIP3   OH216343   1.868   0.914   1.466  0.3051 -0.5086 -0.0851
 5446TIP3    H116344   1.786   0.865   1.464  0.0600 -0.0919 -0.4886
 5446TIP3    H216345   1.904   0.897   1.553 -0.8763  0.3678  0.6045
 5447TIP3   OH216346   3.127   1.122   4.776  0.1445  0.5022  0.2046
 5447TIP3    H116347   3.133   1.217   4.775  0.8519  0.4603 -0.1657
 5447TIP3    H216348   3.149   1.097   4.865  1.8045  0.5965 -0.1415
 5448TIP3   OH216349   2.618   0.450   2.156 -0.6458 -0.0359  0.0915
 5448TIP3    H116350   2.704   0.410   2.169 -1.0139 -0.4755  1.3371
 5448TIP3    H216351   2.583   0.406   2.078 -0.2887 -0.8355  0.3638
 5449TIP3   OH216352   1.338   3.768   2.061  0.6315  0.1341 -0.0212
 5449TIP3    H116353   1.268   3.815   2.107 -1.3090 -2.4343 -0.1114
 5449TIP3    H216354   1.314   3.774   1.969  0.2744 -1.0751 -0.0214
 5450TIP3   OH216355   0.505   5.955   0.771  0.3003  0.6115  0.7392
 5450TIP3    H116356   0.587   5.947   0.821  0.1970 -1.0639  0.6979
 5450TIP3    H216357   0.440   5.977   0.837 -0.1154 -3.0298  1.7523
 5451TIP3   OH216358   1.265   3.300   3.661  0.0655  0.5482  0.3745
 5451TIP3    H116359   1.290   3.242   3.733 -0.9577  2.6850  2.6002
 5451TIP3    H216360   1.344   3.310   3.610  0.0245 -3.6863 -0.9114
 5452TIP3   OH216361   3.585   2.248   2.677 -0.0447 -0.2003  0.2491
 5452TIP3    H116362   3.644   2.319   2.651 -0.7767  0.4748  0.4195
 5452TIP3    H216363   3.599   2.181   2.611  0.8399 -0.0099  0.2247
 5453TIP3   OH216364   1.182   2.802   3.101 -0.2781 -0.1403 -0.2938
 5453TIP3    H116365   1.258   2.802   3.043 -0.2159 -2.1388 -0.2675
 5453TIP3    H216366   1.203   2.869   3.166  0.9132  0.1875 -0.9730
 5454TIP3   OH216367   0.723   3.739   1.060  0.0136  0.1487  0.1659
 5454TIP3    H116368   0.786   3.729   0.989 -0.1703 -1.3214  0.1784
 5454TIP3    H216369   0.690   3.651   1.076  0.1410  0.4031  2.1608
 5455TIP3   OH216370   0.317   0.754   3.436  0.0007 -0.2002 -0.0559
 5455TIP3    H116371   0.322   0.770   3.530  0.5589 -0.8501  0.0270
 5455TIP3    H216372   0.299   0.841   3.398  0.0900  0.1172  0.6204
 5456TIP3   OH216373   5.521   1.576   1.987  0.1365  0.2296 -0.3529
 5456TIP3    H116374   5.434   1.603   1.960  0.0064 -0.3778 -0.5659
 5456TIP3    H216375   5.512   1.482   2.004  0.3727  0.4498  1.1422
 5457TIP3   OH216376   5.223   5.079   2.230 -0.0432  0.0753 -0.3205
 5457TIP3    H116377   5.290   5.110   2.291 -0.9863  0.7833  0.3938
 5457TIP3    H216378   5.269   5.019   2.172  1.6123  1.8980 -0.9986
 5458TIP3   OH216379   5.946   2.770   3.891  0.1445  0.0680 -0.0909
 5458TIP3    H116380   5.862   2.772   3.845  0.8170  0.8653 -1.3419
 5458TIP3    H216381   5.930   2.815   3.974 -0.8312 -0.4412  0.0104
 5459TIP3   OH216382   0.969   1.750   3.273  0.3077 -0.5508 -0.3798
 5459TIP3    H116383   0.977   1.692   3.197 -0.0273 -0.8008 -0.2274
 5459TIP3    H216384   0.940   1.692   3.344 -0.8012 -0.0601 -0.4210
 5460TIP3   OH216385   6.305   4.163   4.129  0.0325 -0.4243  0.4207
 5460TIP3    H116386   6.264   4.206   4.203  1.0815 -1.7176  1.8044
 5460TIP3    H216387   6.266   4.076   4.127 -2.4224  0.5274 -2.6357
 5461TIP3   OH216388   2.426   3.375   1.520  0.0822  0.3571  0.0299
 5461TIP3    H116389   2.342   3.404   1.485 -0.7180 -0.9333  0.7867
 5461TIP3    H216390   2.419   3.388   1.615  0.7320  0.2271  0.1038
 5462TIP3   OH216391   5.867   3.932   3.464  0.5784  0.3472 -0.1016
 5462TIP3    H116392   5.871   3.919   3.369  1.0229 -0.1977 -0.0067
 5462TIP3    H216393   5.840   3.847   3.499  0.8508  0.4255  0.2996
 5463TIP3   OH216394   1.932   5.188   0.980 -0.1904 -0.3247 -0.2608
 5463TIP3    H116395   1.938   5.283   0.987 -0.1563 -0.2617 -1.0166
 5463TIP3    H216396   1.998   5.164   0.915 -1.0647 -0.7077 -1.0515
 5464TIP3   OH216397   5.342   3.405   3.122 -0.9708  0.1913  0.3635
 5464TIP3    H116398   5.270   3.375   3.177  0.4921 -0.5405  1.9744
 5464TIP3    H216399   5.392   3.465   3.178  0.5289 -0.5099 -0.1649
 5465TIP3   OH216400   2.509   4.182   4.054 -0.5202  0.0940  0.1793
 5465TIP3    H116401   2.448   4.157   3.984 -1.9100 -1.9164  2.0013
 5465TIP3    H216402   2.517   4.104   4.108  1.2968  1.2844  1.7530
 5466TIP3   OH216403   6.055   5.095   2.921 -0.0625 -0.0066 -0.3008
 5466TIP3    H116404   6.003   5.034   2.973  1.7514 -0.6048  0.8979
 5466TIP3    H216405   6.142   5.094   2.961  1.1383  0.3363 -2.6938
 5467TIP3   OH216406   4.181   3.786   2.294 -0.2292  0.1251 -0.0964
 5467TIP3    H116407   4.153   3.848   2.361 -1.4095 -2.7606  2.2992
 5467TIP3    H216408   4.108   3.784   2.232 -0.8698  0.0460  0.6456
 5468TIP3   OH216409   5.836   3.390   0.412 -0.2951  0.2883  0.5819
 5468TIP3    H116410   5.741   3.379   0.419 -0.5874  2.7209  1.4529
 5468TIP3    H216411   5.862   3.430   0.495  1.6233 -0.8993  0.6140
 5469TIP3   OH216412   4.925   4.221   3.765 -0.0625  0.1446 -0.4090
 5469TIP3    H116413   4.934   4.126   3.771 -0.3429  0.1592  0.5378
 5469TIP3    H216414   5.012   4.252   3.741  0.1234 -0.3322 -0.3704
 5470TIP3   OH216415   4.727   5.083   0.342 -0.1019 -0.1100  0.2292
 5470TIP3    H116416   4.809   5.038   0.321 -0.8116 -1.9675  1.1629
 5470TIP3    H216417   4.733   5.101   0.436 -0.6054  0.0449  0.2337
 5471TIP3   OH216418   0.661   5.610   4.877  0.2125  0.8893 -0.7980
 5471TIP3    H116419   0.586   5.665   4.854 -1.2818 -1.0059 -0.7024
 5471TIP3    H216420   0.678   5.558   4.799  0.9552  0.7646 -0.5626
 5472TIP3   OH216421   4.789   3.227   0.635  0.2762  0.6069  0.0372
 5472TIP3    H116422   4.812   3.152   0.690 -0.5581 -0.4394 -0.9641
 5472TIP3    H216423   4.753   3.292   0.695  3.0493  1.1544  1.2464
 5473TIP3   OH216424   2.781   3.881   4.963  0.2276  0.2080  0.4268
 5473TIP3    H116425   2.714   3.813   4.972  1.0203 -0.5081  1.1012
 5473TIP3    H216426   2.862   3.838   4.991  1.0188  0.9879 -0.6086
 5474TIP3   OH216427   3.499   1.520   0.630  0.0851 -0.1435 -0.1374
 5474TIP3    H116428   3.503   1.609   0.666 -0.8592 -0.2413  0.2429
 5474TIP3    H216429   3.555   1.523   0.552  2.2734  0.0498  1.3532
 5475TIP3   OH216430   2.120   5.752   0.658 -0.5196  0.5882 -0.2249
 5475TIP3    H116431   2.112   5.845   0.679  1.0008  0.7156 -0.0819
 5475TIP3    H216432   2.135   5.710   0.743 -0.0018  0.3679 -0.4247
 5476TIP3   OH216433   0.910   3.601   0.850  0.5324  0.4799  0.3960
 5476TIP3    H116434   0.926   3.647   0.767 -0.0205 -0.7635 -0.4132
 5476TIP3    H216435   0.857   3.526   0.827 -0.2660  0.5004  2.0024
 5477TIP3   OH216436   3.218   5.437   1.054  0.0884 -0.2868 -0.4481
 5477TIP3    H116437   3.299   5.414   1.008  0.8276  1.1864  0.0544
 5477TIP3    H216438   3.223   5.532   1.063 -0.4496 -0.4423  1.8966
 5478TIP3   OH216439   2.916   4.601   4.331  0.0576  0.4572 -0.6202
 5478TIP3    H116440   2.853   4.549   4.380  0.8390 -0.1713 -0.2716
 5478TIP3    H216441   2.945   4.668   4.393  1.0674 -0.3552 -0.1782
 5479TIP3   OH216442   4.498   4.010   1.433 -0.2928  0.0503  0.4709
 5479TIP3    H116443   4.452   3.947   1.489 -1.5921  0.8833  0.3750
 5479TIP3    H216444   4.482   3.979   1.344  0.6550 -0.5178  0.4785
 5480TIP3   OH216445   5.427   3.001   0.097 -0.5199 -0.7356 -0.0457
 5480TIP3    H116446   5.371   3.078   0.089  1.5145  0.9278  0.8109
 5480TIP3    H216447   5.491   3.024   0.165  1.0785 -2.5866 -0.8171
 5481TIP3   OH216448   0.740   2.043   1.116  0.5070 -0.8069  0.5392
 5481TIP3    H116449   0.655   2.056   1.158  0.2111  0.9959 -0.5340
 5481TIP3    H216450   0.804   2.069   1.183  0.0279  2.6186 -0.1286
 5482TIP3   OH216451   1.843   5.271   2.692 -0.7809 -0.4633 -0.3210
 5482TIP3    H116452   1.849   5.201   2.626 -0.5890 -0.1280 -0.6614
 5482TIP3    H216453   1.773   5.242   2.751 -0.3603 -1.1896 -0.1640
 5483TIP3   OH216454   6.100   0.830   1.359  0.2897  0.0377  0.2747
 5483TIP3    H116455   6.144   0.823   1.444 -0.1766  0.1438  0.5268
 5483TIP3    H216456   6.006   0.824   1.380  0.2090 -2.8327 -0.4713
 5484TIP3   OH216457   0.166   4.925   0.424  0.0485  0.1979  0.8715
 5484TIP3    H116458   0.072   4.913   0.408 -0.0670  0.2292  1.4968
 5484TIP3    H216459   0.171   4.996   0.489  0.4012 -0.9662  2.1762
 5485TIP3   OH216460   0.822   3.308   1.482 -0.1779 -0.5245 -0.3700
 5485TIP3    H116461   0.769   3.363   1.425 -0.1798  1.7230  1.6425
 5485TIP3    H216462   0.910   3.345   1.475  0.0287 -0.8883  0.2468
 5486TIP3   OH216463   1.346   2.305   1.070 -0.0467 -0.3224 -0.2686
 5486TIP3    H116464   1.381   2.225   1.030 -1.4298  0.3562 -3.0997
 5486TIP3    H216465   1.408   2.373   1.046  0.7158 -0.3514  1.4724
 5487TIP3   OH216466   0.134   2.243   0.171 -0.0852 -0.3157  0.4139
 5487TIP3    H116467   0.181   2.311   0.218 -0.7681  0.0165  0.6256
 5487TIP3    H216468   0.103   2.183   0.239 -1.0244  0.1353  0.4044
 5488TIP3   OH216469   0.237   4.840   1.572 -0.4687 -0.5660 -0.0329
 5488TIP3    H116470   0.249   4.855   1.666  1.1887 -0.5104 -0.2304
 5488TIP3    H216471   0.230   4.927   1.534 -0.5159 -0.5754 -0.0465
 5489TIP3   OH216472   0.399   5.717   1.994 -0.4379 -0.0821 -0.2977
 5489TIP3    H116473   0.437   5.763   2.070 -1.9930  0.9028 -0.0841
 5489TIP3    H216474   0.389   5.784   1.927  0.4276 -0.8418 -1.2230
 5490TIP3   OH216475   3.555   2.402   1.174  0.2820  0.8503 -0.3286
 5490TIP3    H116476   3.481   2.404   1.113 -0.8908 -0.1340  0.9919
 5490TIP3    H216477   3.614   2.335   1.138 -1.0991 -0.7952  0.3278
 5491TIP3   OH216478   2.522   2.579   0.767 -0.1634 -0.1144 -0.2883
 5491TIP3    H116479   2.572   2.498   0.775 -0.0723 -0.3360 -2.5860
 5491TIP3    H216480   2.576   2.645   0.810 -0.8049 -1.4048  2.7645
 5492TIP3   OH216481   5.140   4.667   0.879  0.3785  0.6633 -0.0968
 5492TIP3    H116482   5.206   4.725   0.915  0.6653  0.4231 -0.2307
 5492TIP3    H216483   5.095   4.630   0.955 -0.5584  1.9060 -0.0176
 5493TIP3   OH216484   0.120   2.267   3.153 -0.1893  0.4885  0.1716
 5493TIP3    H116485   0.099   2.249   3.062 -0.8934  1.1565  0.1823
 5493TIP3    H216486   0.215   2.273   3.156  0.0140 -1.8554 -0.0482
 5494TIP3   OH216487   2.544   4.136   3.378 -0.6058  0.1878 -0.3374
 5494TIP3    H116488   2.554   4.077   3.453 -0.0840  2.0201  1.0893
 5494TIP3    H216489   2.629   4.133   3.334 -1.0826 -1.3185 -1.2575
 5495TIP3   OH216490   5.077   5.450   3.958 -0.3668  0.4198  0.0406
 5495TIP3    H116491   5.070   5.544   3.942  1.5455  0.6211  0.1166
 5495TIP3    H216492   5.098   5.413   3.872  2.7349  0.6135  0.5783
 5496TIP3   OH216493   5.123   3.816   1.277  0.5451  0.1305  0.7092
 5496TIP3    H116494   5.045   3.792   1.327 -0.7759 -1.4395 -1.9095
 5496TIP3    H216495   5.092   3.881   1.214  0.7447 -1.9449 -1.6892
 5497TIP3   OH216496   5.595   5.281   0.578 -0.3024  0.4928  0.5780
 5497TIP3    H116497   5.613   5.273   0.672  1.0703 -1.0815  0.2258
 5497TIP3    H216498   5.505   5.315   0.574 -0.4125  0.5488  2.4526
 5498TIP3   OH216499   2.563   4.485   2.175 -0.1936 -0.0826 -0.7820
 5498TIP3    H116500   2.524   4.406   2.211 -0.6434 -0.5459 -2.2340
 5498TIP3    H216501   2.488   4.544   2.160  0.0130  0.1858 -0.7684
 5499TIP3   OH216502   0.909   4.801   4.490  0.3470  0.3731 -0.9670
 5499TIP3    H116503   0.869   4.802   4.402 -0.2838  0.8232 -0.6797
 5499TIP3    H216504   0.946   4.888   4.500 -0.5241  0.6828 -0.3657
 5500TIP3   OH216505   6.291   1.035   0.485  0.3028  0.0558  0.0571
 5500TIP3    H116506   6.322   1.123   0.464  1.8438 -0.8772 -1.8731
 5500TIP3    H216507   6.355   1.001   0.548  0.0059  0.0998  0.3907
 5501TIP3   OH216508   4.263   5.698   2.395  0.4118  0.2661  0.0863
 5501TIP3    H116509   4.230   5.787   2.393  2.0473  0.9098 -0.4195
 5501TIP3    H216510   4.330   5.699   2.464 -0.6718 -1.0275  1.2158
 5502TIP3   OH216511   5.217   3.190   4.417  0.3271 -0.0248  0.2128
 5502TIP3    H116512   5.308   3.160   4.421 -0.4328 -3.1673 -2.1006
 5502TIP3    H216513   5.218   3.264   4.357  1.1853 -1.3230 -1.4539
 5503TIP3   OH216514   1.138   3.889   2.255 -0.2117 -0.3320  0.2525
 5503TIP3    H116515   1.046   3.865   2.242  0.1529 -1.0049 -1.2075
 5503TIP3    H216516   1.158   3.857   2.343 -1.3873 -0.0790  0.6399
 5504TIP3   OH216517   2.014   0.237   2.165 -0.0174  0.0567  0.0440
 5504TIP3    H116518   2.087   0.280   2.118 -0.0850 -0.3470 -0.4383
 5504TIP3    H216519   2.007   0.286   2.247 -0.2600  1.1358 -0.6039
 5505TIP3   OH216520   4.008   5.887   4.226  0.1521  0.0330  0.4251
 5505TIP3    H116521   3.935   5.901   4.164  2.0070  1.3408 -1.5989
 5505TIP3    H216522   4.049   5.806   4.195  1.4692  1.0310 -0.5149
 5506TIP3   OH216523   5.493   0.678   0.527 -0.1004 -0.7534  0.4156
 5506TIP3    H116524   5.569   0.705   0.579 -0.9779  0.7554  0.9814
 5506TIP3    H216525   5.447   0.760   0.509  0.5876 -1.0509 -3.5555
 5507TIP3   OH216526   2.064   4.836   0.486  0.3116  0.0062 -0.6267
 5507TIP3    H116527   2.078   4.765   0.423 -2.4347 -0.0111 -1.3427
 5507TIP3    H216528   2.004   4.799   0.551  3.2495 -0.0684  2.3106
 5508TIP3   OH216529   0.879   4.516   4.336  0.1233  0.4969 -0.0931
 5508TIP3    H116530   0.824   4.454   4.288  0.9768 -0.5955  0.2800
 5508TIP3    H216531   0.833   4.600   4.329 -2.5987 -0.6833  1.7967
 5509TIP3   OH216532   1.948   0.655   2.360 -0.0565 -0.1587  0.1028
 5509TIP3    H116533   1.928   0.669   2.267  0.1199  0.3129  0.1355
 5509TIP3    H216534   2.011   0.723   2.381 -1.2676  0.7417  0.9736
 5510TIP3   OH216535   3.116   0.204   5.054  0.0406 -0.0417 -0.8274
 5510TIP3    H116536   3.104   0.276   4.994  0.4735  0.5096 -0.2659
 5510TIP3    H216537   3.051   0.219   5.123  3.2763  2.6975  1.9794
 5511TIP3   OH216538   4.382   3.317   0.536  0.0880 -0.4162 -0.4349
 5511TIP3    H116539   4.459   3.299   0.483  0.5886  0.5289 -0.0676
 5511TIP3    H216540   4.359   3.233   0.576 -0.3419 -1.1635 -2.1626
 5512TIP3   OH216541   5.136   5.558   1.463  0.8082  0.3891  0.5887
 5512TIP3    H116542   5.071   5.626   1.444  0.3392 -0.5160 -1.2674
 5512TIP3    H216543   5.087   5.476   1.462  1.9433 -0.3466 -1.1197
 5513TIP3   OH216544   4.871   1.410   2.080 -0.1414 -0.6859 -0.3122
 5513TIP3    H116545   4.913   1.324   2.075  0.1204 -0.4889 -1.9423
 5513TIP3    H216546   4.800   1.405   2.016 -1.9848 -0.6391  1.6209
 5514TIP3   OH216547   4.879   1.699   4.615  0.5782  0.1089 -0.3833
 5514TIP3    H116548   4.813   1.664   4.554 -0.6003  0.6701  0.5232
 5514TIP3    H216549   4.962   1.689   4.568 -0.3179  0.9478 -2.2833
 5515TIP3   OH216550   0.190   4.506   0.139  0.1557  0.4393  0.0470
 5515TIP3    H116551   0.119   4.563   0.110 -1.7903 -1.8333  0.0240
 5515TIP3    H216552   0.233   4.478   0.058  0.5671  1.1350  0.0114
 5516TIP3   OH216553   1.310  -0.013   0.617 -0.0815 -0.2535  1.0068
 5516TIP3    H116554   1.395  -0.031   0.578 -0.4865 -0.6667  0.2808
 5516TIP3    H216555   1.268   0.047   0.555 -0.1559  0.2944  1.5767
 5517TIP3   OH216556   2.240   1.681   3.275  0.2038  0.6952  0.3321
 5517TIP3    H116557   2.216   1.738   3.349 -0.8261  0.9913 -0.2160
 5517TIP3    H216558   2.187   1.603   3.287 -0.0764  0.8060 -0.1732
 5518TIP3   OH216559   0.509   0.710   0.822  0.3667 -0.1289  0.0010
 5518TIP3    H116560   0.589   0.763   0.816 -0.1549  0.8503  1.1587
 5518TIP3    H216561   0.510   0.678   0.912  0.6021 -2.0370 -0.6403
 5519TIP3   OH216562   6.268   0.701   2.212  0.2789  0.1420  0.7727
 5519TIP3    H116563   6.352   0.678   2.175 -0.0482  2.1749 -1.5085
 5519TIP3    H216564   6.276   0.795   2.233 -1.4274  0.4146  0.3556
 5520TIP3   OH216565   4.552   2.505   0.747 -0.2184 -0.0282  0.1794
 5520TIP3    H116566   4.574   2.465   0.663  2.6214  1.0613  0.3009
 5520TIP3    H216567   4.461   2.478   0.764 -1.4463  0.8586 -3.8977
 5521TIP3   OH216568   2.576   0.513   2.428  0.1873  0.2354 -0.1850
 5521TIP3    H116569   2.573   0.530   2.334  2.4889 -0.7849 -0.5012
 5521TIP3    H216570   2.664   0.540   2.455 -0.6912  1.3394  1.8915
 5522TIP3   OH216571   1.095   2.606   5.182 -0.1262 -0.2078  0.1364
 5522TIP3    H116572   1.089   2.561   5.097 -1.9497 -0.9758  0.6335
 5522TIP3    H216573   1.048   2.549   5.243 -1.2197  1.6295  1.1030
 5523TIP3   OH216574   2.871   3.573   1.197 -0.1052 -0.5262  0.1798
 5523TIP3    H116575   2.922   3.653   1.209 -0.3436 -0.4219  0.4904
 5523TIP3    H216576   2.799   3.580   1.259 -1.3249  0.0064 -1.2155
 5524TIP3   OH216577   1.064   2.420   4.969  0.2241  0.4256  0.1631
 5524TIP3    H116578   1.139   2.463   4.928  0.6959 -0.6468 -0.1197
 5524TIP3    H216579   0.993   2.430   4.905  0.7786 -0.6495 -0.6517
 5525TIP3   OH216580   6.297   4.399   3.130  0.4922  0.3161  0.7925
 5525TIP3    H116581   6.308   4.308   3.158  0.7778 -0.1670 -0.7794
 5525TIP3    H216582   6.208   4.422   3.156 -0.3258 -1.1156 -0.6272
 5526TIP3   OH216583   2.772   2.255   0.020  0.5423  0.0550  0.1825
 5526TIP3    H116584   2.822   2.174   0.014 -1.3512 -1.1557  0.2005
 5526TIP3    H216585   2.689   2.230   0.059 -0.2917  1.9169 -0.2909
 5527TIP3   OH216586   2.513   0.799   2.506  0.4840 -0.2323  0.0867
 5527TIP3    H116587   2.588   0.794   2.446  2.0283  0.4907  1.8281
 5527TIP3    H216588   2.490   0.708   2.524  1.6572 -0.5066  0.2943
 5528TIP3   OH216589   6.293   1.634   3.062 -0.2203 -0.1191 -0.2197
 5528TIP3    H116590   6.202   1.608   3.076 -0.3965  0.6128  0.0410
 5528TIP3    H216591   6.296   1.727   3.087  0.9533 -0.5316  1.3353
 5529TIP3   OH216592   3.810   1.950   2.144  0.2258 -0.0344 -0.0120
 5529TIP3    H116593   3.903   1.972   2.141  0.6089 -1.6314 -1.1383
 5529TIP3    H216594   3.806   1.873   2.201 -0.7833  1.4302  2.0375
 5530TIP3   OH216595   0.064   0.096   2.166  0.0634 -0.4543  0.1282
 5530TIP3    H116596   0.060   0.025   2.230 -2.5116 -0.7293 -0.2165
 5530TIP3    H216597   0.073   0.053   2.081  0.5947 -0.2458  0.0751
 5531TIP3   OH216598   5.126   5.804   1.831 -0.3161  0.3522  0.2879
 5531TIP3    H116599   5.144   5.881   1.885 -2.3012  1.5167 -0.6130
 5531TIP3    H216600   5.082   5.742   1.889  2.2892 -0.6881  1.3251
 5532TIP3   OH216601   2.877   2.926   2.060 -0.0411 -0.0498  0.1255
 5532TIP3    H116602   2.898   3.018   2.043  2.1945 -0.7063 -0.9979
 5532TIP3    H216603   2.880   2.884   1.975  1.6911 -1.6302  0.8808
 5533TIP3   OH216604   6.204   1.690   1.829  0.4849  0.4683 -0.0869
 5533TIP3    H116605   6.174   1.600   1.841  1.5230  0.2856  1.2563
 5533TIP3    H216606   6.179   1.735   1.909  2.3901  0.6773  0.4394
 5534TIP3   OH216607   6.089   2.114   2.494  0.3808  0.5114  0.3586
 5534TIP3    H116608   6.125   2.201   2.476 -0.5599  1.2007  1.6162
 5534TIP3    H216609   6.095   2.067   2.411  1.3294  1.6201 -0.2227
 5535TIP3   OH216610   3.701   3.907   4.285  0.6172  0.1728 -0.3307
 5535TIP3    H116611   3.635   3.974   4.265 -0.9653 -1.0457  0.6124
 5535TIP3    H216612   3.743   3.939   4.365 -0.4678 -0.1688  0.3948
 5536TIP3   OH216613   5.098   3.284   0.797  0.4855 -0.1650  0.0493
 5536TIP3    H116614   5.005   3.270   0.814  0.7319 -0.6945  1.0028
 5536TIP3    H216615   5.129   3.201   0.762  0.5379  0.1104 -0.5704
 5537TIP3   OH216616   1.919   0.454   3.531 -0.1698  0.5574  0.0962
 5537TIP3    H116617   1.920   0.389   3.601 -2.5877  1.2465  0.8784
 5537TIP3    H216618   1.981   0.421   3.466 -0.2100 -1.7472  1.1332
 5538TIP3   OH216619   3.060   0.472   3.614 -0.0872  0.7394 -0.4067
 5538TIP3    H116620   3.097   0.430   3.537  1.3540  1.0458  0.0757
 5538TIP3    H216621   3.004   0.542   3.579 -2.1760 -1.1954 -1.2032
 5539TIP3   OH216622   3.677   1.098   4.413 -0.0631  0.9727 -0.1744
 5539TIP3    H116623   3.616   1.170   4.430 -1.5269 -0.1768 -0.3655
 5539TIP3    H216624   3.626   1.018   4.428  1.3745 -0.0431 -0.4214
 5540TIP3   OH216625   2.670   2.290   4.399 -0.2573 -0.0717  0.6441
 5540TIP3    H116626   2.587   2.313   4.441 -0.8606  0.0571 -0.5626
 5540TIP3    H216627   2.719   2.244   4.466 -1.4966 -0.5587  1.2549
 5541TIP3   OH216628   0.397   2.312   4.096  0.3968  0.5017 -0.1240
 5541TIP3    H116629   0.365   2.371   4.028 -0.6059 -1.1193 -1.1104
 5541TIP3    H216630   0.479   2.277   4.061  0.5751  0.6881  0.1026
 5542TIP3   OH216631   0.375   1.586   2.502  0.0917 -0.1294  0.2598
 5542TIP3    H116632   0.337   1.674   2.502  3.1133  1.2772  0.2541
 5542TIP3    H216633   0.334   1.543   2.427 -1.9130  0.9910  0.6291
 5543TIP3   OH216634   5.680   1.359   3.937  0.2829 -0.2712 -0.3493
 5543TIP3    H116635   5.592   1.376   3.904 -0.2761 -0.0408  1.1736
 5543TIP3    H216636   5.666   1.319   4.023  1.6617 -0.8337 -0.3640
 5544TIP3   OH216637   5.129   0.650   3.788  0.0765  0.8753 -0.2457
 5544TIP3    H116638   5.194   0.604   3.736 -0.4010 -0.0628 -0.0227
 5544TIP3    H216639   5.048   0.600   3.778 -0.1811  1.0162  0.8939
 5545TIP3   OH216640   5.159   2.589   0.792 -0.2010  0.2035 -0.2102
 5545TIP3    H116641   5.241   2.572   0.838 -0.0359 -1.9737 -1.1565
 5545TIP3    H216642   5.185   2.606   0.701 -0.7772 -1.0321 -0.6356
 5546TIP3   OH216643   3.338   2.431  -0.011 -0.5426 -0.1822 -0.0173
 5546TIP3    H116644   3.346   2.471   0.076 -0.2567 -1.2918  0.4860
 5546TIP3    H216645   3.251   2.392  -0.011 -0.4357 -0.4224 -0.1175
 5547TIP3   OH216646   5.885   0.223   3.735 -0.1312 -0.1261  0.0491
 5547TIP3    H116647   5.856   0.135   3.762 -1.2467  0.2986  0.3037
 5547TIP3    H216648   5.846   0.235   3.649  2.8150 -1.1818 -1.5744
 5548TIP3   OH216649   4.669   4.774   0.468  0.2948 -0.4242 -0.8199
 5548TIP3    H116650   4.755   4.740   0.494 -0.7832 -2.6778  0.0237
 5548TIP3    H216651   4.669   4.769   0.372  0.3817 -2.4394 -0.7546
 5549TIP3   OH216652   4.190   4.507   2.479 -0.1865 -0.0445  0.1937
 5549TIP3    H116653   4.188   4.597   2.512  2.7502 -1.1608  4.2754
 5549TIP3    H216654   4.274   4.501   2.434 -0.0695 -0.8770  0.5148
 5550TIP3   OH216655   3.541   4.980   1.365  0.3285 -0.7125  0.1806
 5550TIP3    H116656   3.563   4.945   1.279 -0.4813 -0.0987 -0.2910
 5550TIP3    H216657   3.453   4.945   1.383  0.8888 -1.6402  1.2001
 5551TIP3   OH216658   0.051   1.699   1.129 -0.2799 -0.1367  0.5000
 5551TIP3    H116659   0.046   1.648   1.049 -1.5028 -1.7374  1.5424
 5551TIP3    H216660  -0.036   1.737   1.140  0.7066  2.6983 -0.4915
 5552TIP3   OH216661   3.611   0.538   2.557 -0.3843  0.1508  0.0757
 5552TIP3    H116662   3.677   0.536   2.626 -2.0678  1.3012  1.8186
 5552TIP3    H216663   3.580   0.628   2.557 -3.0624 -0.7048  0.4455
 5553TIP3   OH216664   0.993   5.584   2.841 -0.3474 -0.4026  0.3469
 5553TIP3    H116665   0.989   5.679   2.852  1.9418 -0.2719  0.5350
 5553TIP3    H216666   0.968   5.550   2.927  0.6739  0.1179  0.8758
 5554TIP3   OH216667   2.796   0.128   3.759  0.0915 -0.1939 -0.6015
 5554TIP3    H116668   2.842   0.203   3.796 -0.2415 -0.3869  0.2370
 5554TIP3    H216669   2.791   0.066   3.831 -1.0661 -0.3663 -0.8228
 5555TIP3   OH216670   3.302   3.573   1.391  0.1583  0.0680  0.3070
 5555TIP3    H116671   3.377   3.536   1.346 -0.2372 -0.8914  0.4119
 5555TIP3    H216672   3.275   3.647   1.336  2.3613  1.6954  1.3012
 5556TIP3   OH216673   4.796   2.993   2.730  0.0418  0.6589 -0.0180
 5556TIP3    H116674   4.860   3.062   2.751 -0.6518  1.6967 -1.1447
 5556TIP3    H216675   4.725   3.006   2.792  0.7258 -0.2489  0.9828
 5557TIP3   OH216676   0.017   2.858   2.851  0.0609  0.0669 -0.0483
 5557TIP3    H116677  -0.062   2.886   2.897  0.5938  0.9207  0.3825
 5557TIP3    H216678   0.080   2.929   2.867  0.6123 -0.1492 -1.1687
 5558TIP3   OH216679   1.009   2.202   3.497  0.2942  0.6960 -0.0672
 5558TIP3    H116680   1.045   2.116   3.476 -1.1410  0.0871 -0.1449
 5558TIP3    H216681   0.989   2.240   3.412  0.0087  0.6981  0.0020
 5559TIP3   OH216682   1.918   5.130   5.140 -0.4827 -0.0676 -0.1600
 5559TIP3    H116683   1.912   5.078   5.060 -2.0599  0.7168 -0.5945
 5559TIP3    H216684   1.944   5.217   5.111 -0.8101  0.1576  0.2020
 5560TIP3   OH216685   1.759   2.505   2.093  0.1262 -0.4378 -0.1521
 5560TIP3    H116686   1.755   2.460   2.009 -0.0868 -1.4435  0.3737
 5560TIP3    H216687   1.790   2.593   2.072  0.0419 -0.6585 -1.2784
 5561TIP3   OH216688   4.824   1.306   1.399  0.4719  0.3184  0.2636
 5561TIP3    H116689   4.882   1.237   1.430  1.2686  2.0555  2.9844
 5561TIP3    H216690   4.840   1.311   1.304 -0.5769 -3.9355 -0.3253
 5562TIP3   OH216691   1.948   2.797   1.792 -0.4711  0.3915 -0.4296
 5562TIP3    H116692   1.899   2.724   1.754  0.1088 -0.4374  0.3591
 5562TIP3    H216693   2.017   2.815   1.729 -0.3508 -0.0506 -0.4289
 5563TIP3   OH216694   3.723   1.270   1.889 -0.6233  0.9921  0.2196
 5563TIP3    H116695   3.745   1.359   1.863  3.8499  0.0740  0.2201
 5563TIP3    H216696   3.676   1.281   1.972  0.3300  3.3094  0.5305
 5564TIP3   OH216697   1.722   1.517   1.958 -0.3298  0.1135  0.0304
 5564TIP3    H116698   1.637   1.487   1.926 -0.9071 -1.5533  2.8183
 5564TIP3    H216699   1.785   1.458   1.916 -0.7013  0.1005 -0.5304
 5565TIP3   OH216700   3.191   0.109   1.931 -0.1745 -0.0020 -0.2902
 5565TIP3    H116701   3.122   0.069   1.879 -1.0118 -0.4457  1.1054
 5565TIP3    H216702   3.183   0.203   1.915  0.2832 -0.1828 -1.7569
 5566TIP3   OH216703   5.061   5.833   2.510  0.3614 -0.2307 -0.5110
 5566TIP3    H116704   5.046   5.840   2.604  1.3722  0.3181 -0.3800
 5566TIP3    H216705   5.045   5.740   2.491 -1.0200 -0.1154 -0.0292
 5567TIP3   OH216706   4.738   2.880   4.164 -0.0881  0.1726 -0.2912
 5567TIP3    H116707   4.740   2.937   4.087 -1.5463  1.7331  0.7509
 5567TIP3    H216708   4.705   2.796   4.130 -0.8995  0.8835 -1.3531
 5568TIP3   OH216709   3.039   3.100   0.225  0.1832 -0.1034  0.1321
 5568TIP3    H116710   3.116   3.156   0.232  1.2721 -1.5693  0.3822
 5568TIP3    H216711   3.053   3.050   0.145 -0.5250 -0.3732  0.1702
 5569TIP3   OH216712   4.662   2.366   0.215 -0.4141 -0.3501 -0.1582
 5569TIP3    H116713   4.596   2.347   0.282 -0.6957  0.7353 -0.1112
 5569TIP3    H216714   4.745   2.353   0.260 -0.5819  1.1776  0.6984
 5570TIP3   OH216715   1.600   0.954   5.070 -0.0323 -0.5315  0.2304
 5570TIP3    H116716   1.671   0.896   5.045  0.0976  0.0019 -0.6791
 5570TIP3    H216717   1.594   1.018   4.999  0.1064  0.8308  1.3917
 5571TIP3   OH216718   5.165   5.484   1.940  0.1975 -0.0808  0.0288
 5571TIP3    H116719   5.207   5.496   1.855 -0.4960  0.7922 -0.2010
 5571TIP3    H216720   5.075   5.514   1.927 -1.3568 -4.1371 -0.1818
 5572TIP3   OH216721   3.824   0.347   2.808 -0.1017 -0.1697  0.0408
 5572TIP3    H116722   3.737   0.308   2.797 -0.8151  0.1833  3.3057
 5572TIP3    H216723   3.866   0.294   2.875  1.0800  1.3478  0.5769
 5573TIP3   OH216724   3.971   1.528   2.356  0.0203 -0.4114 -0.2629
 5573TIP3    H116725   4.033   1.457   2.340 -1.5908 -1.8788 -0.2439
 5573TIP3    H216726   3.979   1.547   2.449  0.8358 -0.1810 -0.3719
 5574TIP3   OH216727   2.633   3.298   2.735 -0.1334 -0.0709  0.2142
 5574TIP3    H116728   2.665   3.372   2.684 -0.6694  0.2040  0.2722
 5574TIP3    H216729   2.609   3.232   2.669  0.8816 -0.4182  0.1849
 5575TIP3   OH216730   0.208   4.733   1.944  0.1638 -0.1660 -0.3483
 5575TIP3    H116731   0.221   4.741   2.038  0.4683  1.5445 -0.5045
 5575TIP3    H216732   0.113   4.735   1.932  0.1471  1.5518 -0.1807
 5576TIP3   OH216733   4.847   0.337   3.572  0.2582 -0.3448 -0.0937
 5576TIP3    H116734   4.905   0.405   3.608  1.4988 -0.2080 -2.1793
 5576TIP3    H216735   4.905   0.263   3.555 -0.5431 -0.8990 -0.4740
 5577TIP3   OH216736   0.723   5.191   4.910 -0.3656  0.8019 -0.2083
 5577TIP3    H116737   0.763   5.155   4.830 -0.6387  1.9230 -0.8617
 5577TIP3    H216738   0.791   5.246   4.949 -0.0816 -0.0803  0.5890
 5578TIP3   OH216739   0.762   2.571   5.144 -0.2795  0.0706  0.5562
 5578TIP3    H116740   0.767   2.664   5.166  1.9948  0.6078 -1.7658
 5578TIP3    H216741   0.772   2.568   5.049  1.7889 -2.6312  0.7541
 5579TIP3   OH216742   6.315   1.909   3.171 -0.3405 -0.5774  0.0937
 5579TIP3    H116743   6.284   1.865   3.251 -0.4945  0.8552  0.8576
 5579TIP3    H216744   6.410   1.917   3.184  0.0145 -2.4717 -0.9850
 5580TIP3   OH216745   1.689   1.305   4.783 -0.0615  0.3033  0.2782
 5580TIP3    H116746   1.715   1.290   4.874  0.9112  0.7539  0.0856
 5580TIP3    H216747   1.769   1.293   4.733 -0.5308  0.3486 -0.4987
 5581TIP3   OH216748   4.957   3.166   2.255  0.4919  0.2022 -0.1233
 5581TIP3    H116749   4.903   3.120   2.318 -0.0872 -0.1365 -0.8460
 5581TIP3    H216750   4.929   3.132   2.170  1.4298  0.4486 -0.5520
 5582TIP3   OH216751   1.013   5.460   0.639 -0.7097  0.8612  0.2297
 5582TIP3    H116752   1.078   5.502   0.697  0.2053  1.7923 -1.4021
 5582TIP3    H216753   1.036   5.491   0.552 -1.2093 -1.5747 -0.8423
 5583TIP3   OH216754   3.858   2.539   3.959 -0.2090 -0.2355  0.1754
 5583TIP3    H116755   3.936   2.582   3.994  0.7170 -0.8862 -1.0159
 5583TIP3    H216756   3.799   2.531   4.034  0.3673  1.3457  0.8424
 5584TIP3   OH216757   1.921  -0.006   2.070 -0.1090 -0.2046  0.4386
 5584TIP3    H116758   1.935  -0.009   1.975  1.1345 -2.3619  0.6247
 5584TIP3    H216759   1.956   0.080   2.096  0.8131 -0.1433 -0.8740
 5585TIP3   OH216760   3.959   5.036   2.551  0.0172  0.6736 -0.0469
 5585TIP3    H116761   3.942   5.080   2.634 -1.3514 -0.2781  0.2114
 5585TIP3    H216762   3.910   5.088   2.487 -0.4844  0.3297  0.0496
 5586TIP3   OH216763   2.057   1.141   4.372  0.2253 -0.2233 -0.7884
 5586TIP3    H116764   2.152   1.151   4.361  0.4938 -0.7522  0.8035
 5586TIP3    H216765   2.041   1.048   4.355 -0.0862 -0.0361 -1.5273
 5587TIP3   OH216766   4.187   0.548   1.819  0.0476  0.1265 -0.7129
 5587TIP3    H116767   4.138   0.534   1.738 -0.0236  2.1080 -1.0776
 5587TIP3    H216768   4.248   0.619   1.797 -1.2911  2.1118  1.4333
 5588TIP3   OH216769   2.912   3.796   0.103 -0.1992 -0.6383 -0.3354
 5588TIP3    H116770   2.869   3.793   0.017 -0.8952 -1.7517  0.0181
 5588TIP3    H216771   2.843   3.823   0.164  0.0530 -0.7165 -0.0079
 5589TIP3   OH216772   3.065   5.741   1.202  0.3054  0.1829  0.3186
 5589TIP3    H116773   3.130   5.811   1.202  0.8216 -0.2830 -0.2729
 5589TIP3    H216774   3.059   5.714   1.111  0.0710 -0.5037  0.5304
 5590TIP3   OH216775   3.545   0.735   4.739 -0.3611  0.2760 -0.3670
 5590TIP3    H116776   3.636   0.751   4.762 -0.0316 -2.1805  0.2941
 5590TIP3    H216777   3.502   0.820   4.749  1.6364  1.2500  0.3499
 5591TIP3   OH216778   1.783   2.656   0.949  0.2889 -0.4853  0.4137
 5591TIP3    H116779   1.772   2.730   1.009  2.1952 -0.1426  0.4172
 5591TIP3    H216780   1.806   2.582   1.005 -0.5795 -0.8273  0.3232
 5592TIP3   OH216781   3.285   0.330   4.048  0.3604  0.6578 -0.5128
 5592TIP3    H116782   3.261   0.369   3.964 -0.6453 -0.9161 -0.9801
 5592TIP3    H216783   3.205   0.290   4.080  0.9809  0.3693  0.7172
 5593TIP3   OH216784   4.386   5.516   5.179 -0.4663  0.3810 -0.3359
 5593TIP3    H116785   4.442   5.593   5.176 -0.2131  0.1759 -1.4918
 5593TIP3    H216786   4.337   5.519   5.097 -1.7470  0.2538  0.4119
 5594TIP3   OH216787   2.416   2.008   3.161  0.3933 -0.1869 -0.1579
 5594TIP3    H116788   2.414   2.002   3.257 -0.7894  0.4192 -0.1139
 5594TIP3    H216789   2.468   2.086   3.143 -0.7461  0.6723  0.0923
 5595TIP3   OH216790   1.128   0.287   2.198  0.1466 -0.0888  0.0634
 5595TIP3    H116791   1.079   0.284   2.116  0.3295  0.3150 -0.0635
 5595TIP3    H216792   1.154   0.379   2.207 -1.4463  0.2833  1.4960
 5596TIP3   OH216793   6.206   5.470   5.010  0.4105  0.4880 -0.2110
 5596TIP3    H116794   6.296   5.483   4.980  0.5949 -1.0692 -0.3660
 5596TIP3    H216795   6.203   5.380   5.041 -1.1121  0.5051 -0.2277
 5597TIP3   OH216796   6.176   4.805   3.932 -0.1965  0.7377 -0.1610
 5597TIP3    H116797   6.229   4.845   4.002 -1.8161  2.0945  0.3610
 5597TIP3    H216798   6.153   4.878   3.875 -0.6275 -0.0072 -0.9519
 5598TIP3   OH216799   3.240   0.772   0.864  0.0745 -0.4919 -0.7683
 5598TIP3    H116800   3.281   0.823   0.795  1.1781 -2.1582 -1.4137
 5598TIP3    H216801   3.284   0.687   0.860 -0.4058 -0.9062  1.4476
 5599TIP3   OH216802   2.879   2.150   0.336 -0.4316  0.6391  0.6357
 5599TIP3    H116803   2.870   2.239   0.301  0.1257  0.1207 -0.9278
 5599TIP3    H216804   2.954   2.114   0.290 -0.3315 -0.4858  1.6294
 5600TIP3   OH216805   6.279   1.937   4.582 -0.1389 -0.1711 -0.3637
 5600TIP3    H116806   6.287   2.007   4.648  0.9751 -0.5650 -0.0512
 5600TIP3    H216807   6.318   1.860   4.625 -1.9129 -1.1736 -0.4584
 5601TIP3   OH216808   3.970   3.646   2.116 -0.2531 -0.9362  0.1158
 5601TIP3    H116809   4.053   3.671   2.076 -0.0057  0.5976  1.4940
 5601TIP3    H216810   3.977   3.551   2.127  1.7933 -0.7279  1.1420
 5602TIP3   OH216811   5.219   3.862   4.333 -0.0468 -0.4006  0.0941
 5602TIP3    H116812   5.198   3.778   4.373  2.5379 -1.4038 -0.4889
 5602TIP3    H216813   5.157   3.870   4.260 -1.1259 -1.1779  0.8926
 5603TIP3   OH216814   5.004   4.927   2.747 -0.8173  0.2392 -0.3624
 5603TIP3    H116815   5.025   4.837   2.774 -2.1607  0.3748  1.3238
 5603TIP3    H216816   4.973   4.969   2.827 -2.0879  1.6261 -1.5337
 5604TIP3   OH216817   0.351   1.835   1.690 -0.3435 -0.2803  0.2933
 5604TIP3    H116818   0.337   1.859   1.599 -0.6918 -0.3785  0.3214
 5604TIP3    H216819   0.285   1.768   1.708  0.7779 -1.4763  0.1356
 5605TIP3   OH216820   0.850   3.574   1.950  0.0359  0.2425  0.4256
 5605TIP3    H116821   0.795   3.514   2.001 -1.6913 -1.7424 -3.3601
 5605TIP3    H216822   0.791   3.612   1.885  2.6517 -0.7015 -2.8100
 5606TIP3   OH216823   4.276   4.542   4.191  0.7437 -0.3001  0.1049
 5606TIP3    H116824   4.222   4.616   4.162  1.5488  0.4757  0.5331
 5606TIP3    H216825   4.231   4.465   4.156  0.2371  0.4261 -0.9143
 5607TIP3   OH216826   6.363   2.995   3.947 -0.6273 -0.2600  0.2361
 5607TIP3    H116827   6.301   2.952   3.889 -0.4371  0.6419 -0.6649
 5607TIP3    H216828   6.316   3.071   3.980 -0.3382 -0.1139  0.3202
 5608TIP3   OH216829   1.887   0.497   4.921  0.0857 -0.7840  0.7576
 5608TIP3    H116830   1.953   0.470   4.986  1.5757  0.9565  0.0538
 5608TIP3    H216831   1.938   0.522   4.844 -1.4465  0.1303 -0.0098
 5609TIP3   OH216832   3.990   5.244   2.176  0.6940 -0.2294 -0.4166
 5609TIP3    H116833   3.953   5.157   2.187 -1.4937  0.5786 -0.6846
 5609TIP3    H216834   3.950   5.296   2.246  1.7094  0.6231 -0.4447
 5610TIP3   OH216835   3.063   3.873   2.023 -0.0447  0.0104 -0.0216
 5610TIP3    H116836   3.087   3.856   2.115  0.1740  1.3297  0.1835
 5610TIP3    H216837   3.038   3.965   2.022  0.8788  0.2660 -1.4858
 5611TIP3   OH216838   2.849   4.895   4.926  0.0628  0.2119  0.2590
 5611TIP3    H116839   2.932   4.904   4.973  0.3709  1.0945 -0.4232
 5611TIP3    H216840   2.845   4.972   4.869  0.1080 -1.1770 -1.7743
 5612TIP3   OH216841   5.007   1.989   1.870 -0.0345 -0.3702 -0.0256
 5612TIP3    H116842   4.915   1.968   1.878 -0.0489 -0.3481 -0.1244
 5612TIP3    H216843   5.053   1.919   1.916 -0.0785 -0.6397 -0.3835
 5613TIP3   OH216844   4.564   5.943   0.528 -0.3701  0.4454  0.1898
 5613TIP3    H116845   4.529   5.952   0.617 -1.7628 -1.2232 -0.1152
 5613TIP3    H216846   4.511   6.002   0.476 -0.1163  0.8060  0.3398
 5614TIP3   OH216847   3.003   5.167   1.465 -0.7404 -0.0880  0.1783
 5614TIP3    H116848   2.994   5.114   1.385  0.5621 -0.0765  0.0042
 5614TIP3    H216849   2.929   5.228   1.461 -1.1273 -0.5834 -0.6327
 5615TIP3   OH216850   2.374   2.981   0.105 -0.3205  0.2592  0.6074
 5615TIP3    H116851   2.469   2.978   0.121 -0.2852  1.9042  0.8517
 5615TIP3    H216852   2.336   3.002   0.190 -0.8416  0.4277  0.3351
 5616TIP3   OH216853   4.804   1.250   2.833 -0.3814  0.5361 -0.3604
 5616TIP3    H116854   4.899   1.255   2.824 -0.1631 -3.4272 -2.9631
 5616TIP3    H216855   4.788   1.169   2.882 -2.4070  0.5090 -0.9533
 5617TIP3   OH216856   2.956   4.340   1.755  0.1248 -0.2825  0.4279
 5617TIP3    H116857   2.875   4.375   1.718 -0.0561 -2.4694 -1.4465
 5617TIP3    H216858   2.970   4.393   1.834 -1.0825  2.6177 -1.1419
 5618TIP3   OH216859   1.568   2.979   0.272  0.0664 -0.4440  0.6451
 5618TIP3    H116860   1.622   2.915   0.226 -0.2529 -0.9242  0.9250
 5618TIP3    H216861   1.490   2.930   0.298 -2.7096  1.1734 -3.5934
 5619TIP3   OH216862   0.253   0.950   1.097  0.1254 -0.2330 -0.2210
 5619TIP3    H116863   0.256   0.896   1.018 -0.8703 -0.0913 -0.3620
 5619TIP3    H216864   0.168   0.930   1.136  0.1393  0.5472  0.2113
 5620TIP3   OH216865   3.805   5.591   0.347 -0.4147 -0.0246 -0.4075
 5620TIP3    H116866   3.780   5.514   0.297 -1.2793 -1.4114  2.0029
 5620TIP3    H216867   3.737   5.599   0.414  2.0020  0.0948  2.2291
 5621TIP3   OH216868   0.766   5.210   1.064 -0.3335  0.5241 -0.1324
 5621TIP3    H116869   0.800   5.188   1.151  0.9507  0.0847 -0.7287
 5621TIP3    H216870   0.831   5.269   1.027 -0.0956 -0.4735 -1.3701
 5622TIP3   OH216871   4.997   4.369   4.392 -0.1976  0.4206 -0.0510
 5622TIP3    H116872   4.924   4.364   4.454 -0.1909  0.2464 -0.0570
 5622TIP3    H216873   5.021   4.461   4.391  0.7897  0.1983  1.3442
 5623TIP3   OH216874   1.605   4.405   4.193  0.0136  0.0499 -0.1974
 5623TIP3    H116875   1.697   4.379   4.195  0.0614  0.2320  1.0251
 5623TIP3    H216876   1.580   4.409   4.285 -1.1500  0.2620 -0.5095
 5624TIP3   OH216877   6.089   0.828   0.531 -0.0465 -0.2934 -0.1059
 5624TIP3    H116878   6.096   0.846   0.625  2.9171 -1.1844 -0.0540
 5624TIP3    H216879   6.110   0.911   0.489  1.3014 -0.4956  0.0984
 5625TIP3   OH216880   3.227   0.860   2.126  0.3015 -0.0597 -0.8013
 5625TIP3    H116881   3.317   0.892   2.131  0.8436 -1.2565 -2.3169
 5625TIP3    H216882   3.184   0.920   2.065  0.5007 -0.3952 -1.2780
 5626TIP3   OH216883   0.433   3.374   4.188 -0.7014  0.2321 -0.0198
 5626TIP3    H116884   0.489   3.350   4.114 -0.0850  0.1868  0.4574
 5626TIP3    H216885   0.436   3.298   4.247 -0.3265  0.6855  0.5577
 5627TIP3   OH216886   4.223   1.885   4.293 -0.0491  0.2488 -0.1600
 5627TIP3    H116887   4.188   1.880   4.381  0.6261  2.8360  0.3635
 5627TIP3    H216888   4.291   1.953   4.299  1.4822 -0.9872 -2.2178
 5628TIP3   OH216889   5.463   3.021   1.904 -0.1132 -0.6040 -0.2098
 5628TIP3    H116890   5.520   2.967   1.960 -0.1257 -0.3814  0.0168
 5628TIP3    H216891   5.453   3.103   1.952 -1.7680 -1.1445  0.4221
 5629TIP3   OH216892   6.155   2.555   4.136  0.3590 -0.1928 -0.1763
 5629TIP3    H116893   6.209   2.485   4.171 -0.1357 -0.1425  0.7005
 5629TIP3    H216894   6.187   2.634   4.180 -0.7325 -0.2300  0.7025
 5630TIP3   OH216895   0.426   3.382   2.017  0.1543  0.6934  0.3071
 5630TIP3    H116896   0.404   3.390   2.110 -1.0130  0.6508  0.0433
 5630TIP3    H216897   0.352   3.421   1.971 -1.3309 -2.8900 -0.7229
 5631TIP3   OH216898   1.614   0.420   3.276  0.0787  0.8812 -0.2793
 5631TIP3    H116899   1.676   0.379   3.216 -1.0226 -1.4473  0.0379
 5631TIP3    H216900   1.528   0.405   3.235 -0.6497 -0.3534  1.5614
 5632TIP3   OH216901   3.302   5.909   4.666 -0.0051 -0.0912  0.4261
 5632TIP3    H116902   3.224   5.904   4.611 -0.3211  1.0997  0.7123
 5632TIP3    H216903   3.320   5.819   4.692 -0.0893 -0.6310 -1.2617
 5633TIP3   OH216904   2.064   4.083   4.348 -0.0740  0.5086 -0.0451
 5633TIP3    H116905   1.974   4.057   4.367 -0.2669 -0.0747 -1.6217
 5633TIP3    H216906   2.094   4.021   4.282  1.0475  1.4763 -0.4892
 5634TIP3   OH216907   1.498   4.949   0.901  0.7100  0.0621 -0.5730
 5634TIP3    H116908   1.518   4.882   0.966 -0.4579  1.4513  1.3291
 5634TIP3    H216909   1.557   5.021   0.922  1.6996 -0.1813 -2.3566
 5635TIP3   OH216910   2.985   2.770   4.711  0.5878 -0.0173 -0.2987
 5635TIP3    H116911   2.959   2.704   4.775  0.1211 -0.3759 -0.8465
 5635TIP3    H216912   2.975   2.727   4.626  0.9676  0.5246 -0.6262
 5636TIP3   OH216913   4.873   0.535   3.784 -0.0620 -0.0044 -1.2546
 5636TIP3    H116914   4.822   0.458   3.808 -0.0751 -0.3138 -2.2404
 5636TIP3    H216915   4.820   0.609   3.814 -0.7743 -0.3370 -1.6597
 5637TIP3   OH216916   4.750   6.004   4.025  0.2968 -0.4719  0.3098
 5637TIP3    H116917   4.828   5.998   3.970  0.2751 -0.7661  0.3082
 5637TIP3    H216918   4.697   5.928   3.999 -0.0457 -0.2034  0.2220
 5638TIP3   OH216919   3.253   2.993   2.621  0.5652 -0.1970 -0.1413
 5638TIP3    H116920   3.184   3.026   2.678 -0.6874  0.4242 -1.9346
 5638TIP3    H216921   3.254   2.899   2.636 -2.1012 -0.5232 -1.4671
 5639TIP3   OH216922   5.263   5.590   1.701 -0.0527  0.1559  0.0424
 5639TIP3    H116923   5.215   5.663   1.741 -2.1108 -1.6691  1.0756
 5639TIP3    H216924   5.225   5.581   1.614 -2.5107 -1.9230  1.2043
 5640TIP3   OH216925   5.595   5.028   1.362  0.0700  0.0854  0.9948
 5640TIP3    H116926   5.638   5.111   1.341 -0.6572  0.2937  0.2865
 5640TIP3    H216927   5.587   4.983   1.278 -0.4626 -0.2517  1.2217
 5641TIP3   OH216928   3.849   3.936   4.909  0.3100 -0.4815 -0.2813
 5641TIP3    H116929   3.815   3.886   4.835  3.3481 -0.9184 -1.5645
 5641TIP3    H216930   3.911   3.877   4.952  1.4431  1.0300  0.2607
 5642TIP3   OH216931   3.290   0.321   1.197  0.0473 -0.7277 -0.1594
 5642TIP3    H116932   3.204   0.291   1.170 -0.5237  2.6498 -2.8038
 5642TIP3    H216933   3.280   0.343   1.290 -2.3351  0.4859 -0.6205
 5643TIP3   OH216934   4.513   2.624   2.817 -0.2395 -0.2446 -0.2657
 5643TIP3    H116935   4.515   2.700   2.758  2.3635 -0.1304 -0.1561
 5643TIP3    H216936   4.446   2.646   2.882 -2.3493  0.1581 -2.4338
 5644TIP3   OH216937   1.552   1.302   2.386  0.1759 -0.3870 -0.1212
 5644TIP3    H116938   1.513   1.347   2.461  0.6779 -0.2322  0.0472
 5644TIP3    H216939   1.477   1.267   2.338 -0.3066  1.7206 -0.9757
 5645TIP3   OH216940   4.605   2.039   0.017 -0.0583  0.0946  0.3994
 5645TIP3    H116941   4.696   2.047  -0.014 -0.1596  0.6462  0.2346
 5645TIP3    H216942   4.611   1.981   0.093  0.5490  0.7288  0.8533
 5646TIP3   OH216943   5.471   1.899   2.741 -0.3818 -0.3055 -0.1066
 5646TIP3    H116944   5.410   1.838   2.783 -1.9500 -0.4504 -2.3831
 5646TIP3    H216945   5.502   1.852   2.663  1.2604  0.4695  0.0445
 5647TIP3   OH216946   5.235   2.108   4.310 -0.9195 -0.1132  0.7627
 5647TIP3    H116947   5.285   2.028   4.299 -0.5131  0.0680  1.2563
 5647TIP3    H216948   5.297   2.171   4.346 -0.8030  0.9136 -1.1252
 5648TIP3   OH216949   6.020   2.754   2.869 -0.2316  0.2187 -0.2663
 5648TIP3    H116950   6.092   2.794   2.917 -0.1069  0.0539 -0.3131
 5648TIP3    H216951   5.967   2.711   2.936  0.7260 -1.2463 -0.3954
 5649TIP3   OH216952   0.102   1.554   4.165 -0.0905  0.0562  0.3257
 5649TIP3    H116953   0.100   1.465   4.130 -2.5166  0.4337 -0.6817
 5649TIP3    H216954   0.078   1.544   4.257 -1.9126 -0.2532 -0.1435
 5650TIP3   OH216955   5.382   2.587   0.947 -0.1661 -0.4704 -0.0417
 5650TIP3    H116956   5.380   2.529   1.023  0.0881  0.5647  0.7827
 5650TIP3    H216957   5.473   2.615   0.940 -0.4300  0.4663  0.0921
 5651TIP3   OH216958   1.525   1.245   1.323 -0.5094 -0.1871 -0.3399
 5651TIP3    H116959   1.460   1.306   1.288 -0.1076  0.4539 -0.0018
 5651TIP3    H216960   1.610   1.288   1.307 -0.3642  1.0586  2.9656
 5652TIP3   OH216961   1.744   2.908   0.766  0.0268 -0.2413  0.4855
 5652TIP3    H116962   1.823   2.918   0.818 -0.7492  0.1325  1.6466
 5652TIP3    H216963   1.761   2.956   0.685  1.3506 -1.0205  0.2713
 5653TIP3   OH216964   4.713   3.922   4.175  0.1508 -0.1050 -0.2163
 5653TIP3    H116965   4.693   3.933   4.082  3.0860  0.3939 -0.8951
 5653TIP3    H216966   4.766   3.843   4.180 -0.2128 -0.3039  1.1225
 5654TIP3   OH216967   6.315   3.173   2.754 -0.0479 -0.4973  0.0640
 5654TIP3    H116968   6.316   3.185   2.849 -0.1003 -3.0047  0.4438
 5654TIP3    H216969   6.227   3.140   2.735 -0.4268  1.0413 -1.0562
 5655TIP3   OH216970   1.276   3.313   4.767  0.5178  0.3260  0.4438
 5655TIP3    H116971   1.196   3.338   4.720  0.2126 -0.3043  0.6226
 5655TIP3    H216972   1.315   3.396   4.793  0.0791  0.6486  0.0900
 5656TIP3   OH216973   1.968   2.966   0.918  0.0842 -0.3727 -0.1220
 5656TIP3    H116974   2.059   2.984   0.895 -0.2582  1.4051 -0.2609
 5656TIP3    H216975   1.973   2.929   1.006  0.9287 -0.1929 -0.0811
 5657TIP3   OH216976   5.015   2.242   4.407  0.5122 -0.3119 -0.4391
 5657TIP3    H116977   5.073   2.303   4.453  0.7262 -0.1188 -0.9534
 5657TIP3    H216978   5.075   2.185   4.358  0.2931 -0.5958 -0.3789
 5658TIP3   OH216979   0.257   2.745   2.740  0.5463 -0.2902  0.3021
 5658TIP3    H116980   0.349   2.748   2.712  0.2997  0.9002 -0.4828
 5658TIP3    H216981   0.261   2.728   2.834  1.6259  0.7609  0.4744
 5659TIP3   OH216982   1.426   3.108   2.490  0.0821 -0.5609 -0.0445
 5659TIP3    H116983   1.495   3.131   2.552  0.8218 -0.7991 -0.7536
 5659TIP3    H216984   1.345   3.130   2.534  0.6156 -0.3200  0.8311
 5660TIP3   OH216985   4.514   0.671   4.478  0.2407  0.2988 -0.0788
 5660TIP3    H116986   4.573   0.638   4.546 -0.9432 -1.4991  0.1318
 5660TIP3    H216987   4.430   0.629   4.495 -0.9215  2.1429 -0.8788
 5661TIP3   OH216988   2.589   2.759   3.094  0.8906  0.4756  0.0868
 5661TIP3    H116989   2.495   2.748   3.107  0.9519 -0.0370  0.1043
 5661TIP3    H216990   2.596   2.805   3.010  0.6379  0.1175 -0.1358
 5662TIP3   OH216991   2.516   4.417   1.773  0.8389 -0.1845 -0.6316
 5662TIP3    H116992   2.554   4.370   1.699  0.5328 -0.8684 -0.3677
 5662TIP3    H216993   2.529   4.358   1.848  0.6899  0.2750 -0.2367
 5663TIP3   OH216994   3.235   5.223   1.615 -0.0610 -0.1514 -0.1424
 5663TIP3    H116995   3.159   5.191   1.567 -0.9585  0.2277  0.9889
 5663TIP3    H216996   3.207   5.307   1.651  0.0251 -1.1092  2.3112
 5664TIP3   OH216997   4.608   1.003   0.474 -0.4470  0.2669 -0.4124
 5664TIP3    H116998   4.702   0.986   0.468 -0.5626 -1.1208  1.0268
 5664TIP3    H216999   4.587   0.992   0.567 -1.9185  1.2224 -0.5951
 5665TIP3   OH217000   0.071   0.965   4.021  0.0589 -0.0241  0.1965
 5665TIP3    H117001  -0.007   0.922   4.057 -0.2003  0.7891  0.6274
 5665TIP3    H217002   0.142   0.903   4.036 -0.6449 -1.1781 -1.0215
 5666TIP3   OH217003   4.249   4.361   1.240  0.2939 -0.5655 -0.0497
 5666TIP3    H117004   4.222   4.295   1.175 -1.7971 -0.2083  0.3900
 5666TIP3    H217005   4.243   4.444   1.193 -1.7395 -0.2486  0.6720
 5667TIP3   OH217006   3.274   5.379   4.995  0.4102  0.4200 -0.7622
 5667TIP3    H117007   3.291   5.418   5.081  0.8292 -0.3556 -0.4869
 5667TIP3    H217008   3.360   5.364   4.957  0.2904  3.2209 -2.5168
 5668TIP3   OH217009   5.899   2.901   1.243  0.0748  0.6007  0.5508
 5668TIP3    H117010   5.886   2.988   1.207  0.9970  0.3580 -0.4416
 5668TIP3    H217011   5.817   2.881   1.288 -0.4756  1.6293  0.0545
 5669TIP3   OH217012   0.239   4.311   2.685  0.7078 -0.1154  0.1730
 5669TIP3    H117013   0.242   4.219   2.711  0.5293 -0.1143  0.1974
 5669TIP3    H217014   0.157   4.320   2.637  1.4740 -0.3271 -1.2030
 5670TIP3   OH217015   3.166   4.975   3.057 -0.5088 -0.7982  0.2676
 5670TIP3    H117016   3.097   4.915   3.030 -1.1719  0.0949 -0.0575
 5670TIP3    H217017   3.139   5.006   3.144 -1.1456  0.4625 -0.3598
 5671TIP3   OH217018   1.108   2.723   3.470 -0.2628  0.2781 -0.4522
 5671TIP3    H117019   1.122   2.817   3.472  0.2275  0.2027 -0.0225
 5671TIP3    H217020   1.032   2.708   3.527 -0.0704  0.3714 -0.1687
 5672TIP3   OH217021   3.277   2.766   4.979 -0.7265 -0.2524  0.3987
 5672TIP3    H117022   3.363   2.771   5.021 -0.6619 -1.1019  0.3814
 5672TIP3    H217023   3.297   2.761   4.885 -0.8189  0.1595  0.3558
 5673TIP3   OH217024   2.900   5.109   4.754 -0.0712 -0.0601 -0.6420
 5673TIP3    H117025   2.936   5.077   4.671  2.0143  0.8851 -0.1607
 5673TIP3    H217026   2.974   5.151   4.798 -1.3058  0.1454  1.3733
 5674TIP3   OH217027   3.373   5.578   3.556 -0.5344  0.1916  0.3431
 5674TIP3    H117028   3.288   5.604   3.522 -1.2935 -0.4546  1.6668
 5674TIP3    H217029   3.380   5.624   3.640  0.8749  1.0204 -0.1963
 5675TIP3   OH217030   4.999   5.228   1.056  0.4804  0.3249 -0.7468
 5675TIP3    H117031   4.969   5.278   1.131 -0.5111 -1.6237  0.2216
 5675TIP3    H217032   4.944   5.258   0.983 -1.2496 -0.4916  0.1733
 5676TIP3   OH217033   6.013   1.124   3.431 -0.1217 -0.1590 -0.4928
 5676TIP3    H117034   5.931   1.095   3.391 -0.2449 -0.3156 -0.1370
 5676TIP3    H217035   6.069   1.149   3.358 -1.4853  2.6642 -0.7016
 5677TIP3   OH217036   5.511   5.126   0.026  0.8860 -0.2680 -0.2984
 5677TIP3    H117037   5.583   5.154  -0.031  2.4854 -0.7820  1.3822
 5677TIP3    H217038   5.510   5.191   0.096 -1.3518  0.6142 -1.0476
 5678TIP3   OH217039   1.810   3.080   4.982 -0.1995  0.0851 -0.5505
 5678TIP3    H117040   1.791   3.113   4.894  0.8504  1.3889 -0.3228
 5678TIP3    H217041   1.870   3.006   4.968  2.0939  1.9031 -0.8882
 5679TIP3   OH217042   0.485   2.380   1.549 -0.4726 -0.3730 -0.2932
 5679TIP3    H117043   0.449   2.452   1.497 -0.6199  0.1120  0.4675
 5679TIP3    H217044   0.556   2.420   1.599 -0.3408 -0.8331 -0.1116
 5680TIP3   OH217045   1.768   5.062   3.196 -0.2311  0.0374  0.2683
 5680TIP3    H117046   1.767   5.073   3.291  0.6521  0.9901  0.1899
 5680TIP3    H217047   1.714   4.985   3.180  0.7103 -0.9467  1.6406
 5681TIP3   OH217048   0.058   3.817   0.427  0.1859 -0.2330 -0.3983
 5681TIP3    H117049   0.138   3.794   0.380 -1.3217 -0.1759 -3.2096
 5681TIP3    H217050   0.009   3.872   0.366 -1.6800  0.3943  1.5305
 5682TIP3   OH217051   2.831   1.452   2.859  0.2293  0.2067  0.2022
 5682TIP3    H117052   2.793   1.540   2.848 -0.4197 -0.0890  0.0570
 5682TIP3    H217053   2.907   1.467   2.915  1.6271  1.2401 -1.8485
 5683TIP3   OH217054   1.991   4.981   0.201 -0.1626  0.1582 -0.3120
 5683TIP3    H117055   1.977   4.939   0.285 -0.4571 -0.5168 -0.6895
 5683TIP3    H217056   2.074   5.029   0.211  0.3336 -0.7569  0.0286
 5684TIP3   OH217057   1.780   2.737   4.669 -0.1284 -0.6650  0.1265
 5684TIP3    H117058   1.736   2.722   4.586 -0.4289 -3.0246  0.6537
 5684TIP3    H217059   1.708   2.746   4.732  0.1134  0.3288  0.2820
 5685TIP3   OH217060   4.534   5.372   4.918  0.2572  0.5474 -0.4967
 5685TIP3    H117061   4.597   5.393   4.987  0.4003  0.2553 -0.5361
 5685TIP3    H217062   4.534   5.277   4.914 -0.7750  0.5164  0.0418
 5686TIP3   OH217063   2.330   2.764   2.383  0.2681 -0.3520 -0.3581
 5686TIP3    H117064   2.262   2.709   2.422 -1.0158  0.6826 -1.0072
 5686TIP3    H217065   2.358   2.822   2.454 -1.1314  0.6562 -0.5592
 5687TIP3   OH217066   5.375   5.766   0.129 -0.7003  0.6379  0.0693
 5687TIP3    H117067   5.343   5.854   0.149 -2.9315  0.0789 -0.7677
 5687TIP3    H217068   5.364   5.717   0.210  0.4215  1.0732  0.4986
 5688TIP3   OH217069   4.341   3.578   2.373  0.1896 -0.2960 -0.2983
 5688TIP3    H117070   4.408   3.585   2.305 -0.3765  0.5143 -0.7999
 5688TIP3    H217071   4.274   3.641   2.347  1.2577  2.2628  2.4960
 5689TIP3   OH217072   0.684   2.578   0.221 -0.0207 -0.3538  0.3667
 5689TIP3    H117073   0.591   2.562   0.206  0.0320 -0.9864  0.6865
 5689TIP3    H217074   0.688   2.664   0.262 -0.3490  0.3529 -1.0066
 5690TIP3   OH217075   4.911   3.611   2.379 -0.3363  0.0666  0.3638
 5690TIP3    H117076   4.980   3.649   2.325  1.4860 -0.6658  2.0583
 5690TIP3    H217077   4.952   3.596   2.464 -2.2300 -1.5459  1.0826
 5691TIP3   OH217078   6.338   2.545   3.218  0.2863  0.0675 -1.0276
 5691TIP3    H117079   6.358   2.569   3.128 -1.3656 -0.4629 -1.5857
 5691TIP3    H217080   6.336   2.449   3.217 -3.0548  0.0254 -1.3199
 5692TIP3   OH217081   2.136   0.548   3.785 -0.5280  0.5891 -0.1652
 5692TIP3    H117082   2.146   0.639   3.759  3.9873  0.4768  0.4291
 5692TIP3    H217083   2.148   0.499   3.704 -0.8913  0.4415 -0.1346
 5693TIP3   OH217084   2.157   5.088   1.689  0.5890  0.1567  0.5420
 5693TIP3    H117085   2.241   5.096   1.644  0.7431  0.3941  0.8685
 5693TIP3    H217086   2.132   4.996   1.679  0.3213  0.3377 -0.5633
 5694TIP3   OH217087   5.052   4.599   4.190 -0.3977  0.3346 -0.2297
 5694TIP3    H117088   4.976   4.565   4.143 -1.9850  1.3374  1.4801
 5694TIP3    H217089   5.126   4.584   4.131 -2.2030  1.2313 -2.8893
 5695TIP3   OH217090   1.644   0.975   3.263 -0.0075 -0.4932 -0.4198
 5695TIP3    H117091   1.634   1.065   3.231 -0.2234 -0.7106 -0.9887
 5695TIP3    H217092   1.565   0.960   3.316 -0.6449 -0.7773 -1.4091
 5696TIP3   OH217093   0.693   3.807   4.703 -0.0402 -0.5172 -0.5003
 5696TIP3    H117094   0.605   3.843   4.715  0.0277  0.0538 -1.5901
 5696TIP3    H217095   0.751   3.869   4.747 -0.1962 -1.1330  0.6218
 5697TIP3   OH217096   3.405   1.556   4.120 -0.1568 -0.0941 -0.0421
 5697TIP3    H117097   3.421   1.641   4.077  1.4700 -0.6534 -0.6355
 5697TIP3    H217098   3.398   1.494   4.048  0.3531 -0.7066  0.4242
 5698TIP3   OH217099   2.767   3.475   0.612 -0.4886 -0.0187  0.0241
 5698TIP3    H117100   2.672   3.486   0.611 -0.7568 -1.9763 -0.0342
 5698TIP3    H217101   2.787   3.448   0.702 -0.0575 -0.1934 -0.1232
 5699TIP3   OH217102   3.437   1.551   0.102 -0.1519 -0.1767  0.0212
 5699TIP3    H117103   3.438   1.624   0.164 -0.6534 -1.4919  1.6567
 5699TIP3    H217104   3.529   1.538   0.078  0.1499 -0.1268  1.1006
 5700TIP3   OH217105   6.184   3.443   4.264  0.3854 -0.0147 -1.0307
 5700TIP3    H117106   6.186   3.351   4.291  1.0845  0.0187 -0.9475
 5700TIP3    H217107   6.133   3.442   4.183 -1.7907 -0.0939  0.2806
 5701TIP3   OH217108   4.150   5.339   3.498  0.1605  0.2179 -0.1525
 5701TIP3    H117109   4.140   5.322   3.592  1.2659  3.0504  0.5637
 5701TIP3    H217110   4.076   5.394   3.475  0.2585  0.0884 -0.8036
 5702TIP3   OH217111   1.165   1.164   1.564 -0.1374  0.1270  0.2514
 5702TIP3    H117112   1.144   1.133   1.652 -0.1003 -0.1815  0.1560
 5702TIP3    H217113   1.095   1.128   1.509 -0.2291  0.4236  0.1752
 5703TIP3   OH217114   1.885   4.409   5.052  0.4254 -0.9469 -0.4200
 5703TIP3    H117115   1.917   4.499   5.057 -1.0305 -0.4216 -0.0169
 5703TIP3    H217116   1.799   4.417   5.011  0.5088 -2.2335 -0.8942
 5704TIP3   OH217117   4.068   2.975   1.067  0.3416  0.5205 -0.0312
 5704TIP3    H117118   4.109   2.901   1.022  0.8023  0.7137  0.0619
 5704TIP3    H217119   3.979   2.946   1.084  0.3637  0.1828 -0.4562
 5705TIP3   OH217120   6.086   3.330   2.313 -0.3579 -0.0875  0.0198
 5705TIP3    H117121   6.050   3.262   2.370 -1.9146  0.1177 -0.6588
 5705TIP3    H217122   6.010   3.367   2.268  0.3578  2.4566  0.7109
 5706TIP3   OH217123   2.488   1.644   4.347 -0.3920 -0.1362  0.0708
 5706TIP3    H117124   2.577   1.612   4.361  0.3693  1.3657 -1.0087
 5706TIP3    H217125   2.479   1.718   4.407 -0.6302  0.1927 -0.3632
 5707TIP3   OH217126   0.632   0.023   0.750 -0.2327 -0.1985  0.0132
 5707TIP3    H117127   0.592   0.100   0.790 -0.1844 -1.1322  2.0385
 5707TIP3    H217128   0.560  -0.040   0.741 -0.0742 -0.2955 -0.5924
 5708TIP3   OH217129   5.848   2.529   4.521 -0.5833  0.1603 -0.5436
 5708TIP3    H117130   5.826   2.437   4.536  0.6450 -0.2170 -0.9549
 5708TIP3    H217131   5.928   2.527   4.468 -0.1696  1.4664 -0.0223
 5709TIP3   OH217132   5.069   4.994   0.960 -0.5580  0.4901 -0.1670
 5709TIP3    H117133   5.010   4.927   0.995 -0.0904 -0.4766 -1.1521
 5709TIP3    H217134   5.027   5.077   0.981 -1.1386 -0.1096  1.1212
 5710TIP3   OH217135   3.211   0.082   0.437 -0.1052 -0.3196 -0.3958
 5710TIP3    H117136   3.299   0.106   0.467 -0.2471  0.3985 -0.5363
 5710TIP3    H217137   3.152   0.134   0.492 -0.3454  2.8504 -3.3035
 5711TIP3   OH217138   4.495   2.292   4.504  0.0488  0.3528  0.6926
 5711TIP3    H117139   4.452   2.274   4.588  0.0404 -1.0970  0.3996
 5711TIP3    H217140   4.585   2.262   4.517 -0.0205 -0.1217  0.1058
 5712TIP3   OH217141   5.767   3.923   1.785 -0.1037  0.1285  0.9051
 5712TIP3    H117142   5.702   3.881   1.729 -1.1201 -0.1465  2.2399
 5712TIP3    H217143   5.791   3.856   1.848  0.2385  0.7451  1.4384
 5713TIP3   OH217144   0.255   4.373   3.520 -0.4255  0.0069 -0.0910
 5713TIP3    H117145   0.282   4.404   3.606 -0.9161 -0.5975  0.2910
 5713TIP3    H217146   0.329   4.394   3.463  0.7014 -1.2015  0.8325
 5714TIP3   OH217147   3.986   0.542   4.944  0.3963 -0.4960  0.3548
 5714TIP3    H117148   3.915   0.484   4.969 -0.7089 -0.6822 -2.7843
 5714TIP3    H217149   3.963   0.627   4.983 -1.2000 -0.7180 -0.0496
 5715TIP3   OH217150   1.515   1.767   0.270  0.4690 -0.2558 -0.2079
 5715TIP3    H117151   1.548   1.839   0.215 -0.4787 -0.1393 -0.6437
 5715TIP3    H217152   1.586   1.749   0.331  0.4895  1.4810  0.3203
 5716TIP3   OH217153   0.620   5.005   5.100 -0.1309  0.2916 -0.0945
 5716TIP3    H117154   0.697   5.020   5.156 -0.3437  1.6499 -0.1397
 5716TIP3    H217155   0.642   5.046   5.017 -0.6069  0.0014 -0.3674
 5717TIP3   OH217156   2.034   3.282   1.206  0.4475 -0.0496  0.3209
 5717TIP3    H117157   1.959   3.314   1.256 -0.0154 -0.0681 -0.3481
 5717TIP3    H217158   2.089   3.238   1.271  0.3543  0.7905  0.9893
 5718TIP3   OH217159   5.479   2.015   4.991  0.3481  0.2831  1.0608
 5718TIP3    H117160   5.441   2.100   5.016 -0.4132  0.1650  0.3439
 5718TIP3    H217161   5.407   1.969   4.947  1.3727  0.1465 -0.5576
 5719TIP3   OH217162   3.631   4.142   3.301 -0.1857  0.3522  0.3715
 5719TIP3    H117163   3.619   4.140   3.206 -1.1178  0.5890  0.4707
 5719TIP3    H217164   3.695   4.212   3.316 -0.3644  0.6103 -0.0497
 5720TIP3   OH217165   5.208   2.573   1.772  0.3839 -0.0311  0.0630
 5720TIP3    H117166   5.118   2.574   1.740 -0.2296  0.2014  1.7038
 5720TIP3    H217167   5.252   2.640   1.721 -0.9071  1.3076  0.6214
 5721TIP3   OH217168   1.560   0.775   0.380 -0.4436 -0.0703 -0.3062
 5721TIP3    H117169   1.570   0.857   0.429 -0.7296  0.4763 -1.1341
 5721TIP3    H217170   1.569   0.802   0.288  1.1950 -1.2333 -0.5196
 5722TIP3   OH217171   1.105   5.954   2.437  0.0847 -0.0721  0.6542
 5722TIP3    H117172   1.144   5.901   2.506  1.6661  0.8074  0.4805
 5722TIP3    H217173   1.158   6.033   2.434  0.1056 -0.0912 -1.6049
 5723TIP3   OH217174   0.620   4.073   3.892  0.1450  0.1039  0.0339
 5723TIP3    H117175   0.675   4.002   3.923 -2.0236 -1.5412  0.4001
 5723TIP3    H217176   0.554   4.085   3.960 -0.7909  1.0078 -0.9725
 5724TIP3   OH217177   0.832   2.653   3.589 -0.1283 -0.3933  0.2068
 5724TIP3    H117178   0.794   2.568   3.614 -0.0733 -1.0087 -1.6251
 5724TIP3    H217179   0.760   2.715   3.598 -0.5228 -0.8728  0.3851
 5725TIP3   OH217180   3.273   2.390   3.242  0.4202 -0.0517  0.2697
 5725TIP3    H117181   3.244   2.322   3.181  2.0302 -0.1161 -0.4588
 5725TIP3    H217182   3.340   2.438   3.195 -1.0895  2.4923  0.5256
 5726TIP3   OH217183   0.081   3.813   4.756  0.3793 -0.0618  0.0934
 5726TIP3    H117184   0.052   3.758   4.829  0.5580 -2.4538 -1.5262
 5726TIP3    H217185   0.172   3.786   4.741  0.5110  0.7862 -0.6902
 5727TIP3   OH217186   1.239   5.098   2.818 -1.1058 -0.3476 -0.0130
 5727TIP3    H117187   1.309   5.143   2.864  0.8127 -1.6663 -1.4801
 5727TIP3    H217188   1.172   5.166   2.804  0.9545  1.6492 -0.7633
 5728TIP3   OH217189   1.486   3.863   3.387 -0.4009 -0.4703  0.3575
 5728TIP3    H117190   1.419   3.929   3.400 -0.0993  0.0268 -0.5329
 5728TIP3    H217191   1.550   3.880   3.457 -0.6949 -0.2960  0.5840
 5729TIP3   OH217192   5.811   4.382   4.035 -0.4409 -0.2438 -0.0513
 5729TIP3    H117193   5.880   4.320   4.012 -0.0766  0.7931 -2.0396
 5729TIP3    H217194   5.741   4.328   4.071  1.1715 -1.3821  1.5573
 5730TIP3   OH217195   6.300   2.911   4.744  0.2703 -0.1851 -0.5693
 5730TIP3    H117196   6.274   3.001   4.763  0.7555 -0.3747  1.1215
 5730TIP3    H217197   6.345   2.881   4.823  0.3249 -1.8482 -1.1819
 5731TIP3   OH217198   4.580   0.427   2.504 -0.4623 -0.2976  0.5715
 5731TIP3    H117199   4.487   0.433   2.524 -0.2685  0.0720  1.4119
 5731TIP3    H217200   4.616   0.371   2.572  0.1118  0.4569  0.9080
 5732TIP3   OH217201   3.344   4.971   0.575 -0.6628 -0.4580 -0.4802
 5732TIP3    H117202   3.358   4.921   0.495  0.4665 -1.3675  0.2492
 5732TIP3    H217203   3.363   5.061   0.552 -0.7593 -0.6511 -1.3341
 5733TIP3   OH217204   5.851   0.785   2.263  0.1679 -0.0903  0.1682
 5733TIP3    H117205   5.790   0.767   2.335 -0.5313 -2.0897 -0.8578
 5733TIP3    H217206   5.863   0.880   2.265 -0.1928 -0.0457  2.6100
 5734TIP3   OH217207   4.530   1.458   1.942 -0.2635  0.5124 -0.2092
 5734TIP3    H117208   4.542   1.427   1.852  0.1916  0.5294 -0.1564
 5734TIP3    H217209   4.535   1.378   1.995 -0.1502  0.5491 -0.1651
 5735TIP3   OH217210   2.919   2.195   1.116  0.2356  0.1280 -0.1274
 5735TIP3    H117211   2.995   2.250   1.097 -0.3777  0.4564 -1.7389
 5735TIP3    H217212   2.938   2.112   1.074  0.5372 -0.4669  1.1280
 5736TIP3   OH217213   6.116   3.916   4.086  0.1645 -0.6779 -0.0842
 5736TIP3    H117214   6.150   3.877   4.006  1.4625 -1.2140  0.6868
 5736TIP3    H217215   6.156   3.865   4.156  0.2608  0.7225  0.9316
 5737TIP3   OH217216   6.251   0.600   1.086  0.5463  0.1266  0.4478
 5737TIP3    H117217   6.160   0.582   1.108  0.1488 -0.8981 -1.7561
 5737TIP3    H217218   6.247   0.674   1.025  1.2141  0.2845  0.5835
 5738TIP3   OH217219   3.144   0.919   3.639 -0.2416 -0.0552  0.3875
 5738TIP3    H117220   3.068   0.970   3.669  0.3656  0.5201  0.9780
 5738TIP3    H217221   3.170   0.868   3.716  0.8469  0.8394  0.6361
 5739TIP3   OH217222   3.750   5.174   1.437 -0.3338  0.2733 -0.3014
 5739TIP3    H117223   3.707   5.094   1.409  1.3310  0.1277 -2.7415
 5739TIP3    H217224   3.831   5.144   1.479 -0.8059  0.6612  0.9543
 5740TIP3   OH217225   2.798   5.700   1.685  0.1446  0.1666  0.4823
 5740TIP3    H117226   2.870   5.752   1.651  2.5035 -2.5023  1.0424
 5740TIP3    H217227   2.747   5.676   1.608  0.5400  1.0750 -0.0843
 5741TIP3   OH217228   4.038   2.121   2.979  0.0738  0.2579  0.1779
 5741TIP3    H117229   4.053   2.175   3.057 -0.2677  1.1605 -0.3639
 5741TIP3    H217230   4.024   2.185   2.908  0.7553 -0.5454 -0.6981
 5742TIP3   OH217231   2.242   3.672   0.488  0.3407 -0.0887  0.4939
 5742TIP3    H117232   2.199   3.731   0.549 -0.4425 -0.1246 -0.0198
 5742TIP3    H217233   2.190   3.592   0.491 -1.2306  0.7248 -2.0488
 5743TIP3   OH217234   0.624   3.621   3.989  0.1112  0.1101  0.1621
 5743TIP3    H117235   0.667   3.682   4.049 -2.0096  1.5542  0.3221
 5743TIP3    H217236   0.531   3.628   4.010 -0.4362 -1.2912 -1.5662
 5744TIP3   OH217237   5.456   2.478   0.609 -0.0053  0.7102  0.0002
 5744TIP3    H117238   5.465   2.405   0.548 -0.8909  0.5229  0.0898
 5744TIP3    H217239   5.545   2.494   0.640  0.3687  0.4458 -0.9124
 5745TIP3   OH217240   1.949   5.866   1.142  0.1705  0.7080 -0.2103
 5745TIP3    H117241   1.987   5.909   1.218 -0.1518  1.7835 -0.6293
 5745TIP3    H217242   1.923   5.780   1.173  0.9911  0.7448  0.6193
 5746TIP3   OH217243   3.052   0.451   2.789  0.0345  0.5650  0.0903
 5746TIP3    H117244   3.064   0.378   2.728  1.5543  0.0435  0.9476
 5746TIP3    H217245   2.971   0.430   2.836  0.2167 -0.3583  0.0190
 5747TIP3   OH217246   2.628   2.889   4.790  0.0022 -0.0025  0.3842
 5747TIP3    H117247   2.566   2.949   4.831 -0.4608  0.6287 -1.1804
 5747TIP3    H217248   2.655   2.830   4.861 -2.3622 -0.2928  1.1142
 5748TIP3   OH217249   3.037   1.682   1.655  0.5103 -0.2049  0.1847
 5748TIP3    H117250   3.081   1.670   1.570  0.1158  0.4502 -0.1218
 5748TIP3    H217251   2.994   1.768   1.647 -2.8262 -1.7777 -0.4542
 5749TIP3   OH217252   2.458   0.949   2.775  0.0662 -0.6876  0.4621
 5749TIP3    H117253   2.378   0.994   2.745 -0.6328 -0.9950  1.7729
 5749TIP3    H217254   2.522   0.967   2.707 -0.1773  2.2706  0.8413
 5750TIP3   OH217255   1.115   1.021   4.478 -0.3396  0.3692 -0.3562
 5750TIP3    H117256   1.117   0.926   4.479  0.8704  0.3794  0.1704
 5750TIP3    H217257   1.062   1.045   4.555  0.9495  0.1179  0.6437
 5751TIP3   OH217258   0.411   4.435   3.303 -0.1136 -0.1029  0.4115
 5751TIP3    H117259   0.379   4.502   3.242 -0.6563 -1.6317 -1.0569
 5751TIP3    H217260   0.505   4.449   3.307 -0.0163 -0.1513 -1.0560
 5752TIP3   OH217261   2.869   4.376   3.249 -0.5791 -0.0498  0.0592
 5752TIP3    H117262   2.789   4.334   3.218 -1.0829 -1.0357  2.4660
 5752TIP3    H217263   2.936   4.309   3.241 -0.3221  0.2650 -0.4906
 5753TIP3   OH217264   6.234   3.715   4.239  0.3875 -0.3335  0.3501
 5753TIP3    H117265   6.266   3.765   4.314  2.1073  0.0653 -0.5704
 5753TIP3    H217266   6.249   3.624   4.262 -0.9010 -0.3370  1.2414
 5754TIP3   OH217267   6.267   3.601   4.930  0.4230  0.0738  0.2018
 5754TIP3    H117268   6.210   3.671   4.961 -1.3303 -1.6078  0.9940
 5754TIP3    H217269   6.245   3.591   4.837  1.7929  1.5292 -0.3239
 5755TIP3   OH217270   5.745   3.930   5.048 -0.1959 -0.4533  0.5923
 5755TIP3    H117271   5.660   3.932   5.005 -1.0852 -0.4594  2.2588
 5755TIP3    H217272   5.724   3.923   5.142  1.5541  2.6853  1.3438
 5756TIP3   OH217273   0.014   0.173   1.904 -0.2342  0.3050 -0.2350
 5756TIP3    H117274   0.052   0.175   1.817  2.6835  0.1869  0.9001
 5756TIP3    H217275  -0.024   0.085   1.912  2.0284 -0.7483 -0.4660
 5757TIP3   OH217276   2.991   4.083   5.116  0.2796  0.0262 -0.5784
 5757TIP3    H117277   2.931   4.094   5.043 -0.5575  0.8614  0.2064
 5757TIP3    H217278   3.056   4.153   5.104 -0.3056  0.6603 -0.1080
 5758TIP3   OH217279   4.607   1.739   3.626 -0.5280 -0.1060  0.2854
 5758TIP3    H117280   4.559   1.698   3.554  1.2052  0.0640 -1.0312
 5758TIP3    H217281   4.545   1.739   3.699 -1.5180 -2.4832 -0.4707
 5759TIP3   OH217282   4.403   3.427   0.055 -0.3517 -0.1696  0.3232
 5759TIP3    H117283   4.373   3.454   0.141 -0.2162  0.2287  0.2482
 5759TIP3    H217284   4.326   3.435  -0.001 -0.2274  0.4327  0.2234
 5760TIP3   OH217285   4.749   0.027   3.719 -0.2087  0.2805 -0.3705
 5760TIP3    H117286   4.836   0.040   3.758 -0.7644 -0.0990  1.0395
 5760TIP3    H217287   4.749  -0.065   3.693  0.5960  0.8075 -2.4636
 5761TIP3   OH217288   1.514   1.702   4.098 -0.9586  0.5003 -0.0993
 5761TIP3    H117289   1.448   1.672   4.161 -1.1317  1.8654  0.4161
 5761TIP3    H217290   1.597   1.692   4.145 -0.9313  0.0861 -0.2316
 5762TIP3   OH217291   5.054   5.082   4.472  0.3423  0.2387 -0.4208
 5762TIP3    H117292   4.973   5.127   4.450 -0.2703 -0.3223  0.6191
 5762TIP3    H217293   5.066   5.018   4.402  0.9520  1.6323 -1.6329
 5763TIP3   OH217294   5.759   5.195   2.171 -0.2844 -0.0711 -0.6658
 5763TIP3    H117295   5.680   5.143   2.187 -0.3169  0.1304 -0.1472
 5763TIP3    H217296   5.759   5.260   2.241 -0.7287  1.2263 -1.8353
 5764TIP3   OH217297   1.582   5.925   0.253 -0.0239  0.0218  0.3375
 5764TIP3    H117298   1.581   6.007   0.204 -1.2375  0.5718  1.1960
 5764TIP3    H217299   1.583   5.856   0.187 -1.2578  0.7371 -0.4653
 5765TIP3   OH217300   4.291   3.355   1.318  0.0063  0.3982 -0.1953
 5765TIP3    H117301   4.305   3.349   1.224 -0.2867 -2.3420 -0.1589
 5765TIP3    H217302   4.378   3.339   1.356 -0.0986  0.2386 -0.0167
 5766TIP3   OH217303   2.747   3.721   2.096 -0.3293 -0.8079  0.1704
 5766TIP3    H117304   2.700   3.681   2.023  0.3269 -2.3067  0.5223
 5766TIP3    H217305   2.834   3.680   2.093 -0.4953 -1.4222  2.1734
 5767TIP3   OH217306   0.308   4.774   5.101 -0.2126 -0.5447 -0.5265
 5767TIP3    H117307   0.257   4.850   5.127  1.5732  1.0344 -1.3739
 5767TIP3    H217308   0.286   4.706   5.166 -2.3506  0.4441 -0.1522
 5768TIP3   OH217309   0.315   2.783   1.212  1.0885  0.2015 -0.0931
 5768TIP3    H117310   0.361   2.808   1.132  3.1396  0.1974  1.0331
 5768TIP3    H217311   0.291   2.691   1.199  2.3995 -0.1277 -0.2846
 5769TIP3   OH217312   5.584   4.067   4.395 -0.3468  0.4198  1.1305
 5769TIP3    H117313   5.513   4.062   4.331 -0.0371 -1.5771  0.8919
 5769TIP3    H217314   5.658   4.025   4.352  0.2598  0.2689  2.2875
 5770TIP3   OH217315   4.020   5.012   2.914  0.4947  0.3412 -0.1877
 5770TIP3    H117316   4.107   5.050   2.925  0.8148 -0.7298  1.3449
 5770TIP3    H217317   4.028   4.955   2.837  0.6899  1.4476 -1.0006
 5771TIP3   OH217318   1.851   3.370   1.388  1.1482  0.8677  0.6950
 5771TIP3    H117319   1.805   3.411   1.461 -0.0431  2.2522 -0.7517
 5771TIP3    H217320   1.781   3.332   1.334  1.9639  0.1708  0.0999
 5772TIP3   OH217321   0.885   1.939   2.297  0.1181 -0.4977  0.8880
 5772TIP3    H117322   0.791   1.956   2.296  0.0553 -0.8572  0.3146
 5772TIP3    H217323   0.925   2.026   2.300 -0.2240 -0.3035  0.1026
 5773TIP3   OH217324   2.995   2.700   1.048  0.3617  0.5394 -0.1595
 5773TIP3    H117325   2.940   2.622   1.041  1.6814 -0.3709 -0.6043
 5773TIP3    H217326   2.950   2.755   1.113 -1.0661 -0.1655 -0.5130
 5774TIP3   OH217327   4.616   1.888   1.285  0.6571  0.6869 -0.2372
 5774TIP3    H117328   4.653   1.802   1.267 -0.5616  0.0709  0.1046
 5774TIP3    H217329   4.604   1.928   1.198 -1.8059 -0.8154 -0.6876
 5775TIP3   OH217330   1.875   4.711   2.181 -0.0588 -0.2417  0.1704
 5775TIP3    H117331   1.962   4.716   2.220 -0.3946  0.6949  0.8384
 5775TIP3    H217332   1.884   4.750   2.095  0.6607 -2.1990 -0.6975
 5776TIP3   OH217333   1.483   4.112   0.602 -0.3900 -0.0860  0.3911
 5776TIP3    H117334   1.519   4.187   0.648  1.3061 -2.2150  2.7887
 5776TIP3    H217335   1.543   4.096   0.530 -1.5404  1.6127 -1.0180
 5777TIP3   OH217336   2.788   2.060   1.542 -0.0886 -0.1385 -0.1705
 5777TIP3    H117337   2.784   1.966   1.524  2.2784 -0.5944  1.2726
 5777TIP3    H217338   2.712   2.076   1.598 -1.6797 -0.7033 -2.0289
 5778TIP3   OH217339   0.261   2.261   1.896 -0.3663 -0.1962 -0.5105
 5778TIP3    H117340   0.299   2.228   1.815 -1.2428 -0.3819 -0.8548
 5778TIP3    H217341   0.181   2.209   1.908 -0.5026  0.1646  0.2127
 5779TIP3   OH217342   0.948   4.137   4.051 -0.1688 -0.1786  0.2368
 5779TIP3    H117343   0.964   4.192   3.975  1.7563 -1.2965 -0.2331
 5779TIP3    H217344   0.916   4.054   4.014  1.4392 -0.9766  0.5288
 5780TIP3   OH217345   2.584   3.686   2.645  0.3384 -0.9342  0.4291
 5780TIP3    H117346   2.676   3.660   2.643  1.2400  1.8165  1.4253
 5780TIP3    H217347   2.568   3.712   2.735 -0.4889  1.4412 -0.3228
 5781TIP3   OH217348   1.747   4.333   3.705 -0.1520 -0.1256 -0.9773
 5781TIP3    H117349   1.778   4.387   3.633 -0.5379  2.0677  0.4155
 5781TIP3    H217350   1.681   4.275   3.666 -0.9756  1.6055 -2.2547
 5782TIP3   OH217351   3.105   4.400   2.640 -0.1200 -0.1163 -0.8726
 5782TIP3    H117352   3.009   4.402   2.637 -0.1874  1.9941  0.4731
 5782TIP3    H217353   3.125   4.356   2.722  0.1207 -1.4174 -1.6065
 5783TIP3   OH217354   1.814   2.099   3.145  0.1883  0.2211 -0.1348
 5783TIP3    H117355   1.857   2.172   3.190 -0.6099  0.1854  0.7087
 5783TIP3    H217356   1.832   2.023   3.200 -1.1760  0.2569  0.4076
 5784TIP3   OH217357   0.777   4.803   2.385 -0.2760  0.1208 -0.6065
 5784TIP3    H117358   0.742   4.797   2.474 -1.7454  0.0987 -1.1475
 5784TIP3    H217359   0.852   4.743   2.384  0.9198  1.5192  1.1019
 5785TIP3   OH217360   2.550   1.411   4.728  0.0662 -0.4941  0.0270
 5785TIP3    H117361   2.621   1.368   4.679 -0.3375 -0.3835 -0.6730
 5785TIP3    H217362   2.495   1.339   4.759  1.2119 -0.6801  1.7800
 5786TIP3   OH217363   4.138   3.593   3.596 -0.0640 -0.1967  0.2557
 5786TIP3    H117364   4.086   3.633   3.526  1.0384 -0.3622 -0.6726
 5786TIP3    H217365   4.137   3.658   3.667  0.6012  0.9228 -0.7265
 5787TIP3   OH217366   6.363   2.572   2.158  0.5144 -0.1934  0.8199
 5787TIP3    H117367   6.341   2.640   2.094  0.3739 -0.5874  0.4444
 5787TIP3    H217368   6.319   2.494   2.126 -0.2213 -0.2209  1.8231
 5788TIP3   OH217369   2.640   5.131   4.668 -0.3794  0.2145 -0.0118
 5788TIP3    H117370   2.612   5.192   4.737  1.3535  1.9754 -0.7532
 5788TIP3    H217371   2.719   5.090   4.704  0.0538  0.5156 -0.6121
 5789TIP3   OH217372   1.634   2.206   1.298 -0.0153  0.7145 -0.4334
 5789TIP3    H117373   1.653   2.296   1.324  0.5698  0.5436 -0.2386
 5789TIP3    H217374   1.557   2.182   1.350  0.0175  0.9992 -0.2492
 5790TIP3   OH217375   4.181   2.584   1.965  0.0955 -0.1119 -0.3963
 5790TIP3    H117376   4.108   2.622   2.015 -0.6295 -2.8693  0.8207
 5790TIP3    H217377   4.162   2.608   1.874 -2.7794 -1.2786 -0.2170
 5791TIP3   OH217378   1.877   0.049   2.412 -0.0637 -0.3289 -0.1341
 5791TIP3    H117379   1.904   0.099   2.489 -1.7141  0.3007  0.0678
 5791TIP3    H217380   1.870   0.115   2.342  1.5193 -0.9080 -0.8886
 5792TIP3   OH217381   0.043   4.424   5.020 -0.2776  0.2337 -0.2791
 5792TIP3    H117382   0.090   4.377   4.952  0.5204 -0.8212  0.9382
 5792TIP3    H217383   0.055   4.516   4.999  1.1867 -0.0475 -0.7558
 5793TIP3   OH217384   6.072   3.059   2.447  0.3070 -0.2454  0.1850
 5793TIP3    H117385   6.003   3.013   2.400 -0.7582  0.8695  0.6000
 5793TIP3    H217386   6.066   3.028   2.537  0.0778  0.1661  0.3100
 5794TIP3   OH217387   4.546   1.254   2.162  0.5331  0.1989 -0.4154
 5794TIP3    H117388   4.565   1.210   2.079 -0.2342  1.7236 -1.4420
 5794TIP3    H217389   4.613   1.222   2.222  1.2623 -0.7457 -1.6821
 5795TIP3   OH217390   0.693   1.657   3.840 -0.2075 -0.1023  0.5288
 5795TIP3    H117391   0.751   1.610   3.780  2.1685  1.7775  1.1824
 5795TIP3    H217392   0.672   1.739   3.795 -0.6517  0.1452  1.1693
 5796TIP3   OH217393   5.957   1.222   1.035  0.3581 -0.1329 -0.4558
 5796TIP3    H117394   5.976   1.129   1.046 -1.8942 -0.6615 -0.6061
 5796TIP3    H217395   6.003   1.265   1.107  0.5532 -1.4887  0.2548
 5797TIP3   OH217396   5.828   3.724   2.340  0.2335  0.1707  0.0907
 5797TIP3    H117397   5.810   3.640   2.298  1.8953 -1.1311  1.7809
 5797TIP3    H217398   5.923   3.734   2.336  0.3757  0.4760  2.4832
 5798TIP3   OH217399   1.170   2.082   1.282 -0.0474  0.3155  0.1885
 5798TIP3    H117400   1.083   2.098   1.319 -0.9749  0.3275 -1.8493
 5798TIP3    H217401   1.153   2.067   1.189  1.9200 -1.7179  0.0781
 5799TIP3   OH217402   5.571   0.134   1.203  0.6834 -0.4313  1.0279
 5799TIP3    H117403   5.607   0.048   1.182 -4.0968 -2.5816  0.2981
 5799TIP3    H217404   5.567   0.179   1.118  0.0492 -0.9202  0.7898
 5800TIP3   OH217405   1.119   1.262   2.391 -0.0792 -0.3428  0.0284
 5800TIP3    H117406   1.119   1.357   2.404 -1.8679 -0.3605  0.5348
 5800TIP3    H217407   1.162   1.226   2.468 -0.0958  0.0349  0.2129
 5801TIP3   OH217408   1.968   2.521   0.150 -0.1681  0.0552  0.4227
 5801TIP3    H117409   1.975   2.605   0.105  0.4633  0.5166  1.3580
 5801TIP3    H217410   2.055   2.483   0.145 -0.0080  0.2404  1.4625
 5802TIP3   OH217411   4.105   4.315   2.838 -0.1124  0.3552  0.0994
 5802TIP3    H117412   4.010   4.310   2.848 -0.1987  1.0265 -0.3144
 5802TIP3    H217413   4.120   4.303   2.744  0.1064  1.5158 -0.0318
 5803TIP3   OH217414   0.530   0.371   3.066  0.3734  0.3278 -0.1983
 5803TIP3    H117415   0.538   0.335   2.978 -1.7045  0.3017 -0.4084
 5803TIP3    H217416   0.485   0.303   3.116  3.1016 -0.4414  1.4395
 5804TIP3   OH217417   5.068   4.604  -0.014 -0.7735 -0.4008 -0.2473
 5804TIP3    H117418   5.000   4.671  -0.021 -1.1747 -0.7284  0.5048
 5804TIP3    H217419   5.124   4.636   0.057 -1.8916 -1.6666  1.2584
 5805TIP3   OH217420   1.691   5.960   3.388  0.2739  0.3598 -0.0532
 5805TIP3    H117421   1.687   5.957   3.483  2.5983 -0.2078  0.0970
 5805TIP3    H217422   1.762   6.022   3.369  0.0575  0.2196 -1.4007
 5806TIP3   OH217423   0.872   0.738   3.489  0.2795 -0.3400 -0.8644
 5806TIP3    H117424   0.782   0.705   3.484  0.2044 -0.2029 -0.4325
 5806TIP3    H217425   0.923   0.664   3.522  0.1974 -0.1871 -0.3891
 5807TIP3   OH217426   0.027   1.712   4.757  0.1318  0.0549 -0.0966
 5807TIP3    H117427  -0.067   1.729   4.758  0.2975  1.3116  2.6709
 5807TIP3    H217428   0.050   1.698   4.848  2.5969 -0.5308 -0.7484
 5808TIP3   OH217429   4.109   2.818   3.295  0.2921  0.2466  1.0026
 5808TIP3    H117430   4.180   2.868   3.254 -0.2392  1.4260  1.4795
 5808TIP3    H217431   4.030   2.850   3.252 -0.2897  1.5821  2.9630
 5809TIP3   OH217432   5.714   0.494   1.297  0.0669 -0.3679 -0.2711
 5809TIP3    H117433   5.669   0.568   1.337  1.5989 -0.8732  2.6591
 5809TIP3    H217434   5.664   0.418   1.325 -0.9422 -0.6240 -2.4919
 5810TIP3   OH217435   5.107   3.485   3.418  0.2594  0.2955  0.1631
 5810TIP3    H117436   5.064   3.555   3.368 -1.3219 -0.9713 -0.3437
 5810TIP3    H217437   5.091   3.406   3.366  0.2774 -0.7503  1.6892
 5811TIP3   OH217438   4.035   0.290   0.594 -0.2006  0.2449 -0.1936
 5811TIP3    H117439   4.017   0.383   0.583 -1.2268  0.1390  0.4948
 5811TIP3    H217440   4.051   0.279   0.688 -2.5042 -0.6373  0.1525
 5812TIP3   OH217441   2.367   4.143   0.153 -0.2744 -0.0796 -0.1243
 5812TIP3    H117442   2.408   4.123   0.237 -0.9256 -1.4402 -0.1036
 5812TIP3    H217443   2.427   4.108   0.088  1.0819  2.4667 -0.3697
 5813TIP3   OH217444   2.712   1.266   4.546 -0.3642 -0.2107  0.3190
 5813TIP3    H117445   2.711   1.189   4.489 -0.9406  0.3723 -0.4836
 5813TIP3    H217446   2.693   1.339   4.488 -0.5176  0.4604  1.1886
 5814TIP3   OH217447   5.694   5.791   4.777 -0.3319  0.4271  0.4122
 5814TIP3    H117448   5.703   5.881   4.746  0.6224  0.2800  0.2256
 5814TIP3    H217449   5.713   5.797   4.871 -1.3557  0.5763  0.6273
 5815TIP3   OH217450   3.000   5.255   2.296  0.1160  0.0242  0.0719
 5815TIP3    H117451   3.058   5.323   2.328 -0.3365  0.0652  0.8225
 5815TIP3    H217452   3.026   5.176   2.342 -0.1650 -0.0426  0.1205
 5816TIP3   OH217453   3.301   1.665   3.595  0.3975  0.1421  0.4376
 5816TIP3    H117454   3.326   1.736   3.536  1.4143  1.2239  2.0978
 5816TIP3    H217455   3.253   1.709   3.665 -0.6454 -1.0917  0.5150
 5817TIP3   OH217456   4.954   2.686   2.015  0.1113 -0.6409  0.8742
 5817TIP3    H117457   5.041   2.649   2.030  0.4488 -1.4689 -2.4706
 5817TIP3    H217458   4.948   2.758   2.078  3.9361  0.6059  0.0768
 5818TIP3   OH217459   4.123   0.576   3.639  0.8702  0.3466 -0.2535
 5818TIP3    H117460   4.059   0.588   3.710  1.1652  0.1284  0.0555
 5818TIP3    H217461   4.077   0.524   3.574  0.8521 -0.1471  0.1452
 5819TIP3   OH217462   0.903   0.321   1.551  0.1619 -0.0865  0.4348
 5819TIP3    H117463   0.937   0.398   1.505  1.0288 -0.1677  0.9275
 5819TIP3    H217464   0.970   0.254   1.539  0.0477 -0.3373  1.1802
 5820TIP3   OH217465   5.352   2.817   1.744 -0.1554  0.1682 -0.5177
 5820TIP3    H117466   5.334   2.854   1.657  0.1698 -0.4961 -0.8726
 5820TIP3    H217467   5.398   2.888   1.790  0.8551  0.0707 -1.3448
 5821TIP3   OH217468   0.445   5.953   2.552 -0.3198 -0.1817  0.8082
 5821TIP3    H117469   0.480   5.964   2.640 -0.8024 -0.4612  1.0379
 5821TIP3    H217470   0.350   5.960   2.562 -0.3034  1.8641  0.0108
 5822TIP3   OH217471   3.917   0.333   1.956  0.4064  0.0345 -0.0136
 5822TIP3    H117472   3.934   0.262   2.018 -1.2242  0.5492  1.0996
 5822TIP3    H217473   3.971   0.405   1.988 -0.6925  0.4127  1.1026
 5823TIP3   OH217474   0.970   1.730   2.022  0.8070  0.4666  0.6485
 5823TIP3    H117475   0.993   1.753   1.931 -0.9273  0.8060  0.2663
 5823TIP3    H217476   0.900   1.791   2.045  0.4835 -0.3349  1.8473
 5824TIP3   OH217477   1.210   4.059   3.997 -0.9709  0.0696  0.7952
 5824TIP3    H117478   1.273   4.118   4.038  2.0906 -2.4957  0.2894
 5824TIP3    H217479   1.131   4.066   4.050  0.5364  1.7626  3.0021
 5825TIP3   OH217480   5.679   2.803   1.386  0.6365  0.7493  0.3453
 5825TIP3    H117481   5.606   2.745   1.367  0.9815  1.1771 -2.8209
 5825TIP3    H217482   5.645   2.865   1.451 -1.0245 -0.4849  0.6931
 5826TIP3   OH217483   2.696   4.948   1.143  0.1146 -0.1365  0.2800
 5826TIP3    H117484   2.668   4.923   1.055  0.6833 -0.5645  0.2149
 5826TIP3    H217485   2.647   5.028   1.162  1.6828  1.3111 -1.3541
 5827TIP3   OH217486   0.900   0.635   1.049  0.1123  0.0480  0.2989
 5827TIP3    H117487   0.818   0.601   1.012  0.3928 -0.2640 -0.0499
 5827TIP3    H217488   0.960   0.639   0.974 -0.0850  1.8898  0.2106
 5828TIP3   OH217489   2.752   5.245   0.491 -0.8087 -0.0608  0.0499
 5828TIP3    H117490   2.789   5.230   0.578  2.2097 -0.8379 -1.2137
 5828TIP3    H217491   2.829   5.259   0.435 -2.6295  0.5595 -2.4799
 5829TIP3   OH217492   5.962   0.610   0.696  0.2828 -0.8303  0.3125
 5829TIP3    H117493   5.973   0.528   0.744  1.0770 -0.2275  1.1822
 5829TIP3    H217494   6.011   0.675   0.747 -0.3094  0.1826 -0.3802
 5830TIP3   OH217495   2.550   3.604   1.160 -0.1620  0.2996 -0.4943
 5830TIP3    H117496   2.585   3.551   1.232 -0.6532  0.0262 -0.4529
 5830TIP3    H217497   2.533   3.541   1.090 -4.4040 -0.3440  0.8332
 5831TIP3   OH217498   3.112   3.236   2.706 -0.2364 -0.0162 -0.3358
 5831TIP3    H117499   3.080   3.310   2.757 -1.5390 -0.2310 -0.7941
 5831TIP3    H217500   3.200   3.220   2.739 -0.8503  0.1628  1.4986
 5832TIP3   OH217501   1.194   3.393   2.306 -0.2910  0.1694 -0.1251
 5832TIP3    H117502   1.288   3.397   2.291 -0.2942  1.5535  0.0352
 5832TIP3    H217503   1.158   3.352   2.227  0.5119 -1.3324  0.2522
 5833TIP3   OH217504   3.279   0.756   4.879 -0.0123 -0.4980  0.1792
 5833TIP3    H117505   3.188   0.727   4.881  0.3169 -1.8750 -1.9214
 5833TIP3    H217506   3.330   0.676   4.889  0.9653  0.0761 -0.1044
 5834TIP3   OH217507   3.341   1.869   0.986  0.5344 -0.4330  0.1740
 5834TIP3    H117508   3.290   1.804   1.035  1.1652 -0.4963  0.7721
 5834TIP3    H217509   3.416   1.887   1.043 -0.2538  1.7766  0.6153
 5835TIP3   OH217510   4.996   4.585   3.824 -0.0041 -0.0930 -0.2667
 5835TIP3    H117511   5.069   4.572   3.764  2.4175 -1.3010  2.6762
 5835TIP3    H217512   5.010   4.673   3.861 -0.9575  0.2837 -0.7570
 5836TIP3   OH217513   2.510   0.103   0.339  0.2461 -0.2396 -0.6665
 5836TIP3    H117514   2.479   0.073   0.424  1.0043  1.2055  0.1600
 5836TIP3    H217515   2.437   0.086   0.280 -0.9413  0.2321  0.6032
 5837TIP3   OH217516   5.021   2.966   1.771  1.2539 -0.1663 -0.7907
 5837TIP3    H117517   4.946   2.933   1.722  1.7443  0.9288 -2.3552
 5837TIP3    H217518   5.070   3.018   1.708  2.1984  0.9015  0.7519
 5838TIP3   OH217519   0.594   2.003   0.487 -0.9010  0.3001  0.3037
 5838TIP3    H117520   0.584   1.912   0.459 -0.2339 -0.0553  1.1719
 5838TIP3    H217521   0.505   2.033   0.502 -1.0982 -0.3995  0.5930
 5839TIP3   OH217522   3.679   2.076   1.813  0.0138 -0.7481  0.0655
 5839TIP3    H117523   3.651   2.031   1.733 -0.5597  1.0427 -0.7915
 5839TIP3    H217524   3.602   2.077   1.869 -0.6565  1.0140 -0.8169
 5840TIP3   OH217525   4.553   2.618   0.069 -0.5398  0.0700 -0.1264
 5840TIP3    H117526   4.596   2.533   0.079  0.1756 -0.0169 -2.9162
 5840TIP3    H217527   4.614   2.669   0.016 -0.7109  2.5767  1.9232
 5841TIP3   OH217528   4.629   1.624   2.171 -0.0813  0.3378 -0.3476
 5841TIP3    H117529   4.589   1.555   2.118  2.2130 -1.0019 -0.5046
 5841TIP3    H217530   4.592   1.706   2.137  0.5354 -0.5216 -3.4081
 5842TIP3   OH217531   0.152   5.414   0.397 -0.3424 -0.1027 -0.2553
 5842TIP3    H117532   0.169   5.352   0.327 -2.1137 -1.2399  0.2696
 5842TIP3    H217533   0.198   5.494   0.370 -0.8585 -0.5429 -2.6305
 5843TIP3   OH217534   3.062   0.236   0.599  0.2531  0.2102  0.0380
 5843TIP3    H117535   3.093   0.241   0.689  0.8737  0.6941 -0.1956
 5843TIP3    H217536   2.969   0.216   0.607  0.5350 -0.9518  0.7663
 5844TIP3   OH217537   2.051   1.982   4.226  0.2368  0.6550  0.3188
 5844TIP3    H117538   2.047   1.990   4.322  1.6601 -0.6503  0.5264
 5844TIP3    H217539   2.074   1.890   4.211 -0.4745  0.7182 -1.3105
 5845TIP3   OH217540   1.088   0.583   2.022 -0.3674  0.3523 -0.5948
 5845TIP3    H117541   1.105   0.517   1.955 -0.4207  0.3352 -0.5911
 5845TIP3    H217542   0.994   0.578   2.038 -0.4362  0.7005 -0.8799
 5846TIP3   OH217543   4.258   5.182   4.225 -0.1955 -0.2710  0.3957
 5846TIP3    H117544   4.310   5.261   4.212  0.7119 -0.9471 -0.2281
 5846TIP3    H217545   4.323   5.112   4.235 -0.9749 -0.9247  1.0924
 5847TIP3   OH217546   5.671   4.211   3.166 -0.3671  0.1537  0.1357
 5847TIP3    H117547   5.761   4.235   3.190 -0.7411  2.4707 -0.4791
 5847TIP3    H217548   5.617   4.255   3.231 -1.0995 -0.3116 -0.1460
 5848TIP3   OH217549   1.814   0.550   2.556 -0.0843 -0.0029 -0.1800
 5848TIP3    H117550   1.814   0.602   2.636 -0.2912  1.3788 -1.0404
 5848TIP3    H217551   1.850   0.608   2.489  1.0196 -1.4559 -0.9052
 5849TIP3   OH217552   2.515   1.272   2.608  0.0721  0.4750 -0.7087
 5849TIP3    H117553   2.593   1.327   2.604  0.5651 -0.1780 -0.3114
 5849TIP3    H217554   2.527   1.208   2.537  0.5617 -0.4578  0.1835
 5850TIP3   OH217555   4.251   3.300   1.016  0.0889 -0.2225  0.0527
 5850TIP3    H117556   4.285   3.376   0.969  0.7226 -0.0430  0.7716
 5850TIP3    H217557   4.190   3.259   0.955 -1.1109  1.4853  0.0553
 5851TIP3   OH217558   4.977   5.858   0.073  0.6060  1.0219  0.3228
 5851TIP3    H117559   5.026   5.937   0.097  0.7907  1.3901 -1.1991
 5851TIP3    H217560   4.895   5.891   0.035  0.1406  0.4494  0.8145
 5852TIP3   OH217561   6.021   3.065   3.245 -0.0151  0.0460  0.1807
 5852TIP3    H117562   6.026   3.161   3.245  0.2985  0.0335 -0.3907
 5852TIP3    H217563   6.005   3.042   3.337  0.1635  0.6292  0.3635
 5853TIP3   OH217564   1.632   4.406   4.919  0.2356  0.1055  0.2872
 5853TIP3    H117565   1.556   4.464   4.923 -0.4092 -0.7683  2.2624
 5853TIP3    H217566   1.594   4.319   4.906  1.0762 -0.1146 -0.8786
 5854TIP3   OH217567   0.340   3.188   3.190  0.4132  0.0529 -0.4165
 5854TIP3    H117568   0.277   3.178   3.261 -0.1456 -0.1346 -0.9305
 5854TIP3    H217569   0.327   3.277   3.157  0.7633  0.1855 -0.1972
 5855TIP3   OH217570   1.908   2.031   3.807  0.3223 -0.4000  0.1039
 5855TIP3    H117571   1.916   1.940   3.834 -0.2326 -1.1465 -2.0748
 5855TIP3    H217572   1.907   2.080   3.889 -0.7834 -2.4578  1.4022
 5856TIP3   OH217573   6.178   4.087   4.984 -0.7115  0.0797  0.7418
 5856TIP3    H117574   6.152   4.162   5.038  1.2683  1.0534  0.4313
 5856TIP3    H217575   6.273   4.093   4.979 -0.6658 -1.3303 -0.9522
 5857TIP3   OH217576   1.992   2.241   0.659  0.2647  0.1048 -0.2747
 5857TIP3    H117577   1.932   2.313   0.680  0.7267  0.1320  0.9951
 5857TIP3    H217578   2.077   2.272   0.689  0.1603 -1.7648  2.2747
 5858TIP3   OH217579   4.876   3.696   4.160 -0.4803  0.0042  0.5026
 5858TIP3    H117580   4.899   3.614   4.204 -0.5955  0.8916  2.3275
 5858TIP3    H217581   4.960   3.736   4.140 -0.3853 -1.1252 -1.6550
 5859TIP3   OH217582   5.009   3.060   4.580  0.4226 -0.0050  1.0120
 5859TIP3    H117583   4.937   3.071   4.518  0.0369  0.0473  1.4646
 5859TIP3    H217584   5.086   3.090   4.532  0.2489 -0.6535  0.3040
 5860TIP3   OH217585   5.799   2.990   2.346 -0.0335 -0.2523 -0.3645
 5860TIP3    H117586   5.755   3.068   2.380  0.8781  0.3673 -0.5759
 5860TIP3    H217587   5.802   3.005   2.251 -2.8909 -2.1244 -0.8774
 5861TIP3   OH217588   0.110   2.656   0.074 -0.1582  0.0819  0.0369
 5861TIP3    H117589   0.103   2.685  -0.017  0.9938  1.7293  0.4279
 5861TIP3    H217590   0.203   2.632   0.084 -0.4053 -0.6761  0.6271
 5862TIP3   OH217591   3.017   1.827   3.015  0.1384  0.5129 -0.3864
 5862TIP3    H117592   3.000   1.911   3.057  2.0862  1.4772 -1.4002
 5862TIP3    H217593   3.062   1.775   3.081  0.9795  1.1184 -0.4710
 5863TIP3   OH217594   3.574   2.073   4.504 -0.4075 -0.3055  0.1697
 5863TIP3    H117595   3.586   2.085   4.598 -0.8935 -0.5523  0.2662
 5863TIP3    H217596   3.650   2.022   4.477  0.8366  1.5225  0.0408
 5864TIP3   OH217597   1.392   4.523   4.892 -0.2459  0.4109 -0.2199
 5864TIP3    H117598   1.361   4.513   4.803 -1.1613 -1.2764  0.2447
 5864TIP3    H217599   1.324   4.483   4.946  0.2060  1.5405  1.2616
 5865TIP3   OH217600   4.414   1.941   1.942 -0.0478  0.3695  0.4962
 5865TIP3    H117601   4.351   1.975   1.878 -1.2860 -0.6330  1.1239
 5865TIP3    H217602   4.469   1.881   1.892 -1.1586 -0.5900  0.3823
 5866TIP3   OH217603   2.936   3.754   0.937 -0.1452  0.0268 -0.0507
 5866TIP3    H117604   2.936   3.819   1.007  0.0310  0.9607 -0.9057
 5866TIP3    H217605   3.009   3.696   0.959  0.1245  0.5086  0.3497
 5867TIP3   OH217606   5.478   5.672   3.332 -0.2304  0.1754  0.8886
 5867TIP3    H117607   5.453   5.765   3.333  0.1708  0.3066 -0.0865
 5867TIP3    H217608   5.571   5.673   3.353 -0.3533 -0.0518  1.4324
 5868TIP3   OH217609   5.912   4.439   2.789  0.0486  0.2713 -0.3063
 5868TIP3    H117610   5.948   4.350   2.788 -1.5977 -0.4630  1.0738
 5868TIP3    H217611   5.936   4.474   2.875  0.0514  0.8894 -0.5536
 5869TIP3   OH217612   0.086   3.512   4.361  0.2638 -0.1014 -0.2898
 5869TIP3    H117613   0.061   3.593   4.406  0.0727  0.5923 -1.5896
 5869TIP3    H217614   0.006   3.460   4.360 -0.8957  1.4967 -3.1322
 5870TIP3   OH217615   2.441   4.864   3.846 -0.8053  0.0282 -0.2757
 5870TIP3    H117616   2.512   4.801   3.850 -1.2559 -0.5348 -0.8914
 5870TIP3    H217617   2.368   4.816   3.806 -0.9091  1.1586 -1.5211
 5871TIP3   OH217618   1.596   5.084   1.979  0.0374 -0.0644 -0.0668
 5871TIP3    H117619   1.555   5.036   2.052  0.3665  1.0012  0.8440
 5871TIP3    H217620   1.627   5.015   1.920  0.1859 -0.9704  1.0314
 5872TIP3   OH217621   2.011   5.235   1.923  0.0283 -0.2321  0.4699
 5872TIP3    H117622   1.985   5.326   1.914  0.1511 -0.2004  0.4356
 5872TIP3    H217623   2.051   5.213   1.838  0.7602 -0.0715  0.7691
 5873TIP3   OH217624   3.684   4.285   3.951 -0.4469 -0.2631 -0.1275
 5873TIP3    H117625   3.766   4.294   4.000  0.1536  0.4290 -1.2095
 5873TIP3    H217626   3.692   4.202   3.905 -0.7410 -0.6147  0.4468
 5874TIP3   OH217627   4.029   3.346   2.792 -0.5104 -0.2049  0.1270
 5874TIP3    H117628   3.977   3.311   2.865  0.4890  0.5920  1.2668
 5874TIP3    H217629   4.118   3.314   2.809 -0.6346 -1.8917 -2.0146
 5875TIP3   OH217630   5.862   0.351   1.532  0.3826 -0.4236  0.0381
 5875TIP3    H117631   5.848   0.422   1.469 -0.2823 -2.4074 -2.1954
 5875TIP3    H217632   5.799   0.369   1.603 -1.4302  0.0123 -1.5932
 5876TIP3   OH217633   3.630   5.899   4.222  0.3046 -0.0397  0.0647
 5876TIP3    H117634   3.692   5.959   4.181 -0.2492 -0.0140 -0.7474
 5876TIP3    H217635   3.610   5.939   4.307 -0.1628  1.0020 -0.5195
 5877TIP3   OH217636   3.429   3.492   3.021 -0.4350 -0.1071 -0.4144
 5877TIP3    H117637   3.353   3.550   3.018  0.3513  1.0248  0.5718
 5877TIP3    H217638   3.505   3.551   3.020  0.3888 -0.9646  2.1115
 5878TIP3   OH217639   5.231   1.277   0.265  0.4550 -0.6679 -0.7090
 5878TIP3    H117640   5.234   1.371   0.250  0.5339 -0.7511 -1.2184
 5878TIP3    H217641   5.144   1.261   0.302  0.8106 -0.2622  0.3400
 5879TIP3   OH217642   5.543   2.530   4.751 -0.0620 -0.4959  1.0161
 5879TIP3    H117643   5.448   2.520   4.753 -0.1725  0.5003  1.2969
 5879TIP3    H217644   5.562   2.555   4.660  0.1070 -2.0705  0.5815
 5880TIP3   OH217645   3.272   5.081   2.425  0.2622 -0.4309 -0.1588
 5880TIP3    H117646   3.313   5.158   2.388 -3.1561  1.3834 -0.5710
 5880TIP3    H217647   3.250   5.027   2.349  1.0804 -1.0214  0.0039
 5881TIP3   OH217648   0.287   4.141   5.095  0.0148  0.1354  0.1183
 5881TIP3    H117649   0.312   4.049   5.105 -0.5089  0.0008  0.2215
 5881TIP3    H217650   0.236   4.143   5.014  2.3601  0.8305 -1.4407
 5882TIP3   OH217651   6.013   4.363   4.782 -0.7600 -0.5654 -0.7579
 5882TIP3    H117652   5.919   4.353   4.793 -0.6448 -1.4482 -0.4188
 5882TIP3    H217653   6.035   4.446   4.824 -1.1200 -1.2745  0.8908
 5883TIP3   OH217654   2.814   5.201   5.075  0.4032  0.0734  0.3488
 5883TIP3    H117655   2.903   5.203   5.110  0.3237 -1.3283  0.6611
 5883TIP3    H217656   2.824   5.167   4.986  0.1824 -0.0356  0.3655
 5884TIP3   OH217657   5.842   3.382   0.975 -0.7724  0.1383  0.2859
 5884TIP3    H117658   5.806   3.347   0.893 -1.2552  1.6292 -0.1795
 5884TIP3    H217659   5.924   3.424   0.950 -0.8906  0.5459  0.5568
 5885TIP3   OH217660   2.838   0.643   3.710  0.0765 -0.5461  0.1108
 5885TIP3    H117661   2.895   0.654   3.787  2.1650  0.5742 -1.4809
 5885TIP3    H217662   2.752   0.671   3.740  1.3289  2.2537  1.4604
 5886TIP3   OH217663   2.640   1.594   1.538  0.0501 -0.0324  0.3216
 5886TIP3    H117664   2.676   1.506   1.538  0.3336  0.0433 -1.5937
 5886TIP3    H217665   2.708   1.648   1.579  1.3132 -0.2117 -1.4375
 5887TIP3   OH217666   4.765   2.830   1.097  0.1761  0.7731  0.2033
 5887TIP3    H117667   4.745   2.922   1.109 -1.6388  0.5527 -0.7100
 5887TIP3    H217668   4.721   2.806   1.015 -0.8690 -1.3025  1.2886
 5888TIP3   OH217669   5.121   4.464   2.538  0.3942 -0.4568  0.4940
 5888TIP3    H117670   5.195   4.492   2.484 -0.3404 -0.9551 -0.8087
 5888TIP3    H217671   5.153   4.386   2.584  1.7305  1.1433  2.4768
 5889TIP3   OH217672   0.954   4.491   1.741 -0.3121 -0.0970  0.1950
 5889TIP3    H117673   0.997   4.553   1.681 -2.6701  1.2471 -0.2347
 5889TIP3    H217674   0.947   4.538   1.824 -1.9119  0.1892 -0.0662
 5890TIP3   OH217675   4.693   0.496   5.012  0.0293  0.2592 -0.2240
 5890TIP3    H117676   4.724   0.443   5.086  0.2630 -0.7113 -1.0106
 5890TIP3    H217677   4.673   0.581   5.052 -1.9121 -0.8467  1.3806
 5891TIP3   OH217678   2.480   1.894   4.535  0.9172 -0.2642  0.6985
 5891TIP3    H117679   2.469   1.968   4.595  1.3020  0.8748 -0.5670
 5891TIP3    H217680   2.574   1.877   4.534  0.8352 -0.7488  0.9486
 5892TIP3   OH217681   5.822   3.455   1.248 -0.0804 -0.1639  0.3132
 5892TIP3    H117682   5.728   3.445   1.266 -0.1240 -1.6678 -0.6060
 5892TIP3    H217683   5.830   3.442   1.154  1.0334  0.1018  0.3638
 5893TIP3   OH217684   4.485   5.261   3.847 -0.2903 -0.2244 -0.0254
 5893TIP3    H117685   4.406   5.210   3.869 -0.1548  0.1171  1.3652
 5893TIP3    H217686   4.510   5.302   3.930  1.8184 -0.9469 -0.2589
 5894TIP3   OH217687   5.490   2.229   3.298 -0.5629 -0.2772 -0.5703
 5894TIP3    H117688   5.558   2.265   3.355  1.5443 -1.2726 -2.3215
 5894TIP3    H217689   5.439   2.171   3.355  0.4502 -0.0256  0.6356
 5895TIP3   OH217690   0.545   3.116   4.315  0.5496  0.0919 -0.1012
 5895TIP3    H117691   0.470   3.111   4.374  1.4933 -0.7448  1.0788
 5895TIP3    H217692   0.508   3.105   4.228 -0.8148  0.7969  0.3578
 5896TIP3   OH217693   2.940   3.643   1.869  0.6945 -0.3778  0.4985
 5896TIP3    H117694   2.960   3.725   1.916  1.4067 -0.8152  0.9647
 5896TIP3    H217695   3.003   3.580   1.903  1.3938 -0.6626 -1.2312
 5897TIP3   OH217696   3.154   5.482   1.668 -0.1967  0.0892  0.1154
 5897TIP3    H117697   3.132   5.511   1.757  1.3504  0.5773  0.3824
 5897TIP3    H217698   3.111   5.545   1.611 -1.7104 -0.5805  0.4745
 5898TIP3   OH217699   1.246   1.131   2.601 -0.3044  0.5986 -0.5247
 5898TIP3    H117700   1.236   1.102   2.692 -1.7365 -0.1505 -0.8921
 5898TIP3    H217701   1.326   1.088   2.571  0.0656  0.6809  0.3126
 5899TIP3   OH217702   4.490   5.797   3.669  0.8461 -0.3397 -0.5446
 5899TIP3    H117703   4.552   5.849   3.617 -0.6596  1.4274 -0.7246
 5899TIP3    H217704   4.426   5.862   3.700 -0.8295 -2.0419 -0.2835
 5900TIP3   OH217705   2.076   0.694   4.118 -0.1128  0.5439  0.0448
 5900TIP3    H117706   1.995   0.685   4.069 -0.4987 -0.6983  0.8798
 5900TIP3    H217707   2.145   0.671   4.056 -0.5277 -0.1156 -0.1753
 5901TIP3   OH217708   4.080   1.166   3.409  0.5581 -0.5003  0.2209
 5901TIP3    H117709   4.124   1.150   3.325 -0.7633 -0.9048 -0.4317
 5901TIP3    H217710   3.990   1.188   3.384  0.1191 -0.7294  1.5464
 5902TIP3   OH217711   5.800   3.155   1.144  0.3555 -0.0236 -0.3782
 5902TIP3    H117712   5.744   3.170   1.220 -0.1747 -1.4169 -0.4632
 5902TIP3    H217713   5.810   3.241   1.103  0.0034  0.5977  0.8224
 5903TIP3   OH217714   3.928   1.714   4.200 -0.3399 -0.1437  0.4218
 5903TIP3    H117715   3.960   1.797   4.162 -1.1059  0.1559  0.4212
 5903TIP3    H217716   4.000   1.652   4.185 -0.2595  0.1975 -0.7102
 5904TIP3   OH217717   1.010   5.847   0.250  0.2232  0.3105 -0.1325
 5904TIP3    H117718   1.014   5.780   0.318  0.2559 -0.4844 -0.8938
 5904TIP3    H217719   1.046   5.926   0.291  0.1183 -0.1164  0.7995
 5905TIP3   OH217720   2.038   1.366   2.492 -0.1646 -0.6113 -0.1210
 5905TIP3    H117721   2.117   1.340   2.539  0.3611  0.2045 -0.5328
 5905TIP3    H217722   2.064   1.443   2.442 -1.3799  0.0031  0.1659
 5906TIP3   OH217723   5.675   5.200   3.613  0.0971 -0.2762 -0.3151
 5906TIP3    H117724   5.742   5.252   3.568  0.7543 -0.0273  0.9092
 5906TIP3    H217725   5.710   5.187   3.701 -0.9905 -1.0612  0.0186
 5907TIP3   OH217726   3.507   4.708   3.079  0.0862 -0.1982  0.4790
 5907TIP3    H117727   3.473   4.712   2.990 -0.5453 -1.0636  0.6739
 5907TIP3    H217728   3.457   4.775   3.126  1.5173  1.3844 -0.1440
 5908TIP3   OH217729   2.944   5.043   1.221 -0.1512  0.3861 -0.5233
 5908TIP3    H117730   2.853   5.016   1.209  0.0690  0.2700 -2.1956
 5908TIP3    H217731   2.957   5.113   1.157  0.2893  2.0960  1.3348
 5909TIP3   OH217732   0.238   0.528   0.027 -0.0349 -0.0038  0.2615
 5909TIP3    H117733   0.286   0.570  -0.045  0.4172  1.5394  1.4038
 5909TIP3    H217734   0.296   0.458   0.057  1.8831  2.1524  1.9604
 5910TIP3   OH217735   4.750   2.607   3.016 -0.2162  0.3419  0.0241
 5910TIP3    H117736   4.780   2.584   3.104  0.1677  2.0170  0.3551
 5910TIP3    H217737   4.669   2.557   3.004 -0.3113  0.1534  1.3567
 5911TIP3   OH217738   3.080   0.041   3.909  0.4416  0.1227  0.1063
 5911TIP3    H117739   3.154   0.016   3.965 -1.1363  0.4555  2.4765
 5911TIP3    H217740   3.010  -0.019   3.934 -0.7681  1.2606 -0.4368
 5912TIP3   OH217741   1.921   2.150   4.046 -0.2372  0.0486 -0.6031
 5912TIP3    H117742   1.977   2.097   4.103 -0.0158 -0.3475 -1.1677
 5912TIP3    H217743   1.835   2.149   4.087  0.2374  0.9201  0.4453
 5913TIP3   OH217744   5.320   5.413   2.466 -0.1169  0.1368 -0.1580
 5913TIP3    H117745   5.248   5.351   2.454 -1.2479  1.5744 -1.1044
 5913TIP3    H217746   5.359   5.421   2.379 -0.5059  1.3624 -0.2288
 5914TIP3   OH217747   2.812   1.212   3.341 -0.0471  0.1627  0.4791
 5914TIP3    H117748   2.773   1.131   3.375 -0.2416 -0.3348 -0.8703
 5914TIP3    H217749   2.831   1.193   3.249  2.8639  0.5891  0.8943
 5915TIP3   OH217750   2.426   0.540   1.583 -0.3504 -0.1232 -0.0659
 5915TIP3    H117751   2.451   0.585   1.664 -1.8841 -0.1264  0.4531
 5915TIP3    H217752   2.498   0.557   1.523  0.9730 -0.3723  1.3853
 5916TIP3   OH217753   6.049   2.391   2.499 -0.2842  0.3532  0.0599
 5916TIP3    H117754   5.972   2.341   2.529 -0.1344  0.1208  0.0551
 5916TIP3    H217755   6.012   2.469   2.460 -0.6320 -0.6940 -1.8110
 5917TIP3   OH217756   1.325   2.343   0.031  0.2580 -0.2803 -0.7987
 5917TIP3    H117757   1.320   2.302   0.117 -3.0414 -0.9353 -1.1592
 5917TIP3    H217758   1.339   2.270  -0.030 -0.5036 -0.2664 -1.0132
 5918TIP3   OH217759   2.967   1.569   1.316 -0.4193  0.0557  0.3197
 5918TIP3    H117760   2.903   1.511   1.275 -0.8500 -0.0612  1.1295
 5918TIP3    H217761   3.042   1.513   1.336 -1.0487 -0.3759  1.5997
 5919TIP3   OH217762   3.621   1.475   4.255 -0.0378  0.2578 -0.3205
 5919TIP3    H117763   3.578   1.396   4.287  0.8008  0.1786  0.6634
 5919TIP3    H217764   3.552   1.524   4.210 -0.8545 -0.4414  0.1569
 5920TIP3   OH217765   1.338   1.037   1.252 -0.3899  0.1712  0.5349
 5920TIP3    H117766   1.317   1.126   1.282  0.6176  0.4901  0.3361
 5920TIP3    H217767   1.429   1.043   1.223 -1.3598  0.0059 -2.9620
 5921TIP3   OH217768   0.409   2.718   1.476  0.5715 -0.2430  0.3905
 5921TIP3    H117769   0.386   2.785   1.411  1.0076 -0.8860 -0.4418
 5921TIP3    H217770   0.324   2.684   1.505  0.3141  0.9769  1.1951
 5922TIP3   OH217771   4.175   1.853   0.196  0.0859 -0.0449  0.4134
 5922TIP3    H117772   4.141   1.766   0.217  0.2344 -0.1059  0.4087
 5922TIP3    H217773   4.266   1.851   0.228  0.5020 -0.3295 -0.7367
 5923TIP3   OH217774   0.618   4.476   2.134 -0.2809 -0.0693 -0.3883
 5923TIP3    H117775   0.635   4.570   2.143 -2.3543  0.2448  1.0532
 5923TIP3    H217776   0.549   4.470   2.068 -1.6257 -0.3321  0.9770
 5924TIP3   OH217777   5.286   3.375   5.003 -0.2964  0.2325  0.6770
 5924TIP3    H117778   5.347   3.449   5.000 -1.4304  1.2514  1.4572
 5924TIP3    H217779   5.272   3.351   4.911  0.2420  0.8671  0.4212
 5925TIP3   OH217780   3.160   4.700   3.970  0.5088 -0.1114  0.2818
 5925TIP3    H117781   3.087   4.637   3.972 -0.0977  0.5671  0.0593
 5925TIP3    H217782   3.128   4.775   4.019  0.0505  1.2200 -1.9191
 5926TIP3   OH217783   4.119   5.738   2.742 -0.2926 -0.8824 -0.6367
 5926TIP3    H117784   4.171   5.771   2.816 -2.3795 -0.0435  0.5630
 5926TIP3    H217785   4.138   5.644   2.739 -1.3349 -1.2842  2.0975
 5927TIP3   OH217786   4.796   0.072   5.041 -0.4324  0.3368  0.5254
 5927TIP3    H117787   4.865   0.138   5.031  1.7604 -1.7758  0.8166
 5927TIP3    H217788   4.730   0.097   4.976  0.7898  2.2057 -0.0917
 5928TIP3   OH217789   2.566   5.947   2.338  0.1242  0.4940  0.5559
 5928TIP3    H117790   2.639   5.937   2.277  0.0989 -1.5190  0.7747
 5928TIP3    H217791   2.597   5.908   2.420 -1.8027 -2.4006  0.0810
 5929TIP3   OH217792   5.087   4.644   1.536 -0.1926 -0.0949 -0.4102
 5929TIP3    H117793   5.148   4.665   1.465 -0.1617 -2.5712 -1.1916
 5929TIP3    H217794   5.001   4.660   1.499 -0.1960 -1.8282 -1.2128
 5930TIP3   OH217795   4.443   3.083   1.094  0.0125  0.3599  0.2460
 5930TIP3    H117796   4.539   3.083   1.100  0.0508  0.2727 -0.2796
 5930TIP3    H217797   4.421   3.172   1.067 -0.0013  0.1960 -0.2997
 5931TIP3   OH217798   4.023   2.350   0.948 -0.0616  0.1620 -0.3522
 5931TIP3    H117799   4.110   2.309   0.949 -0.9635 -1.9863  1.8619
 5931TIP3    H217800   3.967   2.285   0.905 -0.7737  0.9928 -0.6860
 5932TIP3   OH217801   3.721   5.004   0.557  0.2204  0.0000 -0.5150
 5932TIP3    H117802   3.668   5.066   0.607 -2.7401 -1.5162 -1.4907
 5932TIP3    H217803   3.718   5.037   0.467  0.5503 -0.3539 -0.6572
 5933TIP3   OH217804   4.926   1.342   1.140  0.0852 -0.3671 -0.9002
 5933TIP3    H117805   4.951   1.430   1.114 -1.0140  0.1043 -0.4421
 5933TIP3    H217806   4.905   1.298   1.058 -0.7771  0.2695 -1.0364
 5934TIP3   OH217807   4.838   3.755   3.715  0.3259  0.5215  0.1407
 5934TIP3    H117808   4.779   3.727   3.785 -0.2333  1.2960 -0.0170
 5934TIP3    H217809   4.859   3.674   3.668  0.4280  0.0476  0.9867
 5935TIP3   OH217810   6.022   2.688   3.150 -0.2688  0.7487  0.1378
 5935TIP3    H117811   6.004   2.606   3.194 -0.3944  0.6768 -0.0457
 5935TIP3    H217812   6.103   2.720   3.190  2.4895 -1.7232 -2.8535
 5936TIP3   OH217813   4.946   4.512   2.340  0.8741  0.1295 -0.0553
 5936TIP3    H117814   5.015   4.545   2.282  1.2689 -1.5197 -0.5892
 5936TIP3    H217815   4.991   4.488   2.420  0.6943  0.3490  0.1108
 5937TIP3   OH217816   0.080   4.673   1.354 -0.2804 -0.1197  0.1255
 5937TIP3    H117817   0.074   4.580   1.375  1.5946 -0.5518 -1.0920
 5937TIP3    H217818   0.140   4.709   1.420  0.3453 -0.1356 -0.4253
 5938TIP3   OH217819   3.275   5.512   2.649  0.7499  0.4113  0.0419
 5938TIP3    H117820   3.315   5.512   2.562  0.2880  1.0552 -0.1764
 5938TIP3    H217821   3.315   5.587   2.693  1.4234 -0.2602  0.6008
 5939TIP3   OH217822   1.162   1.662   4.470  0.0383  0.1703 -0.1765
 5939TIP3    H117823   1.217   1.610   4.529  0.4717  1.7723  0.9013
 5939TIP3    H217824   1.115   1.722   4.527  0.4693  1.7972 -1.4436
 5940TIP3   OH217825   6.209   2.429   0.276  0.4594  0.4250  0.1474
 5940TIP3    H117826   6.249   2.449   0.361 -0.1443  1.0397  0.2985
 5940TIP3    H217827   6.204   2.514   0.231  1.9913 -0.0800 -1.0623
 5941TIP3   OH217828   2.202   2.479   1.516  0.4872 -0.2757 -0.1185
 5941TIP3    H117829   2.245   2.393   1.519 -0.3662 -0.6943  1.6768
 5941TIP3    H217830   2.114   2.463   1.551  0.1381  1.2484 -0.2228
 5942TIP3   OH217831   5.319   4.113   1.260  0.1709 -0.2460 -0.0730
 5942TIP3    H117832   5.246   4.062   1.298  0.3406 -0.8886 -0.5840
 5942TIP3    H217833   5.397   4.073   1.297  0.2553  1.2907  1.5139
 5943TIP3   OH217834   0.990   2.227   4.187  0.1404  0.4327  0.0079
 5943TIP3    H117835   1.009   2.210   4.095  2.9909 -1.7706  0.8436
 5943TIP3    H217836   1.062   2.283   4.216  0.0959 -0.0821  1.1829
 5944TIP3   OH217837   4.799   4.817   4.213 -0.2273 -0.0139  0.0823
 5944TIP3    H117838   4.796   4.745   4.276 -0.5062 -0.7554 -0.7544
 5944TIP3    H217839   4.733   4.794   4.147 -0.1991  0.9253 -0.2937
 5945TIP3   OH217840   0.370   1.945   3.408  0.4020 -0.4631  0.4256
 5945TIP3    H117841   0.440   1.884   3.430 -0.0876 -0.9309  0.7135
 5945TIP3    H217842   0.332   1.970   3.492  0.8920  0.6003  0.3431
 5946TIP3   OH217843   6.148   4.268   3.534  0.3120 -0.5256  0.2629
 5946TIP3    H117844   6.222   4.240   3.481 -0.2551 -0.7763 -0.4125
 5946TIP3    H217845   6.186   4.326   3.600  0.9341  0.3587 -0.8496
 5947TIP3   OH217846   6.161   2.154   3.719 -0.1228 -0.1084  0.2668
 5947TIP3    H117847   6.222   2.228   3.723  2.1125 -1.7556  5.0890
 5947TIP3    H217848   6.083   2.185   3.763 -0.2941  0.1663 -0.2258
 5948TIP3   OH217849   2.117   0.729   5.006  0.6278  0.2940  0.2327
 5948TIP3    H117850   2.200   0.725   5.054  0.3608  1.0639  0.7732
 5948TIP3    H217851   2.143   0.720   4.914  1.3648  1.0701  0.3525
 5949TIP3   OH217852   3.983   0.335   1.351 -0.1143  0.1764  0.3976
 5949TIP3    H117853   3.912   0.270   1.357 -0.4138  0.4639 -0.0077
 5949TIP3    H217854   3.938   0.418   1.335  0.1469  0.7684  2.4248
 5950TIP3   OH217855   5.759   4.331   2.336  0.2113 -0.0704  0.1492
 5950TIP3    H117856   5.667   4.349   2.320 -0.1550 -1.9768 -0.1447
 5950TIP3    H217857   5.803   4.358   2.255 -0.3724 -0.8743 -0.4636
 5951TIP3   OH217858   1.870   5.433   1.429  0.2252  0.0341  0.0173
 5951TIP3    H117859   1.951   5.420   1.479 -1.0772  1.2869  2.6230
 5951TIP3    H217860   1.835   5.516   1.462 -1.2541  0.4267 -2.3460
 5952TIP3   OH217861   4.984   1.605   2.826 -0.2474 -0.0837 -0.1464
 5952TIP3    H117862   4.935   1.677   2.785  2.1054  1.0679 -1.1026
 5952TIP3    H217863   4.967   1.530   2.768 -0.5273  0.3920 -0.6981
 5953TIP3   OH217864   1.947   3.785   4.615  0.4394  0.2025 -0.4792
 5953TIP3    H117865   2.042   3.795   4.615  0.5410 -0.6721 -0.9135
 5953TIP3    H217866   1.932   3.704   4.665  0.0788 -0.8196 -2.1525
 5954TIP3   OH217867   2.321   5.712   3.578  0.0754 -0.6753  0.0581
 5954TIP3    H117868   2.301   5.651   3.649  1.0579 -0.5994  0.4273
 5954TIP3    H217869   2.240   5.761   3.563  0.5683  1.4517  3.2455
 5955TIP3   OH217870   3.705   3.302   4.309 -0.4737  0.2954  0.1890
 5955TIP3    H117871   3.800   3.302   4.293 -0.7095  1.9242 -1.6974
 5955TIP3    H217872   3.688   3.221   4.357  1.7213 -0.5680 -0.3672
 5956TIP3   OH217873   4.764   1.862   1.903  0.0419  0.1717  0.2813
 5956TIP3    H117874   4.725   1.846   1.989  0.6866  0.7293  0.6868
 5956TIP3    H217875   4.709   1.812   1.842  0.3131 -1.2443  1.1472
 5957TIP3   OH217876   6.280   4.144   3.222  0.1128  0.2717  0.6015
 5957TIP3    H117877   6.327   4.078   3.171 -0.1298 -0.0682  0.8098
 5957TIP3    H217878   6.309   4.129   3.313  0.0415  0.4411  0.6528
 5958TIP3   OH217879   5.951   5.977   3.786 -0.4145  0.4447 -0.0075
 5958TIP3    H117880   5.868   5.950   3.824 -0.2877 -1.0176 -0.7095
 5958TIP3    H217881   5.992   6.031   3.854 -1.2065 -0.1946  1.0121
 5959TIP3   OH217882   2.735   4.260   3.575  0.1989 -0.2548  0.1096
 5959TIP3    H117883   2.762   4.203   3.503  1.0239 -0.9993  0.9782
 5959TIP3    H217884   2.774   4.345   3.555  1.5230 -0.7890  0.3182
 5960TIP3   OH217885   2.020   1.380   5.110  0.0311  0.3287 -0.4881
 5960TIP3    H117886   2.075   1.392   5.188 -0.1196  0.1637 -0.3549
 5960TIP3    H217887   2.045   1.452   5.052  1.0924 -0.2999 -0.8437
 5961TIP3   OH217888   1.830   3.956   1.923 -0.5742 -0.3382  0.3755
 5961TIP3    H117889   1.793   3.975   1.836 -0.8932 -0.7566  0.4157
 5961TIP3    H217890   1.810   3.863   1.937  0.5442 -0.5857  0.3775
 5962TIP3   OH217891   2.047   0.880   4.332 -0.4267  0.9608  0.3592
 5962TIP3    H117892   2.059   0.835   4.248 -0.2950  0.9012  0.4094
 5962TIP3    H217893   2.118   0.846   4.387 -0.1313  1.4688  0.2954
 5963TIP3   OH217894   5.833   4.824   2.811 -0.9568  0.0017  0.4615
 5963TIP3    H117895   5.878   4.785   2.886 -0.6223  0.7510  0.6652
 5963TIP3    H217896   5.898   4.825   2.741 -0.7274  0.8343  0.6738
 5964TIP3   OH217897   2.127   2.118   4.479 -0.3024  0.0893 -0.3437
 5964TIP3    H117898   2.128   2.107   4.574  1.8297 -1.1890 -0.4594
 5964TIP3    H217899   2.034   2.115   4.456 -0.7749 -1.4580  1.4963
 5965TIP3   OH217900   4.405   1.720   0.980  0.4733 -0.0516 -0.5909
 5965TIP3    H117901   4.491   1.715   0.939  1.1909  0.8918  0.6867
 5965TIP3    H217902   4.350   1.766   0.917  1.1037 -0.0516 -1.1430
 5966TIP3   OH217903   4.200   5.187   0.048 -0.1152  0.3224  0.1535
 5966TIP3    H117904   4.158   5.117   0.097 -0.9579  0.5457 -0.2422
 5966TIP3    H217905   4.205   5.260   0.111  1.1692 -0.2115  0.7066
 5967TIP3   OH217906   2.887   2.256   2.629 -0.0236  0.2776  0.2884
 5967TIP3    H117907   2.871   2.340   2.586 -1.0799  0.5057  1.0772
 5967TIP3    H217908   2.881   2.276   2.723 -0.9746 -0.7829  0.4810
 5968TIP3   OH217909   0.180   5.265   0.159  0.3987 -0.2666 -0.2268
 5968TIP3    H117910   0.198   5.173   0.139  0.9232 -0.3929  0.7487
 5968TIP3    H217911   0.232   5.314   0.096 -1.1326 -0.6086 -1.8277
 5969TIP3   OH217912   3.543   3.214   0.184  0.2185 -0.2166 -0.5225
 5969TIP3    H117913   3.598   3.292   0.179  1.2372 -0.9154 -0.3707
 5969TIP3    H217914   3.593   3.153   0.238 -0.7899 -0.8033 -0.2285
 5970TIP3   OH217915   4.506   3.581   1.138  0.5189  0.4444  0.5351
 5970TIP3    H117916   4.446   3.637   1.089  1.7884  1.0492 -0.3919
 5970TIP3    H217917   4.504   3.616   1.228  1.2942  2.0286 -0.0247
 5971TIP3   OH217918   5.213   1.516   5.140  0.1787  0.3050 -0.1693
 5971TIP3    H117919   5.192   1.528   5.232 -0.6510  0.2051 -0.3341
 5971TIP3    H217920   5.307   1.531   5.134  0.2281  0.3570  0.6820
 5972TIP3   OH217921   5.266   2.643   0.538 -0.1531 -0.2482 -0.1928
 5972TIP3    H117922   5.334   2.576   0.547  0.5123  0.3153 -0.9824
 5972TIP3    H217923   5.312   2.722   0.511 -0.6986  0.9986  2.2019
 5973TIP3   OH217924   4.369   1.668   0.396  0.1018  0.0363 -0.0886
 5973TIP3    H117925   4.414   1.600   0.446 -0.7767 -0.4807  0.0037
 5973TIP3    H217926   4.358   1.740   0.458  0.4717  0.0323 -0.0135
 5974TIP3   OH217927   0.103   5.710   0.799  0.7396 -0.2978  0.0781
 5974TIP3    H117928   0.095   5.627   0.753  1.4582 -0.9378  1.0751
 5974TIP3    H217929   0.165   5.761   0.746  1.9846 -1.2297  0.5846
 5975TIP3   OH217930   1.642   5.565   3.592 -0.3160  0.2085  0.6490
 5975TIP3    H117931   1.692   5.543   3.513  0.3164  1.9555  0.5367
 5975TIP3    H217932   1.628   5.659   3.587 -2.6173 -0.0402  1.2943
 5976TIP3   OH217933   4.788   4.002   2.310  0.5824  0.1405 -0.0887
 5976TIP3    H117934   4.808   4.005   2.216  2.0858 -0.8941  0.1700
 5976TIP3    H217935   4.852   4.061   2.350  0.1254  0.3612  0.3355
 5977TIP3   OH217936   1.632   1.249   2.666  0.3830  0.4454 -0.3907
 5977TIP3    H117937   1.723   1.260   2.692  0.3408  1.2548 -0.5618
 5977TIP3    H217938   1.630   1.164   2.621  0.8325 -0.0685  0.5313
 5978TIP3   OH217939   2.696   4.517   4.480  0.4893  0.3921 -0.0456
 5978TIP3    H117940   2.672   4.607   4.499 -0.3657 -0.1035  1.4408
 5978TIP3    H217941   2.708   4.477   4.566  2.0387 -0.6261 -0.6880
 5979TIP3   OH217942   1.909   5.241   4.867  0.6203 -0.0825  0.4605
 5979TIP3    H117943   1.937   5.316   4.814  2.5908 -0.6979  0.5560
 5979TIP3    H217944   1.815   5.255   4.879  0.9844  2.6151  0.8788
 5980TIP3   OH217945   2.347   1.133   5.046  0.8468  0.0619 -0.0547
 5980TIP3    H117946   2.268   1.104   5.001  1.0894 -0.7564  0.0403
 5980TIP3    H217947   2.323   1.133   5.139 -0.2084  3.3943 -0.1878
 5981TIP3   OH217948   5.624   3.386   4.963  0.1356 -0.3988  0.1737
 5981TIP3    H117949   5.600   3.307   5.011 -1.4973 -0.4176 -0.5973
 5981TIP3    H217950   5.655   3.446   5.031  0.4754 -1.3577  0.8897
 5982TIP3   OH217951   5.838   5.419   1.764  0.1869 -0.2851 -0.1714
 5982TIP3    H117952   5.762   5.420   1.822 -0.3863  0.8741 -0.9005
 5982TIP3    H217953   5.872   5.508   1.769  0.6884 -0.4340 -0.8948
 5983TIP3   OH217954   1.372   0.311   3.786  0.0111 -0.8105  0.3292
 5983TIP3    H117955   1.329   0.387   3.823 -0.2227 -0.7735 -0.0186
 5983TIP3    H217956   1.463   0.339   3.773 -0.1749 -0.4544 -0.1989
 5984TIP3   OH217957   3.832   3.023   3.775  0.0722  0.7340 -0.0186
 5984TIP3    H117958   3.894   3.011   3.703 -0.3132  1.2662 -0.4520
 5984TIP3    H217959   3.882   3.004   3.854  0.0039 -1.7416 -0.4976
 5985TIP3   OH217960   4.694   2.003   3.597  0.4512 -0.1664 -0.1079
 5985TIP3    H117961   4.748   2.050   3.661  1.5598  1.3278 -2.0134
 5985TIP3    H217962   4.692   1.913   3.629  0.4679  0.6119  2.2936
 5986TIP3   OH217963   5.898   4.062   1.212 -0.2459 -0.5887 -0.6939
 5986TIP3    H117964   5.887   4.009   1.132 -1.4340 -1.5623  0.0827
 5986TIP3    H217965   5.903   3.998   1.283  0.8298  0.2626  0.0429
 5987TIP3   OH217966   0.349   4.144   0.678 -0.0142  0.3338 -0.4770
 5987TIP3    H117967   0.444   4.150   0.679 -0.0796  1.7315 -0.4585
 5987TIP3    H217968   0.319   4.215   0.734 -1.0704 -0.4599  0.0145
 5988TIP3   OH217969   5.125   5.230   2.493  0.5557 -0.1045  0.3948
 5988TIP3    H117970   5.052   5.208   2.435  0.4939  0.8328  0.0999
 5988TIP3    H217971   5.153   5.146   2.529  0.0962 -0.6148 -0.3991
 5989TIP3   OH217972   5.976   2.476   3.310 -0.2074  0.0177  0.4447
 5989TIP3    H117973   5.930   2.395   3.288 -0.1586  0.1047  0.0147
 5989TIP3    H217974   6.061   2.448   3.341  0.1585 -0.0649 -0.5881
 5990TIP3   OH217975   4.979   0.618   4.145 -0.3612 -1.0925 -0.0235
 5990TIP3    H117976   5.003   0.531   4.114  0.4556 -0.5018 -1.0951
 5990TIP3    H217977   5.062   0.661   4.166 -0.8460 -1.3359  2.7472
 5991TIP3   OH217978   4.229   1.205   1.031 -0.3479 -0.0446  0.4530
 5991TIP3    H117979   4.311   1.155   1.027 -0.3884 -0.0653 -0.5364
 5991TIP3    H217980   4.256   1.296   1.033 -0.2553 -0.0570  2.9677
 5992TIP3   OH217981  -0.003   1.169   1.635 -0.2756  0.1806 -0.4037
 5992TIP3    H117982   0.044   1.247   1.607  1.0972 -0.8312 -1.0569
 5992TIP3    H217983   0.061   1.119   1.686 -0.8925 -0.8376 -0.5890
 5993TIP3   OH217984   1.298   2.501   1.767  0.4572 -0.2014  0.0293
 5993TIP3    H117985   1.216   2.483   1.813  1.0347  0.8266  1.5592
 5993TIP3    H217986   1.344   2.417   1.767 -0.1013 -0.5123  0.2140
 5994TIP3   OH217987   3.490   5.120   5.046 -0.5467 -0.2700 -0.1915
 5994TIP3    H117988   3.447   5.125   4.961 -2.0267  0.2437  0.5598
 5994TIP3    H217989   3.544   5.040   5.041 -0.2913 -0.0298 -1.7282
 5995TIP3   OH217990   1.255   0.436   4.492 -0.2845 -0.2032  0.1001
 5995TIP3    H117991   1.255   0.351   4.537 -1.1773  0.2215  0.9299
 5995TIP3    H217992   1.182   0.429   4.429  0.5005 -0.5306 -0.7940
 5996TIP3   OH217993   2.478   2.285   2.568 -0.2331  0.3980 -0.2535
 5996TIP3    H117994   2.385   2.261   2.565  0.2896 -2.0156  0.4562
 5996TIP3    H217995   2.524   2.202   2.554  1.8230  1.2795  0.8987
 5997TIP3   OH217996   5.147   0.137   4.830 -0.4142  0.2234 -0.0120
 5997TIP3    H117997   5.210   0.074   4.863  1.0267  1.3806 -0.4367
 5997TIP3    H217998   5.190   0.222   4.839 -1.5217  0.9623 -1.2003
 5998TIP3   OH217999   2.980   2.155   5.013 -0.2511 -0.0251  0.1400
 5998TIP3    H118000   3.007   2.200   4.933 -0.8848 -0.8615 -0.5565
 5998TIP3    H218001   2.889   2.130   4.998 -0.2781 -0.4916  0.9863
 5999TIP3   OH218002   2.562   4.694   3.565 -0.2087  0.1637  0.1575
 5999TIP3    H118003   2.552   4.759   3.496 -0.1461 -0.2450 -0.2484
 5999TIP3    H218004   2.552   4.610   3.520  0.0751 -0.1178  0.6041
 6000TIP3   OH218005   5.691   5.674   3.655 -0.2195  0.1039 -0.2358
 6000TIP3    H118006   5.654   5.657   3.741 -1.6133 -0.5740 -0.9372
 6000TIP3    H218007   5.671   5.595   3.604 -0.3669  0.9179 -1.4818
 6001TIP3   OH218008   0.937   4.395   3.865  0.1664 -0.6630 -0.7686
 6001TIP3    H118009   0.909   4.486   3.855  1.2836 -0.2434 -0.2663
 6001TIP3    H218010   0.875   4.345   3.812 -0.2576  0.4203 -1.3266
 6002TIP3   OH218011   1.767   1.621   5.110  0.1283  0.1437  0.6278
 6002TIP3    H118012   1.823   1.583   5.042  1.0209 -0.8839  1.8854
 6002TIP3    H218013   1.780   1.715   5.102 -1.6895  0.2565 -2.1973
 6003TIP3   OH218014   2.327   1.387   3.172  0.4257  0.0226  0.1103
 6003TIP3    H118015   2.378   1.443   3.113 -2.4653  2.3395 -0.4217
 6003TIP3    H218016   2.376   1.386   3.254  1.7514  1.3605 -0.6260
 6004TIP3   OH218017   5.595   1.041   3.752 -1.1589  0.0278 -0.0726
 6004TIP3    H118018   5.628   0.989   3.826 -0.8731  1.4766  0.8700
 6004TIP3    H218019   5.504   1.014   3.743 -1.1307 -0.3494  0.6674
 6005TIP3   OH218020   4.898   3.995   0.833  0.0955  0.3574  0.4088
 6005TIP3    H118021   4.916   3.909   0.794  1.5853  1.0812 -0.6231
 6005TIP3    H218022   4.848   3.975   0.912 -0.0798 -1.4160 -0.0857
 6006TIP3   OH218023   2.719   2.242   1.992 -0.2806  0.1624  0.2937
 6006TIP3    H118024   2.688   2.198   2.071  2.0197 -1.5488  0.3415
 6006TIP3    H218025   2.756   2.324   2.023 -2.0661  0.9199  0.5553
 6007TIP3   OH218026   4.611   2.922   3.668  0.1736  0.0546 -0.3075
 6007TIP3    H118027   4.564   2.849   3.707 -1.0885  0.0949 -1.6739
 6007TIP3    H218028   4.632   2.980   3.741 -2.6377  0.4430  0.2912
 6008TIP3   OH218029   2.154   4.505   2.606 -0.2456 -0.1702 -0.4367
 6008TIP3    H118030   2.125   4.594   2.628 -2.0110 -0.7550 -0.1853
 6008TIP3    H218031   2.082   4.469   2.555  0.4392 -1.4633 -0.5267
 6009TIP3   OH218032   0.353   3.666   1.368  1.1071  0.6936 -0.2658
 6009TIP3    H118033   0.388   3.730   1.430  0.8102  1.3326 -0.7518
 6009TIP3    H218034   0.279   3.710   1.326  1.6129  0.4620 -1.4406
 6010TIP3   OH218035   4.368   3.455   0.799 -0.1602  0.0109 -0.4293
 6010TIP3    H118036   4.401   3.396   0.732 -0.3615 -1.1561  0.4630
 6010TIP3    H218037   4.272   3.452   0.790 -0.1825 -0.0250 -0.2077
 6011TIP3   OH218038   1.248   0.569   3.085 -0.3380  0.1285  0.6261
 6011TIP3    H118039   1.158   0.599   3.098 -0.5006 -0.3169  0.5514
 6011TIP3    H218040   1.301   0.649   3.086 -0.6482  0.3350  1.4215
 6012TIP3   OH218041   5.036   2.345   2.599  0.5011  0.1462  0.2104
 6012TIP3    H118042   5.123   2.340   2.560  0.0404 -0.5970 -0.7692
 6012TIP3    H218043   4.995   2.261   2.578  0.0791 -0.1281  1.9774
 6013TIP3   OH218044   4.109   5.669   0.635 -0.0630 -0.6441  0.1090
 6013TIP3    H118045   4.076   5.680   0.546 -0.4496 -1.7896  0.0864
 6013TIP3    H218046   4.159   5.748   0.652 -1.1243  0.2214 -0.6192
 6014TIP3   OH218047   4.132   2.245   1.595  0.4519  0.0319 -0.1474
 6014TIP3    H118048   4.075   2.254   1.672  1.4029 -0.0171  0.5761
 6014TIP3    H218049   4.213   2.289   1.620 -0.0265  2.1503 -2.0034
 6015TIP3   OH218050   4.111   5.518   1.461 -0.0377 -0.3410 -0.2772
 6015TIP3    H118051   4.121   5.612   1.449  0.6154 -0.1329  1.5163
 6015TIP3    H218052   4.129   5.504   1.554 -0.9038 -2.1411 -0.3376
 6016TIP3   OH218053   0.932   4.252   1.927  0.5434  0.1681  0.1134
 6016TIP3    H118054   0.868   4.248   1.999  0.5834  0.7454  0.1836
 6016TIP3    H218055   0.887   4.301   1.858  0.6161 -0.1268 -0.1458
 6017TIP3   OH218056   4.501   3.098   2.430  0.7108 -0.0312 -0.4779
 6017TIP3    H118057   4.436   3.158   2.394  0.9678 -0.4166 -1.6116
 6017TIP3    H218058   4.532   3.048   2.355  3.2402  0.9729 -0.1856
 6018TIP3   OH218059   3.237   0.405   0.213  0.5807 -0.3955  0.0737
 6018TIP3    H118060   3.301   0.363   0.272  1.2691  1.5998  0.8468
 6018TIP3    H218061   3.291   0.448   0.147 -0.0876 -0.5167 -0.5534
 6019TIP3   OH218062   5.972   0.032   4.753 -0.3270  0.5425 -0.3784
 6019TIP3    H118063   5.965   0.034   4.657  1.2992  1.3503 -0.5078
 6019TIP3    H218064   6.057  -0.009   4.770  0.5533  2.6294  0.6222
 6020TIP3   OH218065   1.387   5.274   4.203 -0.4265 -0.2890  0.7953
 6020TIP3    H118066   1.364   5.305   4.115  0.4443 -0.6013  0.4483
 6020TIP3    H218067   1.455   5.334   4.232  0.4789 -1.1745  0.5688
 6021TIP3   OH218068   3.567   3.131   4.010  0.0185 -0.1755  0.1297
 6021TIP3    H118069   3.629   3.199   3.983  0.1197 -0.6003 -0.7657
 6021TIP3    H218070   3.484   3.178   4.019  0.7096  0.6888  2.8159
 6022TIP3   OH218071   2.925   2.513   3.784  0.5296  0.4716  0.3566
 6022TIP3    H118072   2.991   2.572   3.819  0.8131  0.8863 -0.8341
 6022TIP3    H218073   2.948   2.427   3.820  2.2555  0.4381 -0.6718
 6023TIP3   OH218074   5.023   5.035   4.870  0.2837 -0.4829 -0.6251
 6023TIP3    H118075   5.045   4.970   4.803  0.2614 -0.1655 -0.9430
 6023TIP3    H218076   4.943   5.076   4.838 -0.9728 -1.8101  0.6595
 6024TIP3   OH218077   2.777   3.659   4.367 -0.5431  0.1830  0.0634
 6024TIP3    H118078   2.748   3.698   4.450 -0.6958  0.8369 -0.2875
 6024TIP3    H218079   2.841   3.593   4.392 -0.3535  0.5961  0.6827
 6025TIP3   OH218080   0.270   3.425   2.806  0.0177 -0.0888  0.2316
 6025TIP3    H118081   0.336   3.463   2.747 -1.9836 -0.7059 -2.6303
 6025TIP3    H218082   0.291   3.332   2.809  0.0304 -0.0815  0.3430
 6026TIP3   OH218083   2.349   1.120   3.745 -0.2658  0.7568 -0.1024
 6026TIP3    H118084   2.291   1.108   3.670  1.3199  0.3490 -1.3098
 6026TIP3    H218085   2.377   1.032   3.769  0.8139  1.0260 -0.3345
 6027TIP3   OH218086   4.246   4.290   4.053  0.1891 -0.0286  0.0913
 6027TIP3    H118087   4.263   4.204   4.093  0.2260 -0.2590 -0.4134
 6027TIP3    H218088   4.187   4.271   3.980  1.6233  0.1270 -1.1500
 6028TIP3   OH218089   3.000   2.036   4.303  0.4146 -0.0435  0.0683
 6028TIP3    H118090   3.035   1.947   4.305 -1.4452 -0.8204  2.0820
 6028TIP3    H218091   3.074   2.091   4.330  1.1599 -1.1610  0.3725
 6029TIP3   OH218092   0.121   1.621   5.017 -0.3080  0.0639  0.6279
 6029TIP3    H118093   0.202   1.592   4.976 -1.3725 -1.2471 -0.6493
 6029TIP3    H218094   0.114   1.567   5.096 -0.3975 -0.4860  0.2478
 6030TIP3   OH218095   1.782   0.615   2.880 -0.2214  0.0848 -0.0597
 6030TIP3    H118096   1.692   0.617   2.846 -0.3479  2.6034  0.2463
 6030TIP3    H218097   1.772   0.600   2.974 -0.3379  0.4039 -0.0193
 6031TIP3   OH218098   4.848   2.190   5.010  0.1495  0.6271  0.0544
 6031TIP3    H118099   4.840   2.124   5.079  1.4626  0.1271 -0.2342
 6031TIP3    H218100   4.803   2.266   5.045  1.4026  0.6433  1.8227
 6032TIP3   OH218101   0.961   3.219   4.651  0.1550  0.4130  0.0115
 6032TIP3    H118102   0.895   3.214   4.582  0.5371  0.4597 -0.3655
 6032TIP3    H218103   1.020   3.146   4.633 -1.5420 -1.6708  2.2328
 6033TIP3   OH218104   1.390   1.143   3.615 -0.3051 -0.3684 -0.1553
 6033TIP3    H118105   1.328   1.194   3.667 -0.3204  0.3156 -0.8230
 6033TIP3    H218106   1.460   1.119   3.676 -0.0251  0.9192  0.0544
 6034TIP3   OH218107   1.156   2.338   0.662  0.1058  0.3055  0.4335
 6034TIP3    H118108   1.252   2.337   0.653 -0.0760  1.7915 -3.8412
 6034TIP3    H218109   1.130   2.247   0.645  0.6656 -0.0096  1.1601
 6035TIP3   OH218110   2.477   3.706   0.817 -0.3598 -0.1856 -0.2900
 6035TIP3    H118111   2.481   3.780   0.877  2.9358 -1.2089  0.9806
 6035TIP3    H218112   2.401   3.656   0.845 -0.8004  1.0732  0.8710
 6036TIP3   OH218113   4.161   4.024   2.460 -0.3973 -0.1622  0.4132
 6036TIP3    H118114   4.131   4.064   2.542 -1.4191 -0.2114  0.0678
 6036TIP3    H218115   4.116   4.073   2.391 -1.7386 -1.9075 -0.0292
 6037TIP3   OH218116   0.874   3.969   2.815 -0.1742  0.0231 -0.4630
 6037TIP3    H118117   0.803   4.009   2.865 -0.5932 -0.5665 -0.5866
 6037TIP3    H218118   0.852   3.987   2.724  0.2173  0.4689 -0.4763
 6038TIP3   OH218119   1.505   1.818   4.935  0.1018 -0.1448 -0.2338
 6038TIP3    H118120   1.465   1.731   4.924 -0.7034  0.1887 -0.0172
 6038TIP3    H218121   1.484   1.843   5.025 -0.1209  0.4974 -0.4622
 6039TIP3   OH218122   0.076   3.668   0.816 -0.5371 -0.6202 -0.0348
 6039TIP3    H118123   0.112   3.753   0.792  1.0551 -1.1711  0.3179
 6039TIP3    H218124   0.031   3.684   0.899  0.2091 -0.2207  0.3037
 6040TIP3   OH218125   5.450   5.407   2.216 -0.4434 -0.0448  0.2611
 6040TIP3    H118126   5.532   5.447   2.186  0.0969 -0.7192  0.8004
 6040TIP3    H218127   5.406   5.379   2.137  0.1774 -0.3011 -0.0013
 6041TIP3   OH218128   0.320   4.535   0.584  0.8223 -0.9113 -0.2175
 6041TIP3    H118129   0.407   4.498   0.597  0.6551 -1.6111 -1.0396
 6041TIP3    H218130   0.325   4.580   0.500  0.7369  0.1166  0.3113
 6042TIP3   OH218131   2.156   1.429   1.412 -0.4234  1.0204 -0.4067
 6042TIP3    H118132   2.120   1.341   1.401  0.5989  0.4468  0.6149
 6042TIP3    H218133   2.106   1.467   1.484  1.4480 -0.1059  1.6303
 6043TIP3   OH218134   3.639   4.192   2.635 -0.6909 -0.0594 -0.2877
 6043TIP3    H118135   3.612   4.124   2.573 -0.2980  0.0380 -0.5679
 6043TIP3    H218136   3.603   4.273   2.597 -0.4043  0.0079 -0.4146
 6044TIP3   OH218137   2.496   0.026   1.025  0.0564  0.1255 -0.5727
 6044TIP3    H118138   2.440   0.096   1.059  0.6455  1.0814 -1.4965
 6044TIP3    H218139   2.476  -0.050   1.080  0.4534  1.3800  1.4042
 6045TIP3   OH218140   0.602   4.719   5.103  0.2827 -0.5523 -0.7213
 6045TIP3    H118141   0.506   4.716   5.097  0.3230 -3.0229 -1.1822
 6045TIP3    H218142   0.624   4.812   5.092 -2.0758  0.1953  0.1590
 6046TIP3   OH218143   3.440   4.456   4.570  0.7420  0.4059 -0.2873
 6046TIP3    H118144   3.490   4.411   4.638 -0.2470  1.6386  1.3288
 6046TIP3    H218145   3.352   4.421   4.578  0.8292 -0.2113 -1.6982
 6047TIP3   OH218146   4.408   2.576   4.195  0.0837  0.3265 -0.1097
 6047TIP3    H118147   4.495   2.539   4.178  0.2077  0.4707  0.1969
 6047TIP3    H218148   4.349   2.526   4.138  0.0471 -1.2734  1.2553
 6048TIP3   OH218149   6.196   5.721   0.633 -0.7388  0.3759 -0.4729
 6048TIP3    H118150   6.234   5.805   0.608 -1.2822  1.8407  2.9962
 6048TIP3    H218151   6.272   5.663   0.644 -0.0625  1.3226 -0.0301
 6049TIP3   OH218152   3.713   5.422   1.522  1.0192 -0.1029 -0.0845
 6049TIP3    H118153   3.728   5.330   1.499  0.9337 -0.3015  0.6220
 6049TIP3    H218154   3.774   5.439   1.593  1.1058  0.4240 -0.2825
 6050TIP3   OH218155   2.122   1.426   4.296  0.1372  0.2197 -0.2140
 6050TIP3    H118156   2.217   1.415   4.304  0.1242 -0.8206 -1.1954
 6050TIP3    H218157   2.086   1.341   4.322 -0.4615  0.2607 -0.8873
 6051TIP3   OH218158   0.379   5.281   2.366  0.9352 -0.6756 -0.7518
 6051TIP3    H118159   0.284   5.275   2.357  1.0403 -0.1224 -2.9505
 6051TIP3    H218160   0.396   5.258   2.457 -1.4694  1.0780  0.2644
 6052TIP3   OH218161   5.332   3.644   5.042 -0.2769 -0.1883  0.9159
 6052TIP3    H118162   5.334   3.740   5.037 -0.3405 -0.2221  0.2280
 6052TIP3    H218163   5.385   3.624   5.120 -1.3320  0.4542  1.8298
 6053TIP3   OH218164   5.482   1.752   2.518 -0.0725  0.1055 -0.6219
 6053TIP3    H118165   5.537   1.731   2.443 -1.1087 -2.2089 -0.8272
 6053TIP3    H218166   5.404   1.698   2.506 -1.8811  2.3254  0.2965
 6054TIP3   OH218167   3.205   0.669   2.396 -0.7491 -0.1400  0.3029
 6054TIP3    H118168   3.115   0.650   2.421 -0.1570 -0.5421  2.2920
 6054TIP3    H218169   3.252   0.587   2.409 -0.0736  0.0597 -0.7147
 6055TIP3   OH218170   5.628   4.644   1.898  0.1428 -0.2637 -0.2989
 6055TIP3    H118171   5.603   4.734   1.916 -0.3645 -0.1849 -1.3527
 6055TIP3    H218172   5.679   4.648   1.818  1.0891 -0.7842  0.2633
 6056TIP3   OH218173   5.401   1.913   1.361 -0.0859  0.4731 -0.1114
 6056TIP3    H118174   5.388   1.929   1.267  0.1591 -0.4239 -0.3067
 6056TIP3    H218175   5.445   1.828   1.365  1.9402  1.5006  0.7221
 6057TIP3   OH218176   2.654   4.325   0.781 -0.0880  0.1783 -0.1703
 6057TIP3    H118177   2.644   4.245   0.833  0.1148 -0.3686 -0.9591
 6057TIP3    H218178   2.581   4.380   0.809 -0.0707 -0.1637  0.5822
 6058TIP3   OH218179   2.544   0.716   4.373 -0.0642 -0.0898 -0.1589
 6058TIP3    H118180   2.449   0.720   4.384 -0.1065  2.8149 -0.6838
 6058TIP3    H218181   2.577   0.780   4.437  1.3945  0.2074 -1.1736
 6059TIP3   OH218182   2.885   0.062   3.159  0.6386 -0.6093 -0.0230
 6059TIP3    H118183   2.966   0.105   3.184  0.3778  0.6998 -1.2847
 6059TIP3    H218184   2.878  -0.013   3.219  1.7118  0.4155  1.4605
 6060TIP3   OH218185   3.230   2.784   0.900 -0.1206 -0.8651 -0.7088
 6060TIP3    H118186   3.305   2.753   0.951 -0.4691 -0.8124 -0.1591
 6060TIP3    H218187   3.154   2.751   0.947 -0.4834  0.3420 -0.4190
 6061TIP3   OH218188   1.311   0.069   2.762  0.0363 -0.6615 -0.2148
 6061TIP3    H118189   1.327  -0.023   2.740  0.7042 -0.3607 -1.0402
 6061TIP3    H218190   1.397   0.103   2.788  0.0915  0.0936 -1.3278
 6062TIP3   OH218191   0.350   4.695   2.680 -0.1098 -0.0927  0.5059
 6062TIP3    H118192   0.386   4.754   2.746 -2.1482  0.0905  1.5249
 6062TIP3    H218193   0.293   4.751   2.627 -0.8649 -0.8142  0.5307
 6063TIP3   OH218194   5.343   5.903   3.353 -0.3598  0.7928  0.2230
 6063TIP3    H118195   5.417   5.965   3.350  1.2650 -0.9944  1.1478
 6063TIP3    H218196   5.321   5.887   3.262  1.1695  0.5223 -0.1198
 6064TIP3   OH218197   3.045   3.394   4.173 -0.5691 -0.0005 -0.0131
 6064TIP3    H118198   3.025   3.318   4.119 -1.0586  0.7575 -0.9454
 6064TIP3    H218199   3.101   3.449   4.117 -2.1565  1.4139 -0.3106
 6065TIP3   OH218200   4.554   0.374   0.640  0.4759  0.1354  0.9536
 6065TIP3    H118201   4.650   0.377   0.634  0.5051  0.5625  1.5662
 6065TIP3    H218202   4.527   0.328   0.560  1.1645  0.4212  0.5434
 6066TIP3   OH218203   4.282   0.142   0.114 -0.1090 -0.1225 -0.2925
 6066TIP3    H118204   4.236   0.077   0.061 -1.5595  2.1213 -1.9554
 6066TIP3    H218205   4.227   0.154   0.191  1.8510 -3.1691  1.7801
 6067TIP3   OH218206   4.217   2.425   0.312 -0.4970  0.3217 -0.2913
 6067TIP3    H118207   4.227   2.387   0.225  0.3408  0.0391 -0.0720
 6067TIP3    H218208   4.301   2.466   0.331  0.0728 -1.4410  1.2656
 6068TIP3   OH218209   0.300   3.493   0.194 -0.0631  0.2941  0.3355
 6068TIP3    H118210   0.375   3.443   0.163 -0.7536  0.3224 -1.4982
 6068TIP3    H218211   0.255   3.521   0.114 -0.8467  2.0986  1.3418
 6069TIP3   OH218212   4.154   5.821   1.175 -0.4077  0.0156 -0.0404
 6069TIP3    H118213   4.172   5.913   1.156 -0.5989 -0.0862 -0.7316
 6069TIP3    H218214   4.059   5.815   1.178 -0.4050 -0.2684 -0.5385
 6070TIP3   OH218215   3.084   2.192   2.843  0.2241  0.2520 -0.2957
 6070TIP3    H118216   3.081   2.184   2.747  1.4868  3.7667 -0.7850
 6070TIP3    H218217   2.993   2.210   2.868  0.0894  0.6618 -1.0297
 6071TIP3   OH218218   3.109   0.856   1.085 -0.3721  0.2373 -0.6880
 6071TIP3    H118219   3.146   0.815   1.163 -0.4422  0.8268 -0.3341
 6071TIP3    H218220   3.168   0.831   1.014  1.7393  2.4621  0.1196
 6072TIP3   OH218221   2.287   0.403   2.351 -0.2045  0.0284 -0.1157
 6072TIP3    H118222   2.294   0.490   2.390  0.0075 -0.2102  0.3930
 6072TIP3    H218223   2.195   0.380   2.361 -0.4057  0.4798 -0.8838
 6073TIP3   OH218224   0.013   4.964   4.083 -0.3144 -0.1509  0.0545
 6073TIP3    H118225   0.042   4.998   3.998 -0.0507  0.6251  0.4457
 6073TIP3    H218226   0.094   4.934   4.126 -0.4130 -0.2875  0.1474
 6074TIP3   OH218227   4.715   3.794   0.429 -0.2903  0.3455  0.0412
 6074TIP3    H118228   4.810   3.779   0.431 -0.2419  0.5456 -0.4891
 6074TIP3    H218229   4.698   3.852   0.503  0.3083  1.9594 -1.0399
 6075TIP3   OH218230   3.510   1.978   4.106  0.1802  0.6687 -0.4674
 6075TIP3    H118231   3.566   1.900   4.110  1.6437  1.7394  1.7434
 6075TIP3    H218232   3.451   1.961   4.032  0.7336 -2.3084 -0.3473
 6076TIP3   OH218233   2.248   5.620   2.918  0.5225  0.6124  0.6520
 6076TIP3    H118234   2.272   5.611   3.010  1.1165  0.1382  0.4590
 6076TIP3    H218235   2.193   5.544   2.900  2.2102 -0.5131  0.0631
 6077TIP3   OH218236   3.790   5.527   2.985  0.3907 -0.2102 -0.0276
 6077TIP3    H118237   3.813   5.556   3.074  0.7839  0.8859 -0.4696
 6077TIP3    H218238   3.847   5.453   2.968 -0.1913 -0.8943  0.9002
 6078TIP3   OH218239   3.687   4.925   4.385 -0.0367  0.5416 -0.5950
 6078TIP3    H118240   3.702   4.904   4.477  0.2374  0.2647 -0.7009
 6078TIP3    H218241   3.592   4.935   4.377 -0.0668  0.4957 -0.2989
 6079TIP3   OH218242   1.765   3.650   3.049 -0.1184  0.2393 -0.0781
 6079TIP3    H118243   1.759   3.707   2.973 -0.1075  0.3509  0.0051
 6079TIP3    H218244   1.691   3.675   3.104 -0.0624  0.2347 -0.0005
 6080TIP3   OH218245   5.289   5.263   1.063 -0.1862  0.5472 -0.0196
 6080TIP3    H118246   5.260   5.303   0.981 -2.8830 -1.2416 -0.0560
 6080TIP3    H218247   5.208   5.242   1.110  1.1769 -1.4862  1.6209
 6081TIP3   OH218248   3.757   5.719   1.491  0.2915 -0.6301 -0.5930
 6081TIP3    H118249   3.679   5.678   1.527 -0.2317  0.4408 -0.4740
 6081TIP3    H218250   3.754   5.699   1.397 -0.5653  0.0934 -0.7259
 6082TIP3   OH218251   1.538   4.145   2.720 -0.6506 -0.6396 -0.5129
 6082TIP3    H118252   1.566   4.186   2.802  0.1301  2.4470 -2.1723
 6082TIP3    H218253   1.601   4.074   2.707  0.9596  0.5920  0.2097
 6083TIP3   OH218254   0.253   2.799   2.003 -0.1421 -0.3454 -0.1146
 6083TIP3    H118255   0.289   2.883   1.973 -1.0096  0.0882  0.0213
 6083TIP3    H218256   0.165   2.821   2.032  0.3517 -0.9015  1.9370
 6084TIP3   OH218257   3.851   3.953   1.194 -0.0904  0.2822  0.0542
 6084TIP3    H118258   3.800   3.875   1.212 -1.5620  1.5033  1.3764
 6084TIP3    H218259   3.911   3.961   1.268 -1.5403  1.6294  1.1398
 6085TIP3   OH218260   4.312   0.249   3.160 -0.6445 -0.1477 -0.4486
 6085TIP3    H118261   4.364   0.170   3.174  0.0200  0.4993  0.9560
 6085TIP3    H218262   4.276   0.240   3.072 -2.0624 -2.8560  0.3208
 6086TIP3   OH218263   5.050   2.338   1.634  0.6696  0.0871  0.7237
 6086TIP3    H118264   5.039   2.433   1.643 -1.0366  0.3302 -2.5812
 6086TIP3    H218265   4.961   2.304   1.627  1.2774 -1.7371  1.2661
 6087TIP3   OH218266   5.465   5.041   5.143 -0.6719 -0.0320 -0.1322
 6087TIP3    H118267   5.400   5.023   5.075 -0.5521  2.3631 -0.9635
 6087TIP3    H218268   5.526   5.103   5.102  0.1041  0.5276  1.7677
 6088TIP3   OH218269   1.913   4.923   3.443  0.0472  0.3998  0.1073
 6088TIP3    H118270   1.953   4.924   3.530  0.5185  0.8467 -0.1077
 6088TIP3    H218271   1.902   4.830   3.424  0.8674  0.2666  0.2343
 6089TIP3   OH218272   2.969   5.895   3.105 -0.1403  0.5422 -0.4973
 6089TIP3    H118273   2.897   5.883   3.043 -1.3467 -2.0565  1.2694
 6089TIP3    H218274   3.007   5.807   3.115  1.6185  1.3711  0.6034
 6090TIP3   OH218275   5.508   5.272   1.637 -0.4287 -0.3004 -0.0578
 6090TIP3    H118276   5.563   5.348   1.614 -0.1326  0.0395  1.6275
 6090TIP3    H218277   5.569   5.198   1.635 -0.2150 -0.1438  0.4131
 6091TIP3   OH218278   3.789   0.386   5.087 -0.2658  0.1694 -0.1232
 6091TIP3    H118279   3.724   0.340   5.034 -0.3916  1.2392 -0.9333
 6091TIP3    H218280   3.739   0.454   5.132  0.1300  0.3842 -0.0074
 6092TIP3   OH218281   0.384   5.889   2.195  0.0104 -0.1021 -0.1871
 6092TIP3    H118282   0.363   5.837   2.273  0.5307  0.0988  0.0887
 6092TIP3    H218283   0.369   5.980   2.221  0.8148  0.0176 -0.1078
 6093TIP3   OH218284   0.600   0.947   3.554  0.3427 -0.0572  0.0928
 6093TIP3    H118285   0.602   0.866   3.502  0.9190 -0.4625  0.7207
 6093TIP3    H218286   0.582   0.917   3.643 -1.0313  0.6628  0.0820
 6094TIP3   OH218287   6.312   5.946   0.549 -0.1575 -0.1450 -0.1864
 6094TIP3    H118288   6.270   5.989   0.474  3.1130  1.8919 -1.0310
 6094TIP3    H218289   6.298   6.006   0.622  1.6156  0.8275 -0.6010
 6095TIP3   OH218290   4.236   3.039   3.436  0.0685 -0.0021 -0.7344
 6095TIP3    H118291   4.167   2.980   3.466 -0.1518  0.2930 -0.6627
 6095TIP3    H218292   4.305   2.980   3.405 -0.1967 -0.2982 -0.7714
 6096TIP3   OH218293   1.763   4.004   2.445  0.2742 -0.9545  0.6338
 6096TIP3    H118294   1.837   4.014   2.505  1.2704 -0.7681 -0.5732
 6096TIP3    H218295   1.690   3.979   2.501  1.0138 -0.2058  1.9986
 6097TIP3   OH218296   0.871   0.709   4.662  0.1643 -0.0236  0.3807
 6097TIP3    H118297   0.962   0.716   4.691  0.0298  1.1823  0.5465
 6097TIP3    H218298   0.825   0.667   4.735  0.5349 -0.3793  0.4099
 6098TIP3   OH218299   4.462   0.989   1.635  0.2267  0.2187  0.2382
 6098TIP3    H118300   4.436   0.918   1.694 -1.3424  0.7523  0.2356
 6098TIP3    H218301   4.388   1.050   1.636  1.2977  1.5914 -0.1932
 6099TIP3   OH218302   1.344   2.642   0.353 -0.0630 -0.1626  0.1669
 6099TIP3    H118303   1.401   2.608   0.283  3.3312  1.8481  1.7046
 6099TIP3    H218304   1.368   2.590   0.430 -0.8737  0.2520  0.7089
 6100TIP3   OH218305   2.910   2.767   0.081 -0.7798  0.6534 -0.4569
 6100TIP3    H118306   2.824   2.727   0.075 -1.5766  2.3888 -1.5805
 6100TIP3    H218307   2.970   2.702   0.044 -1.4329 -0.9194  1.1155
 6101TIP3   OH218308   0.675   2.344   4.947 -0.6086 -0.2547 -0.0873
 6101TIP3    H118309   0.759   2.304   4.923 -0.5558  0.0744 -0.4676
 6101TIP3    H218310   0.692   2.384   5.033 -0.7121 -1.1789  0.3727
 6102TIP3   OH218311   2.306   4.216   4.364  0.1943  0.5491  0.6122
 6102TIP3    H118312   2.217   4.194   4.335  0.9248 -0.9186 -0.5964
 6102TIP3    H218313   2.353   4.238   4.284  1.1389  0.5265  1.1447
 6103TIP3   OH218314   5.340   3.355   2.442 -0.0957  0.0668 -0.5047
 6103TIP3    H118315   5.365   3.438   2.401  0.1933 -0.3918 -1.2799
 6103TIP3    H218316   5.376   3.288   2.384  1.2922 -0.6233  1.0674
 6104TIP3   OH218317   1.513   3.431   0.394  0.1312 -0.0282  0.4159
 6104TIP3    H118318   1.426   3.401   0.367 -0.3046 -0.0598  1.7870
 6104TIP3    H218319   1.567   3.352   0.391 -0.5455 -0.6171  2.0884
 6105TIP3   OH218320   1.303   5.754   5.147 -0.1746  0.2184 -0.1355
 6105TIP3    H118321   1.353   5.719   5.220 -0.5453 -1.1007 -0.4816
 6105TIP3    H218322   1.270   5.838   5.178 -1.4577 -0.8997  1.7407
 6106TIP3   OH218323   4.527   0.939   2.314  0.1746  0.2149 -0.6292
 6106TIP3    H118324   4.593   1.007   2.315  0.6667 -0.2105 -2.0141
 6106TIP3    H218325   4.554   0.877   2.382 -0.4921  1.5520  0.9043
 6107TIP3   OH218326   0.873   3.345   3.706 -0.3552 -0.8248 -0.2982
 6107TIP3    H118327   0.836   3.306   3.785  1.9918 -0.1412  1.2398
 6107TIP3    H218328   0.908   3.271   3.656 -1.2107 -1.1907 -0.3729
 6108TIP3   OH218329   0.092   0.940   2.148  0.1129 -0.0711 -0.2217
 6108TIP3    H118330   0.062   0.946   2.238  2.8861  0.3983  0.7810
 6108TIP3    H218331   0.180   0.903   2.154 -0.3439 -1.9088 -2.9311
 6109TIP3   OH218332   2.235   0.286   1.962  0.4508  0.5700 -0.0630
 6109TIP3    H118333   2.199   0.266   1.875  1.3124 -0.4499 -0.1990
 6109TIP3    H218334   2.198   0.372   1.983 -0.6183  0.3607 -0.9687
 6110TIP3   OH218335   2.769  -0.007   4.331 -0.4111  0.3464  0.2799
 6110TIP3    H118336   2.680  -0.030   4.303 -0.0813 -1.3810  0.5702
 6110TIP3    H218337   2.769   0.089   4.333 -2.1257  0.3878 -0.1598
 6111TIP3   OH218338   3.324   2.934   1.312 -0.1318  0.1218  0.7660
 6111TIP3    H118339   3.319   2.924   1.217  1.0696 -0.8023  0.7673
 6111TIP3    H218340   3.370   3.018   1.325 -0.4577  0.3371  0.5425
 6112TIP3   OH218341   4.615   4.190   3.515 -0.0403 -0.2895 -0.1773
 6112TIP3    H118342   4.691   4.133   3.502 -0.7540 -1.2588 -0.1946
 6112TIP3    H218343   4.612   4.244   3.436 -0.5390 -1.6498 -1.1237
 6113TIP3   OH218344   1.868   5.484   0.498 -0.2967 -0.3152 -0.0725
 6113TIP3    H118345   1.870   5.390   0.480 -1.3317 -0.2858 -0.3716
 6113TIP3    H218346   1.947   5.517   0.456  0.8465 -1.2351  1.2438
 6114TIP3   OH218347   0.326   3.122   4.446  0.2476  0.6658  0.1401
 6114TIP3    H118348   0.299   3.196   4.500  1.9367  1.1722  0.3303
 6114TIP3    H218349   0.308   3.045   4.500 -1.5117  0.8925 -0.0560
 6115TIP3   OH218350   2.595   1.081   1.401  0.0396  0.2379 -0.0517
 6115TIP3    H118351   2.623   1.096   1.311 -0.8668  0.7790 -0.2648
 6115TIP3    H218352   2.616   0.990   1.419  0.5516  0.2303 -0.6935
 6116TIP3   OH218353   5.146   0.570   3.053 -0.3929 -0.2986  0.5149
 6116TIP3    H118354   5.165   0.565   3.147  1.3381  0.9918  0.2804
 6116TIP3    H218355   5.053   0.595   3.049 -0.5539 -0.5897  1.8557
 6117TIP3   OH218356   2.521   2.096   0.417  0.1208 -0.4526 -0.3223
 6117TIP3    H118357   2.548   2.176   0.463  0.1421 -0.5530 -0.1619
 6117TIP3    H218358   2.434   2.117   0.384  0.7718  0.2396 -1.7054
 6118TIP3   OH218359   0.171   1.966   0.863  0.4109  0.1805 -0.3919
 6118TIP3    H118360   0.248   2.023   0.859 -0.2303  1.0434 -2.5520
 6118TIP3    H218361   0.206   1.877   0.856  1.3460  0.3416  1.6388
 6119TIP3   OH218362   4.195   3.649   2.650  0.5605 -0.3225  0.0078
 6119TIP3    H118363   4.132   3.644   2.579  1.5323 -3.2866 -0.7812
 6119TIP3    H218364   4.276   3.612   2.614  1.2926 -1.2753  2.4153
 6120TIP3   OH218365   4.569   1.382   4.827  0.1293 -0.3316 -0.2863
 6120TIP3    H118366   4.496   1.402   4.768 -0.5855 -0.6227  0.4745
 6120TIP3    H218367   4.549   1.430   4.908  0.8440 -0.3165 -0.1125
 6121TIP3   OH218368   0.359   5.626   2.341 -0.8756  0.3602 -0.8424
 6121TIP3    H118369   0.429   5.623   2.406  0.5631  1.0851 -2.2794
 6121TIP3    H218370   0.336   5.535   2.326  0.0116  0.0901 -0.6064
 6122TIP3   OH218371   6.210   2.292   2.748 -0.1333 -0.6858  0.2941
 6122TIP3    H118372   6.241   2.316   2.661  0.1873 -0.0691  0.5786
 6122TIP3    H218373   6.152   2.363   2.774  1.6930  0.4014  1.5976
 6123TIP3   OH218374   1.313   2.695   1.250  0.1967  0.1392 -0.6120
 6123TIP3    H118375   1.398   2.721   1.212  1.2980 -1.3314  0.7039
 6123TIP3    H218376   1.250   2.708   1.179  1.6545  0.4481 -1.9178
 6124TIP3   OH218377   2.387   4.487   2.453 -0.1131  0.2245 -0.2826
 6124TIP3    H118378   2.312   4.506   2.510  0.4280 -0.0588  0.5532
 6124TIP3    H218379   2.415   4.399   2.480 -0.2461 -0.1962 -1.4536
 6125TIP3   OH218380   6.130   5.227   3.580  0.1147 -0.3584  0.1763
 6125TIP3    H118381   6.047   5.225   3.533 -0.3954  0.7586  0.9765
 6125TIP3    H218382   6.167   5.313   3.561  0.7624 -0.5813  0.3837
 6126TIP3   OH218383   3.346   5.085   2.877 -0.3451  0.4303 -0.0377
 6126TIP3    H118384   3.288   5.106   2.805  0.2941 -1.9041 -1.3539
 6126TIP3    H218385   3.298   5.021   2.929 -0.4862  1.4968  1.1990
 6127TIP3   OH218386   4.290   2.068   2.131 -0.2245  0.0145  0.3672
 6127TIP3    H118387   4.309   2.150   2.086  2.5804  0.0850  1.5103
 6127TIP3    H218388   4.332   2.001   2.077 -0.5204 -0.3998  0.6489
 6128TIP3   OH218389   1.953   5.215   0.443 -0.4284 -0.1845 -0.1099
 6128TIP3    H118390   1.928   5.221   0.350 -0.6796  0.2212 -0.0163
 6128TIP3    H218391   2.023   5.150   0.444 -3.2823 -3.5163 -0.0308
 6129TIP3   OH218392   3.887   3.555   4.140 -0.5032 -0.2021 -0.2030
 6129TIP3    H118393   3.903   3.520   4.227 -3.3180 -2.0137 -0.2754
 6129TIP3    H218394   3.917   3.487   4.080  0.8251  0.7588 -0.6833
 6130TIP3   OH218395   3.971   5.530   2.013  0.5432  0.7136  0.6797
 6130TIP3    H118396   3.901   5.563   1.956  2.1216  1.6962 -0.7772
 6130TIP3    H218397   3.925   5.498   2.091 -1.4425  2.3770  0.2950
 6131TIP3   OH218398   2.262   3.139   1.331 -0.4680 -0.2054 -0.0922
 6131TIP3    H118399   2.242   3.111   1.420  0.9595  0.0842  0.3387
 6131TIP3    H218400   2.297   3.061   1.288  1.6724  0.3515  0.5286
 6132TIP3   OH218401   6.072   1.754   4.806 -0.1130  0.3103  0.3970
 6132TIP3    H118402   6.034   1.796   4.729  2.5134  2.9102  0.3392
 6132TIP3    H218403   6.064   1.819   4.875  1.2866 -0.3166  1.1910
 6133TIP3   OH218404   1.196   3.611   1.303  0.2206 -0.2715 -0.0759
 6133TIP3    H118405   1.286   3.644   1.303  0.1715 -0.1197 -0.9877
 6133TIP3    H218406   1.153   3.658   1.232 -0.6733 -0.1167  0.5448
 6134TIP3   OH218407   4.861   2.004   3.172 -0.0643  0.5879 -0.3446
 6134TIP3    H118408   4.886   2.001   3.080  1.3670  0.4453  0.0174
 6134TIP3    H218409   4.811   1.924   3.187  0.7058  0.0226 -0.7374
 6135TIP3   OH218410   5.669   1.472   3.195 -0.4552 -0.4277  0.6583
 6135TIP3    H118411   5.764   1.473   3.210 -0.5335 -1.1542  1.2232
 6135TIP3    H218412   5.645   1.564   3.191  0.2891 -0.2329  0.4113
 6136TIP3   OH218413   5.075   3.863   2.833 -0.0441 -0.1108 -0.0213
 6136TIP3    H118414   5.116   3.783   2.865  0.9232  0.4492  0.1859
 6136TIP3    H218415   5.074   3.853   2.738 -0.1976 -0.4934  0.0196
 6137TIP3   OH218416   3.221   0.938   0.447  0.2353 -0.1967  0.4117
 6137TIP3    H118417   3.126   0.926   0.449  0.4736 -2.6465  0.2956
 6137TIP3    H218418   3.233   1.032   0.436 -2.2034 -0.0161 -1.7139
 6138TIP3   OH218419   3.260   5.451   3.166 -0.1917 -0.0927  0.4050
 6138TIP3    H118420   3.327   5.390   3.134 -1.4279 -0.9035 -0.7083
 6138TIP3    H218421   3.303   5.536   3.163  0.1049 -0.2311 -2.5719
 6139TIP3   OH218422   2.243   4.514   4.856 -0.0770  0.3067  0.1691
 6139TIP3    H118423   2.298   4.519   4.778  2.2611  0.3519  1.7374
 6139TIP3    H218424   2.173   4.577   4.839  2.2161  2.8696 -0.5745
 6140TIP3   OH218425   2.219   4.578   4.352  0.0288 -0.2681  0.1525
 6140TIP3    H118426   2.136   4.537   4.374  0.5518 -1.1068  0.5992
 6140TIP3    H218427   2.283   4.536   4.409  0.6622  0.8247  0.2806
 6141TIP3   OH218428   2.575   2.768   2.230 -0.1941  1.0047 -0.2194
 6141TIP3    H118429   2.502   2.780   2.291 -1.1901  0.8204 -1.3417
 6141TIP3    H218430   2.585   2.673   2.224 -1.2744  0.9530 -1.6585
 6142TIP3   OH218431   1.089   1.150   3.972 -0.6118  0.4001  0.3523
 6142TIP3    H118432   1.067   1.124   4.061  0.0174  0.4697  0.5266
 6142TIP3    H218433   1.076   1.070   3.920 -0.9971  0.3648  0.4944
 6143TIP3   OH218434   4.696   4.496   0.055 -0.6743  0.2078  0.6996
 6143TIP3    H118435   4.654   4.541  -0.019  0.1190  1.3501  0.9166
 6143TIP3    H218436   4.700   4.404   0.029 -2.7360  0.1505  0.4127
 6144TIP3   OH218437   4.084   0.355   4.099 -0.5870 -0.1502  0.4995
 6144TIP3    H118438   3.994   0.329   4.118 -0.4420 -1.1927 -0.1901
 6144TIP3    H218439   4.118   0.286   4.043  0.6781  0.1935  0.8138
 6145TIP3   OH218440   0.069   2.673   4.651  0.0379 -0.3243 -0.3172
 6145TIP3    H118441   0.087   2.713   4.566 -1.0272  1.1612  0.1104
 6145TIP3    H218442   0.023   2.742   4.700 -1.3215 -1.8891  0.6861
 6146TIP3   OH218443   1.625   0.160   1.783  0.2327 -0.3504 -0.0520
 6146TIP3    H118444   1.713   0.128   1.764  1.2397  1.6653  0.8735
 6146TIP3    H218445   1.592   0.192   1.699  0.7887 -0.2137 -0.2231
 6147TIP3   OH218446   0.729   0.662   1.394  0.2783  0.1481  0.1527
 6147TIP3    H118447   0.637   0.650   1.420  0.0427 -0.3403 -0.8327
 6147TIP3    H218448   0.752   0.578   1.352  0.0465  1.4250 -2.8209
 6148TIP3   OH218449   1.938   0.981   2.507  0.1813  0.2848  0.2367
 6148TIP3    H118450   1.844   0.964   2.498 -0.2729  1.5692  1.9605
 6148TIP3    H218451   1.963   0.934   2.587  1.3877 -1.2808 -0.9985
 6149TIP3   OH218452   3.981   5.402   4.032 -0.0957  0.1820  0.7179
 6149TIP3    H118453   4.054   5.458   4.060 -0.6736  0.6397  1.3406
 6149TIP3    H218454   3.926   5.460   3.980 -0.0587 -0.1429  0.3177
 6150TIP3   OH218455   3.934   0.259   2.560  0.5691  0.0972  0.3478
 6150TIP3    H118456   4.015   0.222   2.595  0.8356  0.7392  0.4141
 6150TIP3    H218457   3.896   0.308   2.632  0.3647  0.1914  0.1771
 6151TIP3   OH218458   5.421   0.463   4.505 -0.4397 -0.0125  0.4566
 6151TIP3    H118459   5.330   0.478   4.479 -0.3433 -0.9736 -0.5217
 6151TIP3    H218460   5.469   0.461   4.422  0.4712  0.4565  0.9640
 6152TIP3   OH218461   2.968   0.933   2.291 -0.1309 -0.3430  0.2888
 6152TIP3    H118462   3.059   0.909   2.275 -0.3979 -0.5692 -0.9688
 6152TIP3    H218463   2.918   0.879   2.229 -1.0676  0.2629  0.5037
 6153TIP3   OH218464   5.945   0.376   1.903  0.5073 -0.4666 -0.4871
 6153TIP3    H118465   5.884   0.431   1.950  0.0108  0.1271 -1.7811
 6153TIP3    H218466   6.011   0.351   1.968 -0.6119 -0.3871  0.7007
 6154TIP3   OH218467   2.847   5.725   4.398  0.4636  0.3238  0.7005
 6154TIP3    H118468   2.795   5.804   4.411  0.0137  0.2740 -0.6395
 6154TIP3    H218469   2.847   5.681   4.483 -2.4193 -0.1292  0.5494
 6155TIP3   OH218470   0.470   2.909   3.486  0.1793  0.4964  0.0970
 6155TIP3    H118471   0.415   2.915   3.564  1.0558 -1.3329  0.9274
 6155TIP3    H218472   0.499   2.817   3.484  1.9969  1.0392 -1.1267
 6156TIP3   OH218473   4.436   4.992   3.182 -0.3245 -0.4089 -0.0942
 6156TIP3    H118474   4.528   5.004   3.159 -1.0223  2.5663 -1.7963
 6156TIP3    H218475   4.392   4.979   3.099 -2.2914  5.8744 -0.5049
 6157TIP3   OH218476   5.355   3.652   0.430 -0.1590 -0.0360 -0.3227
 6157TIP3    H118477   5.451   3.646   0.437 -0.1959  0.7340  1.1758
 6157TIP3    H218478   5.322   3.612   0.510 -1.1797 -1.5006 -1.4231
 6158TIP3   OH218479   0.957   4.684   2.710  0.3385 -0.3657  0.0884
 6158TIP3    H118480   1.046   4.658   2.687  0.7210 -0.9377  1.9907
 6158TIP3    H218481   0.902   4.652   2.638  1.8316  1.6612 -2.0592
 6159TIP3   OH218482   2.267   1.100   1.193  0.0984  0.0088 -0.2045
 6159TIP3    H118483   2.313   1.182   1.176  1.4258 -0.6767 -0.0651
 6159TIP3    H218484   2.186   1.107   1.143  1.2922  0.4207 -2.1930
 6160TIP3   OH218485   0.522   5.146   0.300  0.1111 -0.1570 -0.0395
 6160TIP3    H118486   0.554   5.202   0.229  0.7097  0.1062  0.4235
 6160TIP3    H218487   0.532   5.200   0.379  0.0510 -0.6680  0.3216
 6161TIP3   OH218488   1.529   2.854   3.547  0.0054 -0.4945 -0.5182
 6161TIP3    H118489   1.461   2.790   3.570 -0.3066  0.6690  2.0933
 6161TIP3    H218490   1.482   2.924   3.503  0.0176 -1.0037 -1.3782
 6162TIP3   OH218491   1.872   4.346   4.274 -0.4306 -0.0818 -0.0326
 6162TIP3    H118492   1.950   4.292   4.289  0.0901  0.9855  1.2768
 6162TIP3    H218493   1.864   4.399   4.353 -2.4564 -0.1087 -0.1730
 6163TIP3   OH218494   3.668   2.593   4.258  0.5672 -0.4051  0.4794
 6163TIP3    H118495   3.720   2.674   4.260 -1.3524  0.8829  0.5232
 6163TIP3    H218496   3.633   2.586   4.347  0.4183 -1.1076  0.3680
 6164TIP3   OH218497   4.680   5.416   0.552 -0.4203 -0.1565 -0.5833
 6164TIP3    H118498   4.653   5.458   0.633 -0.7162 -0.1787 -0.6683
 6164TIP3    H218499   4.597   5.395   0.507 -0.2626  0.3947 -1.1612
 6165TIP3   OH218500   5.735   2.965   3.294  0.2435 -0.1944 -0.1045
 6165TIP3    H118501   5.801   2.959   3.362 -0.0235 -1.2345  0.0803
 6165TIP3    H218502   5.736   3.057   3.267  1.8078 -0.2175 -0.1718
 6166TIP3   OH218503   5.028   3.526   1.975 -0.3002  0.0613  0.1875
 6166TIP3    H118504   4.957   3.505   1.914  0.7948  0.7058 -1.3825
 6166TIP3    H218505   5.048   3.443   2.018 -1.6913 -0.2151  0.3485
 6167TIP3   OH218506   5.433   4.379   0.369 -0.1714  0.8023  0.3903
 6167TIP3    H118507   5.441   4.360   0.462 -0.1843  2.7101  0.8155
 6167TIP3    H218508   5.409   4.295   0.329  0.8892 -0.2815  1.9419
 6168TIP3   OH218509   2.143   0.953   0.715  0.3519 -0.0285  0.4271
 6168TIP3    H118510   2.198   0.901   0.656 -0.9840 -0.4092 -0.5459
 6168TIP3    H218511   2.141   1.040   0.675 -1.1941 -0.4874 -0.6026
 6169TIP3   OH218512   5.742   0.496   2.040  0.4532 -0.8417 -0.3111
 6169TIP3    H118513   5.693   0.570   2.006  1.8160  0.0833 -0.3711
 6169TIP3    H218514   5.684   0.455   2.104  0.3511  1.4941  1.2023
 6170TIP3   OH218515   1.855   0.766   3.974  0.1124 -0.0308  0.3213
 6170TIP3    H118516   1.878   0.840   3.919  1.3460 -0.6462 -0.0354
 6170TIP3    H218517   1.794   0.801   4.039  1.2477  1.4590  0.6294
 6171TIP3   OH218518   4.395   0.571   3.767  0.0897  0.4669 -0.0686
 6171TIP3    H118519   4.450   0.507   3.721  0.8665  0.7369  0.4660
 6171TIP3    H218520   4.326   0.593   3.704  1.1884  0.9111 -1.1541
 6172TIP3   OH218521   2.631   0.768   1.300 -0.4831  0.6806  0.9409
 6172TIP3    H118522   2.578   0.830   1.249  0.5775  2.0459  1.4339
 6172TIP3    H218523   2.715   0.766   1.254  0.4092  1.7455  2.4716
 6173TIP3   OH218524   3.519   3.323   3.462 -0.4813  0.7788  0.1646
 6173TIP3    H118525   3.562   3.293   3.542 -1.7243 -0.6171  0.3455
 6173TIP3    H218526   3.576   3.393   3.430  0.7508  0.4708  1.5387
 6174TIP3   OH218527   5.695   2.783   3.830  0.1782  0.1915  0.3702
 6174TIP3    H118528   5.611   2.809   3.869 -0.0601  0.5767 -0.3885
 6174TIP3    H218529   5.671   2.734   3.751  0.6327 -1.6309  1.3094
 6175TIP3   OH218530   4.649   3.013   1.395  0.2558  0.0967 -0.0167
 6175TIP3    H118531   4.664   3.051   1.308  0.7096 -0.9610 -0.4194
 6175TIP3    H218532   4.559   3.036   1.417 -0.3672 -0.8874 -1.4321
 6176TIP3   OH218533   1.304   0.914   1.760 -0.7446  0.1794 -0.4922
 6176TIP3    H118534   1.380   0.865   1.789 -1.6664 -2.0358 -1.5869
 6176TIP3    H218535   1.326   1.006   1.776  1.0203 -0.5687  1.7495
 6177TIP3   OH218536   4.170  -0.006   4.294 -0.5855 -0.0894  0.2454
 6177TIP3    H118537   4.247   0.003   4.349  0.6475  0.7458 -1.5184
 6177TIP3    H218538   4.097   0.019   4.351  0.5366  0.0136  1.6851
 6178TIP3   OH218539   0.692   4.136   4.522 -0.0369 -0.2132  0.0514
 6178TIP3    H118540   0.608   4.118   4.564  0.6460 -3.5714  0.2473
 6178TIP3    H218541   0.756   4.132   4.594  0.5283  0.1939 -0.4165
 6179TIP3   OH218542   4.183   0.159   1.961  0.0773  0.5475  0.2185
 6179TIP3    H118543   4.166   0.253   1.968  0.2603  0.5184  1.1910
 6179TIP3    H218544   4.155   0.123   2.045 -0.2870 -0.3205 -0.2590
 6180TIP3   OH218545   1.733   1.679   0.850 -0.2527  0.1929  0.3896
 6180TIP3    H118546   1.825   1.707   0.847 -0.3541  0.5330  0.3492
 6180TIP3    H218547   1.689   1.737   0.788 -0.2465 -0.9407 -0.7085
 6181TIP3   OH218548   1.237   4.998   0.191 -0.1279  0.6165 -0.3469
 6181TIP3    H118549   1.276   5.085   0.200 -2.7060  1.6580  2.3068
 6181TIP3    H218550   1.148   5.014   0.162 -0.7045 -1.0989  0.3365
 6182TIP3   OH218551   5.156   0.881   0.892 -0.0852  0.4667  0.2181
 6182TIP3    H118552   5.094   0.909   0.825  1.3522 -1.2167 -1.9507
 6182TIP3    H218553   5.222   0.951   0.894 -0.8794  1.2260  1.0065
 6183TIP3   OH218554   3.558   4.627   3.680 -0.6165 -0.0969  0.1427
 6183TIP3    H118555   3.638   4.641   3.730 -0.9461 -0.0514  0.6555
 6183TIP3    H218556   3.573   4.674   3.598  0.4432 -1.2212 -0.3537
 6184TIP3   OH218557   1.548   2.228   4.605  0.0443 -0.5236  0.5322
 6184TIP3    H118558   1.516   2.163   4.667 -2.2526  0.2719  0.2585
 6184TIP3    H218559   1.555   2.309   4.655  0.3688 -0.3762  0.2588
 6185TIP3   OH218560   3.308   0.559   2.794 -0.0852 -0.7111 -0.2555
 6185TIP3    H118561   3.326   0.516   2.711  0.5570 -0.6689 -0.1488
 6185TIP3    H218562   3.213   0.571   2.796 -0.4581 -3.2424  0.2581
 6186TIP3   OH218563   4.978   1.262   0.360  0.1768  0.2557 -0.4383
 6186TIP3    H118564   5.026   1.298   0.434  0.3504 -0.9946  0.0837
 6186TIP3    H218565   4.906   1.323   0.346  1.9097  2.2155 -1.2916
 6187TIP3   OH218566   5.605   1.725   3.190  0.5277 -0.8569 -0.5526
 6187TIP3    H118567   5.617   1.774   3.271 -0.5226 -0.4541 -0.6132
 6187TIP3    H218568   5.605   1.792   3.121  0.6211 -1.1046 -0.7967
 6188TIP3   OH218569   3.842   5.184   2.720 -0.1622 -0.3555 -0.1056
 6188TIP3    H118570   3.758   5.160   2.757  0.6640 -0.3523  1.8841
 6188TIP3    H218571   3.888   5.229   2.791  1.6452 -0.6534 -1.0261
 6189TIP3   OH218572   5.774   2.644   3.569 -0.0716 -0.3691 -0.2017
 6189TIP3    H118573   5.869   2.655   3.558  0.1508  0.2272  1.9606
 6189TIP3    H218574   5.764   2.555   3.602 -0.1858 -0.2025  0.2255
 6190TIP3   OH218575   4.819   0.545   4.437  0.4147 -0.0143  0.1418
 6190TIP3    H118576   4.826   0.640   4.435  1.8674 -0.0401 -3.0738
 6190TIP3    H218577   4.774   0.523   4.355  3.3688 -2.1378 -1.0910
 6191TIP3   OH218578   3.041   4.662   4.788 -0.1800 -0.0226 -0.3120
 6191TIP3    H118579   3.088   4.718   4.851 -0.1455 -0.4434  0.0453
 6191TIP3    H218580   3.012   4.588   4.841  0.6138 -0.8238 -0.9811
 6192TIP3   OH218581   0.309   0.874   4.356  0.0457  0.8982  0.2365
 6192TIP3    H118582   0.395   0.840   4.379 -0.9370 -2.9416 -1.0217
 6192TIP3    H218583   0.269   0.900   4.439  1.9092  1.5794  0.9609
 6193TIP3   OH218584   3.397   3.766   3.854 -0.7719  0.1423  0.2369
 6193TIP3    H118585   3.330   3.733   3.794  0.1100 -1.6764  0.1722
 6193TIP3    H218586   3.379   3.721   3.936 -2.0062  2.6591  1.4519
 6194TIP3   OH218587   4.874   0.225   4.319 -1.1687 -0.0930  0.3572
 6194TIP3    H118588   4.846   0.192   4.233  1.4503 -2.7546  0.4046
 6194TIP3    H218589   4.893   0.147   4.370  1.1328  1.4465  2.0383
 6195TIP3   OH218590   5.085   2.850   4.743  0.5551 -0.0362  0.7449
 6195TIP3    H118591   4.996   2.843   4.776  0.8742 -1.0145  1.4317
 6195TIP3    H218592   5.075   2.895   4.658 -0.7938 -1.6849 -0.0314
 6196TIP3   OH218593   5.478   0.693   1.321 -0.1372 -0.1095 -0.2353
 6196TIP3    H118594   5.416   0.625   1.295  1.3250 -2.0970  1.1933
 6196TIP3    H218595   5.435   0.775   1.297 -3.6689 -1.3163  1.3997
 6197TIP3   OH218596   5.150   3.740   0.896 -0.4507  0.4603 -0.5133
 6197TIP3    H118597   5.112   3.768   0.813  1.7325 -0.5210 -1.9542
 6197TIP3    H218598   5.161   3.821   0.946 -1.3057  1.1421 -1.3880
 6198TIP3   OH218599   0.248   1.337   4.883 -0.5053  0.2952 -0.1197
 6198TIP3    H118600   0.216   1.318   4.971  0.8532 -0.8238  0.1769
 6198TIP3    H218601   0.293   1.257   4.856 -0.7470  0.6835 -1.7732
 6199TIP3   OH218602   2.536   4.543   0.024  0.5979 -0.4088  0.2550
 6199TIP3    H118603   2.600   4.474   0.043  0.5512 -0.4728  0.1809
 6199TIP3    H218604   2.508   4.525  -0.066 -0.2636 -0.9685  0.6257
 6200TIP3   OH218605   2.223   0.176   3.897 -0.0691  0.4974 -0.7552
 6200TIP3    H118606   2.302   0.137   3.859  1.0729  0.9257  1.0572
 6200TIP3    H218607   2.255   0.253   3.944 -1.4018  0.1463  0.8122
 6201TIP3   OH218608   4.427   4.065   2.534  0.2929  0.0896  0.0017
 6201TIP3    H118609   4.440   4.127   2.606 -2.2356 -2.4696  3.0018
 6201TIP3    H218610   4.335   4.077   2.509  0.3833 -0.9396 -0.8930
 6202TIP3   OH218611   1.383   3.209   0.223  0.0801  0.1650  0.1976
 6202TIP3    H118612   1.346   3.138   0.276  1.1288  0.2235  1.0347
 6202TIP3    H218613   1.439   3.164   0.160 -1.2831  0.0847 -0.9940
 6203TIP3   OH218614   3.861   1.866   0.122 -0.6365  0.0924  0.1710
 6203TIP3    H118615   3.932   1.930   0.124 -0.2309 -0.2990 -1.0975
 6203TIP3    H218616   3.785   1.914   0.154  0.3879  0.2403  2.5950
 6204TIP3   OH218617   0.078   5.922   1.692 -0.4330 -0.0296 -0.6268
 6204TIP3    H118618   0.171   5.904   1.709 -0.5038  0.6267  0.5273
 6204TIP3    H218619   0.042   5.945   1.777 -1.5434  0.2461 -1.1551
 6205TIP3   OH218620   1.307   2.899   0.411 -0.1434  0.1749 -0.0776
 6205TIP3    H118621   1.270   2.913   0.324  0.6770 -0.0174 -0.4640
 6205TIP3    H218622   1.337   2.808   0.411 -2.8446 -0.8465  1.4535
 6206TIP3   OH218623   1.535   3.407   1.802  0.0263 -0.4207  0.3570
 6206TIP3    H118624   1.578   3.425   1.885  2.4869  0.2778 -0.9688
 6206TIP3    H218625   1.474   3.479   1.790  0.2211 -0.1108  1.1933
 6207TIP3   OH218626   5.912   4.004   3.751  0.2042  0.4206  0.4892
 6207TIP3    H118627   5.883   3.957   3.673 -0.0698 -0.1433  0.9197
 6207TIP3    H218628   6.007   3.988   3.755 -0.0022 -0.8221  1.0823
 6208TIP3   OH218629   0.434   2.371   0.331 -0.4532 -0.5526 -0.7570
 6208TIP3    H118630   0.491   2.398   0.403 -0.9785  1.0789 -0.9086
 6208TIP3    H218631   0.473   2.289   0.299  0.7951 -0.3815  0.2496
 6209TIP3   OH218632   0.910   3.744   4.545 -0.0182  0.2960  0.0610
 6209TIP3    H118633   0.837   3.761   4.605 -0.5161  1.8403 -0.9168
 6209TIP3    H218634   0.911   3.648   4.535 -1.8757  0.2310  0.1558
 6210TIP3   OH218635   2.667   1.313   0.825  0.3929  0.0679 -0.1438
 6210TIP3    H118636   2.745   1.359   0.794  0.7791 -0.5784 -0.1442
 6210TIP3    H218637   2.653   1.243   0.761 -1.5289  1.5340 -1.4509
 6211TIP3   OH218638   4.414   5.328   0.441 -0.2935 -0.1096  0.2192
 6211TIP3    H118639   4.385   5.411   0.480  1.0465  0.7141 -0.4503
 6211TIP3    H218640   4.343   5.303   0.382 -0.0042  1.4678 -0.8508
 6212TIP3   OH218641   1.293   4.636   2.011  0.1855  0.4879 -0.0002
 6212TIP3    H118642   1.325   4.679   2.090  0.6572  0.4796 -0.1838
 6212TIP3    H218643   1.327   4.546   2.017 -1.9321 -0.3239  1.0697
 6213TIP3   OH218644   1.310   3.329   5.071  0.5145  0.0635  0.4433
 6213TIP3    H118645   1.226   3.324   5.025  0.5841  0.0306  0.3174
 6213TIP3    H218646   1.357   3.251   5.042  0.9253  0.5210 -0.1568
 6214TIP3   OH218647   4.590   4.401   4.757 -0.5998  0.0062 -0.1894
 6214TIP3    H118648   4.655   4.383   4.825 -1.7615 -1.7849  0.5085
 6214TIP3    H218649   4.635   4.382   4.675  0.1696  0.1432  0.1918
 6215TIP3   OH218650   0.060   3.094   4.408 -0.1449 -0.4290  0.3235
 6215TIP3    H118651   0.095   3.183   4.399 -3.0090  0.9063  1.1410
 6215TIP3    H218652   0.105   3.058   4.484  0.3669  0.6914  0.5671
 6216TIP3   OH218653   2.092   2.705   1.322 -0.0904 -0.4185 -0.7512
 6216TIP3    H118654   2.157   2.743   1.381  0.5607 -0.7392 -1.2475
 6216TIP3    H218655   2.067   2.622   1.364 -1.8507  0.7284  0.5616
 6217TIP3   OH218656   4.826   2.889   1.604  0.1498 -0.2060  0.2891
 6217TIP3    H118657   4.832   2.927   1.517  1.5419  1.6653  1.1338
 6217TIP3    H218658   4.738   2.911   1.635  0.4424  1.1572  0.2097
 6218TIP3   OH218659   1.732   3.452   3.380 -0.4450  0.7001 -0.2427
 6218TIP3    H118660   1.794   3.432   3.310 -1.3273  2.5150 -1.6463
 6218TIP3    H218661   1.782   3.504   3.442 -0.0392  0.4218 -0.3382
 6219TIP3   OH218662   5.249   2.151   0.292 -0.0016  0.2999  0.0024
 6219TIP3    H118663   5.301   2.229   0.313  0.2791 -0.3461  1.8789
 6219TIP3    H218664   5.275   2.086   0.357  1.3258 -2.1382 -2.7331
 6220TIP3   OH218665   4.149   5.325   1.976 -0.3810  0.2700  0.7342
 6220TIP3    H118666   4.095   5.304   2.052 -0.5584  1.9972  1.1451
 6220TIP3    H218667   4.115   5.409   1.945 -0.9304 -0.8269 -1.8803
 6221TIP3   OH218668   3.254   4.964   1.455 -0.1788  0.6270 -0.2176
 6221TIP3    H118669   3.245   5.021   1.379  0.1973  1.9079  0.6659
 6221TIP3    H218670   3.290   5.021   1.523 -0.8092 -0.4069  1.0081
 6222TIP3   OH218671   2.472   4.457   4.304  0.1822  0.0669 -0.5070
 6222TIP3    H118672   2.560   4.480   4.336  0.2495  1.1114 -1.3808
 6222TIP3    H218673   2.484   4.443   4.210 -0.2210 -1.8802 -0.3161
 6223TIP3   OH218674   2.808   3.829   2.608  0.0214  0.1114 -0.0863
 6223TIP3    H118675   2.716   3.855   2.602  0.7752  2.7447 -1.5833
 6223TIP3    H218676   2.824   3.778   2.528 -0.7379 -2.9365  1.5289
 6224TIP3   OH218677   3.840   3.592   3.846 -0.0313 -0.4867 -0.0462
 6224TIP3    H118678   3.921   3.542   3.837  1.3576  1.5772  0.4077
 6224TIP3    H218679   3.841   3.652   3.772  1.1772  2.6099  2.2959
 6225TIP3   OH218680   2.562   5.184   1.177  0.0866  0.0398 -0.1009
 6225TIP3    H118681   2.493   5.159   1.239  0.0874 -0.1306 -0.1684
 6225TIP3    H218682   2.577   5.277   1.194  0.4914 -0.1373  0.5546
 6226TIP3   OH218683   0.568   1.611   0.619  0.0658  0.1307 -0.6312
 6226TIP3    H118684   0.661   1.589   0.624 -0.0554 -0.1226  1.5100
 6226TIP3    H218685   0.567   1.705   0.602  0.8874  0.9291  2.8608
 6227TIP3   OH218686   1.686   4.545   0.890 -0.5295 -0.0384  0.0139
 6227TIP3    H118687   1.720   4.628   0.923 -1.3260  0.0579  0.6394
 6227TIP3    H218688   1.605   4.531   0.940 -0.1680 -1.4169  0.2599
 6228TIP3   OH218689   2.732   4.554   1.965 -0.3629 -0.1309  0.4174
 6228TIP3    H118690   2.678   4.550   2.044  0.3633  0.7191  0.9744
 6228TIP3    H218691   2.669   4.557   1.893 -1.0390 -1.1220  0.9289
 6229TIP3   OH218692   0.427   4.107   0.414 -0.3774 -0.3190 -0.2928
 6229TIP3    H118693   0.381   4.176   0.366  2.0646  1.2192 -0.5867
 6229TIP3    H218694   0.402   4.120   0.505  0.9253  1.7816 -0.1734
 6230TIP3   OH218695   4.911   3.786   0.087 -0.3738 -0.5109  0.1180
 6230TIP3    H118696   4.958   3.768   0.005 -0.3093 -0.4019  0.1299
 6230TIP3    H218697   4.830   3.736   0.080 -0.6537 -0.0107 -0.2911
 6231TIP3   OH218698   5.969   0.076   4.456 -0.6617  0.0476  0.4492
 6231TIP3    H118699   5.894   0.134   4.447 -0.2523  0.2264 -2.9538
 6231TIP3    H218700   6.045   0.131   4.439  0.0471 -0.7529  0.9181
 6232TIP3   OH218701   0.593   1.175   2.423 -0.1466 -0.2228  0.2226
 6232TIP3    H118702   0.630   1.201   2.339 -1.8208  0.9761 -0.1917
 6232TIP3    H218703   0.572   1.258   2.467  0.4229 -0.8301  1.7064
 6233TIP3   OH218704   2.075   1.018   0.993 -0.4303 -0.2956  0.4619
 6233TIP3    H118705   2.106   0.988   0.907  0.9036 -1.0301  1.1641
 6233TIP3    H218706   2.000   1.074   0.973 -0.5248 -0.9278 -1.1448
 6234TIP3   OH218707   3.733   4.692   1.307 -0.0121  0.1419 -0.0722
 6234TIP3    H118708   3.646   4.717   1.339 -0.0737 -1.1900  0.8438
 6234TIP3    H218709   3.752   4.757   1.239 -1.5976  0.6180 -0.1044
 6235TIP3   OH218710   5.895   2.490   1.242  0.5521  0.2372 -0.4998
 6235TIP3    H118711   5.965   2.539   1.200  1.3506 -0.2770  0.1933
 6235TIP3    H218712   5.939   2.433   1.305 -0.4829 -0.1365 -0.0743
 6236TIP3   OH218713   5.599   0.957   2.333 -0.0314  0.7118  0.3688
 6236TIP3    H118714   5.513   0.916   2.325  1.5500 -2.9181  0.2535
 6236TIP3    H218715   5.614   0.997   2.247 -0.4130 -1.3576 -0.7427
 6237TIP3   OH218716   1.277   1.898   1.049  0.6919 -0.0097 -0.2464
 6237TIP3    H118717   1.327   1.879   0.969  2.2278  0.0348  0.6674
 6237TIP3    H218718   1.330   1.963   1.096  0.1538 -0.5311  1.1342
 6238TIP3   OH218719   3.897   2.782   4.268  0.5508  0.2471 -0.4225
 6238TIP3    H118720   3.847   2.855   4.233 -3.1605 -2.2247 -0.7786
 6238TIP3    H218721   3.894   2.794   4.363  0.2444  0.6770 -0.4849
 6239TIP3   OH218722   1.538   4.777   0.680  0.1437  0.1783 -0.5056
 6239TIP3    H118723   1.527   4.863   0.719 -0.3442  0.2186 -0.7185
 6239TIP3    H218724   1.462   4.727   0.710  0.1882 -0.0367 -0.7435
 6240TIP3   OH218725   0.359   2.928   3.730 -0.0984 -0.5840  0.3643
 6240TIP3    H118726   0.315   2.866   3.788 -0.7074  0.4834  1.0646
 6240TIP3    H218727   0.316   3.012   3.746  0.0127 -0.1672 -1.3149
 6241TIP3   OH218728   1.674   3.244   3.675  0.0926 -0.1184 -0.3778
 6241TIP3    H118729   1.761   3.246   3.636  1.0218 -1.1903  1.5417
 6241TIP3    H218730   1.689   3.248   3.770 -1.9541 -0.2391  0.0085
 6242TIP3   OH218731   5.034   4.928   4.260  0.0879  0.7328 -0.4968
 6242TIP3    H118732   5.062   4.950   4.171  0.4621  1.1997 -0.2715
 6242TIP3    H218733   4.949   4.886   4.250  0.3570  0.3322 -1.1151
 6243TIP3   OH218734   5.282   2.689   4.655 -0.4542 -0.2196  0.7003
 6243TIP3    H118735   5.208   2.715   4.710  0.3145  0.3003  1.5086
 6243TIP3    H218736   5.354   2.745   4.682 -0.2516  0.6696 -1.4473
 6244TIP3   OH218737   0.327   0.245   1.966  0.2441  0.6936 -0.1014
 6244TIP3    H118738   0.246   0.248   1.914  0.1305 -0.1972  0.0192
 6244TIP3    H218739   0.298   0.258   2.056  0.1582 -0.1941  0.0090
 6245TIP3   OH218740   1.225   2.996   0.842  0.3725 -0.9105 -0.2145
 6245TIP3    H118741   1.175   3.009   0.922 -1.5061 -1.4699 -1.2432
 6245TIP3    H218742   1.292   2.932   0.866 -0.3121 -1.2536  0.8532
 6246TIP3   OH218743   3.775   4.342   3.049 -0.4511  0.9720 -0.3650
 6246TIP3    H118744   3.747   4.309   2.964 -0.6619 -0.5858  0.2730
 6246TIP3    H218745   3.701   4.395   3.080 -0.5600  1.1599 -0.9370
 6247TIP3   OH218746   1.551   3.657   4.235  0.2851  0.0839  0.0867
 6247TIP3    H118747   1.485   3.608   4.284 -0.6428  0.0841 -1.1155
 6247TIP3    H218748   1.524   3.649   4.144  0.6883  1.9656 -0.2459
 6248TIP3   OH218749   3.165   4.312   4.031 -0.4059 -0.3008  0.7836
 6248TIP3    H118750   3.103   4.256   4.079 -0.6348 -0.2258  0.5783
 6248TIP3    H218751   3.240   4.320   4.090 -1.3381  1.0980  1.8334
 6249TIP3   OH218752   4.719   1.082   3.883  0.4995  0.3056 -0.0089
 6249TIP3    H118753   4.713   1.021   3.810  0.4400  0.5847 -0.2402
 6249TIP3    H218754   4.674   1.161   3.852  0.5970  0.4756  0.2755
 6250TIP3   OH218755   1.426   3.563   0.643 -0.3368  0.5184 -0.6561
 6250TIP3    H118756   1.385   3.484   0.607 -0.3911  1.1106 -1.9787
 6250TIP3    H218757   1.508   3.533   0.680  0.1644 -0.0381 -2.1252
 6251TIP3   OH218758   1.606   0.878   1.574 -0.9413 -0.3119 -0.7891
 6251TIP3    H118759   1.669   0.929   1.625 -0.7237 -0.6328 -0.7321
 6251TIP3    H218760   1.522   0.922   1.589 -0.5333  0.9192 -1.9223
 6252TIP3   OH218761   1.395   5.756   4.068  0.2013  0.2741  0.4243
 6252TIP3    H118762   1.457   5.814   4.023 -1.0679  0.0350 -1.7625
 6252TIP3    H218763   1.379   5.685   4.006 -1.6986 -0.0434  1.2007
 6253TIP3   OH218764   0.223   1.908   2.907  0.7779  0.4040  0.4271
 6253TIP3    H118765   0.305   1.881   2.866  0.1049 -0.1285 -0.6051
 6253TIP3    H218766   0.219   1.859   2.988  0.5557 -1.0853 -0.4503
 6254TIP3   OH218767   0.266   4.353   4.875  0.2358 -0.2517 -0.0163
 6254TIP3    H118768   0.334   4.325   4.936  2.5324 -0.6595 -2.5461
 6254TIP3    H218769   0.305   4.427   4.828 -2.4206  1.7145  0.6290
 6255TIP3   OH218770   5.386   2.228   5.128 -0.0980 -0.4550  0.3844
 6255TIP3    H118771   5.456   2.252   5.190 -0.5573 -0.2310  0.8245
 6255TIP3    H218772   5.320   2.184   5.182 -1.0326  0.7680  0.2780
 6256TIP3   OH218773   4.453   5.748   1.099  0.1463 -0.2644  0.3332
 6256TIP3    H118774   4.359   5.766   1.102  0.2862  0.3981  2.2171
 6256TIP3    H218775   4.468   5.716   1.010 -1.5339  1.3271 -0.5921
 6257TIP3   OH218776   2.677   5.028   3.763  0.1412  0.7435 -1.0762
 6257TIP3    H118777   2.637   4.950   3.801 -0.6100  1.4642 -0.3580
 6257TIP3    H218778   2.731   4.995   3.691 -0.1287 -0.4344 -0.7494
 6258TIP3   OH218779   3.700   1.080   1.698 -0.2020 -0.5858  0.1152
 6258TIP3    H118780   3.641   1.120   1.633  0.2224 -1.7090 -1.0064
 6258TIP3    H218781   3.695   1.138   1.774 -0.9560  0.6090 -0.8079
 6259TIP3   OH218782   5.695   0.791   2.513 -0.7105  0.3052  0.0468
 6259TIP3    H118783   5.633   0.787   2.585 -2.6604 -2.8235 -1.5491
 6259TIP3    H218784   5.652   0.846   2.447  0.6165  2.3329  0.7919
 6260TIP3   OH218785   1.934   5.789   1.677  0.1677  0.3009 -0.2665
 6260TIP3    H118786   1.915   5.881   1.659 -0.4075  0.6360  1.7598
 6260TIP3    H218787   1.911   5.743   1.596 -1.5845  1.6858 -0.6138
 6261TIP3   OH218788   4.633   3.454   3.431 -0.2597  0.1265 -0.0991
 6261TIP3    H118789   4.668   3.381   3.379 -1.4509 -0.7933  0.3565
 6261TIP3    H218790   4.682   3.530   3.400  2.5481 -1.1523  0.8590
 6262TIP3   OH218791   4.082   3.355   3.690 -0.0733 -0.0150  0.2291
 6262TIP3    H118792   4.115   3.435   3.652  1.3414 -0.4546  0.4905
 6262TIP3    H218793   4.105   3.360   3.783 -1.5927  0.0854  0.6327
 6263TIP3   OH218794   0.506   4.326   4.382 -0.2832 -0.2712  0.4338
 6263TIP3    H118795   0.515   4.301   4.290  1.3217  0.8442  0.2552
 6263TIP3    H218796   0.575   4.277   4.427 -0.6547 -0.3213  0.9576
 6264TIP3   OH218797   2.115   0.222   1.278  0.1401 -0.0617 -0.3384
 6264TIP3    H118798   2.030   0.207   1.236 -0.9160  1.1497  1.2505
 6264TIP3    H218799   2.104   0.304   1.326  0.9013 -1.7529  3.0667
 6265TIP3   OH218800   3.412   4.973   4.344  0.2720 -0.4915  0.2852
 6265TIP3    H118801   3.383   5.054   4.386  1.2655  1.0083 -1.7857
 6265TIP3    H218802   3.354   4.962   4.269  1.7340 -0.2559 -0.9322
 6266TIP3   OH218803   5.867   0.920   0.169 -0.0114  0.0522  0.2343
 6266TIP3    H118804   5.874   0.888   0.079  1.2919 -0.4084  0.4747
 6266TIP3    H218805   5.847   0.842   0.221 -2.5388  0.5960  0.1648
 6267TIP3   OH218806   4.606   2.865   4.969  0.6018 -0.0507 -0.5367
 6267TIP3    H118807   4.662   2.826   4.902 -0.0552  1.0401 -1.7589
 6267TIP3    H218808   4.660   2.864   5.048  1.0718 -2.1790 -0.8090
 6268TIP3   OH218809   3.389   5.729   3.785  0.1879  0.0364  0.6255
 6268TIP3    H118810   3.441   5.746   3.863 -1.5968  0.6890  1.7476
 6268TIP3    H218811   3.319   5.794   3.788  0.1380  0.1931 -1.6353
 6269TIP3   OH218812   4.071   2.688   1.712 -0.1115 -0.3285 -0.4213
 6269TIP3    H118813   3.978   2.670   1.705 -0.3602 -0.0278  1.6518
 6269TIP3    H218814   4.086   2.763   1.654 -1.3261  0.1852 -0.0825
 6270TIP3   OH218815   4.779   4.941   3.139  0.4516  0.0467  0.1072
 6270TIP3    H118816   4.820   4.987   3.067 -0.9487 -0.0967 -0.8250
 6270TIP3    H218817   4.815   4.981   3.218  0.8858  1.2277 -0.6772
 6271TIP3   OH218818   3.421   3.851   3.581 -0.1871 -0.7324  1.1635
 6271TIP3    H118819   3.453   3.805   3.503 -0.5356  0.5473  0.2190
 6271TIP3    H218820   3.354   3.794   3.617 -1.2326 -0.6120 -0.4714
 6272TIP3   OH218821   5.054   2.474   1.082  0.3193 -0.1794  0.0485
 6272TIP3    H118822   5.016   2.429   1.006  1.7901 -0.5066 -0.5313
 6272TIP3    H218823   5.017   2.428   1.157 -2.5635  1.2750 -0.3335
 6273TIP3   OH218824   1.207   5.108   1.919  0.1528  0.3575  0.4485
 6273TIP3    H118825   1.148   5.175   1.954 -1.5837  0.2502 -2.0305
 6273TIP3    H218826   1.269   5.156   1.865  0.2457  0.1693  0.3851
 6274TIP3   OH218827   0.841   3.922   3.895 -0.4679 -0.2458 -0.1553
 6274TIP3    H118828   0.855   3.841   3.944  0.3494 -0.7366 -1.1737
 6274TIP3    H218829   0.891   3.910   3.814  1.0018  1.9354  0.3657
 6275TIP3   OH218830   1.131   2.978   3.394  0.1906 -0.1690  0.3125
 6275TIP3    H118831   1.220   3.012   3.403  0.6393 -1.3894  0.7050
 6275TIP3    H218832   1.086   3.043   3.340  1.6609 -0.1336 -0.9397
 6276TIP3   OH218833   3.941   0.540   2.201  0.3535  0.1443 -0.3247
 6276TIP3    H118834   3.993   0.478   2.252  0.0152  0.7590  0.7944
 6276TIP3    H218835   3.940   0.620   2.253 -0.2740  0.6924 -1.1439
 6277TIP3   OH218836   0.704   2.594   2.440  0.4025  0.1377 -0.3299
 6277TIP3    H118837   0.661   2.515   2.407 -3.0453  1.3270  0.9306
 6277TIP3    H218838   0.683   2.661   2.375  0.2939  0.7803  0.3602
 6278TIP3   OH218839   5.111   5.074   3.450 -0.5934 -0.2795 -0.1269
 6278TIP3    H118840   5.102   5.088   3.544 -0.5765  0.1878 -0.1896
 6278TIP3    H218841   5.025   5.098   3.415 -0.4759 -0.0638 -0.2694
 6279TIP3   OH218842   6.265   5.513   1.070  0.0946 -0.2392 -0.5650
 6279TIP3    H118843   6.300   5.426   1.088  0.0997 -0.3204 -0.9509
 6279TIP3    H218844   6.221   5.539   1.151 -0.2766 -0.7793 -0.5855
 6280TIP3   OH218845   4.901   3.078   2.001  0.2100 -0.1931 -0.3258
 6280TIP3    H118846   4.856   3.136   1.939  0.3782  0.4201  0.1133
 6280TIP3    H218847   4.955   3.022   1.946 -0.1258 -0.0833 -0.7767
 6281TIP3   OH218848   4.613   3.837   2.529 -0.0218 -0.0851  0.3609
 6281TIP3    H118849   4.549   3.908   2.523 -0.5925 -0.6654 -0.8136
 6281TIP3    H218850   4.683   3.863   2.470 -0.1655 -0.4211  0.0389
 6282TIP3   OH218851   3.233   3.789   4.294  0.0911 -0.0403 -0.2331
 6282TIP3    H118852   3.257   3.874   4.258  1.2008  0.4632  1.5501
 6282TIP3    H218853   3.151   3.805   4.341  1.5678  0.7484  2.2609
 6283TIP3   OH218854   2.217   4.798   3.224 -0.1043 -0.5310 -0.4748
 6283TIP3    H118855   2.157   4.854   3.174  0.0412  0.5412  0.4876
 6283TIP3    H218856   2.174   4.713   3.227 -0.2180 -0.5637 -2.2063
 6284TIP3   OH218857   5.611   1.655   4.474  0.1665 -0.3200  0.2230
 6284TIP3    H118858   5.646   1.569   4.496 -0.6594 -0.5858  0.5090
 6284TIP3    H218859   5.520   1.653   4.504 -0.3330  0.0999 -1.1605
 6285TIP3   OH218860   2.769   5.759   3.947 -0.6652  0.3256  0.0023
 6285TIP3    H118861   2.676   5.773   3.934 -1.3240 -3.8953 -1.4691
 6285TIP3    H218862   2.774   5.691   4.015  1.1432 -0.8510 -1.1960
 6286TIP3   OH218863   4.877   1.012   0.092 -0.0225 -0.2286  0.0384
 6286TIP3    H118864   4.907   0.935   0.043  1.3867 -0.7802  1.6638
 6286TIP3    H218865   4.783   1.016   0.075  0.2487 -0.9094 -1.9529
 6287TIP3   OH218866   0.706   2.443   0.464 -0.5876 -0.0795 -0.9728
 6287TIP3    H118867   0.716   2.466   0.372  2.7745  1.8520 -0.3213
 6287TIP3    H218868   0.766   2.369   0.477 -1.3013 -0.5701 -0.3794
 6288TIP3   OH218869   4.670   3.390   1.996 -0.4398 -0.1245 -0.2566
 6288TIP3    H118870   4.720   3.394   2.077 -0.4968  1.1108 -0.2651
 6288TIP3    H218871   4.686   3.302   1.962  2.1344  0.3697 -0.5300
 6289TIP3   OH218872   0.145   2.493   3.585  0.7599  0.1272 -0.1473
 6289TIP3    H118873   0.172   2.571   3.537 -0.6314  0.4203 -0.5056
 6289TIP3    H218874   0.186   2.420   3.537  2.6936  0.6331  0.6359
 6290TIP3   OH218875   6.024   4.639   1.752 -0.2249  0.0424 -0.4084
 6290TIP3    H118876   6.053   4.692   1.827 -1.9454  1.0579 -0.4006
 6290TIP3    H218877   6.104   4.623   1.702  1.4726 -2.7706  2.8058
 6291TIP3   OH218878   2.026   1.524   3.299 -0.1909 -0.1876 -0.5366
 6291TIP3    H118879   1.944   1.495   3.339 -0.1790  0.2659 -0.1746
 6291TIP3    H218880   2.001   1.591   3.236 -0.1158 -0.2071 -0.5885
 6292TIP3   OH218881   5.569   0.487   3.875  0.1089 -0.4504  0.1737
 6292TIP3    H118882   5.616   0.569   3.888 -1.1018  0.3420 -0.3454
 6292TIP3    H218883   5.498   0.508   3.815 -1.4313 -1.4089  1.5568
 6293TIP3   OH218884   2.618   2.158   1.734  0.4517 -0.3280  1.3360
 6293TIP3    H118885   2.525   2.149   1.754  0.2676  1.6109  1.6363
 6293TIP3    H218886   2.656   2.190   1.816  1.4250 -1.2162  1.2536
 6294TIP3   OH218887   2.377   2.044   2.827 -0.2285 -0.2672  0.1149
 6294TIP3    H118888   2.289   2.055   2.864 -0.0722 -1.0282  0.7417
 6294TIP3    H218889   2.365   2.058   2.733 -1.3423 -2.0543 -0.0466
 6295TIP3   OH218890   2.852   3.687   2.358  0.7727 -0.3193  0.3234
 6295TIP3    H118891   2.812   3.628   2.293  0.1824  1.0759 -0.6316
 6295TIP3    H218892   2.946   3.674   2.347  0.6700 -0.4681 -0.4670
 6296TIP3   OH218893   0.724   5.665   0.415  0.0836  0.2811  0.1157
 6296TIP3    H118894   0.779   5.718   0.472 -1.0520  0.8266  0.7275
 6296TIP3    H218895   0.638   5.666   0.456 -0.4841 -0.2680 -1.0028
 6297TIP3   OH218896   1.492   0.582   5.022 -0.5772  0.3347  0.0541
 6297TIP3    H118897   1.433   0.521   4.979  0.9505 -1.1466 -0.0660
 6297TIP3    H218898   1.435   0.645   5.066 -2.1923 -0.5133 -0.7706
 6298TIP3   OH218899   2.473   1.665   5.017  0.2535  0.3403  0.3404
 6298TIP3    H118900   2.537   1.716   4.969 -0.4506  1.3684  0.4607
 6298TIP3    H218901   2.400   1.725   5.032 -0.5860 -0.6885  0.5265
 6299TIP3   OH218902   6.289   5.777   4.748 -0.2429  0.5791  0.5720
 6299TIP3    H118903   6.233   5.754   4.822  0.9678  0.7308  1.5810
 6299TIP3    H218904   6.234   5.764   4.671 -1.3781 -0.1040  1.4612
 6300TIP3   OH218905   5.366   3.827   2.718  0.1421  0.2619 -0.0379
 6300TIP3    H118906   5.458   3.812   2.741  0.2516  0.9588  0.0227
 6300TIP3    H218907   5.363   3.815   2.623  0.4593  0.9571 -0.1451
 6301TIP3   OH218908   4.783   4.036   2.903 -0.0639  0.3879  0.5029
 6301TIP3    H118909   4.704   4.052   2.954  1.1651  1.0122  2.2914
 6301TIP3    H218910   4.820   4.123   2.888  1.5662 -0.0116  1.8735
 6302TIP3   OH218911   1.547   2.272   3.895 -0.2779 -0.0171 -0.1760
 6302TIP3    H118912   1.499   2.347   3.860 -1.1180  0.4052  1.7110
 6302TIP3    H218913   1.479   2.217   3.934  0.5389 -0.6215  0.4309
 6303TIP3   OH218914   3.783   1.677   5.055  0.3147 -0.3349 -0.5007
 6303TIP3    H118915   3.746   1.689   5.143  0.1665  0.5899 -0.6787
 6303TIP3    H218916   3.760   1.757   5.008  0.7156 -0.6615 -1.2760
 6304TIP3   OH218917   4.464   5.911   2.634 -0.0963  0.9347  0.0641
 6304TIP3    H118918   4.559   5.914   2.622 -0.1191  2.0768  0.0022
 6304TIP3    H218919   4.443   5.994   2.678 -1.0657  0.7156  0.0436
 6305TIP3   OH218920   3.301   4.721   3.665 -0.5169 -0.4276  0.3769
 6305TIP3    H118921   3.251   4.681   3.594 -0.2417 -1.1355  0.5705
 6305TIP3    H218922   3.388   4.735   3.628  0.0070 -1.9782  0.9306
 6306TIP3   OH218923   4.743   5.840   1.354 -0.0095  0.8448 -0.1005
 6306TIP3    H118924   4.760   5.829   1.260  0.3012 -0.1050  0.0559
 6306TIP3    H218925   4.652   5.867   1.359 -0.5168 -0.6489 -0.6082
 6307TIP3   OH218926   5.945   2.035   3.548 -0.0571 -0.3444  0.9276
 6307TIP3    H118927   5.869   2.093   3.546  1.1293  1.3801 -2.6060
 6307TIP3    H218928   6.011   2.083   3.599 -0.0988 -0.0541  0.7109
 6308TIP3   OH218929   1.028   5.199   4.784  0.4584 -0.4976 -0.6206
 6308TIP3    H118930   1.114   5.221   4.749  0.0458  0.0218 -1.3350
 6308TIP3    H218931   1.010   5.268   4.848  0.2356 -0.1535 -1.0499
 6309TIP3   OH218932   2.447   5.033   2.668  0.0154 -0.0146  0.0818
 6309TIP3    H118933   2.401   5.112   2.697 -1.0575 -1.6598  3.3936
 6309TIP3    H218934   2.539   5.054   2.680 -0.2092  0.9961  0.1876
 6310TIP3   OH218935   0.335   3.607   4.605 -0.3321  0.3579  0.2759
 6310TIP3    H118936   0.379   3.570   4.528  0.0829 -0.3044  0.8128
 6310TIP3    H218937   0.323   3.532   4.663  0.0722  0.9871  1.1915
 6311TIP3   OH218938   2.826   5.948   0.204 -0.5985  0.0627  0.3970
 6311TIP3    H118939   2.921   5.949   0.215 -0.1047  0.4202 -3.0029
 6311TIP3    H218940   2.797   6.035   0.234  0.0599 -0.1439  1.6959
 6312TIP3   OH218941   2.502   4.046   4.915 -0.0481 -0.1572 -0.0906
 6312TIP3    H118942   2.422   3.999   4.939 -0.5419 -0.4123 -2.0675
 6312TIP3    H218943   2.476   4.137   4.908  0.1201 -0.0677  0.3879
 6313TIP3   OH218944   3.798   3.355   0.793 -0.1536 -0.0057  0.7225
 6313TIP3    H118945   3.811   3.400   0.876 -0.0875  0.0541  0.6802
 6313TIP3    H218946   3.792   3.425   0.728  1.5700 -0.0779  0.4350
 6314TIP3   OH218947   3.367   3.805   0.357 -0.7453 -0.0848 -1.0051
 6314TIP3    H118948   3.310   3.816   0.282 -1.4039  0.9443 -0.3699
 6314TIP3    H218949   3.328   3.858   0.426  1.0783  0.8183 -0.6126
 6315TIP3   OH218950   4.082   2.883   4.572 -0.5197 -0.3500 -0.1190
 6315TIP3    H118951   4.036   2.957   4.534 -0.7553 -0.9825 -1.1039
 6315TIP3    H218952   4.127   2.841   4.498 -0.3246 -1.1406  0.4247
 6316TIP3   OH218953   0.185   1.229   1.052 -0.0336  0.1115 -0.1610
 6316TIP3    H118954   0.196   1.176   1.131  1.8132  0.1625 -0.3380
 6316TIP3    H218955   0.243   1.304   1.065  0.2081  0.1873 -1.4929
 6317TIP3   OH218956   0.047   5.956   2.296 -0.0848 -0.0841  0.0625
 6317TIP3    H118957   0.052   5.861   2.299 -0.0547 -0.1032 -0.4552
 6317TIP3    H218958  -0.046   5.975   2.279 -0.0824 -0.0212  0.1172
 6318TIP3   OH218959   3.317   3.292   4.024  0.0331 -0.9848 -0.8066
 6318TIP3    H118960   3.261   3.279   3.947  0.6347  0.2666 -1.4764
 6318TIP3    H218961   3.267   3.254   4.096 -1.8087  0.3109 -1.3401
 6319TIP3   OH218962   3.217   1.615   0.517  0.0206  0.6803  0.3702
 6319TIP3    H118963   3.299   1.657   0.490 -0.0562  0.0178 -1.0054
 6319TIP3    H218964   3.224   1.606   0.612  2.2315 -0.7475  0.1340
 6320TIP3   OH218965   0.194   0.107   4.062 -0.3228  0.2271  0.0205
 6320TIP3    H118966   0.126   0.163   4.099 -0.1108 -0.1245  0.9740
 6320TIP3    H218967   0.267   0.167   4.045  0.5782  0.0306  2.7220
 6321TIP3   OH218968   1.183   5.459   0.383 -0.5116  0.4260  0.5626
 6321TIP3    H118969   1.170   5.383   0.326 -0.6056  0.2383  0.8324
 6321TIP3    H218970   1.270   5.491   0.359  0.4405 -1.0168  1.8720
 6322TIP3   OH218971   0.432   0.938   1.971 -0.0720  0.1507 -0.4282
 6322TIP3    H118972   0.404   0.880   2.043 -0.2058  0.6535 -0.0723
 6322TIP3    H218973   0.463   1.017   2.015  0.0134  0.3939 -0.9222
 6323TIP3   OH218974   5.437   5.737   3.788 -0.1383 -0.0738 -0.4844
 6323TIP3    H118975   5.404   5.687   3.863 -0.8312 -0.1096 -0.8028
 6323TIP3    H218976   5.367   5.732   3.724  0.3322  0.2041 -1.0273
 6324TIP3   OH218977   3.859   0.665   0.812  0.0353  0.1899 -0.0997
 6324TIP3    H118978   3.919   0.728   0.853  0.4525  2.0190 -3.1896
 6324TIP3    H218979   3.772   0.700   0.828  0.2879  2.0098 -2.2435
 6325TIP3   OH218980   0.265   5.116   2.888 -0.3236 -0.2281 -0.6862
 6325TIP3    H118981   0.279   5.207   2.912  1.7078 -0.6257 -0.1901
 6325TIP3    H218982   0.318   5.103   2.809 -1.6345 -0.6677 -1.5356
 6326TIP3   OH218983   1.854   1.172   3.560 -0.1178 -0.0844 -0.5207
 6326TIP3    H118984   1.823   1.254   3.597  4.3373  1.3636  0.6211
 6326TIP3    H218985   1.841   1.181   3.466 -2.5321  0.4883 -0.1874
 6327TIP3   OH218986   0.967   1.018   4.173 -0.2712 -0.2339 -0.5439
 6327TIP3    H118987   0.878   0.982   4.171 -0.5777  0.0700  2.4901
 6327TIP3    H218988   1.024   0.942   4.174 -0.6094 -0.4895 -0.5072
 6328TIP3   OH218989   3.667   4.880   4.649  0.1328 -0.0681  0.0647
 6328TIP3    H118990   3.574   4.872   4.628  0.3094  0.1309 -0.8767
 6328TIP3    H218991   3.678   4.834   4.732 -0.7268 -0.4593 -0.0298
 6329TIP3   OH218992   2.904   4.903   3.608 -0.0263 -0.5208 -0.6310
 6329TIP3    H118993   2.910   4.820   3.654 -0.5861 -0.7577 -0.9744
 6329TIP3    H218994   2.990   4.943   3.619  0.4509 -1.4223 -0.9771
 6330TIP3   OH218995   4.076   0.821   4.460 -0.4000 -0.4637  0.4889
 6330TIP3    H118996   4.118   0.869   4.532  1.0104 -0.8257 -0.0549
 6330TIP3    H218997   4.123   0.738   4.456 -0.3311 -0.3915 -0.9363
 6331TIP3   OH218998   0.639   2.702   0.958  0.7155 -0.8703  0.2205
 6331TIP3    H118999   0.636   2.637   0.888 -2.2521  0.4297 -0.9923
 6331TIP3    H219000   0.710   2.761   0.932  1.1766 -1.6910 -0.4520
 6332TIP3   OH219001   2.808   0.925   3.453 -0.1203 -0.0629 -0.3489
 6332TIP3    H119002   2.720   0.890   3.437 -0.2114  0.0536 -0.1211
 6332TIP3    H219003   2.811   0.937   3.548 -0.0859  0.5214 -0.4210
 6333TIP3   OH219004   3.582   4.393   2.484 -0.1707 -0.3617  0.2593
 6333TIP3    H119005   3.564   4.389   2.390 -2.1164 -0.0543  0.5817
 6333TIP3    H219006   3.581   4.486   2.505 -2.7080 -0.4737  1.0348
 6334TIP3   OH219007   4.481   3.605   2.671  0.6877  0.0548  0.2903
 6334TIP3    H119008   4.546   3.536   2.683  2.0390  1.0746 -0.8923
 6334TIP3    H219009   4.529   3.677   2.631 -1.7299 -0.2238 -3.6360
 6335TIP3   OH219010   1.485   1.979   1.928 -0.2754  0.3776  0.1192
 6335TIP3    H119011   1.395   1.947   1.926  0.4823 -2.0431  1.2873
 6335TIP3    H219012   1.480   2.060   1.979 -1.7165 -0.0375  0.7000
 6336TIP3   OH219013   1.886   0.990   5.018  0.3397 -0.3313  0.0060
 6336TIP3    H119014   1.853   1.075   5.049  1.4527  0.1413 -0.0388
 6336TIP3    H219015   1.954   1.013   4.955  0.4124 -1.2675 -0.2634
 6337TIP3   OH219016   1.388   5.158   4.445 -0.2232  0.1674 -0.3855
 6337TIP3    H119017   1.333   5.229   4.480  0.5029  0.7704 -0.4515
 6337TIP3    H219018   1.415   5.190   4.359  1.1283  0.3733  0.0892
 6338TIP3   OH219019   3.530   2.151   0.708  0.4710 -0.5324  0.4221
 6338TIP3    H119020   3.479   2.136   0.787  0.1611 -1.3907  0.0704
 6338TIP3    H219021   3.559   2.242   0.715 -1.4861  0.1455  0.4166
 6339TIP3   OH219022   1.220   5.826   0.941  0.0381 -0.2270  0.2730
 6339TIP3    H119023   1.307   5.792   0.922  0.8881  1.8236  0.2467
 6339TIP3    H219024   1.233   5.893   1.008 -0.9828  2.3199 -1.8379
 6340TIP3   OH219025   2.559   5.170   3.388 -0.2784 -0.3704 -0.0313
 6340TIP3    H119026   2.590   5.199   3.474 -1.8763 -0.5621  0.6575
 6340TIP3    H219027   2.481   5.222   3.372  0.8803  0.8361 -2.1714
 6341TIP3   OH219028   6.187   0.746   1.612  0.0387  0.6369 -0.3879
 6341TIP3    H119029   6.215   0.777   1.698  1.4669  2.1846 -1.3498
 6341TIP3    H219030   6.133   0.670   1.631 -0.4063  1.4380  1.9133
 6342TIP3   OH219031   1.275   3.050   2.795  0.1647  0.1427  0.0049
 6342TIP3    H119032   1.202   3.029   2.854 -1.5024  0.3675 -1.8824
 6342TIP3    H219033   1.233   3.087   2.717  2.0644 -2.1901 -2.2955
 6343TIP3   OH219034   6.260   4.580   2.886 -0.1905  0.7617 -0.5634
 6343TIP3    H119035   6.214   4.652   2.930  0.5708  1.0121 -0.1512
 6343TIP3    H219036   6.257   4.508   2.948 -0.8305  0.4805 -0.9193
 6344TIP3   OH219037   2.174   5.082   4.126 -0.0148  0.7260  0.4246
 6344TIP3    H119038   2.109   5.056   4.061  0.7713 -0.7893  0.2052
 6344TIP3    H219039   2.175   5.011   4.189  1.9137  0.3671  0.0449
 6345TIP3   OH219040   4.672   4.587   2.664 -0.1411 -0.0508 -0.4479
 6345TIP3    H119041   4.713   4.673   2.672  0.4600 -0.1215 -2.3391
 6345TIP3    H219042   4.589   4.596   2.711 -0.5815  1.9004 -1.5161
 6346TIP3   OH219043   6.065   4.739   3.031 -0.3107 -0.3443 -0.1209
 6346TIP3    H119044   6.070   4.668   3.095 -0.4846  0.4268  0.7599
 6346TIP3    H219045   6.132   4.801   3.059  2.6761 -1.8475 -3.0912
 6347TIP3   OH219046   1.904   2.208   1.823 -0.5308  0.0681  0.7118
 6347TIP3    H119047   1.947   2.126   1.850  0.3854  0.3814  0.2323
 6347TIP3    H219048   1.958   2.277   1.862 -0.1300  0.4895 -0.5676
 6348TIP3   OH219049   4.050   3.525   1.852  0.1097  0.3017  0.1725
 6348TIP3    H119050   3.962   3.558   1.835 -0.1987 -0.6809 -0.2184
 6348TIP3    H219051   4.036   3.438   1.888  0.8844  0.8276  1.8144
 6349TIP3   OH219052   1.207   2.240   1.868  0.0066  0.0624 -0.1683
 6349TIP3    H119053   1.113   2.259   1.862 -0.3594 -1.9712 -2.0228
 6349TIP3    H219054   1.212   2.160   1.920  0.5777 -0.5047 -1.0640
 6350TIP3   OH219055   3.723   5.648   1.238 -0.2093  0.4757  0.3515
 6350TIP3    H119056   3.787   5.615   1.175 -1.1011 -1.4925  0.4178
 6350TIP3    H219057   3.665   5.574   1.256 -1.1396  1.5296  2.0420
 6351TIP3   OH219058   2.445   0.889   1.129 -0.1614  0.2828 -0.1221
 6351TIP3    H119059   2.373   0.949   1.148  0.0136  0.3375  0.3793
 6351TIP3    H219060   2.479   0.918   1.045 -0.6872  0.2953 -0.3321
 6352TIP3   OH219061   4.305   4.527   1.568 -0.4726 -0.2020 -0.0093
 6352TIP3    H119062   4.286   4.581   1.491 -1.0024 -0.7733 -0.2821
 6352TIP3    H219063   4.367   4.580   1.618  1.6804 -0.7560 -1.9083
 6353TIP3   OH219064   3.592   1.653   2.084  0.2343  0.6090 -0.4541
 6353TIP3    H119065   3.545   1.570   2.082 -3.0060  2.2187  1.5631
 6353TIP3    H219066   3.620   1.662   2.176  1.3416  1.4027 -0.8446
 6354TIP3   OH219067   3.105   4.147   1.941 -0.3140  0.1544  0.8161
 6354TIP3    H119068   3.031   4.186   1.988 -1.5618  1.1970 -1.7949
 6354TIP3    H219069   3.168   4.218   1.931 -1.5104  0.9587 -1.8078
 6355TIP3   OH219070   0.745   2.780   0.595  0.0071 -0.3699  0.3517
 6355TIP3    H119071   0.834   2.747   0.582  0.4498  0.2104  1.7720
 6355TIP3    H219072   0.757   2.866   0.634 -1.1716 -0.7825  1.7058
 6356TIP3   OH219073   3.239   4.240   1.644  0.2463  0.1690  0.1530
 6356TIP3    H119074   3.187   4.316   1.616  0.3724  0.4579  0.6873
 6356TIP3    H219075   3.174   4.177   1.676  0.0545 -0.3887 -1.2676
 6357TIP3   OH219076   0.637   5.857   2.018 -0.1170  0.5155  0.6551
 6357TIP3    H119077   0.624   5.928   2.080 -0.6092  1.1774 -0.1820
 6357TIP3    H219078   0.715   5.883   1.968 -1.1587  1.2334 -0.6556
 6358TIP3   OH219079   2.532   0.369   1.232  0.4890  0.0040  0.3595
 6358TIP3    H119080   2.472   0.307   1.273  1.5180 -0.8702  0.5760
 6358TIP3    H219081   2.480   0.411   1.163 -0.2650 -0.9722  0.3191
 6359TIP3   OH219082   6.358   5.480   2.755  0.7021  0.5259  0.4653
 6359TIP3    H119083   6.369   5.455   2.846 -0.8094 -1.6085  0.1314
 6359TIP3    H219084   6.285   5.542   2.755 -0.7736 -1.1446  0.5363
 6360TIP3   OH219085   6.251   5.897   1.345 -0.0855  0.2776 -0.2488
 6360TIP3    H119086   6.159   5.886   1.370  0.7125 -1.9153  2.1342
 6360TIP3    H219087   6.248   5.908   1.250 -2.6890 -2.2174 -0.6025
 6361TIP3   OH219088   1.393   1.342   4.318 -0.3592  0.0576 -0.2481
 6361TIP3    H119089   1.482   1.325   4.350 -0.3068  0.2788 -0.2791
 6361TIP3    H219090   1.339   1.342   4.397 -0.4058 -0.5564 -0.2758
 6362TIP3   OH219091   5.450   1.627   1.617 -0.1819  0.1586  0.3872
 6362TIP3    H119092   5.407   1.713   1.625 -2.2939 -0.8069  0.1453
 6362TIP3    H219093   5.450   1.609   1.523  1.4654  0.4225  0.3048
 6363TIP3   OH219094   0.655   3.268   1.897 -0.2124  0.0111  0.1337
 6363TIP3    H119095   0.568   3.298   1.920 -0.3331  0.5764 -0.9698
 6363TIP3    H219096   0.654   3.174   1.913 -1.8117 -0.4202 -2.0268
 6364TIP3   OH219097   1.407   4.273   0.256  0.6559 -1.1015  0.0115
 6364TIP3    H119098   1.383   4.333   0.328  0.9514 -0.9303 -0.0293
 6364TIP3    H219099   1.324   4.252   0.214  0.6354  0.1014 -0.6177
 6365TIP3   OH219100   1.778   5.975   3.990  0.3594  0.3092 -0.1483
 6365TIP3    H119101   1.775   6.000   3.897  1.1822 -0.4082 -0.3710
 6365TIP3    H219102   1.695   5.930   4.005 -0.3145  1.4899 -0.2183
 6366TIP3   OH219103   3.464   4.561   1.136  0.1430 -0.1021  0.3148
 6366TIP3    H119104   3.488   4.630   1.075 -0.9251  1.2624  1.3885
 6366TIP3    H219105   3.508   4.584   1.218  1.4898 -1.8600  0.1461
 6367TIP3   OH219106   6.215   0.421   1.540 -0.3878 -0.3439  0.4251
 6367TIP3    H119107   6.171   0.340   1.565 -1.5544  0.7586  2.1834
 6367TIP3    H219108   6.304   0.411   1.574 -0.5245 -0.8728  0.6382
 6368TIP3   OH219109   3.535   5.732   2.569  0.5485 -0.1208  0.1852
 6368TIP3    H119110   3.515   5.716   2.661  0.5710  0.6499  0.3245
 6368TIP3    H219111   3.625   5.701   2.558  0.9718  0.8796  0.7147
 6369TIP3   OH219112   5.280   4.114   1.569 -0.2895  0.0963 -0.2114
 6369TIP3    H119113   5.260   4.204   1.593  1.0423 -0.0859  1.7393
 6369TIP3    H219114   5.196   4.068   1.577 -1.1893  1.2989 -2.1679
 6370TIP3   OH219115   4.331   1.429   2.683  0.4683 -0.5762 -0.8494
 6370TIP3    H119116   4.370   1.502   2.731 -1.5107  0.8949 -1.3285
 6370TIP3    H219117   4.405   1.372   2.662  1.7641  0.1072  1.5091
 6371TIP3   OH219118   3.006   2.382   4.341 -0.3418 -0.0902  0.1331
 6371TIP3    H119119   3.069   2.361   4.271  0.5001 -1.1077  1.1581
 6371TIP3    H219120   2.925   2.403   4.294  0.3803 -0.0894 -1.1743
 6372TIP3   OH219121   4.383   0.637   2.743  0.1199  0.1311 -0.2052
 6372TIP3    H119122   4.333   0.567   2.786 -1.5191  1.5113  0.2288
 6372TIP3    H219123   4.329   0.715   2.753  0.9592  1.0803 -2.4407
 6373TIP3   OH219124   1.904   5.069   2.504 -0.6549 -0.4729 -0.0666
 6373TIP3    H119125   1.845   4.998   2.479 -1.0872 -0.7791  1.6663
 6373TIP3    H219126   1.923   5.115   2.422 -4.0254  0.1840 -0.6571
 6374TIP3   OH219127   4.859   4.104   4.339 -0.5855  0.1894  0.8077
 6374TIP3    H119128   4.768   4.084   4.314 -0.6081 -0.1017  1.1136
 6374TIP3    H219129   4.910   4.079   4.262 -0.7631  0.3253  0.6446
 6375TIP3   OH219130   1.850   2.596   2.384  0.0849 -0.3709  0.0897
 6375TIP3    H119131   1.776   2.638   2.428  0.1828  0.4626 -0.5045
 6375TIP3    H219132   1.817   2.577   2.296  0.5924  0.1053 -0.2127
 6376TIP3   OH219133   4.380   1.492   4.096 -0.1491  1.0265 -0.4508
 6376TIP3    H119134   4.387   1.479   4.190 -1.6596 -1.3809 -0.6061
 6376TIP3    H219135   4.455   1.548   4.074  0.7986  0.8321  2.0157
 6377TIP3   OH219136   5.978   3.624   2.858 -0.6573  0.2363  0.4318
 6377TIP3    H119137   5.909   3.578   2.905 -1.9819 -0.0275 -1.6291
 6377TIP3    H219138   5.942   3.638   2.770  1.5518  0.9589 -0.4301
 6378TIP3   OH219139   3.795   5.092   0.861 -0.0689  0.2079 -0.1339
 6378TIP3    H119140   3.852   5.125   0.930 -1.2631 -0.1099  1.0301
 6378TIP3    H219141   3.748   5.169   0.829  0.1579  0.2845 -0.2827
 6379TIP3   OH219142   0.932   5.008   2.186  0.3576  0.4804 -0.1034
 6379TIP3    H119143   0.902   5.070   2.120  1.2796  1.2735  0.2067
 6379TIP3    H219144   0.984   4.944   2.136  0.1674  0.4740 -0.2935
 6380TIP3   OH219145   5.577   3.994   1.359 -0.2601  0.0205 -0.1480
 6380TIP3    H119146   5.670   3.980   1.380  0.1023 -0.1557 -1.7059
 6380TIP3    H219147   5.533   3.918   1.397  0.5548 -1.0432 -1.2357
 6381TIP3   OH219148   2.591   3.062   2.090 -0.1050 -0.3835 -0.3570
 6381TIP3    H119149   2.537   3.051   2.012 -0.0128 -0.9820 -0.3409
 6381TIP3    H219150   2.646   2.983   2.092 -1.8503 -1.6294  1.7036
 6382TIP3   OH219151   2.802   2.495   1.033  0.2450  0.0599 -0.2643
 6382TIP3    H119152   2.795   2.432   1.104 -0.9428 -0.3591 -0.7335
 6382TIP3    H219153   2.745   2.461   0.964  0.1773  1.2442 -0.8292
 6383TIP3   OH219154   2.042   1.585   2.240  0.3173 -0.3042 -0.3453
 6383TIP3    H119155   1.948   1.571   2.247  0.5109 -0.9829  1.1008
 6383TIP3    H219156   2.075   1.508   2.193  0.2964 -0.6565  0.2103
 6384TIP3   OH219157   3.211   1.209   0.400 -0.7471 -0.2512 -0.8019
 6384TIP3    H119158   3.209   1.233   0.307  0.4484  0.6594 -0.6284
 6384TIP3    H219159   3.127   1.240   0.435 -0.1777  1.7740 -1.0797
 6385TIP3   OH219160   3.466   4.711   4.092  0.0941 -0.1601  0.3714
 6385TIP3    H119161   3.437   4.708   4.183 -0.6293 -1.0424  0.1210
 6385TIP3    H219162   3.491   4.803   4.078 -4.2392  1.2015  0.1381
 6386TIP3   OH219163   5.860   5.371   0.170 -0.1280 -0.7006  0.0039
 6386TIP3    H119164   5.861   5.464   0.189 -2.5918 -0.1843 -1.8116
 6386TIP3    H219165   5.949   5.350   0.144  0.3866  1.2234  0.0946
 6387TIP3   OH219166   4.750   1.997   2.853  0.0290 -0.5549  0.2702
 6387TIP3    H119167   4.841   2.023   2.841  0.0850 -0.5593  0.6454
 6387TIP3    H219168   4.744   1.909   2.817 -0.3719  0.2855 -1.8248
 6388TIP3   OH219169   3.241   5.312   0.309 -0.2079  0.0392 -0.5982
 6388TIP3    H119170   3.235   5.291   0.402 -1.8706 -0.8307 -0.8615
 6388TIP3    H219171   3.177   5.382   0.296  1.7177  1.9056 -0.6911
 6389TIP3   OH219172   3.332   0.951   4.616  0.5763 -0.4784  0.4433
 6389TIP3    H119173   3.342   1.008   4.692 -1.1254  0.0642  0.2877
 6389TIP3    H219174   3.276   0.879   4.646 -0.2557 -0.1690 -0.3230
 6390TIP3   OH219175   1.033   0.983   0.887 -0.2397  0.0440  0.0428
 6390TIP3    H119176   1.056   0.943   0.970 -1.0310 -1.0162 -0.2325
 6390TIP3    H219177   0.955   1.036   0.906 -1.1807 -1.1924 -0.2538
 6391TIP3   OH219178   1.355   2.243   2.364 -0.4809 -0.2934 -0.5127
 6391TIP3    H119179   1.271   2.259   2.320  0.5007  1.1180 -1.9928
 6391TIP3    H219180   1.369   2.322   2.417  0.2013 -0.2364 -0.7745
 6392TIP3   OH219181   1.987   1.198   3.990 -0.6160  0.8454 -0.1065
 6392TIP3    H119182   2.019   1.273   3.939 -0.2134  0.3453 -0.6060
 6392TIP3    H219183   2.054   1.131   3.977 -0.2068  0.8845  1.5515
 6393TIP3   OH219184   4.735   1.115   2.300  0.3127  0.1096  0.9667
 6393TIP3    H119185   4.782   1.049   2.248  0.4341  1.4306 -0.6737
 6393TIP3    H219186   4.795   1.136   2.371  1.6264  0.7004 -0.2685
 6394TIP3   OH219187   2.490   1.794   1.130  0.2706 -0.6262  0.1075
 6394TIP3    H119188   2.541   1.809   1.051  1.4164  2.0044  1.1870
 6394TIP3    H219189   2.544   1.734   1.182 -0.0277 -1.5962 -0.6833
 6395TIP3   OH219190   5.889   1.199   1.817 -0.5204  0.2691  0.2139
 6395TIP3    H119191   5.952   1.131   1.795  0.1996  0.6473  1.0705
 6395TIP3    H219192   5.803   1.159   1.800 -0.0863 -0.6118  0.0853
 6396TIP3   OH219193   3.035   4.860   4.163  0.1370 -0.0496 -0.7487
 6396TIP3    H119194   3.055   4.852   4.256 -0.0845  2.1406 -0.4467
 6396TIP3    H219195   2.940   4.864   4.159  0.0778 -1.3656 -1.2363
 6397TIP3   OH219196   0.032   5.645   3.750  0.4513 -0.0773 -0.1837
 6397TIP3    H119197  -0.011   5.679   3.829  0.5165 -1.0682  0.2959
 6397TIP3    H219198   0.060   5.723   3.703 -0.1872  0.5493  0.4381
 6398TIP3   OH219199   5.064   4.272   3.114 -0.0901  0.2113 -0.1749
 6398TIP3    H119200   5.150   4.305   3.140  0.2498 -1.1388  0.4958
 6398TIP3    H219201   5.002   4.335   3.152  0.4792 -0.6509  2.4276
 6399TIP3   OH219202   1.719   3.047   1.233 -0.3478 -0.3550  0.4921
 6399TIP3    H119203   1.647   3.104   1.205 -0.6128 -0.9979 -0.1674
 6399TIP3    H219204   1.770   3.100   1.294 -1.3513  0.1231  0.9233
 6400TIP3   OH219205   4.924   5.174   2.293 -0.4653  0.1711 -0.5308
 6400TIP3    H119206   4.966   5.252   2.256  0.2060  0.4383  0.7465
 6400TIP3    H219207   4.893   5.126   2.216  1.6280  0.2718 -1.5298
 6401TIP3   OH219208   0.885   5.773   5.010  0.0730 -0.1005 -0.1068
 6401TIP3    H119209   0.806   5.735   4.972 -0.3686  1.6752 -1.0759
 6401TIP3    H219210   0.946   5.699   5.017 -1.4040 -1.3694  0.0065
 6402TIP3   OH219211   5.916   0.633   4.326  0.1936  0.1063 -0.2571
 6402TIP3    H119212   5.916   0.564   4.393 -3.1640 -0.6771 -0.8826
 6402TIP3    H219213   5.927   0.715   4.376 -0.1505 -0.5993  1.0169
 6403TIP3   OH219214   4.291   2.338   2.081 -0.0661 -0.6343  0.7901
 6403TIP3    H119215   4.241   2.409   2.041 -0.3554 -0.5721  1.2543
 6403TIP3    H219216   4.358   2.382   2.133 -0.1044 -0.7062  0.8997
 6404TIP3   OH219217   5.855   3.802   0.361  0.4669 -0.7327 -0.4859
 6404TIP3    H119218   5.864   3.856   0.439 -2.0594  0.1926 -0.7316
 6404TIP3    H219219   5.888   3.857   0.290  1.1804 -0.9115 -0.2979
 6405TIP3   OH219220   4.138   5.389   0.814  0.0320  0.4924 -0.4166
 6405TIP3    H119221   4.170   5.445   0.885 -0.6817  0.8560 -0.3728
 6405TIP3    H219222   4.054   5.427   0.789  0.0969  0.1410 -1.2045
 6406TIP3   OH219223   1.951   0.465   4.355  0.2713 -0.5199 -0.5684
 6406TIP3    H119224   1.898   0.419   4.290  0.4933 -0.9910 -0.4182
 6406TIP3    H219225   2.025   0.500   4.305 -0.1379  0.0801 -0.7662
 6407TIP3   OH219226   5.573   2.854   0.402  0.2735 -0.3358  0.3341
 6407TIP3    H119227   5.635   2.854   0.475 -1.4713  0.7879  1.9089
 6407TIP3    H219228   5.590   2.936   0.356  0.8353 -0.6683 -0.0657
 6408TIP3   OH219229   5.372   5.656   1.375 -0.9299  0.5920 -0.2716
 6408TIP3    H119230   5.301   5.606   1.416 -0.0472  1.1736  2.1294
 6408TIP3    H219231   5.445   5.594   1.369 -0.1693  1.2226  1.7387
 6409TIP3   OH219232   3.327   0.526   5.153  0.1906  0.2867  0.0145
 6409TIP3    H119233   3.298   0.497   5.066  1.4975  1.4912 -0.8832
 6409TIP3    H219234   3.247   0.534   5.204 -0.7721  0.9134 -1.5169
 6410TIP3   OH219235   5.851   2.174   2.581 -0.5027 -0.6267 -0.0094
 6410TIP3    H119236   5.813   2.087   2.594 -0.1019 -0.9302 -0.8084
 6410TIP3    H219237   5.944   2.157   2.563 -0.5763 -0.0929 -0.9447
 6411TIP3   OH219238   0.320   0.715   4.987 -0.0787  0.3456 -0.7202
 6411TIP3    H119239   0.289   0.670   4.909 -0.8138 -1.5215  0.5918
 6411TIP3    H219240   0.411   0.688   4.997  0.0850  0.7696 -1.0503
 6412TIP3   OH219241   1.896   0.931   3.715  0.0460  0.5493 -1.1756
 6412TIP3    H119242   1.869   0.865   3.651 -0.3680 -0.3115 -0.1391
 6412TIP3    H219243   1.910   1.010   3.663  2.7267 -0.8501 -2.8283
 6413TIP3   OH219244   4.578   4.283   1.564  0.8571 -0.0080  0.2350
 6413TIP3    H119245   4.595   4.223   1.636 -0.1139  0.9941  1.3234
 6413TIP3    H219246   4.483   4.293   1.562  0.7685 -0.7323 -1.8056
 6414TIP3   OH219247   2.402   2.101   0.935 -0.4933 -0.1660  0.1970
 6414TIP3    H119248   2.365   2.171   0.880  0.8392  0.0885 -0.4534
 6414TIP3    H219249   2.419   2.143   1.019 -0.0268  0.2168 -0.0799
 6415TIP3   OH219250   5.631   4.548   0.192 -0.1285 -0.2641 -0.5109
 6415TIP3    H119251   5.607   4.475   0.249  3.0578 -0.5515  0.6331
 6415TIP3    H219252   5.567   4.545   0.121 -1.7483 -2.4202  0.9209
 6416TIP3   OH219253   6.005   2.771   5.035 -0.2274  0.2369  0.3061
 6416TIP3    H119254   5.925   2.776   5.088 -0.4902  2.3960 -0.2167
 6416TIP3    H219255   6.006   2.852   4.985  0.5985 -1.2150 -2.2087
 6417TIP3   OH219256   2.477   4.112   0.611 -0.5152 -0.2698  0.3262
 6417TIP3    H119257   2.518   4.187   0.568 -1.2005 -0.3354 -0.4738
 6417TIP3    H219258   2.529   4.099   0.691 -0.6707  1.3361  0.7313
 6418TIP3   OH219259   5.066   1.785   3.672 -0.6743 -0.2235  0.3454
 6418TIP3    H119260   5.059   1.831   3.588 -0.2635 -1.4310 -0.3763
 6418TIP3    H219261   5.012   1.707   3.662 -1.5856  0.2141  1.6521
 6419TIP3   OH219262   0.800   0.061   4.380  0.5221  0.6734  0.0027
 6419TIP3    H119263   0.722   0.099   4.420  2.1790  2.8451  1.4756
 6419TIP3    H219264   0.812  -0.022   4.425 -0.7026  0.4963  0.0278
 6420TIP3   OH219265   3.186   3.657   3.662  0.2267  0.4576  0.0033
 6420TIP3    H119266   3.179   3.637   3.569  1.3847 -1.0917  0.2192
 6420TIP3    H219267   3.099   3.688   3.686  0.1275  1.7373 -1.7518
 6421TIP3   OH219268   3.640   1.806   4.379 -0.6168 -0.1258 -0.2150
 6421TIP3    H119269   3.681   1.747   4.443  0.6010 -0.9452 -1.6992
 6421TIP3    H219270   3.686   1.788   4.297 -2.0176  1.0367 -1.2942
 6422TIP3   OH219271   0.580   2.742   3.708  0.6584  0.0228 -0.0228
 6422TIP3    H119272   0.514   2.810   3.722  0.3377 -0.4332  0.7610
 6422TIP3    H219273   0.637   2.747   3.786  0.8502 -0.3586 -0.1359
 6423TIP3   OH219274   3.235   5.103   1.198 -0.7317  0.0157  0.3440
 6423TIP3    H119275   3.275   5.188   1.176 -2.0797  1.0086  1.5739
 6423TIP3    H219276   3.196   5.073   1.116 -1.0120  1.0254  0.0992
 6424TIP3   OH219277   5.750   2.174   3.706  0.5727 -0.0258  0.0764
 6424TIP3    H119278   5.677   2.123   3.741 -0.8846  1.3859 -0.7533
 6424TIP3    H219279   5.800   2.202   3.783 -0.6602  0.2719  0.7965
 6425TIP3   OH219280   2.167   0.825   3.764  0.0457 -0.0851 -0.1415
 6425TIP3    H119281   2.200   0.812   3.676 -1.6125 -1.2700 -0.6432
 6425TIP3    H219282   2.088   0.878   3.752  0.2931  0.5052  0.7391
 6426TIP3   OH219283   6.050   4.925   2.626 -0.0715 -0.1343 -0.2221
 6426TIP3    H119284   6.020   5.005   2.670 -2.4147 -1.6117  1.1115
 6426TIP3    H219285   6.021   4.935   2.535 -1.1366  0.1990  0.1366
 6427TIP3   OH219286   1.568   3.825   4.709  0.4408  0.0987  0.1875
 6427TIP3    H119287   1.577   3.846   4.616  1.1144  0.0836  0.2450
 6427TIP3    H219288   1.490   3.872   4.737 -0.4044 -0.7737 -0.6415
 6428TIP3   OH219289   5.425   0.172   3.975  0.2467  0.0201 -0.1142
 6428TIP3    H119290   5.378   0.251   3.948 -0.3705 -0.2574  0.1281
 6428TIP3    H219291   5.485   0.202   4.044 -0.7770  0.0865  0.7612
 6429TIP3   OH219292   4.307   2.449   3.529 -0.0431  0.3531  0.3160
 6429TIP3    H119293   4.304   2.356   3.510  0.9942  0.7500 -2.1697
 6429TIP3    H219294   4.386   2.461   3.581 -1.0927 -0.3226  2.1551
 6430TIP3   OH219295   5.441   3.170   0.746 -0.4366 -0.5777  0.2499
 6430TIP3    H119296   5.347   3.153   0.747 -0.4255 -0.7392 -0.4942
 6430TIP3    H219297   5.482   3.085   0.759 -0.3927 -0.9656 -2.0297
 6431TIP3   OH219298   2.414   1.752   2.882  0.1191 -0.3122 -0.2294
 6431TIP3    H119299   2.436   1.719   2.795 -0.7187  0.5992 -0.8052
 6431TIP3    H219300   2.409   1.847   2.872 -0.7226 -0.2432  0.6393
 6432TIP3   OH219301   0.994   2.070   3.037  0.0388 -0.0031  0.7194
 6432TIP3    H119302   1.007   2.013   2.962 -0.5676  2.5314 -1.4779
 6432TIP3    H219303   1.080   2.109   3.053  0.0998 -0.3086  1.1360
 6433TIP3   OH219304   0.291   1.816   2.136 -0.2311 -0.8360  0.0275
 6433TIP3    H119305   0.204   1.827   2.098  0.1294  0.8648 -0.4027
 6433TIP3    H219306   0.350   1.855   2.072  0.6691 -0.4225  1.0715
 6434TIP3   OH219307   3.460   1.859   1.303 -0.2261 -0.3478  0.3991
 6434TIP3    H119308   3.479   1.951   1.322  0.1856 -0.2022 -0.6258
 6434TIP3    H219309   3.545   1.821   1.284 -0.5948 -0.4075 -1.3187
 6435TIP3   OH219310   3.680   0.495   3.738 -0.4086  0.0393 -0.4934
 6435TIP3    H119311   3.621   0.570   3.739 -0.7041 -0.1835  0.9821
 6435TIP3    H219312   3.751   0.520   3.798 -0.0092 -0.4710 -0.7454
 6436TIP3   OH219313   1.101   0.425   0.701 -0.3370 -0.9990  0.1046
 6436TIP3    H119314   1.018   0.448   0.743 -1.1862 -0.3322 -1.8209
 6436TIP3    H219315   1.165   0.483   0.741 -0.4843 -2.3705  2.5167
 6437TIP3   OH219316   0.658   2.070   2.380 -0.1267 -0.2541 -0.3915
 6437TIP3    H119317   0.571   2.095   2.349 -0.0280 -0.0009 -0.4729
 6437TIP3    H219318   0.648   2.055   2.474 -0.3999 -0.8863 -0.5186
 6438TIP3   OH219319   5.487   2.487   3.681 -0.2553  0.7012  0.5553
 6438TIP3    H119320   5.548   2.437   3.626 -1.1082  1.4857 -1.1866
 6438TIP3    H219321   5.520   2.475   3.770  0.8041 -1.1790 -0.0312
 6439TIP3   OH219322   1.861   2.457   1.317 -0.3756 -0.3160 -0.4827
 6439TIP3    H119323   1.798   2.529   1.321  1.0078  1.0920 -2.1816
 6439TIP3    H219324   1.876   2.433   1.408 -0.3949  2.0295  0.1986
 6440TIP3   OH219325   0.997   1.158   2.134  0.1332 -0.2767 -0.2489
 6440TIP3    H119326   1.011   1.252   2.120 -0.9055 -0.1894 -0.8205
 6440TIP3    H219327   1.002   1.146   2.228  2.1496  0.0183 -0.2670
 6441TIP3   OH219328   5.258   0.392   3.947  0.0434  0.0000  0.9593
 6441TIP3    H119329   5.297   0.453   4.009 -1.5651  0.4109  1.6362
 6441TIP3    H219330   5.169   0.378   3.981 -0.2527 -1.2198 -0.2437
 6442TIP3   OH219331   4.606   1.351   3.746  1.1341  0.3255  0.0361
 6442TIP3    H119332   4.646   1.400   3.817  0.7956  1.8672 -0.7911
 6442TIP3    H219333   4.512   1.373   3.751  1.0234  0.0120 -0.5310
 6443TIP3   OH219334   2.107   2.927   1.554 -0.3605  0.5836  0.4896
 6443TIP3    H119335   2.043   2.936   1.483  1.2190  0.2402 -1.0238
 6443TIP3    H219336   2.108   3.013   1.596 -0.9279  0.9522 -0.2328
 6444TIP3   OH219337   2.456   4.736   2.369 -0.1699  0.5711 -0.0622
 6444TIP3    H119338   2.444   4.646   2.400 -0.3082  0.4942 -0.3331
 6444TIP3    H219339   2.456   4.728   2.274  1.2114  0.6768 -0.0929
 6445TIP3   OH219340   6.008   2.482   2.812  0.3228  0.5009  0.6745
 6445TIP3    H119341   5.936   2.490   2.749  1.7880  0.0218 -1.1614
 6445TIP3    H219342   6.042   2.571   2.821  1.3222  0.3129 -0.7993
 6446TIP3   OH219343   0.440   0.619   1.981 -0.3811 -0.0337 -0.0923
 6446TIP3    H119344   0.430   0.615   2.076  0.1687 -0.5225 -0.0487
 6446TIP3    H219345   0.518   0.673   1.967 -1.9584  2.3109 -0.3704
 6447TIP3   OH219346   3.595   3.089   1.127  0.2481  0.1566 -0.3029
 6447TIP3    H119347   3.500   3.081   1.120  0.2050  0.7219 -0.4430
 6447TIP3    H219348   3.609   3.169   1.177  0.6547  0.5950 -1.0982
 6448TIP3   OH219349   0.560   2.150   0.249  0.1299  0.3244 -0.2665
 6448TIP3    H119350   0.562   2.093   0.172 -1.9680 -0.3046  0.0695
 6448TIP3    H219351   0.619   2.109   0.312  1.4529  0.5578 -1.3088
 6449TIP3   OH219352   3.355   4.421   4.900 -0.9229  0.3269  0.1372
 6449TIP3    H119353   3.428   4.374   4.860  0.1458  2.1864 -0.1726
 6449TIP3    H219354   3.279   4.394   4.849 -0.2191 -0.4006 -0.5590
 6450TIP3   OH219355   3.050   1.452   3.495 -0.7390  0.0595 -0.3622
 6450TIP3    H119356   3.056   1.524   3.559 -1.3907 -1.0168  0.9611
 6450TIP3    H219357   2.958   1.425   3.499 -0.5360 -0.7284 -0.9819
 6451TIP3   OH219358   1.398   3.671   1.003  0.3113  0.9446 -0.4036
 6451TIP3    H119359   1.403   3.742   0.940  0.5072  0.0334 -1.4418
 6451TIP3    H219360   1.342   3.605   0.962  1.8680 -0.4369 -0.4307
 6452TIP3   OH219361   3.405   5.236   3.111  0.5694  0.4861  0.1476
 6452TIP3    H119362   3.377   5.205   3.025 -0.9840 -2.0489  1.4518
 6452TIP3    H219363   3.497   5.208   3.117 -0.1532 -2.0943  0.3898
 6453TIP3   OH219364   1.970   1.830   2.831 -0.1262 -0.0584  0.5524
 6453TIP3    H119365   2.057   1.839   2.791 -0.0128  2.2945  1.2071
 6453TIP3    H219366   1.940   1.920   2.844 -1.2099 -0.7500  3.4787
 6454TIP3   OH219367   4.694   0.660   3.511  0.2795  0.2138  0.1667
 6454TIP3    H119368   4.780   0.675   3.471 -0.3688  0.6929 -1.1136
 6454TIP3    H219369   4.635   0.647   3.437 -1.0099  1.2369  0.9520
 6455TIP3   OH219370   1.007   1.107   1.839 -0.0895  0.3520 -0.1492
 6455TIP3    H119371   1.046   1.165   1.905  0.0310  1.9401 -1.5656
 6455TIP3    H219372   1.046   1.022   1.858  2.2076  1.3663  0.0586
 6456TIP3   OH219373   0.120   3.849   2.415  0.4407  0.4370 -0.4233
 6456TIP3    H119374   0.149   3.774   2.466  0.6461 -0.2046 -1.4553
 6456TIP3    H219375   0.162   3.924   2.457  1.9591 -0.2548 -0.6568
 6457TIP3   OH219376   3.343   5.590   0.644  0.1233 -0.0320  0.3664
 6457TIP3    H119377   3.344   5.654   0.715 -1.5099  0.0619  0.3288
 6457TIP3    H219378   3.350   5.642   0.564  1.9302 -0.1361  0.4128
 6458TIP3   OH219379   2.996   2.696   1.416 -0.7722  0.4601 -0.3817
 6458TIP3    H119380   2.905   2.684   1.390 -1.1143  1.0355  0.5565
 6458TIP3    H219381   3.012   2.790   1.409 -0.8078  0.6104  1.2395
 6459TIP3   OH219382   6.357   4.581   4.423  0.4200  0.0495 -0.5910
 6459TIP3    H119383   6.360   4.567   4.329 -0.5812 -0.2819 -0.5805
 6459TIP3    H219384   6.269   4.614   4.440 -1.2204 -4.3126  0.7641
 6460TIP3   OH219385   1.677   1.708   2.394 -0.1565 -0.2195 -0.3185
 6460TIP3    H119386   1.730   1.628   2.386  0.6470  0.2958 -0.2761
 6460TIP3    H219387   1.636   1.718   2.308  0.1613 -0.3942 -0.4932
 6461TIP3   OH219388   0.565   4.714   0.066 -0.9382  0.0606 -0.0529
 6461TIP3    H119389   0.577   4.701   0.160 -0.2731  1.2576  0.0497
 6461TIP3    H219390   0.579   4.628   0.027  1.4535  0.0459  0.7020
 6462TIP3   OH219391   2.450   2.930   1.296  0.0398  0.0530 -0.4821
 6462TIP3    H119392   2.449   2.946   1.202  0.7368  1.4952 -0.2741
 6462TIP3    H219393   2.448   2.835   1.304  4.5214 -0.4270 -2.1112
 6463TIP3   OH219394   4.588   3.923   1.771  0.0280 -0.3459 -0.0908
 6463TIP3    H119395   4.525   3.886   1.710 -2.0146  1.1844  0.9591
 6463TIP3    H219396   4.548   4.005   1.800  3.0408  1.3110 -0.2039
 6464TIP3   OH219397   3.298   3.601   4.100 -0.2405  0.5593  0.0319
 6464TIP3    H119398   3.314   3.652   4.180  3.5454  1.1126 -0.8860
 6464TIP3    H219399   3.340   3.517   4.116 -0.2498  0.3345 -1.0332
 6465TIP3   OH219400   4.264   2.183   5.082  0.6914 -0.0284 -0.0395
 6465TIP3    H119401   4.306   2.112   5.130 -1.0127 -1.0448  0.0240
 6465TIP3    H219402   4.285   2.262   5.133  1.1980 -0.7089  0.8307
 6466TIP3   OH219403   2.500   1.752   1.956  0.0009 -0.5891  0.3306
 6466TIP3    H119404   2.536   1.667   1.932  0.7519  0.0132 -0.7344
 6466TIP3    H219405   2.428   1.731   2.016  0.0576 -1.9749 -0.0483
 6467TIP3   OH219406   3.729   4.885   3.473 -0.0598  0.3186  0.2245
 6467TIP3    H119407   3.648   4.834   3.461 -0.3881  0.7158  0.7464
 6467TIP3    H219408   3.701   4.976   3.470  0.1067  0.4683  2.0772
 6468TIP3   OH219409   3.515   3.628   0.574  0.9780  0.4484 -0.0423
 6468TIP3    H119410   3.585   3.623   0.639 -0.0792  0.7348  1.1574
 6468TIP3    H219411   3.523   3.715   0.535  0.7667  0.8159  0.7183
 6469TIP3   OH219412   5.542   2.787   3.400  0.2650  0.3834 -0.5677
 6469TIP3    H119413   5.604   2.849   3.362  0.8092  0.3465  0.2221
 6469TIP3    H219414   5.595   2.735   3.461 -0.6754  0.8435  0.6984
 6470TIP3   OH219415   4.502   5.192   2.818  0.6381  0.0176  0.7947
 6470TIP3    H119416   4.563   5.205   2.891  0.4340 -0.0331  0.9739
 6470TIP3    H219417   4.519   5.103   2.788  1.1409  0.2454  0.3922
 6471TIP3   OH219418   5.350   1.780   2.124 -0.0618 -0.1555 -0.1746
 6471TIP3    H119419   5.309   1.812   2.044  1.9860  1.8893 -0.5117
 6471TIP3    H219420   5.402   1.705   2.097 -0.5065 -0.3555 -0.4806
 6472TIP3   OH219421   0.767   1.402   1.859 -0.6426  0.2835 -0.3346
 6472TIP3    H119422   0.672   1.391   1.868 -0.3837 -1.8824  0.2837
 6472TIP3    H219423   0.789   1.354   1.780 -0.0127  0.5981 -0.3536
 6473TIP3   OH219424   1.830   0.207   4.673 -0.2896  0.0873  0.3018
 6473TIP3    H119425   1.819   0.150   4.596 -0.2102  1.5756 -0.8439
 6473TIP3    H219426   1.755   0.266   4.670 -0.0051  0.4955  1.0776
 6474TIP3   OH219427   3.902   2.473   2.378  0.5471  0.9521 -0.1807
 6474TIP3    H119428   3.847   2.475   2.299  0.0982 -1.3855  0.0127
 6474TIP3    H219429   3.976   2.530   2.356  0.5372  0.2275 -2.3711
 6475TIP3   OH219430   1.466   2.400   2.607  0.1504  0.3970  0.3528
 6475TIP3    H119431   1.431   2.369   2.691  0.1272 -2.2253 -0.5214
 6475TIP3    H219432   1.403   2.466   2.578  0.1177  1.2989  2.3180
 6476TIP3   OH219433   1.075   5.347   1.987  0.0595  0.2003 -0.4461
 6476TIP3    H119434   1.123   5.378   1.910 -0.7439 -0.3131 -1.1730
 6476TIP3    H219435   1.028   5.424   2.019  1.0887  0.6222  0.0677
 6477TIP3   OH219436   0.377   2.414   4.944 -0.7272  0.0908  0.5405
 6477TIP3    H119437   0.355   2.504   4.971 -0.0339  0.8366 -1.2047
 6477TIP3    H219438   0.473   2.411   4.947 -0.5825  0.2580 -1.7241
 6478TIP3   OH219439   3.973   2.947   3.545 -0.0451 -0.0167 -0.1733
 6478TIP3    H119440   3.897   2.981   3.499  0.6915 -0.0351 -1.4312
 6478TIP3    H219441   3.964   2.852   3.541  1.7811 -0.2018 -3.5136
 6479TIP3   OH219442   6.018   1.296   2.649 -0.1504  1.0563  0.4634
 6479TIP3    H119443   6.026   1.328   2.738 -0.3761 -0.8188  1.2116
 6479TIP3    H219444   6.084   1.227   2.642  0.8043  2.0913 -1.2860
 6480TIP3   OH219445   1.046   1.358   3.448  0.2056  0.2919 -0.3460
 6480TIP3    H119446   1.015   1.281   3.496 -1.0849  2.1483  1.9817
 6480TIP3    H219447   1.086   1.322   3.369  1.3037 -2.8894  1.4762
 6481TIP3   OH219448   0.503   2.788   1.764  0.2382  0.3012 -0.3376
 6481TIP3    H119449   0.473   2.796   1.673  1.6132 -0.7369 -0.9342
 6481TIP3    H219450   0.466   2.705   1.794  0.1280  0.4397 -0.0876
 6482TIP3   OH219451   5.113   0.393   4.475 -0.2330 -0.1489  0.1026
 6482TIP3    H119452   5.100   0.463   4.540 -1.4276 -0.7255  0.5190
 6482TIP3    H219453   5.037   0.401   4.417 -0.5136 -1.2512  0.3044
 6483TIP3   OH219454   6.272   0.086   4.925  0.0316  0.1830  0.0802
 6483TIP3    H119455   6.254   0.081   5.019  1.4422 -1.9413  0.3041
 6483TIP3    H219456   6.232   0.007   4.888 -1.3543  1.4676 -1.3192
 6484TIP3   OH219457   0.260   5.062   4.796 -0.0723 -0.6986  0.0634
 6484TIP3    H119458   0.335   5.003   4.789  0.3870 -0.0587 -0.5527
 6484TIP3    H219459   0.250   5.097   4.707 -0.0503  0.5066  0.5296
 6485TIP3   OH219460   0.042   3.875   2.161  0.0994  0.3177  0.1887
 6485TIP3    H119461   0.116   3.841   2.111 -0.6866 -0.7404 -0.3131
 6485TIP3    H219462   0.073   3.880   2.251  0.6790 -0.4583  0.0441
 6486TIP3   OH219463   3.536   2.346   1.658  0.8046  0.4984 -0.0346
 6486TIP3    H119464   3.464   2.406   1.639  1.4742  1.1802 -0.4620
 6486TIP3    H219465   3.515   2.312   1.745  0.4568  1.4344  0.2709
 6487TIP3   OH219466   2.499   3.402   0.093 -0.4246 -0.3328 -0.1053
 6487TIP3    H119467   2.531   3.481   0.136 -0.4373  1.4442 -3.0307
 6487TIP3    H219468   2.578   3.356   0.065 -0.4053 -0.1507 -0.3564
 6488TIP3   OH219469   2.876   4.243   2.096  0.3081  0.1934 -0.5931
 6488TIP3    H119470   2.881   4.176   2.165  0.1736  0.4062 -0.3741
 6488TIP3    H219471   2.789   4.232   2.059  0.3512  0.1321 -0.6785
 6489TIP3   OH219472   4.266   0.567   4.526  0.2230 -0.0865  0.1347
 6489TIP3    H119473   4.267   0.496   4.462 -1.5524  0.6636 -0.7917
 6489TIP3    H219474   4.218   0.531   4.600  0.1250 -0.1626  0.0358
 6490TIP3   OH219475   4.259   0.368   4.328 -0.1670  0.0642 -0.0940
 6490TIP3    H119476   4.337   0.350   4.275  0.3605  0.1127  0.6492
 6490TIP3    H219477   4.189   0.379   4.264  0.9069  2.6764 -0.9474
 6491TIP3   OH219478   4.112   2.312   2.477  0.6315  0.9151 -0.2498
 6491TIP3    H119479   4.200   2.349   2.470  1.3784 -0.8956 -0.9657
 6491TIP3    H219480   4.054   2.386   2.459  2.0156  1.8985 -0.9056
 6492TIP3   OH219481   0.559   1.806   0.936 -0.1234  0.3222  0.1177
 6492TIP3    H119482   0.497   1.822   0.865 -0.0315 -0.0564 -0.0487
 6492TIP3    H219483   0.627   1.871   0.923  0.1318 -0.0434 -0.4225
 6493TIP3   OH219484   1.097   2.484   3.135 -0.0437 -0.1767  0.0935
 6493TIP3    H119485   1.175   2.443   3.171 -0.4242 -0.3659  0.7122
 6493TIP3    H219486   1.092   2.570   3.179  0.3787  0.2663 -0.7005
 6494TIP3   OH219487   5.067   5.532   4.675 -0.1330  0.2469 -0.3448
 6494TIP3    H119488   5.038   5.542   4.584  1.2631 -0.6212 -0.9216
 6494TIP3    H219489   5.140   5.594   4.684 -0.5053  0.6010  0.3040
 6495TIP3   OH219490   3.068   5.218   2.034  0.0948 -0.0369 -0.1568
 6495TIP3    H119491   3.031   5.229   2.122  2.7946 -0.6110  1.1528
 6495TIP3    H219492   3.031   5.135   2.004  0.6577 -0.8684  1.3192
 6496TIP3   OH219493   0.095   0.805   1.556  0.6536 -0.2069 -0.3072
 6496TIP3    H119494   0.125   0.735   1.497  0.1995 -0.2667 -0.4719
 6496TIP3    H219495  -0.000   0.802   1.549  0.6370  0.6359 -0.5461
 6497TIP3   OH219496   5.366   1.819   4.632  0.2568 -0.2467 -0.6199
 6497TIP3    H119497   5.452   1.857   4.644  1.4098 -3.0204  0.7424
 6497TIP3    H219498   5.373   1.731   4.668 -3.2583 -0.4710 -0.1287
 6498TIP3   OH219499   2.099   1.271   3.135 -0.2119 -0.2478 -0.6134
 6498TIP3    H119500   2.044   1.348   3.149 -1.0403 -1.0549  0.8302
 6498TIP3    H219501   2.188   1.302   3.154 -0.6331  0.1735  0.8133
 6499TIP3   OH219502   4.106   5.121   0.871  0.7807 -0.3295 -0.0013
 6499TIP3    H119503   4.074   5.092   0.786 -0.8907  0.1165  0.4498
 6499TIP3    H219504   4.135   5.211   0.856  1.3564 -0.5544 -0.2860
 6500TIP3   OH219505   1.724   2.053   3.488  0.8111 -0.8573  0.3216
 6500TIP3    H119506   1.798   2.009   3.445 -0.4675 -2.9635  0.1585
 6500TIP3    H219507   1.766   2.116   3.548  2.6985 -1.2025 -0.5558
 6501TIP3   OH219508   3.892   5.764   4.511  0.0345  0.7141  0.1806
 6501TIP3    H119509   3.853   5.740   4.427  3.8096 -1.0312 -1.3141
 6501TIP3    H219510   3.926   5.852   4.497  1.3097  0.1484 -0.4781
 6502TIP3   OH219511   0.974   0.715   4.947 -0.1118  0.3097  0.8550
 6502TIP3    H119512   1.035   0.787   4.961  2.3311 -1.6352  0.8518
 6502TIP3    H219513   0.997   0.650   5.014 -2.2819 -0.4782  0.9237
 6503TIP3   OH219514   0.628   2.429   2.790 -0.4558  0.1917 -0.6500
 6503TIP3    H119515   0.658   2.375   2.863 -0.8536 -0.3129 -0.8552
 6503TIP3    H219516   0.532   2.427   2.796 -0.5454 -0.9562 -1.9615
 6504TIP3   OH219517   1.559   2.698   2.423 -0.1921 -0.7649 -0.1607
 6504TIP3    H119518   1.530   2.740   2.504  2.4216  0.6053  0.1676
 6504TIP3    H219519   1.485   2.643   2.397 -2.6187  1.6993  1.0354
 6505TIP3   OH219520   1.784   5.333   3.688 -0.3819 -1.0123 -0.2430
 6505TIP3    H119521   1.755   5.342   3.779  0.7624  2.2151 -0.0781
 6505TIP3    H219522   1.756   5.414   3.646  0.0392 -1.9876 -2.5465
 6506TIP3   OH219523   0.657   0.474   1.017  0.2466 -0.1376 -0.4102
 6506TIP3    H119524   0.596   0.537   1.056  1.2377  0.5314  0.0888
 6506TIP3    H219525   0.699   0.433   1.092 -0.1361 -1.1599 -0.7402
 6507TIP3   OH219526   2.061   3.577   1.143  0.0078  0.1143  0.3456
 6507TIP3    H119527   2.119   3.593   1.218  1.2048 -2.7916  0.1817
 6507TIP3    H219528   2.013   3.498   1.168 -2.1842  1.0972 -0.5519
 6508TIP3   OH219529   1.344   2.213   3.412  0.4191  0.0882  0.3071
 6508TIP3    H119530   1.293   2.177   3.485  0.2620  2.0646  1.2417
 6508TIP3    H219531   1.420   2.254   3.453  0.0784  1.6751 -0.5369
 6509TIP3   OH219532   6.124   5.758   2.422 -0.3430  0.4544  0.0431
 6509TIP3    H119533   6.209   5.753   2.467 -1.8728 -0.9109  3.0629
 6509TIP3    H219534   6.116   5.850   2.397  1.0823  1.1012  1.7454
 6510TIP3   OH219535   1.443   2.906   4.620  0.6945 -0.2474 -0.5655
 6510TIP3    H119536   1.492   2.832   4.655 -0.8048 -0.9041  0.2521
 6510TIP3    H219537   1.353   2.891   4.649  0.6742  3.1389  1.7648
 6511TIP3   OH219538   3.980   0.213   3.000  0.5736  0.0028  0.3287
 6511TIP3    H119539   3.933   0.246   3.076  2.0038  0.5421  1.0123
 6511TIP3    H219540   3.974   0.118   3.008 -0.0114  0.0622  0.6454
 6512TIP3   OH219541   1.926   5.515   2.613  0.2401  0.1882 -0.5044
 6512TIP3    H119542   1.839   5.535   2.576 -0.1541 -1.3019 -0.4352
 6512TIP3    H219543   1.923   5.421   2.631  1.1771  0.4897  1.3741
 6513TIP3   OH219544   3.183   2.727   3.506  0.6613 -0.0187  0.4699
 6513TIP3    H119545   3.176   2.816   3.542 -0.4986  0.3583 -0.6325
 6513TIP3    H219546   3.274   2.721   3.476  0.7951  0.7454  0.6861
 6514TIP3   OH219547   0.904   1.294   0.755 -0.1727 -0.2802  0.2978
 6514TIP3    H119548   0.897   1.296   0.851 -0.3410 -2.6088  0.3786
 6514TIP3    H219549   0.836   1.233   0.727 -1.6614  2.0493 -1.5392
 6515TIP3   OH219550   4.276   0.214   4.869  0.2919 -0.1349 -0.0565
 6515TIP3    H119551   4.258   0.306   4.886  1.2823  0.2618 -1.0492
 6515TIP3    H219552   4.347   0.191   4.928  0.0999 -0.2476  0.1334
 6516TIP3   OH219553   5.298   0.618   2.250 -0.2914 -0.0856 -0.7535
 6516TIP3    H119554   5.214   0.572   2.257  0.2679 -1.2014 -1.1009
 6516TIP3    H219555   5.363   0.548   2.246  0.7844  0.7563  0.8877
 6517TIP3   OH219556   4.813   5.630   3.942 -0.0200 -0.1066 -0.0851
 6517TIP3    H119557   4.822   5.666   3.854 -0.8767  1.1042  0.2884
 6517TIP3    H219558   4.856   5.694   3.999 -2.2480  0.8382  0.6780
 6518TIP3   OH219559   5.479   2.422   2.359  0.4397  0.4234  0.1908
 6518TIP3    H119560   5.397   2.456   2.395  0.4572  0.9640 -0.2536
 6518TIP3    H219561   5.537   2.411   2.434  0.3749  1.2368  0.3692
 6519TIP3   OH219562   0.900   1.806   0.508 -0.3957 -0.0310 -0.2068
 6519TIP3    H119563   0.846   1.761   0.573 -0.7671 -0.4969 -0.8281
 6519TIP3    H219564   0.876   1.898   0.517 -0.5227 -0.1039  0.2427
 6520TIP3   OH219565   5.434   4.056   3.650 -0.1830 -0.3155 -0.3620
 6520TIP3    H119566   5.484   4.002   3.711 -2.0093 -0.7153  0.8374
 6520TIP3    H219567   5.453   4.146   3.675  0.0759 -0.4595 -0.0407
 6521TIP3   OH219568   0.835   0.792   2.566 -0.4074  0.1754 -0.0070
 6521TIP3    H119569   0.761   0.805   2.507 -0.8057  0.8203  0.6189
 6521TIP3    H219570   0.820   0.706   2.605 -0.6790  0.1917 -0.0763
 6522TIP3   OH219571   2.515   5.535   4.116  0.2072 -0.3795 -0.1620
 6522TIP3    H119572   2.456   5.516   4.189  0.5453  0.6678  0.3996
 6522TIP3    H219573   2.598   5.557   4.158  0.5764 -0.3644 -0.8905
 6523TIP3   OH219574   2.641   2.481   2.283  0.5588  0.4123  0.0311
 6523TIP3    H119575   2.649   2.501   2.376 -4.2410 -1.6269  1.2067
 6523TIP3    H219576   2.646   2.386   2.278  0.3594  0.4621 -1.7112
 6524TIP3   OH219577   2.774   4.226   4.384  0.7567  0.1994  0.1966
 6524TIP3    H119578   2.825   4.189   4.456  1.6962 -0.1815 -0.6326
 6524TIP3    H219579   2.717   4.290   4.425 -0.5384 -1.7595  1.6169
 6525TIP3   OH219580   5.330   3.508   2.713  0.1457 -0.3393 -0.1305
 6525TIP3    H119581   5.368   3.447   2.650  0.5302  0.3497 -0.5732
 6525TIP3    H219582   5.345   3.594   2.675 -0.0424  0.0582  0.6823
 6526TIP3   OH219583   2.828   5.867   3.486  0.0536 -0.0185 -0.3514
 6526TIP3    H119584   2.825   5.812   3.408 -2.3395 -1.7638  0.8305
 6526TIP3    H219585   2.767   5.826   3.547  1.3333  1.6120  2.2397
 6527TIP3   OH219586   5.585   5.931   3.603 -0.1962 -0.4781 -0.7486
 6527TIP3    H119587   5.619   5.884   3.526  1.2689 -0.5009 -0.1301
 6527TIP3    H219588   5.569   5.863   3.668 -0.1393 -0.3329 -0.5817
 6528TIP3   OH219589   2.280   0.463   2.861  0.3330 -0.3210 -0.0841
 6528TIP3    H119590   2.302   0.389   2.804 -1.9774  0.3907 -2.0645
 6528TIP3    H219591   2.207   0.431   2.914 -1.2525  0.6712 -1.5426
 6529TIP3   OH219592   3.006   0.210   4.133  0.4956  0.7200 -0.3076
 6529TIP3    H119593   3.051   0.149   4.192  0.0790  2.0400  1.4656
 6529TIP3    H219594   2.994   0.161   4.052  1.0022 -1.2151  0.7307
 6530TIP3   OH219595   0.856   1.605   4.087  0.3810  0.2557  0.3296
 6530TIP3    H119596   0.828   1.694   4.063  0.8525  0.0867 -0.9352
 6530TIP3    H219597   0.950   1.604   4.068 -0.0090 -1.1524 -1.7654
 6531TIP3   OH219598   5.031   5.417   2.998 -0.2861 -0.1411 -0.4491
 6531TIP3    H119599   5.060   5.505   2.973 -0.2901 -0.0875 -0.2697
 6531TIP3    H219600   5.026   5.421   3.094 -3.5557  0.6974 -0.5554
 6532TIP3   OH219601   6.302   4.751   3.183 -0.5116 -0.1640 -0.1636
 6532TIP3    H119602   6.374   4.767   3.123 -1.2216 -1.2508 -1.3661
 6532TIP3    H219603   6.319   4.663   3.218  0.3658  0.7862  1.9696
 6533TIP3   OH219604   1.881   4.062   4.706  0.1025  0.0332 -0.3151
 6533TIP3    H119605   1.859   4.050   4.614  2.0900 -1.7890 -0.6348
 6533TIP3    H219606   1.887   3.973   4.741  1.3121  0.6064  1.0514
 6534TIP3   OH219607   1.721   1.443   1.294  0.1305  0.2121  0.2070
 6534TIP3    H119608   1.760   1.430   1.380 -2.1337  1.2934  1.4774
 6534TIP3    H219609   1.787   1.490   1.244  2.1708 -1.9196  0.7244
 6535TIP3   OH219610   2.871   3.345   0.371 -0.0393 -0.3053 -0.7893
 6535TIP3    H119611   2.942   3.281   0.381  0.1248 -0.0432 -0.2256
 6535TIP3    H219612   2.849   3.369   0.461  0.6215  1.2254 -1.0126
 6536TIP3   OH219613   0.326   1.018   3.352 -0.4867  0.5628 -0.3773
 6536TIP3    H119614   0.391   1.062   3.297 -0.3760  0.3503 -0.4196
 6536TIP3    H219615   0.369   1.010   3.438 -0.1359 -0.2930 -0.6157
 6537TIP3   OH219616   6.248   4.364   0.101 -0.3479 -0.8584  0.1791
 6537TIP3    H119617   6.310   4.396   0.035  1.2902  0.0546  2.0477
 6537TIP3    H219618   6.177   4.428   0.099 -0.4356 -0.9704 -0.8421
 6538TIP3   OH219619   2.519   2.884   1.650  0.4222 -0.2217 -0.1065
 6538TIP3    H119620   2.525   2.972   1.612  0.0927  0.3128  1.0281
 6538TIP3    H219621   2.534   2.898   1.743  1.7186 -1.5682 -0.0858
 6539TIP3   OH219622   1.922   0.559   1.620 -0.3875  0.2362 -0.3148
 6539TIP3    H119623   2.012   0.541   1.647  0.1989  0.8263 -1.7814
 6539TIP3    H219624   1.918   0.654   1.612 -1.0669  0.1949 -0.5001
 6540TIP3   OH219625   1.588   4.160   4.379  0.0595 -0.5092  0.0208
 6540TIP3    H119626   1.595   4.117   4.294  0.3752  1.7866 -1.2199
 6540TIP3    H219627   1.679   4.180   4.403 -0.1352  1.2365 -0.5030
 6541TIP3   OH219628   5.536   2.200   1.130 -0.3022 -0.2368  0.1316
 6541TIP3    H119629   5.540   2.224   1.038 -0.7423 -0.7362 -0.0247
 6541TIP3    H219630   5.595   2.261   1.174  0.6857 -0.6253 -0.6172
 6542TIP3   OH219631   5.370   4.076   4.210  0.1804  0.2941 -0.1356
 6542TIP3    H119632   5.291   4.130   4.206  0.3864  0.6124  0.0447
 6542TIP3    H219633   5.344   3.998   4.259 -0.1240  0.2231 -0.4130
 6543TIP3   OH219634   3.799   5.936   0.935  0.2066  0.2520  0.0891
 6543TIP3    H119635   3.790   5.996   0.861 -0.0277 -2.8430 -2.5732
 6543TIP3    H219636   3.867   5.874   0.909 -0.2309 -1.2735  2.2594
 6544TIP3   OH219637   0.063   2.673   0.833 -0.0682  0.2776  0.3840
 6544TIP3    H119638   0.024   2.687   0.747  0.9567  0.1454 -0.1259
 6544TIP3    H219639   0.146   2.628   0.814 -0.4648 -1.0207  1.5317
 6545TIP3   OH219640   1.465   5.733   0.866  0.5497  0.2659  0.2749
 6545TIP3    H119641   1.420   5.700   0.789 -1.1908 -0.1138  1.3985
 6545TIP3    H219642   1.525   5.800   0.832 -0.9515  0.8860 -1.2989
 6546TIP3   OH219643   2.328   5.732   2.665  0.2155 -0.8746 -0.1787
 6546TIP3    H119644   2.302   5.706   2.753  0.2682  1.2765  0.5417
 6546TIP3    H219645   2.279   5.675   2.607 -0.9699 -1.3503  1.2348
 6547TIP3   OH219646   3.256   2.245   4.919  0.1103  0.3702  0.7314
 6547TIP3    H119647   3.204   2.321   4.946  0.4517  0.4409  1.2039
 6547TIP3    H219648   3.342   2.282   4.899  0.4140  0.0518  1.4115
 6548TIP3   OH219649   5.579   1.080   0.018  0.4376  0.0900 -0.5240
 6548TIP3    H119650   5.560   1.006   0.076  1.7018 -0.9485 -1.3984
 6548TIP3    H219651   5.639   1.135   0.067 -1.8354  1.5410  0.8380
 6549TIP3   OH219652   6.299   2.113   3.448 -0.1304  0.2650 -0.3711
 6549TIP3    H119653   6.247   2.114   3.528 -0.6291  0.6984 -0.6949
 6549TIP3    H219654   6.307   2.020   3.426 -0.7143  0.1880 -0.2777
 6550TIP3   OH219655   2.391   1.482   3.545  0.4315 -0.0652  0.3123
 6550TIP3    H119656   2.360   1.568   3.570  0.2012  0.9227 -2.8619
 6550TIP3    H219657   2.448   1.454   3.616  0.7771  2.8465  1.2692
 6551TIP3   OH219658   0.767   1.091   0.600 -0.1227 -0.0193 -0.2462
 6551TIP3    H119659   0.680   1.128   0.589 -0.5864 -1.2195 -0.8440
 6551TIP3    H219660   0.762   1.005   0.559  1.3459 -0.1178 -0.2935
 6552TIP3   OH219661   4.051   2.358   4.219  0.1997 -0.0932 -0.2708
 6552TIP3    H119662   4.032   2.347   4.312  2.9632 -2.5533  0.1605
 6552TIP3    H219663   4.090   2.446   4.213  1.4448 -0.4934  1.2539
 6553TIP3   OH219664   3.010   1.641   3.696 -0.6008 -0.4784  0.7018
 6553TIP3    H119665   2.935   1.688   3.661 -0.2759  0.1480  0.8310
 6553TIP3    H219666   3.054   1.704   3.752  1.5114  0.0767 -1.4101
 6554TIP3   OH219667   1.692   3.812   3.549  0.0481  0.1937  0.4927
 6554TIP3    H119668   1.726   3.788   3.635 -0.4968 -1.8883  0.1741
 6554TIP3    H219669   1.741   3.757   3.488 -1.2594 -0.1208 -0.3005
 6555TIP3   OH219670   3.265   2.105   4.209  0.2341 -0.0217 -0.3143
 6555TIP3    H119671   3.352   2.102   4.168 -0.6063 -1.3385 -2.1436
 6555TIP3    H219672   3.272   2.048   4.285  1.3327  1.0101  0.3899
 6556TIP3   OH219673   4.523   5.099   0.770  0.6539  0.2189 -0.1388
 6556TIP3    H119674   4.486   5.032   0.712 -0.2282  0.4145  0.1899
 6556TIP3    H219675   4.466   5.174   0.760  0.9596  0.5255  0.3951
 6557TIP3   OH219676   0.403   5.503   3.934  0.4923  0.1536  0.0825
 6557TIP3    H119677   0.393   5.598   3.930 -0.4967  0.1942  2.1468
 6557TIP3    H219678   0.319   5.472   3.968  1.3643 -1.2977  1.0184
 6558TIP3   OH219679   2.095   4.404   1.481  0.5645 -0.1625  0.4369
 6558TIP3    H119680   2.174   4.351   1.493  0.9028  0.5204  1.3275
 6558TIP3    H219681   2.057   4.410   1.568  0.0249  0.2891  0.1752
 6559TIP3   OH219682   2.850   4.010   4.149  0.2274 -0.2552 -0.1065
 6559TIP3    H119683   2.783   3.962   4.196  0.1396  1.2522  1.4018
 6559TIP3    H219684   2.834   3.990   4.056 -2.0563 -0.2441  0.2318
 6560TIP3   OH219685   1.042   0.189   3.179  0.1235  0.3338  0.2700
 6560TIP3    H119686   1.130   0.181   3.142 -0.6723 -0.2548 -1.5613
 6560TIP3    H219687   1.005   0.267   3.136 -1.0586 -0.7590 -0.7532
 6561TIP3   OH219688   1.740   5.257   2.132  0.2222  0.1615  0.6565
 6561TIP3    H119689   1.756   5.339   2.085 -0.0213  0.7048  1.4880
 6561TIP3    H219690   1.697   5.200   2.068  0.0451  0.8230  0.1719
 6562TIP3   OH219691   1.597   3.809   3.961 -0.1261  0.6914  0.3761
 6562TIP3    H119692   1.671   3.782   3.906 -0.2557  1.7094 -0.3261
 6562TIP3    H219693   1.533   3.739   3.949 -0.0792  0.8014 -0.6359
 6563TIP3   OH219694   0.463   5.562   1.746 -0.4769 -0.2113 -0.5144
 6563TIP3    H119695   0.547   5.566   1.701 -0.1619 -0.5771  0.0309
 6563TIP3    H219696   0.477   5.612   1.827 -0.5648 -0.8791 -0.0813
 6564TIP3   OH219697   5.061   1.271   2.758 -0.4079 -0.6302 -0.0253
 6564TIP3    H119698   5.072   1.339   2.692 -1.5429  1.9024  2.1818
 6564TIP3    H219699   5.138   1.281   2.815  0.2202 -2.3295 -0.5018
 6565TIP3   OH219700   1.860   2.617   4.162  0.8455 -0.5615 -0.2497
 6565TIP3    H119701   1.838   2.534   4.206 -1.2283 -0.3430 -0.7472
 6565TIP3    H219702   1.787   2.631   4.101  0.5005  2.2158  0.6683
 6566TIP3   OH219703   4.874   4.657   4.703  0.5048  0.2027  0.0213
 6566TIP3    H119704   4.833   4.644   4.618  2.3303 -1.4921 -0.6717
 6566TIP3    H219705   4.854   4.577   4.752  1.5078  0.1043  0.2860
 6567TIP3   OH219706   2.205   1.618   1.808  0.7571  0.2468 -0.1641
 6567TIP3    H119707   2.214   1.653   1.896  2.3010 -2.0387  0.6930
 6567TIP3    H219708   2.286   1.644   1.763  0.1148  1.1423 -0.8379
 6568TIP3   OH219709   2.291   0.500   4.671  0.0043 -0.1836  0.3807
 6568TIP3    H119710   2.298   0.465   4.760 -0.3108  0.4990  0.6832
 6568TIP3    H219711   2.270   0.424   4.617 -1.4312 -0.3671  1.1436
 6569TIP3   OH219712   5.261   0.884   3.844 -0.8246 -0.0115  0.4406
 6569TIP3    H119713   5.241   0.797   3.808 -0.7225  0.1389  0.0162
 6569TIP3    H219714   5.281   0.938   3.768 -1.4428  0.5363  0.6562
 6570TIP3   OH219715   4.240   2.192   3.627  0.2590 -0.0329  0.3823
 6570TIP3    H119716   4.215   2.107   3.592 -0.6596  0.7859 -1.0997
 6570TIP3    H219717   4.280   2.174   3.712  1.1963 -2.0254 -0.4281
 6571TIP3   OH219718   4.038   2.669   0.535 -0.2326 -1.0245 -0.0100
 6571TIP3    H119719   3.977   2.665   0.609 -1.5193 -1.0817 -1.0206
 6571TIP3    H219720   4.107   2.607   0.556 -0.3550 -0.7418  1.3143
 6572TIP3   OH219721   0.731   1.488   2.353 -0.2816 -0.1480 -0.0804
 6572TIP3    H119722   0.658   1.550   2.356  0.8262  1.1228  1.7393
 6572TIP3    H219723   0.809   1.542   2.354  0.7685 -1.4929 -1.9575
 6573TIP3   OH219724   0.184   2.310   1.379 -0.2464 -0.5926 -0.3168
 6573TIP3    H119725   0.176   2.242   1.312  2.2061 -1.6322  0.3536
 6573TIP3    H219726   0.248   2.371   1.343  1.0500 -1.1261  1.0137
 6574TIP3   OH219727   3.864   0.085   2.099 -0.8874  0.3269 -0.2829
 6574TIP3    H119728   3.818   0.119   2.175 -0.8997  0.9360 -0.5595
 6574TIP3    H219729   3.848  -0.010   2.102  2.8238 -0.4595  3.0413
 6575TIP3   OH219730   5.064   5.727   2.096  0.0714 -0.1549 -0.1997
 6575TIP3    H119731   5.059   5.632   2.099  0.2827 -0.1504  1.9641
 6575TIP3    H219732   4.985   5.757   2.141  1.2400  0.6093  1.4509
 6576TIP3   OH219733   5.674   0.903   4.776  0.4046  0.1390  0.4526
 6576TIP3    H119734   5.755   0.955   4.776  0.2556  0.3860 -0.4040
 6576TIP3    H219735   5.697   0.822   4.731  0.1174  0.3176 -0.0261
 6577TIP3   OH219736   4.770   5.752   0.596 -0.5969  0.3167 -0.0699
 6577TIP3    H119737   4.790   5.720   0.508 -2.0114  1.9339 -1.0608
 6577TIP3    H219738   4.692   5.806   0.584 -1.5381 -0.3727  2.4157
 6578TIP3   OH219739   6.024   4.195   3.153  0.3271 -0.4796 -0.2487
 6578TIP3    H119740   6.087   4.138   3.195 -1.3253 -1.4269  1.0734
 6578TIP3    H219741   6.033   4.177   3.059  1.6537 -0.9266 -0.0517
 6579TIP3   OH219742   0.786   3.532   0.540 -0.7497 -0.0917  0.2519
 6579TIP3    H119743   0.747   3.615   0.516 -0.2103  1.0145  2.8470
 6579TIP3    H219744   0.713   3.470   0.544 -1.2082  0.3136 -1.2703
 6580TIP3   OH219745   5.185   1.638   0.495 -0.3908  0.2559  0.6301
 6580TIP3    H119746   5.146   1.726   0.493 -0.7168  0.0944 -0.3980
 6580TIP3    H219747   5.272   1.651   0.532 -0.7469  0.8888  1.2665
 6581TIP3   OH219748   4.661   5.301   1.455  0.1612  1.0712  0.6538
 6581TIP3    H119749   4.684   5.344   1.372  0.7922 -1.8476 -0.7932
 6581TIP3    H219750   4.568   5.280   1.446  0.2587  0.6432  0.6391
 6582TIP3   OH219751   0.920   5.524   2.107 -0.5729  0.1297  0.1547
 6582TIP3    H119752   0.848   5.537   2.046  1.2069  2.1234 -1.7119
 6582TIP3    H219753   0.927   5.606   2.156 -1.0277 -0.9080  2.0702
 6583TIP3   OH219754   4.400   1.171   0.537 -0.2784  0.6019  0.5476
 6583TIP3    H119755   4.474   1.110   0.532  1.2790  2.3845  0.8568
 6583TIP3    H219756   4.326   1.120   0.503  1.0745 -1.2274  0.1264
 6584TIP3   OH219757   3.404   4.200   2.281 -0.2966 -0.3201 -0.0232
 6584TIP3    H119758   3.461   4.152   2.222 -0.5473  0.2572 -0.7487
 6584TIP3    H219759   3.391   4.140   2.355 -1.7584 -1.9742 -1.5228
 6585TIP3   OH219760   3.906   2.612   1.029 -0.2787  0.6771 -0.0787
 6585TIP3    H119761   3.990   2.643   1.063 -0.8361  1.3319  0.7486
 6585TIP3    H219762   3.929   2.546   0.963  0.8663  0.5735  0.4071
 6586TIP3   OH219763   2.144   0.995   4.647  0.2605 -0.0850 -0.2588
 6586TIP3    H119764   2.152   1.019   4.554  1.0669  0.5672 -0.0387
 6586TIP3    H219765   2.055   0.960   4.655 -0.1601  0.7248 -1.0899
 6587TIP3   OH219766   2.930   3.162   3.134  0.2067  0.2688 -0.2645
 6587TIP3    H119767   2.949   3.147   3.226  1.3844 -0.0537 -0.5485
 6587TIP3    H219768   3.002   3.216   3.103  0.4964 -0.6581 -1.2826
 6588TIP3   OH219769   4.887   2.578   3.638 -0.0258 -0.1981 -0.0582
 6588TIP3    H119770   4.961   2.635   3.614  1.3018 -1.0934  1.6687
 6588TIP3    H219771   4.911   2.493   3.602 -0.2488 -0.4744  0.4474
 6589TIP3   OH219772   1.307   1.294   0.452  0.0012 -0.1321 -0.3621
 6589TIP3    H119773   1.347   1.223   0.502 -0.1338  0.3775  0.4931
 6589TIP3    H219774   1.380   1.348   0.423  0.0479 -0.1531 -0.2833
 6590TIP3   OH219775   1.362   2.621   0.004 -0.3055 -0.1395  0.2011
 6590TIP3    H119776   1.349   2.531   0.036  1.6108 -0.0579  1.3389
 6590TIP3    H219777   1.456   2.627  -0.012 -0.1131  2.1767  1.8199
 6591TIP3   OH219778   1.210   1.566   2.705  0.6692 -0.1539  0.0402
 6591TIP3    H119779   1.292   1.560   2.656  0.5708 -2.0752  0.0194
 6591TIP3    H219780   1.233   1.543   2.795  0.6373  2.1906  0.6913
 6592TIP3   OH219781   2.725   3.472   3.789 -0.0577 -0.0234 -0.1729
 6592TIP3    H119782   2.697   3.383   3.766 -0.8628  0.4101 -0.9479
 6592TIP3    H219783   2.736   3.470   3.884 -0.6129 -0.8083 -0.1110
 6593TIP3   OH219784   2.800   3.295   4.377  0.0146 -0.0824  0.7332
 6593TIP3    H119785   2.776   3.227   4.315 -1.1708 -2.2359  3.3392
 6593TIP3    H219786   2.718   3.342   4.394  0.6183  1.4053 -0.2987
 6594TIP3   OH219787   5.124   3.302   2.106  0.4329  0.0751  0.8135
 6594TIP3    H119788   5.170   3.230   2.063 -1.4796 -0.0970 -1.0993
 6594TIP3    H219789   5.065   3.259   2.168 -2.2849 -0.3413 -1.8229
 6595TIP3   OH219790   0.687   1.290   3.697  0.2142  0.3153  0.4255
 6595TIP3    H119791   0.736   1.365   3.663  0.5002  0.3591  0.9365
 6595TIP3    H219792   0.677   1.308   3.790  0.6755 -0.5054  0.6351
 6596TIP3   OH219793   3.026   3.194   4.852  0.8169 -0.2394  0.1517
 6596TIP3    H119794   2.995   3.194   4.942  0.0518  0.9485 -0.0981
 6596TIP3    H219795   3.097   3.130   4.852  0.6424 -0.4713  1.5252
 6597TIP3   OH219796   4.399   5.595   1.354  0.3273  0.1196  0.0059
 6597TIP3    H119797   4.424   5.625   1.266 -0.2826 -0.7118 -0.4659
 6597TIP3    H219798   4.387   5.676   1.404 -1.1359  0.6977 -1.1889
 6598TIP3   OH219799   5.586   2.289   0.847  0.1372  0.5113 -0.3636
 6598TIP3    H119800   5.598   2.383   0.860 -1.7907  0.7579 -0.0351
 6598TIP3    H219801   5.656   2.264   0.787 -0.0094  2.4087 -1.4238
 6599TIP3   OH219802   3.567   5.202   2.113  0.4337 -0.3781  0.7237
 6599TIP3    H119803   3.628   5.247   2.056 -1.9394  0.5339 -1.2883
 6599TIP3    H219804   3.539   5.125   2.063 -1.0678 -0.0200  0.9588
 6600TIP3   OH219805   0.695   0.935   0.093  0.3453 -0.0166  0.2506
 6600TIP3    H119806   0.764   0.982   0.045 -0.3203  0.4679 -0.2440
 6600TIP3    H219807   0.720   0.944   0.185  1.7549 -1.1362  0.0269
 6601TIP3   OH219808   0.563   0.412   2.358 -0.0795  0.4734 -0.4946
 6601TIP3    H119809   0.612   0.371   2.287  1.4673  1.3376  0.0348
 6601TIP3    H219810   0.628   0.427   2.427 -1.1573  1.3671  0.3728
 6602TIP3   OH219811   5.946   4.136   4.000 -0.6040 -0.1229 -0.1429
 6602TIP3    H119812   6.015   4.091   4.049 -3.1023 -1.4211  2.5150
 6602TIP3    H219813   5.926   4.076   3.928 -1.0715 -1.3616  0.9591
 6603TIP3   OH219814   1.393   2.963   1.413 -0.0991 -0.1057  0.5350
 6603TIP3    H119815   1.419   2.985   1.324  0.5017 -1.8946  0.2240
 6603TIP3    H219816   1.336   3.035   1.440 -1.1644 -0.0324 -1.6670
 6604TIP3   OH219817   2.136   0.526   2.017  0.0245 -0.5260 -0.1089
 6604TIP3    H119818   2.041   0.531   2.018  0.0602  1.1089 -1.1440
 6604TIP3    H219819   2.161   0.545   1.927  1.3287 -1.4238  0.0297
 6605TIP3   OH219820   2.202   1.848   1.575  0.5443  0.6901  0.3192
 6605TIP3    H119821   2.256   1.896   1.513  3.4573 -1.7589  0.6775
 6605TIP3    H219822   2.263   1.787   1.617 -2.5129 -2.3573  0.8199
 6606TIP3   OH219823   0.922   2.780   2.966 -0.4974  0.0618  0.0585
 6606TIP3    H119824   0.994   2.774   3.029 -1.4777 -0.0218  1.1926
 6606TIP3    H219825   0.868   2.704   2.982 -0.2141 -0.5553 -1.6439
 6607TIP3   OH219826   1.160   2.958   1.655  0.2238  0.0423 -0.1142
 6607TIP3    H119827   1.164   2.867   1.625  1.7178 -0.5245  1.6387
 6607TIP3    H219828   1.080   2.962   1.707 -0.7321  0.2237 -1.5204
 6608TIP3   OH219829   5.428   5.089   0.877  0.2693 -0.5192 -0.2937
 6608TIP3    H119830   5.490   5.160   0.860  1.5736 -1.3383  0.7735
 6608TIP3    H219831   5.382   5.117   0.956  0.8443 -0.8706  0.1770
 6609TIP3   OH219832   5.428   4.180   2.534  0.2385 -0.0756  0.4593
 6609TIP3    H119833   5.439   4.253   2.473  1.6327 -1.2186 -0.7369
 6609TIP3    H219834   5.338   4.187   2.564  1.0365  3.8887  2.7329
 6610TIP3   OH219835   4.790   4.073   1.426 -0.3540 -0.8109  0.3900
 6610TIP3    H119836   4.755   4.129   1.357 -0.0911  1.1509  1.7616
 6610TIP3    H219837   4.714   4.023   1.457 -1.2617  0.8761  1.0211
 6611TIP3   OH219838   1.891   4.336   4.732 -0.2889  0.4498 -0.0956
 6611TIP3    H119839   1.916   4.338   4.824  1.7679  0.6259 -0.5977
 6611TIP3    H219840   1.906   4.246   4.705 -2.3817  0.0067  0.0704
 6612TIP3   OH219841   0.815   0.405   4.983 -0.0314 -0.4940  0.0627
 6612TIP3    H119842   0.825   0.382   4.891 -0.5759 -0.7175  0.0533
 6612TIP3    H219843   0.762   0.333   5.020 -0.1908 -0.1842  0.4481
 6613TIP3   OH219844   1.451   3.965   3.766  0.1397 -0.0335  0.2460
 6613TIP3    H119845   1.454   4.028   3.838  0.5607  1.2393 -0.8254
 6613TIP3    H219846   1.381   3.905   3.789 -0.8165  1.3021  0.9751
 6614TIP3   OH219847   5.343   2.332   1.804 -0.3395 -0.4848 -0.2264
 6614TIP3    H119848   5.289   2.409   1.786 -0.0381  0.1231  1.2686
 6614TIP3    H219849   5.429   2.353   1.767  0.5273  1.1139  2.3498
 6615TIP3   OH219850   3.418   3.455   3.782  0.1741  0.0387 -0.1340
 6615TIP3    H119851   3.342   3.424   3.733 -1.1528  2.7691 -0.0226
 6615TIP3    H219852   3.395   3.442   3.874 -0.2362  0.9375 -0.0978
 6616TIP3   OH219853   0.501   5.868   3.301 -0.1463 -0.1830 -0.3150
 6616TIP3    H119854   0.547   5.792   3.338 -2.0933 -0.4941  1.7042
 6616TIP3    H219855   0.419   5.872   3.350 -1.8116  0.9893 -2.9906
 6617TIP3   OH219856   0.152   2.271   3.803  0.2548  0.2993 -0.0098
 6617TIP3    H119857   0.072   2.272   3.856 -0.2993 -0.2429 -0.8082
 6617TIP3    H219858   0.148   2.351   3.751 -0.8399 -0.6840 -1.5436
 6618TIP3   OH219859   4.322   3.847   0.056  0.7691  0.0390 -0.2659
 6618TIP3    H119860   4.357   3.936   0.065  2.1598 -0.3097 -1.6614
 6618TIP3    H219861   4.382   3.792   0.108 -0.2144 -0.0875  0.7780
 6619TIP3   OH219862   6.119   5.700   0.944 -0.5966 -0.3351 -0.4889
 6619TIP3    H119863   6.198   5.656   0.975 -0.6024  0.9732  1.6122
 6619TIP3    H219864   6.141   5.731   0.856  2.2689  2.3006  0.9908
 6620TIP3   OH219865   0.561   2.674   2.924 -0.0481 -0.2689  0.1159
 6620TIP3    H119866   0.574   2.677   2.829  0.9198  0.8415  0.2596
 6620TIP3    H219867   0.636   2.624   2.956 -0.4295 -0.7318  0.2969
 6621TIP3   OH219868   4.331   1.247   4.487  0.0205  0.1218  0.4073
 6621TIP3    H119869   4.423   1.274   4.481  0.0280  0.2801  1.1680
 6621TIP3    H219870   4.284   1.326   4.510 -0.8090  0.8424 -3.1839
 6622TIP3   OH219871   4.468   3.045   4.109  0.1094 -0.1885 -0.1755
 6622TIP3    H119872   4.537   3.030   4.173 -0.2251  1.8709  0.7477
 6622TIP3    H219873   4.514   3.056   4.026  0.7785 -0.2048  0.1878
 6623TIP3   OH219874   4.163   1.852   4.579  0.1249  0.2620  0.4389
 6623TIP3    H119875   4.131   1.780   4.633  1.3780 -0.8662 -0.2635
 6623TIP3    H219876   4.149   1.930   4.633  0.2650 -0.6924  1.9164
 6624TIP3   OH219877   3.119   0.045   4.357 -0.1215 -0.2624 -0.8264
 6624TIP3    H119878   3.200   0.031   4.406  0.9018 -0.3397 -2.4350
 6624TIP3    H219879   3.076  -0.040   4.355 -0.2614 -0.2147  0.0606
 6625TIP3   OH219880   1.181   2.589   4.580 -0.0712 -0.6135 -0.9446
 6625TIP3    H119881   1.150   2.679   4.588 -2.0853 -1.3702  0.6483
 6625TIP3    H219882   1.275   2.594   4.598 -0.4279  0.9877  0.6858
 6626TIP3   OH219883   6.088   2.490   1.519  0.0872  0.5126 -0.5133
 6626TIP3    H119884   6.181   2.477   1.501  0.0687  1.2673 -1.1884
 6626TIP3    H219885   6.044   2.417   1.475  0.2051  1.2798 -1.9569
 6627TIP3   OH219886   0.309   5.781   3.921  0.5285  0.8670 -0.2403
 6627TIP3    H119887   0.297   5.797   3.827  0.7308  1.9920 -0.0871
 6627TIP3    H219888   0.220   5.775   3.956  0.3145 -2.9707 -0.9831
 6628TIP3   OH219889   1.843   1.957   2.402  0.0147 -0.4243  0.1399
 6628TIP3    H119890   1.805   1.869   2.403  0.4549 -0.6153  0.2470
 6628TIP3    H219891   1.891   1.961   2.319 -0.6938  0.0122 -0.2504
 6629TIP3   OH219892   4.291   2.534   1.547 -0.3000 -0.1777  0.0878
 6629TIP3    H119893   4.267   2.582   1.468  0.7036  0.9006  0.4017
 6629TIP3    H219894   4.219   2.550   1.608 -0.1169  0.6925  0.0851
 6630TIP3   OH219895   2.265   3.769   4.300 -0.3219 -0.4600  1.3365
 6630TIP3    H119896   2.335   3.713   4.266 -0.0228 -0.6230  2.1942
 6630TIP3    H219897   2.184   3.723   4.277 -0.1183 -0.6416  0.9803
 6631TIP3   OH219898   2.873   5.680   3.288 -0.3544  0.6805 -0.4047
 6631TIP3    H119899   2.805   5.716   3.231 -0.0246  1.9210 -0.0423
 6631TIP3    H219900   2.842   5.592   3.310 -1.5870  1.0340 -0.6584
 6632TIP3   OH219901   2.356   4.089   3.135  0.2831  0.0662  0.0572
 6632TIP3    H119902   2.390   4.072   3.047 -0.7949  1.8599 -0.7420
 6632TIP3    H219903   2.434   4.093   3.190  0.8863 -3.2105 -0.3382
 6633TIP3   OH219904   3.708   1.686   2.544 -0.4096  0.1184 -0.6037
 6633TIP3    H119905   3.737   1.732   2.623 -2.4868  1.2251 -0.4235
 6633TIP3    H219906   3.696   1.595   2.572  0.9699  0.0268 -0.2362
 6634TIP3   OH219907   0.274   1.746   1.293  0.2563 -0.7005 -0.3627
 6634TIP3    H119908   0.208   1.725   1.227  1.5985  1.8618 -2.7005
 6634TIP3    H219909   0.295   1.661   1.333 -1.7234 -2.1366 -2.1250
 6635TIP3   OH219910   4.193   5.339   0.282 -0.0864  0.3520 -0.0608
 6635TIP3    H119911   4.140   5.299   0.351 -0.4100 -0.6204 -0.8489
 6635TIP3    H219912   4.132   5.397   0.237 -0.2449 -0.0618 -0.3855
 6636TIP3   OH219913   4.495   4.229   0.385  0.2112 -0.1297 -0.2068
 6636TIP3    H119914   4.489   4.304   0.326 -0.7706  1.6446  2.0067
 6636TIP3    H219915   4.541   4.263   0.462 -0.4960 -1.7286  0.9621
 6637TIP3   OH219916   0.735   0.237   4.072  0.3381 -0.6789 -0.0829
 6637TIP3    H119917   0.795   0.176   4.115  0.1732 -0.8033 -0.0280
 6637TIP3    H219918   0.653   0.188   4.064 -0.0888 -0.1368  0.8259
 6638TIP3   OH219919   0.439   3.909   1.499  0.2371  0.1334  0.4896
 6638TIP3    H119920   0.385   3.988   1.509  0.6813  0.5988 -0.6321
 6638TIP3    H219921   0.525   3.942   1.476  0.3074 -0.7039 -0.4722
 6639TIP3   OH219922   1.979   1.330   0.685  0.2875  0.3049 -0.6553
 6639TIP3    H119923   1.931   1.359   0.608  0.0649  0.9794 -0.2724
 6639TIP3    H219924   2.062   1.378   0.681  0.6172 -0.2660 -0.8950
 6640TIP3   OH219925   1.163   5.351   4.504  0.1759  0.5452  0.4934
 6640TIP3    H119926   1.148   5.440   4.535 -0.9282  0.5611 -0.0581
 6640TIP3    H219927   1.088   5.332   4.449  0.5061 -0.6640  0.4437
   6.34900   5.98590   5.18394   0.00000   0.00000  -2.11633   0.00000  -2.11633  -2.99295
