Title t=  62.00000 step= 31000
19942
    1ASP      N    1   1.255   2.298   3.591
    1ASP    HT1    2   1.164   2.255   3.568
    1ASP    HT2    3   1.276   2.362   3.512
    1ASP    HT3    4   1.246   2.366   3.670
    1ASP     CA    5   1.357   2.195   3.615
    1ASP     HA    6   1.451   2.246   3.602
    1ASP     CB    7   1.334   2.127   3.753
    1ASP    HB1    8   1.251   2.054   3.761
    1ASP    HB2    9   1.313   2.198   3.836
    1ASP     CG   10   1.458   2.051   3.800
    1ASP    OD1   11   1.441   1.970   3.893
    1ASP    OD2   12   1.570   2.060   3.747
    1ASP      C   13   1.361   2.103   3.496
    1ASP      O   14   1.307   2.131   3.388
    2ALA      N   15   1.415   1.980   3.505
    2ALA     HN   16   1.430   1.944   3.597
    2ALA     CA   17   1.435   1.886   3.400
    2ALA     HA   18   1.486   1.941   3.322
    2ALA     CB   19   1.539   1.777   3.433
    2ALA    HB1   20   1.502   1.731   3.527
    2ALA    HB2   21   1.640   1.820   3.452
    2ALA    HB3   22   1.556   1.700   3.355
    2ALA      C   23   1.306   1.829   3.338
    2ALA      O   24   1.210   1.803   3.409
    3ASP      N   25   1.309   1.800   3.203
    3ASP     HN   26   1.385   1.834   3.148
    3ASP     CA   27   1.196   1.749   3.125
    3ASP     HA   28   1.104   1.795   3.158
    3ASP     CB   29   1.214   1.784   2.972
    3ASP    HB1   30   1.124   1.738   2.926
    3ASP    HB2   31   1.307   1.751   2.921
    3ASP     CG   32   1.195   1.933   2.950
    3ASP    OD1   33   1.268   1.989   2.870
    3ASP    OD2   34   1.111   1.995   3.019
    3ASP      C   35   1.181   1.597   3.146
    3ASP      O   36   1.281   1.531   3.160
    4GLY      N   37   1.058   1.551   3.157
    4GLY     HN   38   0.978   1.610   3.144
    4GLY     CA   39   1.030   1.410   3.139
    4GLY    HA1   40   0.926   1.390   3.159
    4GLY    HA2   41   1.083   1.357   3.216
    4GLY      C   42   1.074   1.357   2.997
    4GLY      O   43   1.088   1.442   2.901
    5PRO      N   44   1.092   1.231   2.975
    5PRO     CD   45   1.137   1.141   3.083
    5PRO    HD1   46   1.058   1.126   3.159
    5PRO    HD2   47   1.227   1.187   3.127
    5PRO     CA   48   1.091   1.160   2.843
    5PRO     HA   49   1.176   1.206   2.794
    5PRO     CB   50   1.097   1.013   2.891
    5PRO    HB1   51   1.141   0.940   2.820
    5PRO    HB2   52   0.999   0.963   2.911
    5PRO     CG   53   1.169   1.004   3.025
    5PRO    HG1   54   1.126   0.920   3.084
    5PRO    HG2   55   1.278   0.995   3.007
    5PRO      C   56   0.967   1.175   2.760
    5PRO      O   57   0.857   1.201   2.807
    6GLY      N   58   0.991   1.154   2.637
    6GLY     HN   59   1.076   1.109   2.610
    6GLY     CA   60   0.897   1.165   2.527
    6GLY    HA1   61   0.950   1.202   2.440
    6GLY    HA2   62   0.813   1.225   2.557
    6GLY      C   63   0.834   1.041   2.480
    6GLY      O   64   0.841   0.936   2.539
    7ASP      N   65   0.773   1.054   2.355
    7ASP     HN   66   0.763   1.135   2.298
    7ASP     CA   67   0.699   0.943   2.292
    7ASP     HA   68   0.618   0.926   2.362
    7ASP     CB   69   0.639   1.008   2.160
    7ASP    HB1   70   0.726   1.028   2.094
    7ASP    HB2   71   0.592   1.106   2.180
    7ASP     CG   72   0.539   0.917   2.088
    7ASP    OD1   73   0.499   0.953   1.968
    7ASP    OD2   74   0.495   0.816   2.143
    7ASP      C   75   0.788   0.825   2.259
    7ASP      O   76   0.887   0.845   2.189
    8PRO      N   77   0.755   0.701   2.295
    8PRO     CD   78   0.665   0.671   2.405
    8PRO    HD1   79   0.559   0.664   2.371
    8PRO    HD2   80   0.662   0.758   2.474
    8PRO     CA   81   0.841   0.592   2.262
    8PRO     HA   82   0.940   0.624   2.292
    8PRO     CB   83   0.777   0.472   2.337
    8PRO    HB1   84   0.847   0.390   2.363
    8PRO    HB2   85   0.691   0.431   2.280
    8PRO     CG   86   0.718   0.546   2.460
    8PRO    HG1   87   0.645   0.489   2.521
    8PRO    HG2   88   0.803   0.568   2.528
    8PRO      C   89   0.838   0.553   2.109
    8PRO      O   90   0.921   0.470   2.075
    9ASP      N   91   0.763   0.627   2.031
    9ASP     HN   92   0.709   0.701   2.071
    9ASP     CA   93   0.767   0.622   1.887
    9ASP     HA   94   0.764   0.517   1.860
    9ASP     CB   95   0.649   0.692   1.830
    9ASP    HB1   96   0.662   0.687   1.720
    9ASP    HB2   97   0.656   0.798   1.866
    9ASP     CG   98   0.518   0.625   1.864
    9ASP    OD1   99   0.410   0.679   1.840
    9ASP    OD2  100   0.521   0.513   1.922
    9ASP      C  101   0.900   0.682   1.833
    9ASP      O  102   0.961   0.626   1.741
   10ALA      N  103   0.948   0.788   1.896
   10ALA     HN  104   0.899   0.828   1.973
   10ALA     CA  105   1.062   0.855   1.845
   10ALA     HA  106   1.045   0.888   1.743
   10ALA     CB  107   1.056   0.991   1.917
   10ALA    HB1  108   1.137   1.055   1.876
   10ALA    HB2  109   1.083   0.970   2.023
   10ALA    HB3  110   0.954   1.035   1.921
   10ALA      C  111   1.196   0.785   1.836
   10ALA      O  112   1.230   0.713   1.927
   11GLY      N  113   1.278   0.801   1.732
   11GLY     HN  114   1.255   0.868   1.662
   11GLY     CA  115   1.395   0.720   1.699
   11GLY    HA1  116   1.359   0.655   1.620
   11GLY    HA2  117   1.429   0.664   1.785
   11GLY      C  118   1.503   0.802   1.637
   11GLY    OT1  119   1.551   0.779   1.523
   11GLY    OT2  120   1.559   0.892   1.711
   12LIT    LIT  121   4.969   4.040   2.587
   13LIT    LIT  122   0.890   2.420   2.259
   14LIT    LIT  123   0.603   5.760   3.266
   15LIT    LIT  124   1.414   4.041   0.428
   16LIT    LIT  125   3.481   5.875   2.621
   17LIT    LIT  126   3.742   4.211   3.337
   18LIT    LIT  127   2.971   2.066   2.597
   19LIT    LIT  128   0.372   0.861   1.871
   20LIT    LIT  129   3.867   1.586   3.660
   21LIT    LIT  130   0.604   5.478   2.487
   22LIT    LIT  131   4.177   3.761   1.293
   23LIT    LIT  132   0.675   1.334   1.251
   24LIT    LIT  133   4.463   3.389   0.148
   25LIT    LIT  134   1.413   5.977   0.677
   26LIT    LIT  135   4.919   4.691  -0.026
   27LIT    LIT  136   1.791   0.697   3.516
   28LIT    LIT  137   1.728   2.141   3.754
   29LIT    LIT  138   2.505   5.399   1.437
   30LIT    LIT  139   2.037   1.512   1.360
   31LIT    LIT  140   5.292   3.964   4.188
   32LIT    LIT  141   4.148   5.845   1.584
   33LIT    LIT  142   3.200   1.638   1.103
   34CLA    CLA  143   3.382   1.835   2.408
   35CLA    CLA  144   0.238   0.458   3.275
   36CLA    CLA  145   2.313   1.949   4.405
   37CLA    CLA  146   1.009   3.067   4.346
   38CLA    CLA  147   1.801   3.017   3.455
   39CLA    CLA  148   5.705   4.316   3.783
   40CLA    CLA  149   1.005   1.077   4.576
   41CLA    CLA  150  -0.001   3.649   1.775
   42CLA    CLA  151   3.418   4.194   1.595
   43CLA    CLA  152   1.188   3.614   1.571
   44CLA    CLA  153   3.650   1.254   0.504
   45CLA    CLA  154   3.330   0.579   2.518
   46CLA    CLA  155   2.838   1.828   3.009
   47CLA    CLA  156   4.757   4.545   0.062
   48CLA    CLA  157   2.887   4.827   3.921
   49CLA    CLA  158   4.988   5.349   1.174
   50CLA    CLA  159   1.463   2.495   0.017
   51CLA    CLA  160   3.836   0.522   1.886
   52TIP3   OH2  161   1.649   0.581   3.595
   52TIP3    H1  162   1.638   0.623   3.680
   52TIP3    H2  163   1.569   0.530   3.583
   53TIP3   OH2  164   1.920   3.834   3.132
   53TIP3    H1  165   1.830   3.834   3.166
   53TIP3    H2  166   1.964   3.903   3.182
   54TIP3   OH2  167   1.407   0.664   4.564
   54TIP3    H1  168   1.320   0.676   4.527
   54TIP3    H2  169   1.392   0.617   4.646
   55TIP3   OH2  170   5.104   3.011   1.423
   55TIP3    H1  171   5.127   3.096   1.463
   55TIP3    H2  172   5.122   2.947   1.492
   56TIP3   OH2  173   2.680   1.782   0.960
   56TIP3    H1  174   2.589   1.810   0.960
   56TIP3    H2  175   2.716   1.816   0.878
   57TIP3   OH2  176   3.512   0.574   0.874
   57TIP3    H1  177   3.453   0.542   0.806
   57TIP3    H2  178   3.458   0.577   0.953
   58TIP3   OH2  179   4.752   3.157   0.973
   58TIP3    H1  180   4.800   3.091   0.924
   58TIP3    H2  181   4.717   3.216   0.906
   59TIP3   OH2  182   3.375   3.361   3.940
   59TIP3    H1  183   3.308   3.331   3.879
   59TIP3    H2  184   3.327   3.415   4.004
   60TIP3   OH2  185   3.370   4.965   4.057
   60TIP3    H1  186   3.359   4.875   4.088
   60TIP3    H2  187   3.280   4.999   4.051
   61TIP3   OH2  188   3.567   2.539   3.196
   61TIP3    H1  189   3.623   2.556   3.272
   61TIP3    H2  190   3.485   2.508   3.233
   62TIP3   OH2  191   6.111   3.970   2.980
   62TIP3    H1  192   6.135   3.912   2.908
   62TIP3    H2  193   6.070   3.913   3.044
   63TIP3   OH2  194   2.971   5.296   1.461
   63TIP3    H1  195   3.052   5.248   1.477
   63TIP3    H2  196   2.919   5.282   1.540
   64TIP3   OH2  197   5.500   0.471   0.331
   64TIP3    H1  198   5.551   0.443   0.407
   64TIP3    H2  199   5.539   0.553   0.304
   65TIP3   OH2  200   3.376   0.966   1.633
   65TIP3    H1  201   3.425   0.888   1.660
   65TIP3    H2  202   3.439   1.018   1.584
   66TIP3   OH2  203   0.332   4.309   4.876
   66TIP3    H1  204   0.377   4.335   4.956
   66TIP3    H2  205   0.239   4.327   4.894
   67TIP3   OH2  206   3.307   0.071   1.807
   67TIP3    H1  207   3.329   0.066   1.714
   67TIP3    H2  208   3.211   0.074   1.808
   68TIP3   OH2  209   2.048   0.049   3.000
   68TIP3    H1  210   2.102   0.077   3.074
   68TIP3    H2  211   2.088   0.090   2.924
   69TIP3   OH2  212   3.376   4.007   0.796
   69TIP3    H1  213   3.366   4.088   0.846
   69TIP3    H2  214   3.289   3.968   0.793
   70TIP3   OH2  215   6.021   1.020   3.431
   70TIP3    H1  216   6.033   1.004   3.338
   70TIP3    H2  217   5.972   1.103   3.435
   71TIP3   OH2  218   5.883   3.531   1.221
   71TIP3    H1  219   5.959   3.495   1.173
   71TIP3    H2  220   5.831   3.454   1.243
   72TIP3   OH2  221   5.530   4.644   1.512
   72TIP3    H1  222   5.541   4.607   1.425
   72TIP3    H2  223   5.619   4.659   1.544
   73TIP3   OH2  224   1.738   5.096   1.452
   73TIP3    H1  225   1.760   5.071   1.362
   73TIP3    H2  226   1.821   5.096   1.498
   74TIP3   OH2  227   4.447   2.089   0.857
   74TIP3    H1  228   4.492   2.046   0.784
   74TIP3    H2  229   4.514   2.097   0.925
   75TIP3   OH2  230   0.113   1.756   1.897
   75TIP3    H1  231   0.046   1.695   1.865
   75TIP3    H2  232   0.068   1.811   1.960
   76TIP3   OH2  233   1.810   5.134   2.676
   76TIP3    H1  234   1.829   5.051   2.633
   76TIP3    H2  235   1.812   5.199   2.606
   77TIP3   OH2  236   1.565   3.826   1.756
   77TIP3    H1  237   1.536   3.897   1.814
   77TIP3    H2  238   1.660   3.836   1.753
   78TIP3   OH2  239   4.212   1.948   4.782
   78TIP3    H1  240   4.240   1.857   4.790
   78TIP3    H2  241   4.167   1.967   4.865
   79TIP3   OH2  242   1.953   5.006   2.379
   79TIP3    H1  243   1.939   5.099   2.363
   79TIP3    H2  244   1.865   4.968   2.380
   80TIP3   OH2  245   1.270   3.834   2.075
   80TIP3    H1  246   1.324   3.890   2.020
   80TIP3    H2  247   1.198   3.806   2.018
   81TIP3   OH2  248   2.761   3.302   4.464
   81TIP3    H1  249   2.803   3.384   4.492
   81TIP3    H2  250   2.826   3.234   4.484
   82TIP3   OH2  251   6.068   2.143   3.552
   82TIP3    H1  252   6.014   2.064   3.548
   82TIP3    H2  253   6.145   2.122   3.498
   83TIP3   OH2  254   5.225   3.562   4.193
   83TIP3    H1  255   5.203   3.472   4.168
   83TIP3    H2  256   5.320   3.568   4.182
   84TIP3   OH2  257  -0.013   2.753   1.107
   84TIP3    H1  258   0.064   2.697   1.102
   84TIP3    H2  259   0.011   2.832   1.059
   85TIP3   OH2  260   0.666   3.096   5.013
   85TIP3    H1  261   0.631   3.014   4.977
   85TIP3    H2  262   0.632   3.163   4.954
   86TIP3   OH2  263   4.624   3.422   1.681
   86TIP3    H1  264   4.571   3.482   1.629
   86TIP3    H2  265   4.675   3.373   1.617
   87TIP3   OH2  266   0.117   4.493   3.905
   87TIP3    H1  267   0.180   4.522   3.840
   87TIP3    H2  268   0.162   4.424   3.954
   88TIP3   OH2  269   4.445   2.192   3.318
   88TIP3    H1  270   4.395   2.216   3.240
   88TIP3    H2  271   4.522   2.147   3.284
   89TIP3   OH2  272   0.265   4.616   0.163
   89TIP3    H1  273   0.263   4.649   0.253
   89TIP3    H2  274   0.335   4.550   0.164
   90TIP3   OH2  275   3.777   5.715   1.213
   90TIP3    H1  276   3.808   5.699   1.123
   90TIP3    H2  277   3.763   5.809   1.217
   91TIP3   OH2  278   5.152   5.996   3.582
   91TIP3    H1  279   5.154   6.002   3.678
   91TIP3    H2  280   5.113   5.910   3.565
   92TIP3   OH2  281   4.850   2.831   1.543
   92TIP3    H1  282   4.920   2.850   1.606
   92TIP3    H2  283   4.848   2.735   1.539
   93TIP3   OH2  284   0.392   0.095   3.813
   93TIP3    H1  285   0.474   0.055   3.785
   93TIP3    H2  286   0.410   0.189   3.816
   94TIP3   OH2  287   4.484   4.990   3.701
   94TIP3    H1  288   4.418   4.946   3.648
   94TIP3    H2  289   4.545   5.027   3.638
   95TIP3   OH2  290   3.733   0.747   4.892
   95TIP3    H1  291   3.704   0.667   4.934
   95TIP3    H2  292   3.660   0.808   4.901
   96TIP3   OH2  293   3.409  -0.007   0.520
   96TIP3    H1  294   3.313  -0.012   0.514
   96TIP3    H2  295   3.437   0.014   0.430
   97TIP3   OH2  296   2.649   3.027   4.312
   97TIP3    H1  297   2.701   3.061   4.240
   97TIP3    H2  298   2.703   3.043   4.390
   98TIP3   OH2  299   3.612   3.013   0.438
   98TIP3    H1  300   3.627   2.942   0.376
   98TIP3    H2  301   3.614   2.971   0.524
   99TIP3   OH2  302   0.671   3.488   2.239
   99TIP3    H1  303   0.737   3.432   2.281
   99TIP3    H2  304   0.692   3.576   2.270
  100TIP3   OH2  305   4.067   2.457   4.856
  100TIP3    H1  306   4.158   2.485   4.844
  100TIP3    H2  307   4.022   2.491   4.778
  101TIP3   OH2  308   2.974   1.754   2.065
  101TIP3    H1  309   2.954   1.787   1.978
  101TIP3    H2  310   3.041   1.813   2.099
  102TIP3   OH2  311   4.736   3.727   0.358
  102TIP3    H1  312   4.699   3.745   0.271
  102TIP3    H2  313   4.661   3.705   0.412
  103TIP3   OH2  314   0.000   4.759   2.472
  103TIP3    H1  315  -0.055   4.715   2.536
  103TIP3    H2  316   0.040   4.689   2.421
  104TIP3   OH2  317   0.915   0.822   4.433
  104TIP3    H1  318   0.941   0.905   4.472
  104TIP3    H2  319   0.819   0.821   4.438
  105TIP3   OH2  320   4.064   0.401   4.538
  105TIP3    H1  321   3.990   0.340   4.537
  105TIP3    H2  322   4.035   0.475   4.485
  106TIP3   OH2  323   5.515   4.342   2.464
  106TIP3    H1  324   5.593   4.318   2.415
  106TIP3    H2  325   5.546   4.359   2.553
  107TIP3   OH2  326   6.109   0.966   1.082
  107TIP3    H1  327   6.079   1.056   1.095
  107TIP3    H2  328   6.144   0.940   1.167
  108TIP3   OH2  329   4.878   5.697   3.867
  108TIP3    H1  330   4.878   5.616   3.918
  108TIP3    H2  331   4.929   5.758   3.920
  109TIP3   OH2  332   3.262   3.369   1.980
  109TIP3    H1  333   3.214   3.302   1.931
  109TIP3    H2  334   3.200   3.442   1.988
  110TIP3   OH2  335   4.878   0.244   3.255
  110TIP3    H1  336   4.929   0.298   3.314
  110TIP3    H2  337   4.851   0.168   3.308
  111TIP3   OH2  338   5.797   4.401   3.038
  111TIP3    H1  339   5.838   4.487   3.051
  111TIP3    H2  340   5.860   4.339   3.074
  112TIP3   OH2  341   4.023   4.010   1.934
  112TIP3    H1  342   4.067   4.071   1.993
  112TIP3    H2  343   3.958   3.966   1.989
  113TIP3   OH2  344   6.341   5.431   2.346
  113TIP3    H1  345   6.410   5.414   2.282
  113TIP3    H2  346   6.261   5.431   2.294
  114TIP3   OH2  347   0.084   0.751   2.787
  114TIP3    H1  348   0.082   0.750   2.883
  114TIP3    H2  349   0.038   0.671   2.761
  115TIP3   OH2  350   1.151   5.287   2.559
  115TIP3    H1  351   1.236   5.304   2.601
  115TIP3    H2  352   1.127   5.199   2.588
  116TIP3   OH2  353   4.461   1.360   2.802
  116TIP3    H1  354   4.548   1.337   2.833
  116TIP3    H2  355   4.448   1.305   2.725
  117TIP3   OH2  356   2.579   5.499   1.291
  117TIP3    H1  357   2.583   5.532   1.201
  117TIP3    H2  358   2.666   5.518   1.327
  118TIP3   OH2  359   2.640   5.917   4.222
  118TIP3    H1  360   2.701   5.982   4.258
  118TIP3    H2  361   2.660   5.837   4.270
  119TIP3   OH2  362   1.982   3.530   1.772
  119TIP3    H1  363   1.981   3.435   1.783
  119TIP3    H2  364   1.952   3.545   1.683
  120TIP3   OH2  365   3.299   5.913   4.960
  120TIP3    H1  366   3.326   5.964   4.883
  120TIP3    H2  367   3.253   5.837   4.923
  121TIP3   OH2  368   6.254   1.311   3.126
  121TIP3    H1  369   6.249   1.406   3.127
  121TIP3    H2  370   6.322   1.290   3.190
  122TIP3   OH2  371   1.129   3.592   3.754
  122TIP3    H1  372   1.174   3.664   3.709
  122TIP3    H2  373   1.200   3.541   3.794
  123TIP3   OH2  374   3.160   0.902   3.704
  123TIP3    H1  375   3.182   0.974   3.645
  123TIP3    H2  376   3.244   0.868   3.733
  124TIP3   OH2  377   2.473   5.392   3.992
  124TIP3    H1  378   2.517   5.476   3.998
  124TIP3    H2  379   2.515   5.348   3.918
  125TIP3   OH2  380   0.461   0.678   1.538
  125TIP3    H1  381   0.426   0.644   1.455
  125TIP3    H2  382   0.392   0.661   1.602
  126TIP3   OH2  383   0.688   3.049   1.111
  126TIP3    H1  384   0.678   3.118   1.178
  126TIP3    H2  385   0.738   3.091   1.041
  127TIP3   OH2  386   5.410   1.420   0.543
  127TIP3    H1  387   5.379   1.397   0.630
  127TIP3    H2  388   5.399   1.340   0.491
  128TIP3   OH2  389   2.281   4.764   1.281
  128TIP3    H1  390   2.360   4.818   1.285
  128TIP3    H2  391   2.301   4.697   1.215
  129TIP3   OH2  392   4.215   3.707   0.608
  129TIP3    H1  393   4.190   3.766   0.536
  129TIP3    H2  394   4.173   3.745   0.685
  130TIP3   OH2  395   4.221   1.548   4.371
  130TIP3    H1  396   4.132   1.582   4.385
  130TIP3    H2  397   4.214   1.493   4.294
  131TIP3   OH2  398   3.779   3.403   0.604
  131TIP3    H1  399   3.686   3.388   0.617
  131TIP3    H2  400   3.785   3.447   0.519
  132TIP3   OH2  401   3.796   1.856   0.760
  132TIP3    H1  402   3.874   1.911   0.765
  132TIP3    H2  403   3.829   1.767   0.752
  133TIP3   OH2  404   3.045   1.193   2.289
  133TIP3    H1  405   2.991   1.176   2.366
  133TIP3    H2  406   3.007   1.270   2.249
  134TIP3   OH2  407   5.167   1.391   4.913
  134TIP3    H1  408   5.142   1.299   4.911
  134TIP3    H2  409   5.097   1.435   4.961
  135TIP3   OH2  410   2.540   3.324   1.616
  135TIP3    H1  411   2.499   3.360   1.694
  135TIP3    H2  412   2.497   3.240   1.602
  136TIP3   OH2  413   1.355   5.622   1.124
  136TIP3    H1  414   1.365   5.600   1.031
  136TIP3    H2  415   1.422   5.688   1.141
  137TIP3   OH2  416   5.470   5.004   4.613
  137TIP3    H1  417   5.388   4.975   4.574
  137TIP3    H2  418   5.443   5.068   4.680
  138TIP3   OH2  419   3.502   4.950   4.391
  138TIP3    H1  420   3.542   4.912   4.469
  138TIP3    H2  421   3.505   4.879   4.326
  139TIP3   OH2  422   4.846   0.323   1.394
  139TIP3    H1  423   4.833   0.293   1.484
  139TIP3    H2  424   4.783   0.272   1.343
  140TIP3   OH2  425   5.272   3.611   1.936
  140TIP3    H1  426   5.354   3.659   1.950
  140TIP3    H2  427   5.241   3.589   2.024
  141TIP3   OH2  428   5.084   1.116   2.783
  141TIP3    H1  429   5.162   1.066   2.805
  141TIP3    H2  430   5.084   1.190   2.844
  142TIP3   OH2  431   4.845   4.000   2.930
  142TIP3    H1  432   4.834   3.906   2.922
  142TIP3    H2  433   4.834   4.018   3.023
  143TIP3   OH2  434   5.735   1.831   1.609
  143TIP3    H1  435   5.756   1.759   1.550
  143TIP3    H2  436   5.819   1.877   1.621
  144TIP3   OH2  437   1.725   5.652   0.656
  144TIP3    H1  438   1.712   5.624   0.747
  144TIP3    H2  439   1.770   5.579   0.615
  145TIP3   OH2  440   0.880   2.599   3.004
  145TIP3    H1  441   0.911   2.631   3.089
  145TIP3    H2  442   0.824   2.525   3.026
  146TIP3   OH2  443   4.519   0.863   2.172
  146TIP3    H1  444   4.430   0.831   2.158
  146TIP3    H2  445   4.575   0.800   2.126
  147TIP3   OH2  446   5.413   4.053   2.545
  147TIP3    H1  447   5.326   4.075   2.579
  147TIP3    H2  448   5.473   4.079   2.614
  148TIP3   OH2  449   5.930   2.818   2.231
  148TIP3    H1  450   5.981   2.843   2.308
  148TIP3    H2  451   5.919   2.724   2.240
  149TIP3   OH2  452   0.867   3.089   3.990
  149TIP3    H1  453   0.844   3.006   3.949
  149TIP3    H2  454   0.951   3.072   4.033
  150TIP3   OH2  455   0.494   1.358   4.653
  150TIP3    H1  456   0.487   1.439   4.601
  150TIP3    H2  457   0.507   1.289   4.588
  151TIP3   OH2  458   1.303   5.913   2.876
  151TIP3    H1  459   1.238   5.973   2.839
  151TIP3    H2  460   1.359   5.969   2.930
  152TIP3   OH2  461   2.034   3.904   4.495
  152TIP3    H1  462   2.033   3.839   4.566
  152TIP3    H2  463   2.124   3.903   4.464
  153TIP3   OH2  464   0.593   2.638   1.886
  153TIP3    H1  465   0.623   2.729   1.883
  153TIP3    H2  466   0.499   2.643   1.868
  154TIP3   OH2  467   0.111   5.366   2.968
  154TIP3    H1  468   0.122   5.301   3.038
  154TIP3    H2  469   0.176   5.433   2.986
  155TIP3   OH2  470   3.229   3.899   0.168
  155TIP3    H1  471   3.213   3.869   0.258
  155TIP3    H2  472   3.197   3.989   0.166
  156TIP3   OH2  473   5.287   1.886   3.475
  156TIP3    H1  474   5.358   1.822   3.473
  156TIP3    H2  475   5.277   1.913   3.384
  157TIP3   OH2  476   0.411   4.134   0.496
  157TIP3    H1  477   0.421   4.042   0.518
  157TIP3    H2  478   0.415   4.180   0.580
  158TIP3   OH2  479   6.211   3.218   1.524
  158TIP3    H1  480   6.240   3.273   1.597
  158TIP3    H2  481   6.285   3.159   1.508
  159TIP3   OH2  482   1.415   3.551   4.258
  159TIP3    H1  483   1.404   3.645   4.269
  159TIP3    H2  484   1.438   3.519   4.345
  160TIP3   OH2  485   5.595   1.065   5.072
  160TIP3    H1  486   5.542   1.068   4.993
  160TIP3    H2  487   5.563   0.988   5.120
  161TIP3   OH2  488   4.110   1.303   1.485
  161TIP3    H1  489   4.102   1.374   1.422
  161TIP3    H2  490   4.020   1.281   1.509
  162TIP3   OH2  491   2.526   2.855   1.481
  162TIP3    H1  492   2.614   2.819   1.469
  162TIP3    H2  493   2.471   2.778   1.496
  163TIP3   OH2  494   2.557   1.941   3.587
  163TIP3    H1  495   2.476   1.891   3.597
  163TIP3    H2  496   2.532   2.019   3.537
  164TIP3   OH2  497   0.388   1.784   0.603
  164TIP3    H1  498   0.338   1.834   0.668
  164TIP3    H2  499   0.455   1.845   0.572
  165TIP3   OH2  500   4.643   3.422   0.218
  165TIP3    H1  501   4.692   3.379   0.288
  165TIP3    H2  502   4.706   3.484   0.180
  166TIP3   OH2  503   4.542   1.557   4.933
  166TIP3    H1  504   4.555   1.632   4.991
  166TIP3    H2  505   4.631   1.531   4.907
  167TIP3   OH2  506   4.788   4.510   0.376
  167TIP3    H1  507   4.728   4.583   0.359
  167TIP3    H2  508   4.837   4.500   0.294
  168TIP3   OH2  509   0.043   1.758   3.282
  168TIP3    H1  510  -0.008   1.807   3.347
  168TIP3    H2  511   0.113   1.818   3.256
  169TIP3   OH2  512   3.384   0.055   3.958
  169TIP3    H1  513   3.294   0.033   3.933
  169TIP3    H2  514   3.405   0.134   3.908
  170TIP3   OH2  515   4.802   1.541   1.366
  170TIP3    H1  516   4.755   1.601   1.425
  170TIP3    H2  517   4.809   1.590   1.284
  171TIP3   OH2  518   3.253   3.952   1.206
  171TIP3    H1  519   3.196   3.897   1.260
  171TIP3    H2  520   3.341   3.923   1.228
  172TIP3   OH2  521   2.907   5.819   4.580
  172TIP3    H1  522   2.837   5.819   4.645
  172TIP3    H2  523   2.892   5.740   4.528
  173TIP3   OH2  524   4.833   3.493   4.544
  173TIP3    H1  525   4.877   3.529   4.467
  173TIP3    H2  526   4.742   3.522   4.535
  174TIP3   OH2  527   6.213   3.419   4.246
  174TIP3    H1  528   6.266   3.499   4.242
  174TIP3    H2  529   6.271   3.354   4.286
  175TIP3   OH2  530   1.254   3.901   1.435
  175TIP3    H1  531   1.249   3.810   1.463
  175TIP3    H2  532   1.162   3.928   1.427
  176TIP3   OH2  533   5.852   3.889   2.305
  176TIP3    H1  534   5.861   3.808   2.356
  176TIP3    H2  535   5.897   3.955   2.358
  177TIP3   OH2  536   4.463   4.487   2.070
  177TIP3    H1  537   4.406   4.467   1.996
  177TIP3    H2  538   4.525   4.552   2.037
  178TIP3   OH2  539   3.007   3.082   2.762
  178TIP3    H1  540   3.061   3.062   2.839
  178TIP3    H2  541   2.946   3.150   2.792
  179TIP3   OH2  542   3.779   0.193   1.977
  179TIP3    H1  543   3.846   0.260   1.985
  179TIP3    H2  544   3.703   0.238   1.939
  180TIP3   OH2  545   1.855   4.045   0.643
  180TIP3    H1  546   1.887   3.957   0.622
  180TIP3    H2  547   1.800   4.068   0.568
  181TIP3   OH2  548   0.975   4.007   3.906
  181TIP3    H1  549   0.953   4.008   3.813
  181TIP3    H2  550   0.971   3.915   3.931
  182TIP3   OH2  551   5.491   0.917   0.616
  182TIP3    H1  552   5.458   0.996   0.658
  182TIP3    H2  553   5.431   0.902   0.543
  183TIP3   OH2  554   5.481   0.138   2.339
  183TIP3    H1  555   5.449   0.220   2.300
  183TIP3    H2  556   5.402   0.087   2.355
  184TIP3   OH2  557   2.038   0.373   0.950
  184TIP3    H1  558   2.029   0.328   1.034
  184TIP3    H2  559   2.040   0.466   0.972
  185TIP3   OH2  560   1.141   3.339   3.188
  185TIP3    H1  561   1.069   3.388   3.147
  185TIP3    H2  562   1.111   3.323   3.278
  186TIP3   OH2  563   3.636   0.384   3.870
  186TIP3    H1  564   3.662   0.475   3.856
  186TIP3    H2  565   3.718   0.338   3.887
  187TIP3   OH2  566   4.078   5.202   2.275
  187TIP3    H1  567   4.149   5.243   2.226
  187TIP3    H2  568   4.119   5.169   2.355
  188TIP3   OH2  569   0.562   4.651   0.315
  188TIP3    H1  570   0.553   4.582   0.249
  188TIP3    H2  571   0.543   4.732   0.269
  189TIP3   OH2  572   0.819   4.975   2.289
  189TIP3    H1  573   0.883   4.954   2.357
  189TIP3    H2  574   0.735   4.979   2.335
  190TIP3   OH2  575   0.308   3.430   5.164
  190TIP3    H1  576   0.342   3.509   5.206
  190TIP3    H2  577   0.213   3.437   5.173
  191TIP3   OH2  578   3.391   3.392   0.286
  191TIP3    H1  579   3.325   3.428   0.227
  191TIP3    H2  580   3.466   3.452   0.277
  192TIP3   OH2  581   1.133   4.626   0.534
  192TIP3    H1  582   1.220   4.618   0.495
  192TIP3    H2  583   1.146   4.680   0.612
  193TIP3   OH2  584   5.376   3.395   4.476
  193TIP3    H1  585   5.420   3.315   4.504
  193TIP3    H2  586   5.283   3.379   4.496
  194TIP3   OH2  587   1.418   4.136   5.089
  194TIP3    H1  588   1.469   4.213   5.116
  194TIP3    H2  589   1.376   4.162   5.007
  195TIP3   OH2  590   0.683   5.966   0.015
  195TIP3    H1  591   0.773   5.936   0.002
  195TIP3    H2  592   0.629   5.888   0.000
  196TIP3   OH2  593   2.817   1.450   0.158
  196TIP3    H1  594   2.741   1.395   0.175
  196TIP3    H2  595   2.781   1.537   0.142
  197TIP3   OH2  596   1.957   0.937   4.230
  197TIP3    H1  597   1.920   0.993   4.298
  197TIP3    H2  598   1.881   0.903   4.183
  198TIP3   OH2  599   0.671   0.161   4.147
  198TIP3    H1  600   0.753   0.208   4.162
  198TIP3    H2  601   0.634   0.201   4.069
  199TIP3   OH2  602   3.305   3.122   3.686
  199TIP3    H1  603   3.313   3.028   3.705
  199TIP3    H2  604   3.243   3.127   3.613
  200TIP3   OH2  605   0.693   3.250   1.303
  200TIP3    H1  606   0.742   3.332   1.299
  200TIP3    H2  607   0.611   3.274   1.347
  201TIP3   OH2  608   5.584   3.285   3.875
  201TIP3    H1  609   5.666   3.280   3.826
  201TIP3    H2  610   5.577   3.377   3.901
  202TIP3   OH2  611   5.580   5.533   0.648
  202TIP3    H1  612   5.652   5.576   0.694
  202TIP3    H2  613   5.502   5.578   0.679
  203TIP3   OH2  614   2.684   0.309   0.607
  203TIP3    H1  615   2.697   0.246   0.536
  203TIP3    H2  616   2.596   0.343   0.594
  204TIP3   OH2  617   5.642   4.282   1.906
  204TIP3    H1  618   5.592   4.213   1.862
  204TIP3    H2  619   5.682   4.238   1.981
  205TIP3   OH2  620   0.107   0.635   2.160
  205TIP3    H1  621   0.106   0.731   2.170
  205TIP3    H2  622   0.199   0.612   2.159
  206TIP3   OH2  623   5.079   1.587   4.258
  206TIP3    H1  624   4.993   1.544   4.267
  206TIP3    H2  625   5.114   1.589   4.347
  207TIP3   OH2  626   5.412   1.659   2.866
  207TIP3    H1  627   5.446   1.711   2.939
  207TIP3    H2  628   5.426   1.715   2.789
  208TIP3   OH2  629   1.037   5.108   0.499
  208TIP3    H1  630   1.051   5.185   0.444
  208TIP3    H2  631   1.120   5.060   0.497
  209TIP3   OH2  632   0.570   2.065   4.187
  209TIP3    H1  633   0.596   2.079   4.278
  209TIP3    H2  634   0.645   2.019   4.148
  210TIP3   OH2  635   6.054   1.155   2.274
  210TIP3    H1  636   6.021   1.205   2.199
  210TIP3    H2  637   5.980   1.152   2.335
  211TIP3   OH2  638   2.361   0.838   4.353
  211TIP3    H1  639   2.335   0.746   4.345
  211TIP3    H2  640   2.438   0.836   4.410
  212TIP3   OH2  641   1.687   1.247   0.054
  212TIP3    H1  642   1.632   1.183   0.099
  212TIP3    H2  643   1.627   1.293  -0.004
  213TIP3   OH2  644   2.922   1.443   0.409
  213TIP3    H1  645   2.979   1.366   0.408
  213TIP3    H2  646   2.898   1.457   0.318
  214TIP3   OH2  647   5.363   5.629   0.830
  214TIP3    H1  648   5.441   5.675   0.860
  214TIP3    H2  649   5.306   5.624   0.907
  215TIP3   OH2  650   5.427   1.090   4.858
  215TIP3    H1  651   5.332   1.105   4.858
  215TIP3    H2  652   5.463   1.164   4.810
  216TIP3   OH2  653   6.189   3.172   3.197
  216TIP3    H1  654   6.096   3.149   3.206
  216TIP3    H2  655   6.235   3.096   3.233
  217TIP3   OH2  656   5.171   2.442   0.126
  217TIP3    H1  657   5.103   2.489   0.174
  217TIP3    H2  658   5.142   2.445   0.035
  218TIP3   OH2  659   3.920   3.045   3.920
  218TIP3    H1  660   3.900   3.004   3.836
  218TIP3    H2  661   3.966   3.126   3.896
  219TIP3   OH2  662   1.159   0.683   4.450
  219TIP3    H1  663   1.157   0.777   4.434
  219TIP3    H2  664   1.181   0.645   4.365
  220TIP3   OH2  665   3.972   1.976   4.130
  220TIP3    H1  666   4.060   2.007   4.150
  220TIP3    H2  667   3.936   1.951   4.215
  221TIP3   OH2  668   1.929   1.451   2.472
  221TIP3    H1  669   2.015   1.411   2.483
  221TIP3    H2  670   1.948   1.545   2.463
  222TIP3   OH2  671   1.690   5.728   1.566
  222TIP3    H1  672   1.694   5.792   1.494
  222TIP3    H2  673   1.677   5.782   1.644
  223TIP3   OH2  674   4.834   4.464   2.908
  223TIP3    H1  675   4.866   4.554   2.921
  223TIP3    H2  676   4.739   4.471   2.920
  224TIP3   OH2  677   2.322   2.339   2.876
  224TIP3    H1  678   2.393   2.329   2.939
  224TIP3    H2  679   2.354   2.407   2.816
  225TIP3   OH2  680   0.023   3.663   5.109
  225TIP3    H1  681  -0.005   3.606   5.037
  225TIP3    H2  682   0.113   3.686   5.087
  226TIP3   OH2  683   5.977   2.463   3.220
  226TIP3    H1  684   5.895   2.464   3.170
  226TIP3    H2  685   5.954   2.502   3.305
  227TIP3   OH2  686   4.136   2.516   3.270
  227TIP3    H1  687   4.122   2.425   3.243
  227TIP3    H2  688   4.048   2.548   3.292
  228TIP3   OH2  689   5.390   5.497   4.312
  228TIP3    H1  690   5.323   5.430   4.321
  228TIP3    H2  691   5.443   5.469   4.238
  229TIP3   OH2  692   1.341   1.996   0.070
  229TIP3    H1  693   1.314   1.941  -0.004
  229TIP3    H2  694   1.293   2.078   0.057
  230TIP3   OH2  695   3.203   0.326   1.288
  230TIP3    H1  696   3.193   0.241   1.245
  230TIP3    H2  697   3.255   0.308   1.366
  231TIP3   OH2  698   5.341   3.573   1.126
  231TIP3    H1  699   5.362   3.581   1.219
  231TIP3    H2  700   5.307   3.659   1.101
  232TIP3   OH2  701   4.527   4.323   3.886
  232TIP3    H1  702   4.452   4.347   3.940
  232TIP3    H2  703   4.598   4.307   3.948
  233TIP3   OH2  704   5.409   4.097   4.863
  233TIP3    H1  705   5.439   4.187   4.879
  233TIP3    H2  706   5.407   4.057   4.950
  234TIP3   OH2  707   1.923   3.130   1.447
  234TIP3    H1  708   1.976   3.078   1.507
  234TIP3    H2  709   1.982   3.200   1.418
  235TIP3   OH2  710   4.274   2.157   1.293
  235TIP3    H1  711   4.185   2.193   1.301
  235TIP3    H2  712   4.261   2.063   1.282
  236TIP3   OH2  713   6.326   0.483   2.672
  236TIP3    H1  714   6.297   0.451   2.758
  236TIP3    H2  715   6.377   0.410   2.635
  237TIP3   OH2  716   4.287   1.811   4.219
  237TIP3    H1  717   4.304   1.717   4.217
  237TIP3    H2  718   4.215   1.821   4.281
  238TIP3   OH2  719   4.216   4.491   3.253
  238TIP3    H1  720   4.308   4.480   3.230
  238TIP3    H2  721   4.173   4.516   3.170
  239TIP3   OH2  722   1.989   2.984   1.108
  239TIP3    H1  723   2.024   2.895   1.111
  239TIP3    H2  724   2.066   3.041   1.110
  240TIP3   OH2  725   2.310   0.351   0.974
  240TIP3    H1  726   2.220   0.347   0.942
  240TIP3    H2  727   2.310   0.298   1.054
  241TIP3   OH2  728   1.089   4.154   2.837
  241TIP3    H1  729   1.043   4.235   2.815
  241TIP3    H2  730   1.048   4.123   2.917
  242TIP3   OH2  731   2.855   4.853   1.594
  242TIP3    H1  732   2.930   4.863   1.536
  242TIP3    H2  733   2.893   4.830   1.679
  243TIP3   OH2  734   1.629   1.187   3.526
  243TIP3    H1  735   1.548   1.149   3.491
  243TIP3    H2  736   1.599   1.259   3.582
  244TIP3   OH2  737   4.388   0.279   2.956
  244TIP3    H1  738   4.394   0.184   2.960
  244TIP3    H2  739   4.478   0.309   2.950
  245TIP3   OH2  740   2.927   5.159   1.017
  245TIP3    H1  741   2.969   5.163   0.931
  245TIP3    H2  742   2.846   5.208   1.006
  246TIP3   OH2  743   3.944   0.919   3.360
  246TIP3    H1  744   4.032   0.901   3.394
  246TIP3    H2  745   3.885   0.879   3.424
  247TIP3   OH2  746   2.245   3.641   1.550
  247TIP3    H1  747   2.290   3.562   1.522
  247TIP3    H2  748   2.298   3.713   1.516
  248TIP3   OH2  749   5.482   1.206   0.204
  248TIP3    H1  750   5.523   1.122   0.225
  248TIP3    H2  751   5.534   1.271   0.251
  249TIP3   OH2  752   0.646   1.365   3.255
  249TIP3    H1  753   0.560   1.329   3.231
  249TIP3    H2  754   0.697   1.290   3.284
  250TIP3   OH2  755   4.153   4.673   3.709
  250TIP3    H1  756   4.196   4.617   3.645
  250TIP3    H2  757   4.117   4.746   3.658
  251TIP3   OH2  758   3.766   0.526   2.282
  251TIP3    H1  759   3.688   0.531   2.226
  251TIP3    H2  760   3.839   0.524   2.220
  252TIP3   OH2  761   1.728   2.673   5.104
  252TIP3    H1  762   1.741   2.580   5.119
  252TIP3    H2  763   1.811   2.713   5.132
  253TIP3   OH2  764   5.649   4.943   0.845
  253TIP3    H1  765   5.687   5.027   0.869
  253TIP3    H2  766   5.629   4.901   0.929
  254TIP3   OH2  767   5.919   5.517   2.660
  254TIP3    H1  768   5.954   5.606   2.663
  254TIP3    H2  769   5.981   5.469   2.605
  255TIP3   OH2  770   3.493   3.045   3.355
  255TIP3    H1  771   3.512   3.090   3.438
  255TIP3    H2  772   3.422   2.985   3.376
  256TIP3   OH2  773   4.025   0.540   3.992
  256TIP3    H1  774   3.991   0.561   4.079
  256TIP3    H2  775   4.060   0.624   3.959
  257TIP3   OH2  776   5.628   2.250   2.695
  257TIP3    H1  777   5.689   2.178   2.716
  257TIP3    H2  778   5.615   2.295   2.778
  258TIP3   OH2  779   2.453   3.414   0.355
  258TIP3    H1  780   2.513   3.484   0.379
  258TIP3    H2  781   2.422   3.378   0.439
  259TIP3   OH2  782   1.735   5.024   4.158
  259TIP3    H1  783   1.756   5.042   4.066
  259TIP3    H2  784   1.707   4.932   4.158
  260TIP3   OH2  785   3.669   4.720   1.753
  260TIP3    H1  786   3.588   4.719   1.803
  260TIP3    H2  787   3.643   4.691   1.665
  261TIP3   OH2  788   1.532   3.077   2.068
  261TIP3    H1  789   1.513   3.171   2.068
  261TIP3    H2  790   1.620   3.070   2.104
  262TIP3   OH2  791   6.325   0.088   0.547
  262TIP3    H1  792   6.303   0.038   0.468
  262TIP3    H2  793   6.254   0.069   0.608
  263TIP3   OH2  794   5.306   2.254   0.298
  263TIP3    H1  795   5.310   2.177   0.241
  263TIP3    H2  796   5.255   2.318   0.248
  264TIP3   OH2  797   1.882   0.389   3.807
  264TIP3    H1  798   1.832   0.428   3.736
  264TIP3    H2  799   1.963   0.360   3.767
  265TIP3   OH2  800   3.694   2.625   0.728
  265TIP3    H1  801   3.787   2.615   0.745
  265TIP3    H2  802   3.675   2.716   0.750
  266TIP3   OH2  803   4.998   0.043   0.167
  266TIP3    H1  804   4.972   0.102   0.097
  266TIP3    H2  805   5.001   0.097   0.246
  267TIP3   OH2  806   2.950   5.630   1.181
  267TIP3    H1  807   3.042   5.646   1.162
  267TIP3    H2  808   2.950   5.568   1.254
  268TIP3   OH2  809   2.390   0.722   2.492
  268TIP3    H1  810   2.390   0.735   2.587
  268TIP3    H2  811   2.381   0.628   2.480
  269TIP3   OH2  812   4.582   5.376   4.257
  269TIP3    H1  813   4.535   5.424   4.189
  269TIP3    H2  814   4.547   5.409   4.339
  270TIP3   OH2  815   3.356   3.727   1.675
  270TIP3    H1  816   3.263   3.703   1.675
  270TIP3    H2  817   3.394   3.678   1.602
  271TIP3   OH2  818   2.962   5.762   0.128
  271TIP3    H1  819   3.010   5.827   0.076
  271TIP3    H2  820   2.943   5.806   0.211
  272TIP3   OH2  821   5.589   3.045   4.037
  272TIP3    H1  822   5.663   2.989   4.011
  272TIP3    H2  823   5.580   3.108   3.966
  273TIP3   OH2  824   3.105   3.093   0.734
  273TIP3    H1  825   3.078   3.013   0.688
  273TIP3    H2  826   3.170   3.133   0.677
  274TIP3   OH2  827   5.637   5.613   2.668
  274TIP3    H1  828   5.651   5.688   2.726
  274TIP3    H2  829   5.714   5.558   2.681
  275TIP3   OH2  830   2.684   3.855   2.692
  275TIP3    H1  831   2.771   3.876   2.659
  275TIP3    H2  832   2.630   3.842   2.613
  276TIP3   OH2  833   4.887   4.235   4.464
  276TIP3    H1  834   4.894   4.215   4.371
  276TIP3    H2  835   4.916   4.326   4.470
  277TIP3   OH2  836   6.001   5.383   3.420
  277TIP3    H1  837   6.022   5.338   3.502
  277TIP3    H2  838   5.908   5.405   3.427
  278TIP3   OH2  839   4.328   2.650   4.524
  278TIP3    H1  840   4.357   2.589   4.592
  278TIP3    H2  841   4.404   2.659   4.467
  279TIP3   OH2  842   6.169   3.635   1.273
  279TIP3    H1  843   6.081   3.598   1.284
  279TIP3    H2  844   6.198   3.605   1.187
  280TIP3   OH2  845   0.731   1.808   0.724
  280TIP3    H1  846   0.815   1.854   0.718
  280TIP3    H2  847   0.740   1.752   0.801
  281TIP3   OH2  848   3.110   4.235   0.663
  281TIP3    H1  849   3.135   4.321   0.697
  281TIP3    H2  850   3.137   4.237   0.571
  282TIP3   OH2  851   3.834   5.115   2.280
  282TIP3    H1  852   3.858   5.085   2.193
  282TIP3    H2  853   3.913   5.156   2.315
  283TIP3   OH2  854   3.140   5.239   0.857
  283TIP3    H1  855   3.110   5.326   0.881
  283TIP3    H2  856   3.232   5.251   0.832
  284TIP3   OH2  857   1.366   1.638   2.651
  284TIP3    H1  858   1.357   1.714   2.710
  284TIP3    H2  859   1.390   1.566   2.709
  285TIP3   OH2  860   0.201   1.550   3.028
  285TIP3    H1  861   0.277   1.600   3.058
  285TIP3    H2  862   0.234   1.461   3.016
  286TIP3   OH2  863   3.886   1.981   3.133
  286TIP3    H1  864   3.887   1.885   3.126
  286TIP3    H2  865   3.824   2.009   3.066
  287TIP3   OH2  866   6.097   5.395   2.201
  287TIP3    H1  867   6.043   5.316   2.203
  287TIP3    H2  868   6.044   5.462   2.244
  288TIP3   OH2  869   5.076   3.454   3.370
  288TIP3    H1  870   5.032   3.426   3.450
  288TIP3    H2  871   5.162   3.484   3.400
  289TIP3   OH2  872   1.254   5.734   3.852
  289TIP3    H1  873   1.254   5.824   3.884
  289TIP3    H2  874   1.167   5.701   3.877
  290TIP3   OH2  875   6.126   3.395   3.552
  290TIP3    H1  876   6.186   3.402   3.626
  290TIP3    H2  877   6.099   3.303   3.552
  291TIP3   OH2  878   0.736   5.004   1.754
  291TIP3    H1  879   0.729   5.033   1.845
  291TIP3    H2  880   0.799   4.932   1.756
  292TIP3   OH2  881   1.059   1.491   2.380
  292TIP3    H1  882   0.973   1.522   2.352
  292TIP3    H2  883   1.062   1.509   2.474
  293TIP3   OH2  884   3.786   0.010   0.249
  293TIP3    H1  885   3.821  -0.058   0.307
  293TIP3    H2  886   3.864   0.054   0.215
  294TIP3   OH2  887   6.059   2.117   2.681
  294TIP3    H1  888   5.982   2.065   2.659
  294TIP3    H2  889   6.069   2.178   2.608
  295TIP3   OH2  890   1.829   2.641   2.558
  295TIP3    H1  891   1.779   2.719   2.536
  295TIP3    H2  892   1.778   2.569   2.520
  296TIP3   OH2  893   4.434   1.877   3.627
  296TIP3    H1  894   4.378   1.952   3.605
  296TIP3    H2  895   4.498   1.874   3.556
  297TIP3   OH2  896   4.098   5.559   3.104
  297TIP3    H1  897   4.110   5.554   3.199
  297TIP3    H2  898   4.136   5.477   3.071
  298TIP3   OH2  899   2.906   4.262   3.088
  298TIP3    H1  900   2.908   4.349   3.128
  298TIP3    H2  901   2.822   4.225   3.116
  299TIP3   OH2  902   2.434   2.615   2.168
  299TIP3    H1  903   2.402   2.530   2.197
  299TIP3    H2  904   2.443   2.607   2.073
  300TIP3   OH2  905   2.947   5.288   0.593
  300TIP3    H1  906   3.039   5.305   0.574
  300TIP3    H2  907   2.918   5.366   0.642
  301TIP3   OH2  908   3.377   1.391   2.472
  301TIP3    H1  909   3.408   1.359   2.387
  301TIP3    H2  910   3.291   1.352   2.483
  302TIP3   OH2  911   5.056   0.240   1.872
  302TIP3    H1  912   5.134   0.189   1.894
  302TIP3    H2  913   5.037   0.290   1.951
  303TIP3   OH2  914   5.891   0.332   0.195
  303TIP3    H1  915   5.818   0.373   0.150
  303TIP3    H2  916   5.933   0.277   0.129
  304TIP3   OH2  917   0.065   3.514   2.066
  304TIP3    H1  918   0.137   3.571   2.093
  304TIP3    H2  919   0.050   3.536   1.974
  305TIP3   OH2  920   5.197   4.790   2.422
  305TIP3    H1  921   5.246   4.707   2.417
  305TIP3    H2  922   5.111   4.769   2.386
  306TIP3   OH2  923   3.340   1.215   3.887
  306TIP3    H1  924   3.407   1.219   3.819
  306TIP3    H2  925   3.258   1.232   3.840
  307TIP3   OH2  926   4.180   4.166   2.097
  307TIP3    H1  927   4.173   4.261   2.093
  307TIP3    H2  928   4.148   4.143   2.184
  308TIP3   OH2  929   3.161   5.385   3.580
  308TIP3    H1  930   3.249   5.347   3.584
  308TIP3    H2  931   3.171   5.473   3.616
  309TIP3   OH2  932   0.214   0.167   1.673
  309TIP3    H1  933   0.278   0.103   1.641
  309TIP3    H2  934   0.264   0.248   1.681
  310TIP3   OH2  935   1.492   0.641   3.086
  310TIP3    H1  936   1.442   0.611   3.010
  310TIP3    H2  937   1.454   0.594   3.160
  311TIP3   OH2  938   4.756   4.896   4.121
  311TIP3    H1  939   4.706   4.960   4.172
  311TIP3    H2  940   4.694   4.863   4.056
  312TIP3   OH2  941   3.257   4.984   2.733
  312TIP3    H1  942   3.302   4.960   2.814
  312TIP3    H2  943   3.165   4.966   2.751
  313TIP3   OH2  944   4.615   3.140   2.450
  313TIP3    H1  945   4.667   3.067   2.484
  313TIP3    H2  946   4.528   3.127   2.489
  314TIP3   OH2  947   1.404   2.724   0.237
  314TIP3    H1  948   1.417   2.638   0.198
  314TIP3    H2  949   1.312   2.744   0.222
  315TIP3   OH2  950   2.776   5.548   4.582
  315TIP3    H1  951   2.765   5.468   4.633
  315TIP3    H2  952   2.869   5.569   4.592
  316TIP3   OH2  953   1.696   0.298   4.025
  316TIP3    H1  954   1.731   0.302   3.935
  316TIP3    H2  955   1.715   0.208   4.053
  317TIP3   OH2  956   5.852   3.154   3.295
  317TIP3    H1  957   5.884   3.073   3.258
  317TIP3    H2  958   5.768   3.132   3.335
  318TIP3   OH2  959   5.240   4.709   3.987
  318TIP3    H1  960   5.300   4.657   4.042
  318TIP3    H2  961   5.166   4.650   3.971
  319TIP3   OH2  962   2.671   5.376   4.247
  319TIP3    H1  963   2.612   5.314   4.205
  319TIP3    H2  964   2.643   5.380   4.338
  320TIP3   OH2  965   5.296   3.440   3.523
  320TIP3    H1  966   5.270   3.381   3.594
  320TIP3    H2  967   5.391   3.445   3.529
  321TIP3   OH2  968   5.109   4.813   5.135
  321TIP3    H1  969   5.107   4.721   5.161
  321TIP3    H2  970   5.138   4.860   5.213
  322TIP3   OH2  971   3.121   0.217   5.052
  322TIP3    H1  972   3.061   0.235   4.980
  322TIP3    H2  973   3.162   0.133   5.029
  323TIP3   OH2  974   3.320   3.524   0.554
  323TIP3    H1  975   3.306   3.534   0.460
  323TIP3    H2  976   3.240   3.482   0.586
  324TIP3   OH2  977   3.289   2.196   4.200
  324TIP3    H1  978   3.315   2.287   4.188
  324TIP3    H2  979   3.327   2.171   4.285
  325TIP3   OH2  980   5.780   5.728   1.609
  325TIP3    H1  981   5.716   5.774   1.663
  325TIP3    H2  982   5.752   5.743   1.519
  326TIP3   OH2  983   5.801   0.559   1.409
  326TIP3    H1  984   5.739   0.632   1.415
  326TIP3    H2  985   5.784   0.507   1.488
  327TIP3   OH2  986   5.733   3.244   1.950
  327TIP3    H1  987   5.758   3.241   2.042
  327TIP3    H2  988   5.808   3.206   1.903
  328TIP3   OH2  989   4.555   4.167   1.240
  328TIP3    H1  990   4.589   4.079   1.255
  328TIP3    H2  991   4.462   4.161   1.263
  329TIP3   OH2  992   5.150   1.875   4.310
  329TIP3    H1  993   5.140   1.781   4.318
  329TIP3    H2  994   5.112   1.896   4.224
  330TIP3   OH2  995   0.414   3.757   0.011
  330TIP3    H1  996   0.361   3.716  -0.057
  330TIP3    H2  997   0.350   3.795   0.072
  331TIP3   OH2  998   3.807   2.094   2.729
  331TIP3    H1  999   3.889   2.047   2.714
  331TIP3    H2 1000   3.766   2.049   2.803
  332TIP3   OH2 1001   0.332   2.641   1.790
  332TIP3    H1 1002   0.313   2.711   1.727
  332TIP3    H2 1003   0.307   2.679   1.874
  333TIP3   OH2 1004   2.175   2.692   3.915
  333TIP3    H1 1005   2.270   2.702   3.916
  333TIP3    H2 1006   2.149   2.704   4.007
  334TIP3   OH2 1007   4.659   2.014   0.668
  334TIP3    H1 1008   4.725   2.074   0.705
  334TIP3    H2 1009   4.702   1.929   0.669
  335TIP3   OH2 1010   2.219   5.644   0.144
  335TIP3    H1 1011   2.182   5.565   0.183
  335TIP3    H2 1012   2.195   5.640   0.052
  336TIP3   OH2 1013   1.270   4.452   1.216
  336TIP3    H1 1014   1.297   4.439   1.307
  336TIP3    H2 1015   1.222   4.372   1.194
  337TIP3   OH2 1016   6.089   1.803   0.469
  337TIP3    H1 1017   6.023   1.813   0.401
  337TIP3    H2 1018   6.046   1.752   0.537
  338TIP3   OH2 1019   3.988   2.422   4.213
  338TIP3    H1 1020   4.061   2.482   4.229
  338TIP3    H2 1021   4.028   2.343   4.178
  339TIP3   OH2 1022   2.208   3.052   4.006
  339TIP3    H1 1023   2.187   3.009   3.923
  339TIP3    H2 1024   2.268   3.123   3.983
  340TIP3   OH2 1025   2.300   4.297   4.173
  340TIP3    H1 1026   2.225   4.238   4.182
  340TIP3    H2 1027   2.345   4.267   4.093
  341TIP3   OH2 1028   0.389   5.475   4.946
  341TIP3    H1 1029   0.431   5.481   4.860
  341TIP3    H2 1030   0.295   5.478   4.928
  342TIP3   OH2 1031   0.282   1.444   0.331
  342TIP3    H1 1032   0.272   1.408   0.243
  342TIP3    H2 1033   0.363   1.406   0.364
  343TIP3   OH2 1034   6.376   5.307   0.839
  343TIP3    H1 1035   6.294   5.350   0.818
  343TIP3    H2 1036   6.356   5.256   0.918
  344TIP3   OH2 1037   1.123   5.144   1.491
  344TIP3    H1 1038   1.104   5.227   1.449
  344TIP3    H2 1039   1.212   5.154   1.526
  345TIP3   OH2 1040   0.668   5.341   2.372
  345TIP3    H1 1041   0.616   5.281   2.319
  345TIP3    H2 1042   0.740   5.287   2.405
  346TIP3   OH2 1043   1.787   3.420   1.118
  346TIP3    H1 1044   1.761   3.337   1.158
  346TIP3    H2 1045   1.715   3.440   1.058
  347TIP3   OH2 1046   5.666   2.638   3.574
  347TIP3    H1 1047   5.608   2.667   3.503
  347TIP3    H2 1048   5.609   2.586   3.631
  348TIP3   OH2 1049   0.386   2.195   0.515
  348TIP3    H1 1050   0.452   2.125   0.511
  348TIP3    H2 1051   0.367   2.216   0.424
  349TIP3   OH2 1052   4.242   4.950   3.548
  349TIP3    H1 1053   4.233   5.043   3.526
  349TIP3    H2 1054   4.153   4.921   3.566
  350TIP3   OH2 1055   3.072   5.489   0.907
  350TIP3    H1 1056   3.066   5.549   0.981
  350TIP3    H2 1057   2.986   5.493   0.865
  351TIP3   OH2 1058   1.571   0.181   3.280
  351TIP3    H1 1059   1.496   0.195   3.338
  351TIP3    H2 1060   1.591   0.088   3.290
  352TIP3   OH2 1061   2.837   0.647   4.995
  352TIP3    H1 1062   2.791   0.723   5.031
  352TIP3    H2 1063   2.924   0.651   5.036
  353TIP3   OH2 1064   3.333   4.084   4.266
  353TIP3    H1 1065   3.329   3.990   4.248
  353TIP3    H2 1066   3.287   4.095   4.349
  354TIP3   OH2 1067   5.651   3.145   0.729
  354TIP3    H1 1068   5.692   3.216   0.778
  354TIP3    H2 1069   5.568   3.130   0.774
  355TIP3   OH2 1070   1.845   5.172   0.812
  355TIP3    H1 1071   1.918   5.137   0.761
  355TIP3    H2 1072   1.870   5.155   0.903
  356TIP3   OH2 1073   3.928   3.513   4.274
  356TIP3    H1 1074   3.889   3.473   4.195
  356TIP3    H2 1075   3.920   3.445   4.341
  357TIP3   OH2 1076   1.624   0.818   1.109
  357TIP3    H1 1077   1.541   0.772   1.092
  357TIP3    H2 1078   1.691   0.763   1.068
  358TIP3   OH2 1079   3.650   0.730   4.133
  358TIP3    H1 1080   3.725   0.677   4.159
  358TIP3    H2 1081   3.574   0.684   4.169
  359TIP3   OH2 1082   3.895   5.139   0.773
  359TIP3    H1 1083   3.895   5.221   0.724
  359TIP3    H2 1084   3.910   5.071   0.706
  360TIP3   OH2 1085   5.674   1.113   1.993
  360TIP3    H1 1086   5.630   1.189   1.955
  360TIP3    H2 1087   5.610   1.075   2.052
  361TIP3   OH2 1088   5.471   3.156   3.637
  361TIP3    H1 1089   5.387   3.111   3.643
  361TIP3    H2 1090   5.486   3.190   3.725
  362TIP3   OH2 1091   5.439   2.221   3.337
  362TIP3    H1 1092   5.480   2.214   3.424
  362TIP3    H2 1093   5.514   2.224   3.276
  363TIP3   OH2 1094   2.781   3.916   3.500
  363TIP3    H1 1095   2.780   4.011   3.515
  363TIP3    H2 1096   2.866   3.900   3.460
  364TIP3   OH2 1097   1.261   1.245   1.673
  364TIP3    H1 1098   1.183   1.299   1.682
  364TIP3    H2 1099   1.329   1.304   1.640
  365TIP3   OH2 1100   0.788   2.958   2.475
  365TIP3    H1 1101   0.873   2.988   2.508
  365TIP3    H2 1102   0.799   2.956   2.380
  366TIP3   OH2 1103   3.193   2.117   0.525
  366TIP3    H1 1104   3.130   2.155   0.464
  366TIP3    H2 1105   3.262   2.082   0.469
  367TIP3   OH2 1106   2.506   3.892   4.844
  367TIP3    H1 1107   2.487   3.982   4.819
  367TIP3    H2 1108   2.450   3.838   4.788
  368TIP3   OH2 1109   0.406   4.323   2.155
  368TIP3    H1 1110   0.396   4.415   2.179
  368TIP3    H2 1111   0.424   4.324   2.061
  369TIP3   OH2 1112   0.588   0.497   2.873
  369TIP3    H1 1113   0.552   0.454   2.950
  369TIP3    H2 1114   0.683   0.490   2.883
  370TIP3   OH2 1115  -0.022   3.600   2.655
  370TIP3    H1 1116   0.056   3.552   2.626
  370TIP3    H2 1117  -0.036   3.666   2.588
  371TIP3   OH2 1118   0.760   1.160   3.056
  371TIP3    H1 1119   0.793   1.114   2.979
  371TIP3    H2 1120   0.739   1.248   3.025
  372TIP3   OH2 1121   5.644   4.377   0.837
  372TIP3    H1 1122   5.719   4.413   0.886
  372TIP3    H2 1123   5.594   4.454   0.811
  373TIP3   OH2 1124   4.557   3.313   4.903
  373TIP3    H1 1125   4.579   3.376   4.971
  373TIP3    H2 1126   4.633   3.315   4.844
  374TIP3   OH2 1127   4.783   4.924   4.993
  374TIP3    H1 1128   4.813   4.834   4.992
  374TIP3    H2 1129   4.860   4.975   5.018
  375TIP3   OH2 1130   3.361   5.746   0.454
  375TIP3    H1 1131   3.340   5.753   0.361
  375TIP3    H2 1132   3.277   5.724   0.495
  376TIP3   OH2 1133   2.763   5.879   1.582
  376TIP3    H1 1134   2.732   5.808   1.638
  376TIP3    H2 1135   2.765   5.841   1.494
  377TIP3   OH2 1136   1.567   0.318   0.939
  377TIP3    H1 1137   1.575   0.223   0.927
  377TIP3    H2 1138   1.560   0.330   1.033
  378TIP3   OH2 1139   4.507   3.927   0.286
  378TIP3    H1 1140   4.478   4.018   0.290
  378TIP3    H2 1141   4.463   3.884   0.360
  379TIP3   OH2 1142   5.196   5.664   2.090
  379TIP3    H1 1143   5.119   5.638   2.038
  379TIP3    H2 1144   5.262   5.597   2.071
  380TIP3   OH2 1145   1.671   1.200   0.631
  380TIP3    H1 1146   1.733   1.147   0.680
  380TIP3    H2 1147   1.587   1.185   0.673
  381TIP3   OH2 1148   3.832   5.898   0.162
  381TIP3    H1 1149   3.831   5.823   0.102
  381TIP3    H2 1150   3.772   5.874   0.232
  382TIP3   OH2 1151   2.330   0.457   2.429
  382TIP3    H1 1152   2.368   0.385   2.479
  382TIP3    H2 1153   2.361   0.442   2.339
  383TIP3   OH2 1154   5.632   3.071   2.186
  383TIP3    H1 1155   5.629   2.991   2.239
  383TIP3    H2 1156   5.597   3.044   2.101
  384TIP3   OH2 1157   3.498   5.587   4.844
  384TIP3    H1 1158   3.430   5.597   4.910
  384TIP3    H2 1159   3.515   5.493   4.840
  385TIP3   OH2 1160   5.229   4.115   0.954
  385TIP3    H1 1161   5.200   4.145   0.868
  385TIP3    H2 1162   5.325   4.117   0.948
  386TIP3   OH2 1163   3.284   4.140   2.293
  386TIP3    H1 1164   3.371   4.102   2.300
  386TIP3    H2 1165   3.226   4.065   2.280
  387TIP3   OH2 1166   2.645   4.084   4.230
  387TIP3    H1 1167   2.680   4.034   4.303
  387TIP3    H2 1168   2.565   4.037   4.205
  388TIP3   OH2 1169   2.056   0.957   0.646
  388TIP3    H1 1170   2.043   0.890   0.713
  388TIP3    H2 1171   2.003   0.927   0.572
  389TIP3   OH2 1172   1.090   0.191   3.239
  389TIP3    H1 1173   1.007   0.210   3.197
  389TIP3    H2 1174   1.156   0.216   3.175
  390TIP3   OH2 1175   5.597   1.166   3.004
  390TIP3    H1 1176   5.543   1.244   2.987
  390TIP3    H2 1177   5.544   1.113   3.064
  391TIP3   OH2 1178   1.336   1.422   0.432
  391TIP3    H1 1179   1.350   1.513   0.455
  391TIP3    H2 1180   1.298   1.425   0.344
  392TIP3   OH2 1181   3.409   4.830   4.987
  392TIP3    H1 1182   3.368   4.914   4.966
  392TIP3    H2 1183   3.360   4.766   4.935
  393TIP3   OH2 1184   2.296   4.814   2.749
  393TIP3    H1 1185   2.228   4.845   2.690
  393TIP3    H2 1186   2.358   4.767   2.692
  394TIP3   OH2 1187   1.016   3.931   0.578
  394TIP3    H1 1188   1.067   4.011   0.588
  394TIP3    H2 1189   1.024   3.909   0.485
  395TIP3   OH2 1190   6.261   0.817   4.986
  395TIP3    H1 1191   6.312   0.896   4.970
  395TIP3    H2 1192   6.182   0.827   4.933
  396TIP3   OH2 1193   5.468   1.523   1.884
  396TIP3    H1 1194   5.459   1.594   1.946
  396TIP3    H2 1195   5.472   1.566   1.798
  397TIP3   OH2 1196   2.814   0.854   3.501
  397TIP3    H1 1197   2.860   0.868   3.584
  397TIP3    H2 1198   2.723   0.839   3.526
  398TIP3   OH2 1199   5.590   4.436   3.219
  398TIP3    H1 1200   5.649   4.403   3.287
  398TIP3    H2 1201   5.630   4.409   3.137
  399TIP3   OH2 1202   3.902   1.702   3.072
  399TIP3    H1 1203   3.945   1.713   2.987
  399TIP3    H2 1204   3.818   1.662   3.052
  400TIP3   OH2 1205   0.609   5.559   0.352
  400TIP3    H1 1206   0.696   5.524   0.331
  400TIP3    H2 1207   0.574   5.588   0.268
  401TIP3   OH2 1208   2.688   5.957   2.690
  401TIP3    H1 1209   2.675   5.964   2.785
  401TIP3    H2 1210   2.781   5.975   2.677
  402TIP3   OH2 1211   4.988   0.696   1.416
  402TIP3    H1 1212   4.919   0.760   1.431
  402TIP3    H2 1213   4.958   0.644   1.341
  403TIP3   OH2 1214   2.018   2.759   3.185
  403TIP3    H1 1215   2.074   2.706   3.128
  403TIP3    H2 1216   2.040   2.730   3.274
  404TIP3   OH2 1217   4.775   5.979   2.752
  404TIP3    H1 1218   4.824   6.046   2.800
  404TIP3    H2 1219   4.703   5.956   2.810
  405TIP3   OH2 1220   2.000   4.558   2.214
  405TIP3    H1 1221   2.053   4.607   2.151
  405TIP3    H2 1222   1.965   4.484   2.165
  406TIP3   OH2 1223   0.332   0.681   0.402
  406TIP3    H1 1224   0.302   0.753   0.456
  406TIP3    H2 1225   0.259   0.619   0.401
  407TIP3   OH2 1226   3.278   5.082   4.954
  407TIP3    H1 1227   3.245   5.081   5.044
  407TIP3    H2 1228   3.294   5.174   4.936
  408TIP3   OH2 1229   1.894   0.521   3.434
  408TIP3    H1 1230   1.971   0.512   3.378
  408TIP3    H2 1231   1.869   0.431   3.456
  409TIP3   OH2 1232   3.877   4.637   0.411
  409TIP3    H1 1233   3.930   4.666   0.485
  409TIP3    H2 1234   3.794   4.610   0.450
  410TIP3   OH2 1235   0.887   5.729   4.688
  410TIP3    H1 1236   0.876   5.765   4.776
  410TIP3    H2 1237   0.920   5.802   4.636
  411TIP3   OH2 1238   4.328   1.066   4.936
  411TIP3    H1 1239   4.341   0.999   4.870
  411TIP3    H2 1240   4.252   1.116   4.906
  412TIP3   OH2 1241   0.292   0.558   3.571
  412TIP3    H1 1242   0.267   0.529   3.484
  412TIP3    H2 1243   0.265   0.650   3.574
  413TIP3   OH2 1244   0.994   1.856   0.078
  413TIP3    H1 1245   1.041   1.936   0.102
  413TIP3    H2 1246   0.951   1.877  -0.005
  414TIP3   OH2 1247   1.951   1.115   0.354
  414TIP3    H1 1248   1.930   1.023   0.342
  414TIP3    H2 1249   1.867   1.156   0.374
  415TIP3   OH2 1250   1.670   3.685   3.248
  415TIP3    H1 1251   1.629   3.600   3.229
  415TIP3    H2 1252   1.723   3.669   3.326
  416TIP3   OH2 1253   5.497   1.811   4.149
  416TIP3    H1 1254   5.448   1.857   4.081
  416TIP3    H2 1255   5.589   1.834   4.131
  417TIP3   OH2 1256   6.001   4.099   3.902
  417TIP3    H1 1257   5.941   4.025   3.906
  417TIP3    H2 1258   6.011   4.126   3.993
  418TIP3   OH2 1259   3.590   0.052   0.062
  418TIP3    H1 1260   3.537   0.115   0.110
  418TIP3    H2 1261   3.669   0.041   0.115
  419TIP3   OH2 1262   0.422   5.222   4.277
  419TIP3    H1 1263   0.363   5.216   4.353
  419TIP3    H2 1264   0.390   5.154   4.217
  420TIP3   OH2 1265   3.228   3.841   2.068
  420TIP3    H1 1266   3.316   3.875   2.083
  420TIP3    H2 1267   3.193   3.895   1.997
  421TIP3   OH2 1268   5.500   3.119   1.845
  421TIP3    H1 1269   5.560   3.061   1.798
  421TIP3    H2 1270   5.556   3.188   1.880
  422TIP3   OH2 1271   0.673   4.773   3.943
  422TIP3    H1 1272   0.684   4.826   3.864
  422TIP3    H2 1273   0.759   4.774   3.984
  423TIP3   OH2 1274   5.991   3.020   0.213
  423TIP3    H1 1275   6.006   3.100   0.264
  423TIP3    H2 1276   5.989   3.050   0.122
  424TIP3   OH2 1277   4.154   3.380   1.969
  424TIP3    H1 1278   4.200   3.456   1.933
  424TIP3    H2 1279   4.162   3.391   2.064
  425TIP3   OH2 1280   2.815   3.162   2.220
  425TIP3    H1 1281   2.829   3.067   2.222
  425TIP3    H2 1282   2.721   3.171   2.202
  426TIP3   OH2 1283   2.059   1.954   1.287
  426TIP3    H1 1284   1.969   1.939   1.257
  426TIP3    H2 1285   2.111   1.956   1.207
  427TIP3   OH2 1286   6.109   4.586   1.708
  427TIP3    H1 1287   6.161   4.663   1.685
  427TIP3    H2 1288   6.033   4.620   1.755
  428TIP3   OH2 1289   2.835   5.664   2.854
  428TIP3    H1 1290   2.916   5.639   2.897
  428TIP3    H2 1291   2.846   5.757   2.835
  429TIP3   OH2 1292   5.646   3.159   2.598
  429TIP3    H1 1293   5.736   3.126   2.594
  429TIP3    H2 1294   5.642   3.211   2.678
  430TIP3   OH2 1295   5.583   4.148   2.745
  430TIP3    H1 1296   5.656   4.209   2.733
  430TIP3    H2 1297   5.597   4.111   2.833
  431TIP3   OH2 1298   5.014   2.758   3.282
  431TIP3    H1 1299   5.007   2.702   3.360
  431TIP3    H2 1300   4.944   2.822   3.292
  432TIP3   OH2 1301   5.033   3.666   2.851
  432TIP3    H1 1302   5.051   3.572   2.842
  432TIP3    H2 1303   4.971   3.671   2.924
  433TIP3   OH2 1304   0.658   3.656   1.609
  433TIP3    H1 1305   0.736   3.605   1.586
  433TIP3    H2 1306   0.692   3.733   1.654
  434TIP3   OH2 1307   1.780   3.410   4.438
  434TIP3    H1 1308   1.866   3.446   4.413
  434TIP3    H2 1309   1.801   3.340   4.500
  435TIP3   OH2 1310   5.929   2.386   4.588
  435TIP3    H1 1311   5.933   2.296   4.556
  435TIP3    H2 1312   5.964   2.439   4.517
  436TIP3   OH2 1313   1.734   1.086   1.098
  436TIP3    H1 1314   1.775   1.121   1.177
  436TIP3    H2 1315   1.714   0.995   1.120
  437TIP3   OH2 1316   4.654   0.095   2.455
  437TIP3    H1 1317   4.583   0.075   2.516
  437TIP3    H2 1318   4.734   0.078   2.506
  438TIP3   OH2 1319   5.460   3.718   3.582
  438TIP3    H1 1320   5.510   3.650   3.628
  438TIP3    H2 1321   5.502   3.723   3.496
  439TIP3   OH2 1322   1.116   4.188   4.528
  439TIP3    H1 1323   1.039   4.137   4.557
  439TIP3    H2 1324   1.110   4.270   4.577
  440TIP3   OH2 1325   4.966   3.709   3.283
  440TIP3    H1 1326   5.010   3.782   3.328
  440TIP3    H2 1327   5.017   3.632   3.308
  441TIP3   OH2 1328   4.018   1.047   3.658
  441TIP3    H1 1329   4.098   1.056   3.709
  441TIP3    H2 1330   4.048   1.049   3.567
  442TIP3   OH2 1331   4.466   3.071   4.321
  442TIP3    H1 1332   4.413   3.051   4.398
  442TIP3    H2 1333   4.507   2.988   4.298
  443TIP3   OH2 1334   3.950   2.432   3.045
  443TIP3    H1 1335   3.859   2.454   3.029
  443TIP3    H2 1336   3.984   2.507   3.094
  444TIP3   OH2 1337   4.038   1.423   2.496
  444TIP3    H1 1338   3.944   1.435   2.508
  444TIP3    H2 1339   4.056   1.338   2.537
  445TIP3   OH2 1340   0.175   2.223   0.682
  445TIP3    H1 1341   0.253   2.207   0.629
  445TIP3    H2 1342   0.132   2.138   0.686
  446TIP3   OH2 1343   6.166   1.288   0.755
  446TIP3    H1 1344   6.087   1.235   0.771
  446TIP3    H2 1345   6.135   1.359   0.698
  447TIP3   OH2 1346   5.219   5.404   2.578
  447TIP3    H1 1347   5.279   5.470   2.611
  447TIP3    H2 1348   5.139   5.452   2.558
  448TIP3   OH2 1349   3.464   1.819   4.259
  448TIP3    H1 1350   3.433   1.729   4.269
  448TIP3    H2 1351   3.547   1.821   4.307
  449TIP3   OH2 1352   0.706   3.907   1.715
  449TIP3    H1 1353   0.614   3.933   1.714
  449TIP3    H2 1354   0.714   3.848   1.790
  450TIP3   OH2 1355   0.432   2.573   1.219
  450TIP3    H1 1356   0.430   2.568   1.315
  450TIP3    H2 1357   0.458   2.664   1.201
  451TIP3   OH2 1358   3.078   2.793   1.452
  451TIP3    H1 1359   3.147   2.859   1.442
  451TIP3    H2 1360   2.998   2.843   1.468
  452TIP3   OH2 1361   1.392   3.615   1.818
  452TIP3    H1 1362   1.318   3.645   1.765
  452TIP3    H2 1363   1.439   3.695   1.841
  453TIP3   OH2 1364   4.848   2.009   1.239
  453TIP3    H1 1365   4.942   2.025   1.249
  453TIP3    H2 1366   4.807   2.070   1.301
  454TIP3   OH2 1367   2.763   3.876   4.384
  454TIP3    H1 1368   2.852   3.898   4.359
  454TIP3    H2 1369   2.772   3.819   4.460
  455TIP3   OH2 1370   2.676   3.434   3.960
  455TIP3    H1 1371   2.676   3.418   4.055
  455TIP3    H2 1372   2.714   3.521   3.951
  456TIP3   OH2 1373   2.926   5.291   4.360
  456TIP3    H1 1374   2.904   5.277   4.452
  456TIP3    H2 1375   2.843   5.310   4.318
  457TIP3   OH2 1376   3.228   1.619   5.088
  457TIP3    H1 1377   3.270   1.536   5.067
  457TIP3    H2 1378   3.270   1.647   5.169
  458TIP3   OH2 1379   5.099   4.006   2.429
  458TIP3    H1 1380   5.162   3.954   2.380
  458TIP3    H2 1381   5.121   4.097   2.408
  459TIP3   OH2 1382   2.697   5.224   4.519
  459TIP3    H1 1383   2.704   5.182   4.605
  459TIP3    H2 1384   2.663   5.155   4.462
  460TIP3   OH2 1385   1.272   1.892   2.245
  460TIP3    H1 1386   1.266   1.806   2.287
  460TIP3    H2 1387   1.231   1.952   2.306
  461TIP3   OH2 1388   3.890   5.480   3.898
  461TIP3    H1 1389   3.798   5.484   3.925
  461TIP3    H2 1390   3.899   5.550   3.833
  462TIP3   OH2 1391   3.861   1.067   4.927
  462TIP3    H1 1392   3.948   1.076   4.887
  462TIP3    H2 1393   3.857   0.976   4.955
  463TIP3   OH2 1394   2.593   3.969   1.492
  463TIP3    H1 1395   2.564   4.030   1.560
  463TIP3    H2 1396   2.511   3.932   1.457
  464TIP3   OH2 1397   3.230   4.407   2.268
  464TIP3    H1 1398   3.223   4.444   2.356
  464TIP3    H2 1399   3.209   4.315   2.278
  465TIP3   OH2 1400   1.638   0.251   4.805
  465TIP3    H1 1401   1.574   0.217   4.867
  465TIP3    H2 1402   1.587   0.302   4.742
  466TIP3   OH2 1403   2.105   1.801   1.610
  466TIP3    H1 1404   2.145   1.888   1.605
  466TIP3    H2 1405   2.020   1.816   1.651
  467TIP3   OH2 1406   0.553   2.613   4.538
  467TIP3    H1 1407   0.547   2.602   4.633
  467TIP3    H2 1408   0.647   2.612   4.519
  468TIP3   OH2 1409   3.262   5.236   0.417
  468TIP3    H1 1410   3.240   5.328   0.436
  468TIP3    H2 1411   3.188   5.205   0.365
  469TIP3   OH2 1412   1.634   5.959   0.650
  469TIP3    H1 1413   1.674   5.872   0.648
  469TIP3    H2 1414   1.687   6.012   0.591
  470TIP3   OH2 1415   4.228   1.699   2.227
  470TIP3    H1 1416   4.199   1.698   2.318
  470TIP3    H2 1417   4.172   1.635   2.184
  471TIP3   OH2 1418   3.699   2.197   1.721
  471TIP3    H1 1419   3.790   2.177   1.744
  471TIP3    H2 1420   3.647   2.135   1.771
  472TIP3   OH2 1421   1.361   0.094   2.616
  472TIP3    H1 1422   1.327   0.181   2.593
  472TIP3    H2 1423   1.456   0.105   2.616
  473TIP3   OH2 1424   0.193   0.830   3.588
  473TIP3    H1 1425   0.172   0.838   3.681
  473TIP3    H2 1426   0.213   0.919   3.560
  474TIP3   OH2 1427   6.369   4.087   4.711
  474TIP3    H1 1428   6.317   4.030   4.768
  474TIP3    H2 1429   6.317   4.167   4.705
  475TIP3   OH2 1430   0.193   0.245   4.065
  475TIP3    H1 1431   0.136   0.170   4.087
  475TIP3    H2 1432   0.231   0.222   3.981
  476TIP3   OH2 1433   2.959   2.619   5.155
  476TIP3    H1 1434   3.042   2.579   5.182
  476TIP3    H2 1435   2.935   2.676   5.228
  477TIP3   OH2 1436   0.911   5.839   5.178
  477TIP3    H1 1437   0.888   5.866   5.089
  477TIP3    H2 1438   0.831   5.852   5.228
  478TIP3   OH2 1439   1.388   1.525   0.771
  478TIP3    H1 1440   1.443   1.480   0.834
  478TIP3    H2 1441   1.356   1.456   0.713
  479TIP3   OH2 1442   2.777   2.441   3.676
  479TIP3    H1 1443   2.755   2.382   3.749
  479TIP3    H2 1444   2.837   2.505   3.715
  480TIP3   OH2 1445   3.389   2.345   1.494
  480TIP3    H1 1446   3.410   2.411   1.560
  480TIP3    H2 1447   3.309   2.304   1.525
  481TIP3   OH2 1448   2.516   3.645   3.300
  481TIP3    H1 1449   2.434   3.621   3.257
  481TIP3    H2 1450   2.515   3.740   3.303
  482TIP3   OH2 1451   5.176   5.386   0.204
  482TIP3    H1 1452   5.200   5.321   0.270
  482TIP3    H2 1453   5.188   5.470   0.248
  483TIP3   OH2 1454   3.505   0.266   2.654
  483TIP3    H1 1455   3.561   0.331   2.610
  483TIP3    H2 1456   3.435   0.319   2.693
  484TIP3   OH2 1457   5.721   3.511   4.012
  484TIP3    H1 1458   5.799   3.543   4.057
  484TIP3    H2 1459   5.694   3.584   3.956
  485TIP3   OH2 1460   0.343   5.336   1.213
  485TIP3    H1 1461   0.343   5.311   1.305
  485TIP3    H2 1462   0.267   5.291   1.176
  486TIP3   OH2 1463   4.626   4.779   0.708
  486TIP3    H1 1464   4.644   4.862   0.664
  486TIP3    H2 1465   4.639   4.798   0.801
  487TIP3   OH2 1466   4.254   0.938   3.204
  487TIP3    H1 1467   4.280   0.850   3.178
  487TIP3    H2 1468   4.168   0.926   3.243
  488TIP3   OH2 1469   5.856   0.498   3.857
  488TIP3    H1 1470   5.843   0.550   3.936
  488TIP3    H2 1471   5.885   0.561   3.791
  489TIP3   OH2 1472   1.523   2.204   2.320
  489TIP3    H1 1473   1.503   2.143   2.249
  489TIP3    H2 1474   1.493   2.289   2.289
  490TIP3   OH2 1475   0.493   3.502   0.446
  490TIP3    H1 1476   0.454   3.524   0.362
  490TIP3    H2 1477   0.450   3.421   0.473
  491TIP3   OH2 1478   0.922   0.664   0.812
  491TIP3    H1 1479   0.843   0.713   0.790
  491TIP3    H2 1480   0.908   0.632   0.901
  492TIP3   OH2 1481   1.733   1.086   1.658
  492TIP3    H1 1482   1.823   1.059   1.644
  492TIP3    H2 1483   1.684   1.004   1.665
  493TIP3   OH2 1484   4.874   5.996   3.729
  493TIP3    H1 1485   4.941   5.961   3.788
  493TIP3    H2 1486   4.901   5.966   3.642
  494TIP3   OH2 1487   5.263   2.087   4.148
  494TIP3    H1 1488   5.245   2.024   4.217
  494TIP3    H2 1489   5.304   2.035   4.079
  495TIP3   OH2 1490   2.258   5.077   4.021
  495TIP3    H1 1491   2.287   5.009   3.960
  495TIP3    H2 1492   2.246   5.155   3.967
  496TIP3   OH2 1493   3.538   3.631   0.322
  496TIP3    H1 1494   3.543   3.678   0.405
  496TIP3    H2 1495   3.468   3.674   0.274
  497TIP3   OH2 1496   0.495   5.457   0.823
  497TIP3    H1 1497   0.493   5.361   0.824
  497TIP3    H2 1498   0.404   5.483   0.834
  498TIP3   OH2 1499   1.434   4.249   3.908
  498TIP3    H1 1500   1.515   4.199   3.901
  498TIP3    H2 1501   1.420   4.259   4.003
  499TIP3   OH2 1502  -0.030   0.676   1.099
  499TIP3    H1 1503   0.002   0.752   1.050
  499TIP3    H2 1504   0.050   0.630   1.125
  500TIP3   OH2 1505   2.654   0.875   4.864
  500TIP3    H1 1506   2.572   0.828   4.851
  500TIP3    H2 1507   2.647   0.912   4.952
  501TIP3   OH2 1508   2.183   0.470   4.553
  501TIP3    H1 1509   2.209   0.508   4.636
  501TIP3    H2 1510   2.265   0.445   4.511
  502TIP3   OH2 1511   1.651   4.493   3.955
  502TIP3    H1 1512   1.734   4.466   3.994
  502TIP3    H2 1513   1.611   4.411   3.926
  503TIP3   OH2 1514   4.437   4.444   4.253
  503TIP3    H1 1515   4.486   4.363   4.240
  503TIP3    H2 1516   4.367   4.421   4.313
  504TIP3   OH2 1517   3.437   0.250   0.165
  504TIP3    H1 1518   3.488   0.293   0.097
  504TIP3    H2 1519   3.439   0.310   0.240
  505TIP3   OH2 1520   1.928   4.385   2.832
  505TIP3    H1 1521   1.850   4.364   2.781
  505TIP3    H2 1522   1.898   4.392   2.922
  506TIP3   OH2 1523   6.308   3.078   0.867
  506TIP3    H1 1524   6.289   3.069   0.961
  506TIP3    H2 1525   6.242   3.139   0.835
  507TIP3   OH2 1526   3.419   3.029   2.804
  507TIP3    H1 1527   3.398   3.078   2.724
  507TIP3    H2 1528   3.333   3.011   2.843
  508TIP3   OH2 1529   1.574   1.903   1.194
  508TIP3    H1 1530   1.596   1.916   1.286
  508TIP3    H2 1531   1.524   1.981   1.169
  509TIP3   OH2 1532   1.780   2.775   2.279
  509TIP3    H1 1533   1.751   2.700   2.225
  509TIP3    H2 1534   1.702   2.801   2.327
  510TIP3   OH2 1535   0.665   0.310   5.066
  510TIP3    H1 1536   0.686   0.363   5.143
  510TIP3    H2 1537   0.585   0.350   5.031
  511TIP3   OH2 1538   3.480   2.263   4.427
  511TIP3    H1 1539   3.566   2.254   4.384
  511TIP3    H2 1540   3.480   2.351   4.463
  512TIP3   OH2 1541   1.366   4.752   2.419
  512TIP3    H1 1542   1.423   4.747   2.496
  512TIP3    H2 1543   1.342   4.845   2.414
  513TIP3   OH2 1544   2.134   1.864   3.364
  513TIP3    H1 1545   2.105   1.948   3.402
  513TIP3    H2 1546   2.144   1.883   3.270
  514TIP3   OH2 1547   1.552   3.064   4.088
  514TIP3    H1 1548   1.612   3.101   4.023
  514TIP3    H2 1549   1.598   3.073   4.171
  515TIP3   OH2 1550   3.744   4.166   1.372
  515TIP3    H1 1551   3.701   4.110   1.437
  515TIP3    H2 1552   3.813   4.210   1.420
  516TIP3   OH2 1553   2.439   1.008   3.984
  516TIP3    H1 1554   2.365   0.982   4.038
  516TIP3    H2 1555   2.414   1.092   3.946
  517TIP3   OH2 1556   3.814   0.201   4.573
  517TIP3    H1 1557   3.817   0.241   4.659
  517TIP3    H2 1558   3.723   0.206   4.546
  518TIP3   OH2 1559   2.817   1.509   0.965
  518TIP3    H1 1560   2.804   1.492   0.871
  518TIP3    H2 1561   2.780   1.595   0.980
  519TIP3   OH2 1562   4.488   3.033   4.990
  519TIP3    H1 1563   4.502   3.117   4.945
  519TIP3    H2 1564   4.408   2.998   4.952
  520TIP3   OH2 1565   0.122   2.427   1.706
  520TIP3    H1 1566   0.179   2.412   1.781
  520TIP3    H2 1567   0.084   2.514   1.721
  521TIP3   OH2 1568   2.822   2.130   0.582
  521TIP3    H1 1569   2.741   2.092   0.546
  521TIP3    H2 1570   2.883   2.128   0.508
  522TIP3   OH2 1571   4.336   4.069   2.712
  522TIP3    H1 1572   4.304   4.154   2.741
  522TIP3    H2 1573   4.355   4.022   2.794
  523TIP3   OH2 1574   4.645   4.820   0.994
  523TIP3    H1 1575   4.591   4.842   1.070
  523TIP3    H2 1576   4.705   4.752   1.026
  524TIP3   OH2 1577   0.074   3.994   2.373
  524TIP3    H1 1578   0.105   4.046   2.299
  524TIP3    H2 1579   0.151   3.945   2.402
  525TIP3   OH2 1580   5.943   4.949   4.614
  525TIP3    H1 1581   5.985   4.952   4.528
  525TIP3    H2 1582   5.881   5.022   4.612
  526TIP3   OH2 1583   2.721   0.059   2.126
  526TIP3    H1 1584   2.648  -0.003   2.125
  526TIP3    H2 1585   2.776   0.032   2.052
  527TIP3   OH2 1586   4.971   0.080   4.361
  527TIP3    H1 1587   4.976   0.039   4.447
  527TIP3    H2 1588   5.041   0.038   4.311
  528TIP3   OH2 1589   0.133   4.135   1.164
  528TIP3    H1 1590   0.182   4.055   1.183
  528TIP3    H2 1591   0.152   4.153   1.072
  529TIP3   OH2 1592   5.920   1.221   2.810
  529TIP3    H1 1593   5.939   1.256   2.722
  529TIP3    H2 1594   5.891   1.132   2.795
  530TIP3   OH2 1595   0.412   5.123   1.994
  530TIP3    H1 1596   0.379   5.207   1.961
  530TIP3    H2 1597   0.384   5.060   1.927
  531TIP3   OH2 1598   5.046   2.398   1.946
  531TIP3    H1 1599   4.974   2.338   1.965
  531TIP3    H2 1600   5.004   2.480   1.921
  532TIP3   OH2 1601   3.932   3.225   0.491
  532TIP3    H1 1602   3.869   3.286   0.528
  532TIP3    H2 1603   3.946   3.160   0.560
  533TIP3   OH2 1604   6.356   3.493   1.478
  533TIP3    H1 1605   6.299   3.540   1.417
  533TIP3    H2 1606   6.345   3.540   1.561
  534TIP3   OH2 1607   3.213   0.079   1.185
  534TIP3    H1 1608   3.178   0.076   1.096
  534TIP3    H2 1609   3.235  -0.012   1.204
  535TIP3   OH2 1610   0.652   3.522   3.848
  535TIP3    H1 1611   0.617   3.544   3.761
  535TIP3    H2 1612   0.647   3.427   3.852
  536TIP3   OH2 1613   1.015   5.854   2.731
  536TIP3    H1 1614   1.003   5.935   2.681
  536TIP3    H2 1615   1.110   5.845   2.740
  537TIP3   OH2 1616   4.879   5.910   3.289
  537TIP3    H1 1617   4.799   5.894   3.339
  537TIP3    H2 1618   4.918   5.824   3.277
  538TIP3   OH2 1619   2.055   0.593   2.380
  538TIP3    H1 1620   2.141   0.552   2.367
  538TIP3    H2 1621   1.998   0.520   2.404
  539TIP3   OH2 1622   3.801   0.284   3.494
  539TIP3    H1 1623   3.845   0.221   3.550
  539TIP3    H2 1624   3.775   0.355   3.553
  540TIP3   OH2 1625   5.316   5.385   3.034
  540TIP3    H1 1626   5.408   5.380   3.006
  540TIP3    H2 1627   5.267   5.343   2.963
  541TIP3   OH2 1628   5.528   3.639   0.168
  541TIP3    H1 1629   5.543   3.548   0.141
  541TIP3    H2 1630   5.604   3.686   0.133
  542TIP3   OH2 1631   0.739   2.644   0.395
  542TIP3    H1 1632   0.723   2.564   0.345
  542TIP3    H2 1633   0.727   2.619   0.486
  543TIP3   OH2 1634   2.804   3.083   0.843
  543TIP3    H1 1635   2.891   3.048   0.862
  543TIP3    H2 1636   2.757   3.074   0.926
  544TIP3   OH2 1637   3.840   2.034   4.988
  544TIP3    H1 1638   3.753   2.026   4.949
  544TIP3    H2 1639   3.892   2.080   4.922
  545TIP3   OH2 1640   1.483   0.864   4.285
  545TIP3    H1 1641   1.400   0.892   4.323
  545TIP3    H2 1642   1.506   0.786   4.334
  546TIP3   OH2 1643   5.719   3.120   2.960
  546TIP3    H1 1644   5.682   3.207   2.946
  546TIP3    H2 1645   5.665   3.081   3.030
  547TIP3   OH2 1646   6.177   0.708   4.328
  547TIP3    H1 1647   6.125   0.645   4.378
  547TIP3    H2 1648   6.265   0.672   4.329
  548TIP3   OH2 1649   4.257   2.655   3.476
  548TIP3    H1 1650   4.275   2.585   3.413
  548TIP3    H2 1651   4.197   2.714   3.429
  549TIP3   OH2 1652   3.872   5.097   4.813
  549TIP3    H1 1653   3.926   5.102   4.734
  549TIP3    H2 1654   3.932   5.121   4.885
  550TIP3   OH2 1655   1.070   1.288   3.490
  550TIP3    H1 1656   1.160   1.322   3.499
  550TIP3    H2 1657   1.016   1.347   3.542
  551TIP3   OH2 1658   4.837   3.001   0.474
  551TIP3    H1 1659   4.833   3.049   0.391
  551TIP3    H2 1660   4.784   3.053   0.534
  552TIP3   OH2 1661   4.538   1.847   1.104
  552TIP3    H1 1662   4.603   1.811   1.044
  552TIP3    H2 1663   4.521   1.777   1.166
  553TIP3   OH2 1664   5.869   0.254   1.510
  553TIP3    H1 1665   5.824   0.330   1.547
  553TIP3    H2 1666   5.803   0.213   1.454
  554TIP3   OH2 1667   2.182   1.662   0.153
  554TIP3    H1 1668   2.254   1.725   0.145
  554TIP3    H2 1669   2.225   1.580   0.177
  555TIP3   OH2 1670   4.120   0.346   3.130
  555TIP3    H1 1671   4.161   0.261   3.149
  555TIP3    H2 1672   4.174   0.384   3.061
  556TIP3   OH2 1673   0.085   0.979   0.750
  556TIP3    H1 1674   0.090   1.004   0.658
  556TIP3    H2 1675  -0.006   0.950   0.762
  557TIP3   OH2 1676   0.151   3.698   2.281
  557TIP3    H1 1677   0.227   3.711   2.338
  557TIP3    H2 1678   0.076   3.716   2.337
  558TIP3   OH2 1679   1.926   1.136   1.300
  558TIP3    H1 1680   2.012   1.096   1.304
  558TIP3    H2 1681   1.938   1.222   1.341
  559TIP3   OH2 1682   4.490   0.704   0.774
  559TIP3    H1 1683   4.401   0.693   0.807
  559TIP3    H2 1684   4.545   0.653   0.833
  560TIP3   OH2 1685   4.711   2.385   3.529
  560TIP3    H1 1686   4.621   2.399   3.556
  560TIP3    H2 1687   4.758   2.364   3.610
  561TIP3   OH2 1688   2.091   5.956   0.434
  561TIP3    H1 1689   2.095   5.874   0.484
  561TIP3    H2 1690   2.111   5.930   0.344
  562TIP3   OH2 1691   0.186   5.443   3.546
  562TIP3    H1 1692   0.234   5.402   3.617
  562TIP3    H2 1693   0.174   5.533   3.575
  563TIP3   OH2 1694   4.626   5.706   3.762
  563TIP3    H1 1695   4.590   5.778   3.814
  563TIP3    H2 1696   4.717   5.698   3.790
  564TIP3   OH2 1697   6.147   5.402   2.566
  564TIP3    H1 1698   6.185   5.388   2.652
  564TIP3    H2 1699   6.213   5.452   2.518
  565TIP3   OH2 1700   3.984   4.587   4.704
  565TIP3    H1 1701   3.918   4.549   4.646
  565TIP3    H2 1702   3.968   4.682   4.700
  566TIP3   OH2 1703   5.014   4.820   4.360
  566TIP3    H1 1704   5.015   4.872   4.280
  566TIP3    H2 1705   4.931   4.844   4.403
  567TIP3   OH2 1706   6.304   0.210   2.864
  567TIP3    H1 1707   6.380   0.239   2.915
  567TIP3    H2 1708   6.229   0.252   2.906
  568TIP3   OH2 1709   5.183   5.268   1.401
  568TIP3    H1 1710   5.156   5.295   1.488
  568TIP3    H2 1711   5.110   5.290   1.344
  569TIP3   OH2 1712   1.415   5.606   0.809
  569TIP3    H1 1713   1.382   5.575   0.725
  569TIP3    H2 1714   1.508   5.583   0.808
  570TIP3   OH2 1715   2.975   2.853   0.893
  570TIP3    H1 1716   2.967   2.882   0.983
  570TIP3    H2 1717   3.066   2.825   0.884
  571TIP3   OH2 1718   4.987   4.564   4.463
  571TIP3    H1 1719   4.924   4.592   4.530
  571TIP3    H2 1720   4.999   4.642   4.408
  572TIP3   OH2 1721   3.964   5.870   0.659
  572TIP3    H1 1722   3.960   5.965   0.654
  572TIP3    H2 1723   3.874   5.841   0.642
  573TIP3   OH2 1724   3.839   4.685   1.976
  573TIP3    H1 1725   3.842   4.593   2.002
  573TIP3    H2 1726   3.799   4.684   1.889
  574TIP3   OH2 1727   4.438   1.857   1.479
  574TIP3    H1 1728   4.369   1.793   1.459
  574TIP3    H2 1729   4.399   1.942   1.460
  575TIP3   OH2 1730   0.714   3.319   0.272
  575TIP3    H1 1731   0.710   3.253   0.203
  575TIP3    H2 1732   0.703   3.270   0.354
  576TIP3   OH2 1733   3.441   3.617   1.402
  576TIP3    H1 1734   3.517   3.568   1.433
  576TIP3    H2 1735   3.478   3.685   1.345
  577TIP3   OH2 1736   1.403   5.840   0.286
  577TIP3    H1 1737   1.450   5.806   0.363
  577TIP3    H2 1738   1.471   5.885   0.235
  578TIP3   OH2 1739   6.321   3.801   0.826
  578TIP3    H1 1740   6.359   3.889   0.826
  578TIP3    H2 1741   6.238   3.812   0.871
  579TIP3   OH2 1742   5.254   2.158   2.735
  579TIP3    H1 1743   5.232   2.251   2.737
  579TIP3    H2 1744   5.314   2.149   2.662
  580TIP3   OH2 1745   5.034   4.272   4.219
  580TIP3    H1 1746   5.084   4.348   4.249
  580TIP3    H2 1747   5.093   4.198   4.230
  581TIP3   OH2 1748   0.851   5.734   4.169
  581TIP3    H1 1749   0.848   5.660   4.230
  581TIP3    H2 1750   0.913   5.795   4.208
  582TIP3   OH2 1751   3.842   5.878   3.745
  582TIP3    H1 1752   3.799   5.899   3.828
  582TIP3    H2 1753   3.902   5.952   3.730
  583TIP3   OH2 1754   2.165   2.553   1.757
  583TIP3    H1 1755   2.178   2.462   1.729
  583TIP3    H2 1756   2.073   2.571   1.735
  584TIP3   OH2 1757   0.220   3.277   4.159
  584TIP3    H1 1758   0.130   3.254   4.139
  584TIP3    H2 1759   0.273   3.207   4.121
  585TIP3   OH2 1760   2.542   0.656   3.288
  585TIP3    H1 1761   2.604   0.688   3.352
  585TIP3    H2 1762   2.457   0.660   3.332
  586TIP3   OH2 1763   4.147   2.035   2.315
  586TIP3    H1 1764   4.204   1.994   2.381
  586TIP3    H2 1765   4.062   1.992   2.327
  587TIP3   OH2 1766   0.173   5.018   0.855
  587TIP3    H1 1767   0.135   4.973   0.780
  587TIP3    H2 1768   0.128   4.981   0.931
  588TIP3   OH2 1769   3.615   1.891   0.314
  588TIP3    H1 1770   3.630   1.977   0.353
  588TIP3    H2 1771   3.604   1.833   0.389
  589TIP3   OH2 1772   5.527   2.590   1.002
  589TIP3    H1 1773   5.526   2.637   0.918
  589TIP3    H2 1774   5.513   2.499   0.978
  590TIP3   OH2 1775   5.245   4.165   4.485
  590TIP3    H1 1776   5.303   4.233   4.517
  590TIP3    H2 1777   5.173   4.163   4.548
  591TIP3   OH2 1778   6.225   1.139   1.987
  591TIP3    H1 1779   6.317   1.165   1.986
  591TIP3    H2 1780   6.185   1.188   1.915
  592TIP3   OH2 1781   1.336   3.331   1.563
  592TIP3    H1 1782   1.287   3.412   1.575
  592TIP3    H2 1783   1.351   3.298   1.652
  593TIP3   OH2 1784   0.240   1.230   4.450
  593TIP3    H1 1785   0.331   1.205   4.436
  593TIP3    H2 1786   0.196   1.207   4.368
  594TIP3   OH2 1787   1.539   1.990   4.933
  594TIP3    H1 1788   1.606   2.011   4.868
  594TIP3    H2 1789   1.461   2.037   4.903
  595TIP3   OH2 1790   3.677   1.127   2.528
  595TIP3    H1 1791   3.670   1.095   2.438
  595TIP3    H2 1792   3.693   1.221   2.520
  596TIP3   OH2 1793   3.422   5.776   4.121
  596TIP3    H1 1794   3.496   5.780   4.061
  596TIP3    H2 1795   3.360   5.841   4.088
  597TIP3   OH2 1796   2.030   4.660   3.786
  597TIP3    H1 1797   2.029   4.755   3.799
  597TIP3    H2 1798   1.940   4.638   3.764
  598TIP3   OH2 1799   2.523   1.204   3.447
  598TIP3    H1 1800   2.489   1.283   3.405
  598TIP3    H2 1801   2.446   1.149   3.462
  599TIP3   OH2 1802   4.608   4.617   3.820
  599TIP3    H1 1803   4.554   4.685   3.858
  599TIP3    H2 1804   4.555   4.537   3.826
  600TIP3   OH2 1805   4.920   2.122   1.568
  600TIP3    H1 1806   4.847   2.164   1.523
  600TIP3    H2 1807   4.998   2.169   1.538
  601TIP3   OH2 1808   1.095   5.589   0.493
  601TIP3    H1 1809   1.065   5.514   0.442
  601TIP3    H2 1810   1.132   5.551   0.572
  602TIP3   OH2 1811   6.075   5.312   1.914
  602TIP3    H1 1812   5.994   5.355   1.941
  602TIP3    H2 1813   6.051   5.264   1.835
  603TIP3   OH2 1814   2.045   5.958   2.315
  603TIP3    H1 1815   2.109   5.905   2.268
  603TIP3    H2 1816   2.002   5.896   2.375
  604TIP3   OH2 1817   1.023   2.086   1.320
  604TIP3    H1 1818   1.027   1.992   1.303
  604TIP3    H2 1819   0.931   2.103   1.340
  605TIP3   OH2 1820   6.021   0.875   2.187
  605TIP3    H1 1821   6.100   0.929   2.188
  605TIP3    H2 1822   5.966   0.912   2.256
  606TIP3   OH2 1823   5.779   0.402   2.777
  606TIP3    H1 1824   5.792   0.380   2.685
  606TIP3    H2 1825   5.866   0.395   2.817
  607TIP3   OH2 1826   4.605   3.453   1.946
  607TIP3    H1 1827   4.611   3.457   1.850
  607TIP3    H2 1828   4.662   3.524   1.976
  608TIP3   OH2 1829   3.370   5.370   1.624
  608TIP3    H1 1830   3.414   5.296   1.665
  608TIP3    H2 1831   3.285   5.376   1.669
  609TIP3   OH2 1832   3.131   0.546   0.169
  609TIP3    H1 1833   3.074   0.617   0.139
  609TIP3    H2 1834   3.112   0.473   0.111
  610TIP3   OH2 1835   5.061   3.693   0.666
  610TIP3    H1 1836   5.021   3.777   0.686
  610TIP3    H2 1837   5.128   3.681   0.733
  611TIP3   OH2 1838   5.743   3.881   3.485
  611TIP3    H1 1839   5.765   3.923   3.569
  611TIP3    H2 1840   5.779   3.793   3.492
  612TIP3   OH2 1841   5.783   1.354   0.004
  612TIP3    H1 1842   5.717   1.417   0.033
  612TIP3    H2 1843   5.851   1.357   0.071
  613TIP3   OH2 1844   6.200   4.708   4.532
  613TIP3    H1 1845   6.153   4.714   4.615
  613TIP3    H2 1846   6.160   4.776   4.477
  614TIP3   OH2 1847   0.377   2.659   3.471
  614TIP3    H1 1848   0.456   2.605   3.473
  614TIP3    H2 1849   0.325   2.629   3.546
  615TIP3   OH2 1850   4.916   4.062   4.686
  615TIP3    H1 1851   5.007   4.082   4.710
  615TIP3    H2 1852   4.901   4.113   4.607
  616TIP3   OH2 1853   1.023   5.620   3.943
  616TIP3    H1 1854   0.943   5.666   3.965
  616TIP3    H2 1855   1.005   5.529   3.966
  617TIP3   OH2 1856   5.709   5.611   1.920
  617TIP3    H1 1857   5.650   5.660   1.977
  617TIP3    H2 1858   5.791   5.606   1.970
  618TIP3   OH2 1859   2.627   2.220   3.173
  618TIP3    H1 1860   2.623   2.130   3.206
  618TIP3    H2 1861   2.718   2.246   3.184
  619TIP3   OH2 1862   4.003   5.018   2.766
  619TIP3    H1 1863   3.969   5.083   2.705
  619TIP3    H2 1864   3.932   4.953   2.773
  620TIP3   OH2 1865   4.378   2.517   0.219
  620TIP3    H1 1866   4.392   2.439   0.165
  620TIP3    H2 1867   4.355   2.483   0.305
  621TIP3   OH2 1868   0.321   4.507   1.095
  621TIP3    H1 1869   0.231   4.538   1.083
  621TIP3    H2 1870   0.372   4.587   1.107
  622TIP3   OH2 1871   2.365   2.068   1.820
  622TIP3    H1 1872   2.423   2.144   1.818
  622TIP3    H2 1873   2.419   1.998   1.858
  623TIP3   OH2 1874   1.139   0.494   3.715
  623TIP3    H1 1875   1.096   0.565   3.668
  623TIP3    H2 1876   1.220   0.478   3.666
  624TIP3   OH2 1877   3.863   0.219   3.928
  624TIP3    H1 1878   3.880   0.132   3.963
  624TIP3    H2 1879   3.940   0.239   3.874
  625TIP3   OH2 1880   1.732   0.161   1.360
  625TIP3    H1 1881   1.666   0.130   1.422
  625TIP3    H2 1882   1.809   0.178   1.414
  626TIP3   OH2 1883   4.552   3.534   3.686
  626TIP3    H1 1884   4.560   3.623   3.651
  626TIP3    H2 1885   4.613   3.531   3.759
  627TIP3   OH2 1886   5.549   1.464   2.516
  627TIP3    H1 1887   5.488   1.391   2.515
  627TIP3    H2 1888   5.599   1.453   2.597
  628TIP3   OH2 1889   3.231   4.324   4.333
  628TIP3    H1 1890   3.221   4.384   4.407
  628TIP3    H2 1891   3.326   4.316   4.321
  629TIP3   OH2 1892   2.307   2.087   3.703
  629TIP3    H1 1893   2.344   2.112   3.618
  629TIP3    H2 1894   2.375   2.107   3.766
  630TIP3   OH2 1895   1.162   4.757   0.817
  630TIP3    H1 1896   1.207   4.672   0.817
  630TIP3    H2 1897   1.089   4.746   0.877
  631TIP3   OH2 1898   1.248   1.814   5.127
  631TIP3    H1 1899   1.292   1.734   5.157
  631TIP3    H2 1900   1.251   1.809   5.032
  632TIP3   OH2 1901   4.293   2.111   3.790
  632TIP3    H1 1902   4.369   2.128   3.734
  632TIP3    H2 1903   4.326   2.054   3.860
  633TIP3   OH2 1904   1.157   0.448   0.117
  633TIP3    H1 1905   1.177   0.412   0.204
  633TIP3    H2 1906   1.067   0.479   0.124
  634TIP3   OH2 1907   3.618   3.450   0.070
  634TIP3    H1 1908   3.599   3.531   0.023
  634TIP3    H2 1909   3.707   3.428   0.043
  635TIP3   OH2 1910   1.154   2.853   5.110
  635TIP3    H1 1911   1.064   2.882   5.099
  635TIP3    H2 1912   1.196   2.875   5.027
  636TIP3   OH2 1913   5.438   1.785   4.425
  636TIP3    H1 1914   5.403   1.789   4.336
  636TIP3    H2 1915   5.498   1.860   4.430
  637TIP3   OH2 1916   2.101   2.237   4.700
  637TIP3    H1 1917   2.056   2.290   4.634
  637TIP3    H2 1918   2.187   2.220   4.662
  638TIP3   OH2 1919   0.711   1.453   3.008
  638TIP3    H1 1920   0.784   1.516   3.005
  638TIP3    H2 1921   0.681   1.454   3.098
  639TIP3   OH2 1922   1.558   5.151   0.564
  639TIP3    H1 1923   1.592   5.074   0.609
  639TIP3    H2 1924   1.510   5.199   0.631
  640TIP3   OH2 1925   4.437   5.545   1.498
  640TIP3    H1 1926   4.436   5.578   1.409
  640TIP3    H2 1927   4.487   5.463   1.493
  641TIP3   OH2 1928   5.883   4.674   2.990
  641TIP3    H1 1929   5.917   4.692   2.902
  641TIP3    H2 1930   5.955   4.693   3.049
  642TIP3   OH2 1931   5.772   5.817   0.020
  642TIP3    H1 1932   5.721   5.762  -0.040
  642TIP3    H2 1933   5.721   5.818   0.101
  643TIP3   OH2 1934   1.098   2.537   1.515
  643TIP3    H1 1935   1.190   2.519   1.495
  643TIP3    H2 1936   1.050   2.467   1.471
  644TIP3   OH2 1937   2.543   5.135   3.825
  644TIP3    H1 1938   2.460   5.097   3.854
  644TIP3    H2 1939   2.521   5.187   3.748
  645TIP3   OH2 1940   3.256   0.542   1.616
  645TIP3    H1 1941   3.177   0.564   1.566
  645TIP3    H2 1942   3.323   0.528   1.550
  646TIP3   OH2 1943   5.970   1.482   0.986
  646TIP3    H1 1944   6.044   1.424   0.966
  646TIP3    H2 1945   5.893   1.426   0.978
  647TIP3   OH2 1946   5.494   3.693   4.698
  647TIP3    H1 1947   5.469   3.664   4.610
  647TIP3    H2 1948   5.500   3.788   4.691
  648TIP3   OH2 1949   4.490   2.808   5.209
  648TIP3    H1 1950   4.506   2.902   5.205
  648TIP3    H2 1951   4.395   2.800   5.206
  649TIP3   OH2 1952   2.120   1.353   2.163
  649TIP3    H1 1953   2.203   1.361   2.212
  649TIP3    H2 1954   2.107   1.258   2.154
  650TIP3   OH2 1955   0.096   5.505   1.835
  650TIP3    H1 1956   0.135   5.500   1.748
  650TIP3    H2 1957   0.011   5.547   1.821
  651TIP3   OH2 1958   4.742   3.908   4.806
  651TIP3    H1 1959   4.795   3.856   4.867
  651TIP3    H2 1960   4.805   3.961   4.758
  652TIP3   OH2 1961   5.364   0.980   0.060
  652TIP3    H1 1962   5.421   0.968  -0.016
  652TIP3    H2 1963   5.422   0.974   0.135
  653TIP3   OH2 1964   1.765   1.962   4.410
  653TIP3    H1 1965   1.701   1.901   4.448
  653TIP3    H2 1966   1.835   1.965   4.475
  654TIP3   OH2 1967   3.037   1.664   4.311
  654TIP3    H1 1968   3.121   1.643   4.270
  654TIP3    H2 1969   2.982   1.588   4.295
  655TIP3   OH2 1970   3.522   0.251   5.036
  655TIP3    H1 1971   3.582   0.179   5.054
  655TIP3    H2 1972   3.469   0.220   4.962
  656TIP3   OH2 1973   3.016   1.850   3.653
  656TIP3    H1 1974   2.979   1.784   3.594
  656TIP3    H2 1975   3.111   1.840   3.644
  657TIP3   OH2 1976   2.110   5.087   0.354
  657TIP3    H1 1977   2.150   5.012   0.310
  657TIP3    H2 1978   2.129   5.073   0.447
  658TIP3   OH2 1979   1.479   0.198   5.018
  658TIP3    H1 1980   1.396   0.244   5.033
  658TIP3    H2 1981   1.537   0.231   5.087
  659TIP3   OH2 1982   2.785   1.578   3.838
  659TIP3    H1 1983   2.783   1.618   3.751
  659TIP3    H2 1984   2.856   1.623   3.884
  660TIP3   OH2 1985   3.318   1.752   1.006
  660TIP3    H1 1986   3.294   1.838   1.042
  660TIP3    H2 1987   3.401   1.767   0.961
  661TIP3   OH2 1988   2.769   2.409   1.945
  661TIP3    H1 1989   2.776   2.320   1.980
  661TIP3    H2 1990   2.675   2.424   1.933
  662TIP3   OH2 1991   4.853   2.426   2.937
  662TIP3    H1 1992   4.859   2.436   2.842
  662TIP3    H2 1993   4.847   2.515   2.970
  663TIP3   OH2 1994   5.556   0.293   3.531
  663TIP3    H1 1995   5.560   0.243   3.449
  663TIP3    H2 1996   5.634   0.348   3.530
  664TIP3   OH2 1997   1.050   5.578   2.461
  664TIP3    H1 1998   1.077   5.591   2.370
  664TIP3    H2 1999   1.051   5.483   2.472
  665TIP3   OH2 2000   5.600   0.124   1.013
  665TIP3    H1 2001   5.595   0.202   1.069
  665TIP3    H2 2002   5.521   0.128   0.959
  666TIP3   OH2 2003   5.591   4.437   2.709
  666TIP3    H1 2004   5.561   4.508   2.765
  666TIP3    H2 2005   5.674   4.408   2.748
  667TIP3   OH2 2006   1.046   2.526   2.657
  667TIP3    H1 2007   1.046   2.591   2.727
  667TIP3    H2 2008   1.138   2.506   2.642
  668TIP3   OH2 2009   5.758   2.143   2.087
  668TIP3    H1 2010   5.810   2.113   2.013
  668TIP3    H2 2011   5.669   2.150   2.052
  669TIP3   OH2 2012   1.443   5.637   3.674
  669TIP3    H1 2013   1.390   5.701   3.722
  669TIP3    H2 2014   1.410   5.552   3.704
  670TIP3   OH2 2015   5.276   5.272   5.038
  670TIP3    H1 2016   5.261   5.360   5.073
  670TIP3    H2 2017   5.354   5.241   5.084
  671TIP3   OH2 2018   2.075   0.823   0.918
  671TIP3    H1 2019   2.133   0.886   0.961
  671TIP3    H2 2020   1.996   0.821   0.973
  672TIP3   OH2 2021   3.381   0.034   4.985
  672TIP3    H1 2022   3.368  -0.058   4.962
  672TIP3    H2 2023   3.365   0.038   5.079
  673TIP3   OH2 2024   2.498   2.190   1.002
  673TIP3    H1 2025   2.421   2.230   0.962
  673TIP3    H2 2026   2.572   2.225   0.951
  674TIP3   OH2 2027  -0.054   4.922   3.638
  674TIP3    H1 2028  -0.137   4.932   3.685
  674TIP3    H2 2029   0.013   4.931   3.706
  675TIP3   OH2 2030   5.746   0.613   2.385
  675TIP3    H1 2031   5.658   0.651   2.381
  675TIP3    H2 2032   5.732   0.520   2.370
  676TIP3   OH2 2033   2.960   3.291   2.032
  676TIP3    H1 2034   2.956   3.235   1.955
  676TIP3    H2 2035   2.909   3.245   2.099
  677TIP3   OH2 2036   5.139   5.364   2.031
  677TIP3    H1 2037   5.158   5.287   1.978
  677TIP3    H2 2038   5.080   5.333   2.100
  678TIP3   OH2 2039   2.136   3.314   0.795
  678TIP3    H1 2040   2.091   3.327   0.712
  678TIP3    H2 2041   2.183   3.232   0.784
  679TIP3   OH2 2042   6.188   4.317   5.114
  679TIP3    H1 2043   6.107   4.313   5.165
  679TIP3    H2 2044   6.191   4.406   5.081
  680TIP3   OH2 2045   6.085   2.608   0.435
  680TIP3    H1 2046   6.178   2.625   0.426
  680TIP3    H2 2047   6.058   2.659   0.511
  681TIP3   OH2 2048   3.365   0.457   2.805
  681TIP3    H1 2049   3.334   0.505   2.882
  681TIP3    H2 2050   3.335   0.508   2.731
  682TIP3   OH2 2051   1.687   2.798   4.707
  682TIP3    H1 2052   1.627   2.821   4.637
  682TIP3    H2 2053   1.770   2.839   4.683
  683TIP3   OH2 2054   2.553   3.381   3.698
  683TIP3    H1 2055   2.593   3.402   3.783
  683TIP3    H2 2056   2.596   3.440   3.636
  684TIP3   OH2 2057   1.503   4.006   1.499
  684TIP3    H1 2058   1.416   3.973   1.476
  684TIP3    H2 2059   1.490   4.050   1.583
  685TIP3   OH2 2060   0.034   4.913   4.655
  685TIP3    H1 2061   0.116   4.872   4.682
  685TIP3    H2 2062  -0.019   4.840   4.623
  686TIP3   OH2 2063   5.866   0.000   1.626
  686TIP3    H1 2064   5.889   0.074   1.570
  686TIP3    H2 2065   5.848   0.040   1.711
  687TIP3   OH2 2066   1.087   3.648   0.701
  687TIP3    H1 2067   1.080   3.564   0.655
  687TIP3    H2 2068   1.055   3.712   0.638
  688TIP3   OH2 2069   5.900   3.351   4.235
  688TIP3    H1 2070   5.943   3.421   4.283
  688TIP3    H2 2071   5.946   3.349   4.151
  689TIP3   OH2 2072   1.766   1.969   2.282
  689TIP3    H1 2073   1.804   2.018   2.355
  689TIP3    H2 2074   1.671   1.979   2.294
  690TIP3   OH2 2075   3.581   5.233   2.156
  690TIP3    H1 2076   3.669   5.204   2.178
  690TIP3    H2 2077   3.525   5.191   2.221
  691TIP3   OH2 2078   3.348   1.350   4.161
  691TIP3    H1 2079   3.293   1.404   4.104
  691TIP3    H2 2080   3.423   1.326   4.106
  692TIP3   OH2 2081   2.373   4.342   3.290
  692TIP3    H1 2082   2.340   4.422   3.332
  692TIP3    H2 2083   2.332   4.342   3.204
  693TIP3   OH2 2084   1.440   0.033   2.918
  693TIP3    H1 2085   1.461   0.052   2.826
  693TIP3    H2 2086   1.517   0.062   2.966
  694TIP3   OH2 2087   5.269   2.319   3.088
  694TIP3    H1 2088   5.291   2.281   3.173
  694TIP3    H2 2089   5.186   2.278   3.064
  695TIP3   OH2 2090   1.994   1.000   1.638
  695TIP3    H1 2091   2.056   0.975   1.706
  695TIP3    H2 2092   2.038   1.070   1.590
  696TIP3   OH2 2093   4.738   5.494   1.310
  696TIP3    H1 2094   4.653   5.500   1.267
  696TIP3    H2 2095   4.800   5.475   1.240
  697TIP3   OH2 2096   2.362   4.124   3.952
  697TIP3    H1 2097   2.301   4.147   3.882
  697TIP3    H2 2098   2.438   4.181   3.937
  698TIP3   OH2 2099   3.645   1.099   3.837
  698TIP3    H1 2100   3.630   1.169   3.901
  698TIP3    H2 2101   3.716   1.046   3.875
  699TIP3   OH2 2102   5.603   2.257   4.371
  699TIP3    H1 2103   5.521   2.218   4.402
  699TIP3    H2 2104   5.665   2.243   4.442
  700TIP3   OH2 2105   4.951   4.476   2.553
  700TIP3    H1 2106   5.040   4.510   2.559
  700TIP3    H2 2107   4.897   4.553   2.533
  701TIP3   OH2 2108   0.097   4.954   1.110
  701TIP3    H1 2109   0.147   4.956   1.191
  701TIP3    H2 2110   0.044   4.874   1.117
  702TIP3   OH2 2111   4.296   0.687   3.106
  702TIP3    H1 2112   4.262   0.610   3.059
  702TIP3    H2 2113   4.391   0.673   3.108
  703TIP3   OH2 2114   2.755   5.063   4.731
  703TIP3    H1 2115   2.850   5.075   4.722
  703TIP3    H2 2116   2.741   5.047   4.824
  704TIP3   OH2 2117   4.622   1.536   1.052
  704TIP3    H1 2118   4.701   1.590   1.045
  704TIP3    H2 2119   4.645   1.454   1.007
  705TIP3   OH2 2120   4.780   4.639   4.617
  705TIP3    H1 2121   4.712   4.706   4.611
  705TIP3    H2 2122   4.785   4.618   4.710
  706TIP3   OH2 2123   0.330   1.317   1.665
  706TIP3    H1 2124   0.354   1.261   1.738
  706TIP3    H2 2125   0.389   1.392   1.672
  707TIP3   OH2 2126   4.409   5.664   0.392
  707TIP3    H1 2127   4.358   5.677   0.472
  707TIP3    H2 2128   4.344   5.643   0.325
  708TIP3   OH2 2129   4.192   1.666   1.167
  708TIP3    H1 2130   4.245   1.587   1.157
  708TIP3    H2 2131   4.139   1.670   1.088
  709TIP3   OH2 2132   0.856   4.711   0.521
  709TIP3    H1 2133   0.770   4.689   0.559
  709TIP3    H2 2134   0.907   4.630   0.529
  710TIP3   OH2 2135   5.513   5.130   1.097
  710TIP3    H1 2136   5.444   5.115   1.163
  710TIP3    H2 2137   5.466   5.158   1.019
  711TIP3   OH2 2138   5.245   4.717   2.952
  711TIP3    H1 2139   5.304   4.721   3.027
  711TIP3    H2 2140   5.282   4.777   2.888
  712TIP3   OH2 2141   4.336   1.222   1.602
  712TIP3    H1 2142   4.320   1.176   1.684
  712TIP3    H2 2143   4.254   1.270   1.585
  713TIP3   OH2 2144   1.970   4.904   4.986
  713TIP3    H1 2145   1.986   4.840   5.055
  713TIP3    H2 2146   1.974   4.853   4.905
  714TIP3   OH2 2147   1.484   4.220   2.079
  714TIP3    H1 2148   1.523   4.282   2.018
  714TIP3    H2 2149   1.529   4.237   2.162
  715TIP3   OH2 2150   0.608   5.491   1.504
  715TIP3    H1 2151   0.651   5.543   1.436
  715TIP3    H2 2152   0.574   5.415   1.458
  716TIP3   OH2 2153   3.280   0.461   5.094
  716TIP3    H1 2154   3.224   0.384   5.086
  716TIP3    H2 2155   3.348   0.434   5.156
  717TIP3   OH2 2156   2.139   1.471   4.435
  717TIP3    H1 2157   2.208   1.487   4.370
  717TIP3    H2 2158   2.101   1.557   4.451
  718TIP3   OH2 2159   1.639   1.418   5.139
  718TIP3    H1 2160   1.608   1.332   5.168
  718TIP3    H2 2161   1.690   1.451   5.214
  719TIP3   OH2 2162   5.579   4.596   0.562
  719TIP3    H1 2163   5.533   4.679   0.576
  719TIP3    H2 2164   5.515   4.529   0.585
  720TIP3   OH2 2165   4.318   2.453   1.489
  720TIP3    H1 2166   4.365   2.445   1.572
  720TIP3    H2 2167   4.228   2.475   1.515
  721TIP3   OH2 2168   6.143   4.988   0.392
  721TIP3    H1 2169   6.060   5.020   0.357
  721TIP3    H2 2170   6.185   5.066   0.429
  722TIP3   OH2 2171   0.936   4.799   1.760
  722TIP3    H1 2172   1.006   4.734   1.753
  722TIP3    H2 2173   0.982   4.883   1.756
  723TIP3   OH2 2174   2.853   2.050   2.455
  723TIP3    H1 2175   2.787   2.119   2.452
  723TIP3    H2 2176   2.804   1.970   2.438
  724TIP3   OH2 2177   0.731   5.933   1.890
  724TIP3    H1 2178   0.804   5.976   1.844
  724TIP3    H2 2179   0.662   5.926   1.825
  725TIP3   OH2 2180   5.741   3.870   4.670
  725TIP3    H1 2181   5.680   3.936   4.638
  725TIP3    H2 2182   5.685   3.804   4.711
  726TIP3   OH2 2183   3.813   0.769   1.513
  726TIP3    H1 2184   3.799   0.699   1.449
  726TIP3    H2 2185   3.905   0.761   1.537
  727TIP3   OH2 2186   2.354   4.839   0.906
  727TIP3    H1 2187   2.332   4.759   0.953
  727TIP3    H2 2188   2.449   4.847   0.914
  728TIP3   OH2 2189   4.817   0.759   2.357
  728TIP3    H1 2190   4.745   0.818   2.379
  728TIP3    H2 2191   4.794   0.677   2.401
  729TIP3   OH2 2192   1.451   1.570   2.250
  729TIP3    H1 2193   1.374   1.513   2.248
  729TIP3    H2 2194   1.501   1.546   2.172
  730TIP3   OH2 2195   0.204   5.837   1.691
  730TIP3    H1 2196   0.114   5.855   1.718
  730TIP3    H2 2197   0.221   5.898   1.619
  731TIP3   OH2 2198   3.071   2.656   2.332
  731TIP3    H1 2199   3.148   2.693   2.376
  731TIP3    H2 2200   3.072   2.694   2.245
  732TIP3   OH2 2201   2.466   0.478   4.491
  732TIP3    H1 2202   2.556   0.509   4.500
  732TIP3    H2 2203   2.437   0.515   4.407
  733TIP3   OH2 2204   5.509   4.839   0.640
  733TIP3    H1 2205   5.418   4.856   0.666
  733TIP3    H2 2206   5.561   4.866   0.716
  734TIP3   OH2 2207   0.446   1.699   3.677
  734TIP3    H1 2208   0.416   1.611   3.655
  734TIP3    H2 2209   0.392   1.725   3.751
  735TIP3   OH2 2210   5.512   2.806   1.767
  735TIP3    H1 2211   5.580   2.845   1.712
  735TIP3    H2 2212   5.559   2.750   1.829
  736TIP3   OH2 2213   5.134   1.889   0.066
  736TIP3    H1 2214   5.098   1.838  -0.006
  736TIP3    H2 2215   5.174   1.966   0.023
  737TIP3   OH2 2216   3.708   4.092   3.173
  737TIP3    H1 2217   3.758   4.011   3.162
  737TIP3    H2 2218   3.706   4.132   3.086
  738TIP3   OH2 2219   3.270   0.798   2.762
  738TIP3    H1 2220   3.323   0.862   2.807
  738TIP3    H2 2221   3.323   0.718   2.762
  739TIP3   OH2 2222   1.791   1.149   4.084
  739TIP3    H1 2223   1.790   1.215   4.153
  739TIP3    H2 2224   1.832   1.194   4.009
  740TIP3   OH2 2225   0.335  -0.002   0.268
  740TIP3    H1 2226   0.349  -0.004   0.173
  740TIP3    H2 2227   0.243   0.021   0.278
  741TIP3   OH2 2228   4.351   1.688   1.761
  741TIP3    H1 2229   4.405   1.624   1.808
  741TIP3    H2 2230   4.375   1.679   1.669
  742TIP3   OH2 2231   1.085   4.855   3.869
  742TIP3    H1 2232   1.083   4.776   3.815
  742TIP3    H2 2233   1.031   4.833   3.945
  743TIP3   OH2 2234   0.170   2.259   2.627
  743TIP3    H1 2235   0.165   2.322   2.555
  743TIP3    H2 2236   0.257   2.221   2.620
  744TIP3   OH2 2237   2.360   5.329   0.826
  744TIP3    H1 2238   2.329   5.344   0.916
  744TIP3    H2 2239   2.455   5.327   0.834
  745TIP3   OH2 2240   0.023   1.896   2.150
  745TIP3    H1 2241  -0.003   1.946   2.073
  745TIP3    H2 2242   0.113   1.924   2.167
  746TIP3   OH2 2243   5.497   1.501   4.186
  746TIP3    H1 2244   5.501   1.593   4.214
  746TIP3    H2 2245   5.430   1.500   4.117
  747TIP3   OH2 2246   2.692   0.600   0.363
  747TIP3    H1 2247   2.767   0.622   0.309
  747TIP3    H2 2248   2.620   0.587   0.301
  748TIP3   OH2 2249   2.210   2.415   5.050
  748TIP3    H1 2250   2.126   2.371   5.041
  748TIP3    H2 2251   2.219   2.432   5.144
  749TIP3   OH2 2252   4.221   4.348   2.768
  749TIP3    H1 2253   4.199   4.403   2.842
  749TIP3    H2 2254   4.310   4.374   2.744
  750TIP3   OH2 2255   2.905   3.265   4.753
  750TIP3    H1 2256   2.994   3.296   4.771
  750TIP3    H2 2257   2.906   3.174   4.782
  751TIP3   OH2 2258   6.294   3.717   2.917
  751TIP3    H1 2259   6.284   3.680   2.829
  751TIP3    H2 2260   6.226   3.673   2.969
  752TIP3   OH2 2261   5.993   4.895   0.804
  752TIP3    H1 2262   5.952   4.909   0.718
  752TIP3    H2 2263   5.929   4.930   0.866
  753TIP3   OH2 2264   2.266   2.313   3.410
  753TIP3    H1 2265   2.291   2.334   3.320
  753TIP3    H2 2266   2.247   2.399   3.449
  754TIP3   OH2 2267   2.682   2.777   0.631
  754TIP3    H1 2268   2.650   2.783   0.541
  754TIP3    H2 2269   2.745   2.848   0.638
  755TIP3   OH2 2270   3.370   2.040   2.700
  755TIP3    H1 2271   3.367   2.005   2.611
  755TIP3    H2 2272   3.389   1.964   2.756
  756TIP3   OH2 2273   0.827   1.461   1.236
  756TIP3    H1 2274   0.908   1.436   1.281
  756TIP3    H2 2275   0.855   1.527   1.173
  757TIP3   OH2 2276   6.028   0.148   5.193
  757TIP3    H1 2277   5.981   0.096   5.128
  757TIP3    H2 2278   6.093   0.197   5.141
  758TIP3   OH2 2279   4.407   5.423   3.443
  758TIP3    H1 2280   4.382   5.457   3.529
  758TIP3    H2 2281   4.488   5.470   3.422
  759TIP3   OH2 2282   0.457   0.359   3.066
  759TIP3    H1 2283   0.380   0.384   3.117
  759TIP3    H2 2284   0.462   0.264   3.075
  760TIP3   OH2 2285   5.576   4.948   3.537
  760TIP3    H1 2286   5.620   4.864   3.549
  760TIP3    H2 2287   5.613   5.005   3.604
  761TIP3   OH2 2288   0.736   2.279   2.262
  761TIP3    H1 2289   0.735   2.247   2.172
  761TIP3    H2 2290   0.643   2.283   2.287
  762TIP3   OH2 2291   2.195   3.144   1.076
  762TIP3    H1 2292   2.266   3.146   1.140
  762TIP3    H2 2293   2.196   3.231   1.036
  763TIP3   OH2 2294   2.861   2.094   3.423
  763TIP3    H1 2295   2.788   2.060   3.370
  763TIP3    H2 2296   2.835   2.076   3.513
  764TIP3   OH2 2297   5.382   4.716   1.736
  764TIP3    H1 2298   5.438   4.685   1.807
  764TIP3    H2 2299   5.425   4.688   1.656
  765TIP3   OH2 2300   1.821   0.942   3.861
  765TIP3    H1 2301   1.838   0.980   3.947
  765TIP3    H2 2302   1.757   1.000   3.820
  766TIP3   OH2 2303   4.974   5.976   1.683
  766TIP3    H1 2304   5.056   5.992   1.730
  766TIP3    H2 2305   4.981   5.884   1.655
  767TIP3   OH2 2306   0.604   3.255   2.494
  767TIP3    H1 2307   0.618   3.283   2.584
  767TIP3    H2 2308   0.691   3.254   2.455
  768TIP3   OH2 2309   5.202   5.911   0.607
  768TIP3    H1 2310   5.182   6.003   0.593
  768TIP3    H2 2311   5.208   5.902   0.702
  769TIP3   OH2 2312   0.383   3.070   4.121
  769TIP3    H1 2313   0.469   3.099   4.154
  769TIP3    H2 2314   0.404   3.013   4.047
  770TIP3   OH2 2315   1.890   1.268   3.855
  770TIP3    H1 2316   1.911   1.336   3.792
  770TIP3    H2 2317   1.959   1.202   3.843
  771TIP3   OH2 2318   1.550   5.813   4.533
  771TIP3    H1 2319   1.601   5.888   4.503
  771TIP3    H2 2320   1.462   5.827   4.497
  772TIP3   OH2 2321   3.783   4.356   4.396
  772TIP3    H1 2322   3.794   4.260   4.392
  772TIP3    H2 2323   3.692   4.371   4.371
  773TIP3   OH2 2324   6.160   2.763   3.434
  773TIP3    H1 2325   6.253   2.763   3.454
  773TIP3    H2 2326   6.118   2.787   3.516
  774TIP3   OH2 2327   1.967   3.046   0.205
  774TIP3    H1 2328   1.894   3.071   0.148
  774TIP3    H2 2329   1.991   3.127   0.250
  775TIP3   OH2 2330   5.678   4.484   1.734
  775TIP3    H1 2331   5.642   4.427   1.801
  775TIP3    H2 2332   5.601   4.520   1.689
  776TIP3   OH2 2333   4.069   5.266   1.281
  776TIP3    H1 2334   4.133   5.283   1.212
  776TIP3    H2 2335   4.054   5.352   1.321
  777TIP3   OH2 2336   1.253   1.769   4.017
  777TIP3    H1 2337   1.325   1.729   4.065
  777TIP3    H2 2338   1.296   1.822   3.949
  778TIP3   OH2 2339   2.836   5.960   1.106
  778TIP3    H1 2340   2.748   5.973   1.070
  778TIP3    H2 2341   2.889   6.029   1.066
  779TIP3   OH2 2342   1.929   0.653   3.977
  779TIP3    H1 2343   1.856   0.598   3.950
  779TIP3    H2 2344   1.896   0.742   3.970
  780TIP3   OH2 2345   5.593   5.189   1.739
  780TIP3    H1 2346   5.579   5.283   1.737
  780TIP3    H2 2347   5.530   5.154   1.676
  781TIP3   OH2 2348   0.295   5.436   3.285
  781TIP3    H1 2349   0.306   5.346   3.255
  781TIP3    H2 2350   0.263   5.429   3.375
  782TIP3   OH2 2351   3.227   1.092   3.529
  782TIP3    H1 2352   3.253   1.124   3.443
  782TIP3    H2 2353   3.170   1.161   3.564
  783TIP3   OH2 2354   1.447   2.571   2.865
  783TIP3    H1 2355   1.481   2.641   2.921
  783TIP3    H2 2356   1.429   2.615   2.781
  784TIP3   OH2 2357   3.164   2.035   1.027
  784TIP3    H1 2358   3.218   2.109   1.052
  784TIP3    H2 2359   3.075   2.060   1.052
  785TIP3   OH2 2360   5.829   5.643   0.295
  785TIP3    H1 2361   5.854   5.721   0.345
  785TIP3    H2 2362   5.858   5.661   0.206
  786TIP3   OH2 2363   1.793   0.754   0.844
  786TIP3    H1 2364   1.781   0.683   0.908
  786TIP3    H2 2365   1.830   0.711   0.767
  787TIP3   OH2 2366   3.171   5.893   4.484
  787TIP3    H1 2367   3.092   5.854   4.521
  787TIP3    H2 2368   3.230   5.818   4.470
  788TIP3   OH2 2369   1.842   1.915   1.112
  788TIP3    H1 2370   1.753   1.898   1.143
  788TIP3    H2 2371   1.849   1.865   1.030
  789TIP3   OH2 2372   1.238   3.449   2.494
  789TIP3    H1 2373   1.274   3.525   2.448
  789TIP3    H2 2374   1.165   3.485   2.545
  790TIP3   OH2 2375   2.012   5.376   4.091
  790TIP3    H1 2376   2.003   5.456   4.144
  790TIP3    H2 2377   2.088   5.392   4.035
  791TIP3   OH2 2378   4.421   5.476   4.496
  791TIP3    H1 2379   4.406   5.549   4.557
  791TIP3    H2 2380   4.336   5.434   4.487
  792TIP3   OH2 2381   6.063   1.789   2.648
  792TIP3    H1 2382   5.972   1.813   2.635
  792TIP3    H2 2383   6.081   1.808   2.740
  793TIP3   OH2 2384   3.598   5.006   2.967
  793TIP3    H1 2385   3.667   5.066   2.936
  793TIP3    H2 2386   3.521   5.061   2.976
  794TIP3   OH2 2387   0.725   5.667   3.403
  794TIP3    H1 2388   0.797   5.613   3.372
  794TIP3    H2 2389   0.740   5.675   3.497
  795TIP3   OH2 2390   4.047   4.525   5.000
  795TIP3    H1 2391   4.018   4.524   4.909
  795TIP3    H2 2392   4.065   4.433   5.020
  796TIP3   OH2 2393   5.189   2.423   2.760
  796TIP3    H1 2394   5.096   2.440   2.745
  796TIP3    H2 2395   5.220   2.498   2.810
  797TIP3   OH2 2396   1.668   5.214   3.583
  797TIP3    H1 2397   1.654   5.195   3.490
  797TIP3    H2 2398   1.742   5.159   3.609
  798TIP3   OH2 2399   4.283   4.345   4.030
  798TIP3    H1 2400   4.237   4.296   4.098
  798TIP3    H2 2401   4.285   4.435   4.063
  799TIP3   OH2 2402   2.836   5.516   1.393
  799TIP3    H1 2403   2.899   5.573   1.439
  799TIP3    H2 2404   2.869   5.427   1.408
  800TIP3   OH2 2405   3.659   2.335   4.743
  800TIP3    H1 2406   3.675   2.242   4.732
  800TIP3    H2 2407   3.721   2.378   4.684
  801TIP3   OH2 2408   4.595   4.489   2.457
  801TIP3    H1 2409   4.632   4.430   2.522
  801TIP3    H2 2410   4.666   4.551   2.437
  802TIP3   OH2 2411   6.114   3.271   0.736
  802TIP3    H1 2412   6.065   3.349   0.763
  802TIP3    H2 2413   6.056   3.228   0.673
  803TIP3   OH2 2414   2.066   2.686   4.167
  803TIP3    H1 2415   2.032   2.600   4.194
  803TIP3    H2 2416   2.125   2.712   4.237
  804TIP3   OH2 2417   6.021   4.150   0.077
  804TIP3    H1 2418   6.091   4.181   0.135
  804TIP3    H2 2419   5.958   4.110   0.137
  805TIP3   OH2 2420   3.330   0.698   1.816
  805TIP3    H1 2421   3.400   0.657   1.866
  805TIP3    H2 2422   3.318   0.640   1.740
  806TIP3   OH2 2423   5.351   3.838   1.302
  806TIP3    H1 2424   5.292   3.891   1.356
  806TIP3    H2 2425   5.353   3.753   1.347
  807TIP3   OH2 2426   4.598   1.968   3.226
  807TIP3    H1 2427   4.627   1.895   3.173
  807TIP3    H2 2428   4.620   1.943   3.316
  808TIP3   OH2 2429   2.923   3.950   5.067
  808TIP3    H1 2430   2.921   3.912   4.979
  808TIP3    H2 2431   2.868   3.892   5.119
  809TIP3   OH2 2432   6.006   1.256   2.554
  809TIP3    H1 2433   6.045   1.169   2.563
  809TIP3    H2 2434   6.071   1.307   2.504
  810TIP3   OH2 2435   3.451   0.539   2.193
  810TIP3    H1 2436   3.370   0.507   2.153
  810TIP3    H2 2437   3.437   0.530   2.287
  811TIP3   OH2 2438   2.495   1.245   4.467
  811TIP3    H1 2439   2.583   1.210   4.483
  811TIP3    H2 2440   2.468   1.204   4.384
  812TIP3   OH2 2441   1.782   4.355   3.083
  812TIP3    H1 2442   1.718   4.309   3.138
  812TIP3    H2 2443   1.861   4.358   3.136
  813TIP3   OH2 2444   6.311   5.988   2.629
  813TIP3    H1 2445   6.374   5.976   2.700
  813TIP3    H2 2446   6.301   5.901   2.591
  814TIP3   OH2 2447   2.673   3.590   2.761
  814TIP3    H1 2448   2.688   3.684   2.746
  814TIP3    H2 2449   2.669   3.553   2.673
  815TIP3   OH2 2450   0.080   0.071   0.202
  815TIP3    H1 2451   0.051   0.158   0.227
  815TIP3    H2 2452   0.022   0.045   0.131
  816TIP3   OH2 2453   5.443   3.365   4.108
  816TIP3    H1 2454   5.422   3.282   4.150
  816TIP3    H2 2455   5.536   3.358   4.087
  817TIP3   OH2 2456   3.570   0.109   1.602
  817TIP3    H1 2457   3.491   0.091   1.552
  817TIP3    H2 2458   3.574   0.204   1.608
  818TIP3   OH2 2459   0.751   2.003   3.183
  818TIP3    H1 2460   0.771   2.007   3.090
  818TIP3    H2 2461   0.836   1.992   3.225
  819TIP3   OH2 2462   5.766   5.174   4.666
  819TIP3    H1 2463   5.722   5.208   4.587
  819TIP3    H2 2464   5.708   5.198   4.738
  820TIP3   OH2 2465   5.744   2.831   2.570
  820TIP3    H1 2466   5.827   2.784   2.570
  820TIP3    H2 2467   5.761   2.909   2.623
  821TIP3   OH2 2468   0.216   1.460   3.759
  821TIP3    H1 2469   0.253   1.504   3.835
  821TIP3    H2 2470   0.227   1.367   3.777
  822TIP3   OH2 2471   0.340   0.422   1.694
  822TIP3    H1 2472   0.276   0.493   1.703
  822TIP3    H2 2473   0.385   0.420   1.779
  823TIP3   OH2 2474   6.235   5.724   3.864
  823TIP3    H1 2475   6.300   5.794   3.864
  823TIP3    H2 2476   6.183   5.740   3.942
  824TIP3   OH2 2477   3.948   0.849   1.893
  824TIP3    H1 2478   4.014   0.844   1.823
  824TIP3    H2 2479   3.911   0.761   1.897
  825TIP3   OH2 2480   3.074   1.992   4.557
  825TIP3    H1 2481   3.045   1.907   4.522
  825TIP3    H2 2482   3.007   2.015   4.622
  826TIP3   OH2 2483   2.211   5.921   0.189
  826TIP3    H1 2484   2.204   5.833   0.153
  826TIP3    H2 2485   2.240   5.975   0.115
  827TIP3   OH2 2486   1.664   2.193   1.789
  827TIP3    H1 2487   1.611   2.113   1.795
  827TIP3    H2 2488   1.610   2.252   1.735
  828TIP3   OH2 2489   4.323   3.037   2.101
  828TIP3    H1 2490   4.366   3.026   2.185
  828TIP3    H2 2491   4.385   3.087   2.048
  829TIP3   OH2 2492   3.175   5.643   4.846
  829TIP3    H1 2493   3.092   5.614   4.883
  829TIP3    H2 2494   3.235   5.647   4.921
  830TIP3   OH2 2495   5.089   1.555   3.613
  830TIP3    H1 2496   5.061   1.594   3.696
  830TIP3    H2 2497   5.094   1.461   3.632
  831TIP3   OH2 2498   3.712   4.790   0.138
  831TIP3    H1 2499   3.685   4.739   0.215
  831TIP3    H2 2500   3.647   4.860   0.132
  832TIP3   OH2 2501   5.716   4.071   4.955
  832TIP3    H1 2502   5.788   4.042   5.012
  832TIP3    H2 2503   5.637   4.050   5.004
  833TIP3   OH2 2504   3.250   4.851   1.104
  833TIP3    H1 2505   3.208   4.777   1.059
  833TIP3    H2 2506   3.179   4.915   1.115
  834TIP3   OH2 2507   5.153   2.966   4.649
  834TIP3    H1 2508   5.066   2.949   4.687
  834TIP3    H2 2509   5.179   3.050   4.686
  835TIP3   OH2 2510   0.102   2.071   4.287
  835TIP3    H1 2511   0.118   2.136   4.219
  835TIP3    H2 2512   0.028   2.020   4.253
  836TIP3   OH2 2513   6.312   2.156   1.743
  836TIP3    H1 2514   6.267   2.220   1.798
  836TIP3    H2 2515   6.361   2.208   1.680
  837TIP3   OH2 2516   0.360   1.917   1.441
  837TIP3    H1 2517   0.382   2.007   1.467
  837TIP3    H2 2518   0.354   1.869   1.523
  838TIP3   OH2 2519   0.849   0.297   3.155
  838TIP3    H1 2520   0.843   0.350   3.234
  838TIP3    H2 2521   0.860   0.360   3.084
  839TIP3   OH2 2522   4.374   1.648   2.577
  839TIP3    H1 2523   4.393   1.573   2.521
  839TIP3    H2 2524   4.407   1.622   2.663
  840TIP3   OH2 2525   3.842   0.056   2.307
  840TIP3    H1 2526   3.791   0.133   2.284
  840TIP3    H2 2527   3.850   0.007   2.225
  841TIP3   OH2 2528   2.772   4.517   5.208
  841TIP3    H1 2529   2.784   4.516   5.113
  841TIP3    H2 2530   2.769   4.609   5.232
  842TIP3   OH2 2531   5.016   5.497   0.623
  842TIP3    H1 2532   4.984   5.573   0.672
  842TIP3    H2 2533   5.102   5.480   0.660
  843TIP3   OH2 2534   2.799   5.715   3.825
  843TIP3    H1 2535   2.771   5.624   3.837
  843TIP3    H2 2536   2.858   5.731   3.899
  844TIP3   OH2 2537   1.803   1.478   0.321
  844TIP3    H1 2538   1.829   1.571   0.320
  844TIP3    H2 2539   1.822   1.447   0.233
  845TIP3   OH2 2540   0.755   4.310   3.222
  845TIP3    H1 2541   0.663   4.326   3.200
  845TIP3    H2 2542   0.800   4.305   3.138
  846TIP3   OH2 2543   2.045   4.869   1.365
  846TIP3    H1 2544   2.117   4.829   1.315
  846TIP3    H2 2545   2.089   4.916   1.436
  847TIP3   OH2 2546   2.995   4.062   1.094
  847TIP3    H1 2547   2.935   4.033   1.163
  847TIP3    H2 2548   3.082   4.055   1.133
  848TIP3   OH2 2549   1.787   4.382   1.702
  848TIP3    H1 2550   1.805   4.476   1.702
  848TIP3    H2 2551   1.872   4.341   1.718
  849TIP3   OH2 2552   0.583   3.044   2.172
  849TIP3    H1 2553   0.612   3.127   2.132
  849TIP3    H2 2554   0.487   3.049   2.168
  850TIP3   OH2 2555   1.292   3.054   1.141
  850TIP3    H1 2556   1.243   3.108   1.204
  850TIP3    H2 2557   1.369   3.025   1.189
  851TIP3   OH2 2558   4.541   2.258   0.175
  851TIP3    H1 2559   4.555   2.217   0.260
  851TIP3    H2 2560   4.563   2.190   0.111
  852TIP3   OH2 2561   0.088   3.279   4.787
  852TIP3    H1 2562   0.058   3.250   4.701
  852TIP3    H2 2563   0.183   3.285   4.778
  853TIP3   OH2 2564   1.866   1.724   2.329
  853TIP3    H1 2565   1.797   1.664   2.301
  853TIP3    H2 2566   1.826   1.811   2.321
  854TIP3   OH2 2567   5.673   2.946   4.703
  854TIP3    H1 2568   5.616   2.884   4.750
  854TIP3    H2 2569   5.761   2.923   4.732
  855TIP3   OH2 2570   4.204   1.910   1.265
  855TIP3    H1 2571   4.115   1.928   1.236
  855TIP3    H2 2572   4.224   1.823   1.231
  856TIP3   OH2 2573   2.178   0.704   3.673
  856TIP3    H1 2574   2.216   0.673   3.591
  856TIP3    H2 2575   2.254   0.717   3.730
  857TIP3   OH2 2576   0.389   3.450   2.411
  857TIP3    H1 2577   0.388   3.502   2.331
  857TIP3    H2 2578   0.427   3.367   2.385
  858TIP3   OH2 2579   5.420   1.586   1.084
  858TIP3    H1 2580   5.465   1.570   1.001
  858TIP3    H2 2581   5.343   1.638   1.060
  859TIP3   OH2 2582   2.123   0.053   1.268
  859TIP3    H1 2583   2.176   0.096   1.336
  859TIP3    H2 2584   2.061   0.121   1.240
  860TIP3   OH2 2585   1.763   2.347   4.699
  860TIP3    H1 2586   1.744   2.423   4.753
  860TIP3    H2 2587   1.845   2.370   4.655
  861TIP3   OH2 2588   0.428   3.925   1.775
  861TIP3    H1 2589   0.352   3.953   1.725
  861TIP3    H2 2590   0.392   3.893   1.858
  862TIP3   OH2 2591   5.668   2.728   2.001
  862TIP3    H1 2592   5.723   2.773   2.066
  862TIP3    H2 2593   5.692   2.636   2.009
  863TIP3   OH2 2594   1.423   4.199   4.597
  863TIP3    H1 2595   1.363   4.267   4.627
  863TIP3    H2 2596   1.370   4.141   4.544
  864TIP3   OH2 2597   5.138   4.430   0.491
  864TIP3    H1 2598   5.096   4.515   0.508
  864TIP3    H2 2599   5.229   4.452   0.470
  865TIP3   OH2 2600   1.732   2.061   4.742
  865TIP3    H1 2601   1.722   2.156   4.732
  865TIP3    H2 2602   1.797   2.036   4.677
  866TIP3   OH2 2603   2.919   2.234   1.325
  866TIP3    H1 2604   2.958   2.319   1.344
  866TIP3    H2 2605   2.969   2.172   1.378
  867TIP3   OH2 2606   4.598   3.422   3.355
  867TIP3    H1 2607   4.566   3.487   3.418
  867TIP3    H2 2608   4.674   3.383   3.398
  868TIP3   OH2 2609   5.825   1.579   0.334
  868TIP3    H1 2610   5.901   1.526   0.312
  868TIP3    H2 2611   5.808   1.559   0.427
  869TIP3   OH2 2612   0.567   2.554   4.806
  869TIP3    H1 2613   0.656   2.589   4.805
  869TIP3    H2 2614   0.579   2.459   4.806
  870TIP3   OH2 2615   4.069   3.397   0.332
  870TIP3    H1 2616   3.994   3.453   0.308
  870TIP3    H2 2617   4.035   3.340   0.401
  871TIP3   OH2 2618   2.691   5.756   4.747
  871TIP3    H1 2619   2.687   5.742   4.841
  871TIP3    H2 2620   2.735   5.679   4.712
  872TIP3   OH2 2621   6.169   1.904   5.147
  872TIP3    H1 2622   6.095   1.846   5.128
  872TIP3    H2 2623   6.223   1.900   5.067
  873TIP3   OH2 2624   0.749   4.562   4.842
  873TIP3    H1 2625   0.765   4.467   4.845
  873TIP3    H2 2626   0.801   4.592   4.768
  874TIP3   OH2 2627   4.601   5.186   3.895
  874TIP3    H1 2628   4.517   5.229   3.910
  874TIP3    H2 2629   4.584   5.123   3.825
  875TIP3   OH2 2630   0.365   5.344   1.846
  875TIP3    H1 2631   0.435   5.405   1.824
  875TIP3    H2 2632   0.286   5.398   1.847
  876TIP3   OH2 2633   4.539   5.880   3.996
  876TIP3    H1 2634   4.456   5.894   4.042
  876TIP3    H2 2635   4.545   5.954   3.935
  877TIP3   OH2 2636   4.147   3.828   1.108
  877TIP3    H1 2637   4.210   3.862   1.045
  877TIP3    H2 2638   4.088   3.773   1.056
  878TIP3   OH2 2639   4.519   0.273   4.082
  878TIP3    H1 2640   4.520   0.208   4.151
  878TIP3    H2 2641   4.428   0.304   4.080
  879TIP3   OH2 2642   5.862   3.805   1.226
  879TIP3    H1 2643   5.868   3.713   1.202
  879TIP3    H2 2644   5.768   3.825   1.223
  880TIP3   OH2 2645   0.330   5.195   4.540
  880TIP3    H1 2646   0.355   5.112   4.579
  880TIP3    H2 2647   0.236   5.203   4.557
  881TIP3   OH2 2648   2.531   5.973   0.180
  881TIP3    H1 2649   2.441   5.998   0.159
  881TIP3    H2 2650   2.583   6.049   0.152
  882TIP3   OH2 2651   4.813   2.284   2.048
  882TIP3    H1 2652   4.731   2.258   2.007
  882TIP3    H2 2653   4.788   2.325   2.130
  883TIP3   OH2 2654   5.163   4.098   0.257
  883TIP3    H1 2655   5.200   4.099   0.346
  883TIP3    H2 2656   5.095   4.165   0.259
  884TIP3   OH2 2657   2.986   2.143   3.834
  884TIP3    H1 2658   2.925   2.149   3.908
  884TIP3    H2 2659   2.980   2.051   3.806
  885TIP3   OH2 2660   2.762   1.919   3.811
  885TIP3    H1 2661   2.832   1.856   3.797
  885TIP3    H2 2662   2.701   1.903   3.739
  886TIP3   OH2 2663   2.401   2.393   0.135
  886TIP3    H1 2664   2.427   2.364   0.222
  886TIP3    H2 2665   2.306   2.403   0.141
  887TIP3   OH2 2666   2.350   2.270   1.378
  887TIP3    H1 2667   2.325   2.351   1.334
  887TIP3    H2 2668   2.444   2.263   1.363
  888TIP3   OH2 2669   5.369   3.444   3.173
  888TIP3    H1 2670   5.395   3.487   3.091
  888TIP3    H2 2671   5.276   3.463   3.182
  889TIP3   OH2 2672   2.330   4.829   3.165
  889TIP3    H1 2673   2.235   4.837   3.176
  889TIP3    H2 2674   2.355   4.907   3.116
  890TIP3   OH2 2675   4.323   4.210   0.675
  890TIP3    H1 2676   4.260   4.274   0.708
  890TIP3    H2 2677   4.293   4.189   0.587
  891TIP3   OH2 2678   4.311   3.637   2.544
  891TIP3    H1 2679   4.299   3.673   2.456
  891TIP3    H2 2680   4.367   3.561   2.531
  892TIP3   OH2 2681   4.897   5.287   4.567
  892TIP3    H1 2682   4.881   5.327   4.482
  892TIP3    H2 2683   4.832   5.326   4.625
  893TIP3   OH2 2684   6.277   2.942   4.268
  893TIP3    H1 2685   6.192   2.986   4.266
  893TIP3    H2 2686   6.289   2.918   4.360
  894TIP3   OH2 2687   5.844   0.034   1.185
  894TIP3    H1 2688   5.870   0.123   1.212
  894TIP3    H2 2689   5.761   0.046   1.140
  895TIP3   OH2 2690   6.020   4.013   2.502
  895TIP3    H1 2691   6.072   4.089   2.530
  895TIP3    H2 2692   6.038   3.946   2.567
  896TIP3   OH2 2693   4.388   0.823   4.801
  896TIP3    H1 2694   4.322   0.756   4.786
  896TIP3    H2 2695   4.469   0.785   4.766
  897TIP3   OH2 2696   3.261   0.080   3.429
  897TIP3    H1 2697   3.296   0.167   3.450
  897TIP3    H2 2698   3.312   0.053   3.352
  898TIP3   OH2 2699   2.978   4.305   2.757
  898TIP3    H1 2700   2.894   4.351   2.748
  898TIP3    H2 2701   3.004   4.286   2.667
  899TIP3   OH2 2702   3.585   0.943   3.617
  899TIP3    H1 2703   3.604   1.025   3.662
  899TIP3    H2 2704   3.517   0.901   3.670
  900TIP3   OH2 2705   0.109   1.934   4.979
  900TIP3    H1 2706   0.162   1.917   4.901
  900TIP3    H2 2707   0.160   1.999   5.028
  901TIP3   OH2 2708   2.049   0.678   5.125
  901TIP3    H1 2709   2.070   0.771   5.116
  901TIP3    H2 2710   1.954   0.676   5.129
  902TIP3   OH2 2711   0.399   5.869   2.138
  902TIP3    H1 2712   0.308   5.894   2.152
  902TIP3    H2 2713   0.401   5.832   2.050
  903TIP3   OH2 2714   4.784   4.294   0.574
  903TIP3    H1 2715   4.773   4.359   0.643
  903TIP3    H2 2716   4.764   4.340   0.493
  904TIP3   OH2 2717   1.093   5.973  -0.034
  904TIP3    H1 2718   1.065   5.980   0.057
  904TIP3    H2 2719   1.170   5.916  -0.032
  905TIP3   OH2 2720   5.288   0.662   0.695
  905TIP3    H1 2721   5.259   0.729   0.757
  905TIP3    H2 2722   5.318   0.590   0.751
  906TIP3   OH2 2723   2.908   4.845   1.893
  906TIP3    H1 2724   2.911   4.845   1.989
  906TIP3    H2 2725   2.956   4.767   1.867
  907TIP3   OH2 2726   3.800   1.198   3.497
  907TIP3    H1 2727   3.759   1.150   3.424
  907TIP3    H2 2728   3.868   1.139   3.529
  908TIP3   OH2 2729   6.092   0.322   3.686
  908TIP3    H1 2730   6.030   0.322   3.759
  908TIP3    H2 2731   6.120   0.231   3.678
  909TIP3   OH2 2732   2.473   3.054   2.880
  909TIP3    H1 2733   2.389   3.089   2.851
  909TIP3    H2 2734   2.535   3.081   2.812
  910TIP3   OH2 2735   4.133   1.192   4.786
  910TIP3    H1 2736   4.075   1.268   4.795
  910TIP3    H2 2737   4.145   1.183   4.691
  911TIP3   OH2 2738   2.085   3.743   2.737
  911TIP3    H1 2739   2.133   3.725   2.818
  911TIP3    H2 2740   1.993   3.727   2.760
  912TIP3   OH2 2741   5.374   6.008   0.421
  912TIP3    H1 2742   5.334   5.960   0.348
  912TIP3    H2 2743   5.326   5.980   0.498
  913TIP3   OH2 2744   0.341   3.923   0.691
  913TIP3    H1 2745   0.271   3.924   0.757
  913TIP3    H2 2746   0.416   3.963   0.736
  914TIP3   OH2 2747   3.120   3.623   4.402
  914TIP3    H1 2748   3.213   3.641   4.391
  914TIP3    H2 2749   3.095   3.576   4.322
  915TIP3   OH2 2750   2.567   0.514   1.764
  915TIP3    H1 2751   2.661   0.523   1.776
  915TIP3    H2 2752   2.530   0.524   1.852
  916TIP3   OH2 2753   2.079   5.790   0.694
  916TIP3    H1 2754   2.047   5.879   0.711
  916TIP3    H2 2755   2.165   5.802   0.654
  917TIP3   OH2 2756   3.186   3.121   1.818
  917TIP3    H1 2757   3.215   3.082   1.736
  917TIP3    H2 2758   3.166   3.046   1.874
  918TIP3   OH2 2759   5.274   0.694   5.066
  918TIP3    H1 2760   5.228   0.645   5.134
  918TIP3    H2 2761   5.238   0.660   4.983
  919TIP3   OH2 2762   2.779   1.878   0.729
  919TIP3    H1 2763   2.869   1.891   0.759
  919TIP3    H2 2764   2.752   1.964   0.697
  920TIP3   OH2 2765   5.214   5.918   4.747
  920TIP3    H1 2766   5.197   5.825   4.733
  920TIP3    H2 2767   5.199   5.931   4.841
  921TIP3   OH2 2768   6.025   0.148   3.378
  921TIP3    H1 2769   6.016   0.053   3.379
  921TIP3    H2 2770   6.090   0.167   3.445
  922TIP3   OH2 2771   5.428   0.839   4.349
  922TIP3    H1 2772   5.485   0.859   4.423
  922TIP3    H2 2773   5.376   0.764   4.378
  923TIP3   OH2 2774   1.672   0.127   3.025
  923TIP3    H1 2775   1.681   0.147   3.118
  923TIP3    H2 2776   1.725   0.194   2.981
  924TIP3   OH2 2777   4.701   4.887   1.340
  924TIP3    H1 2778   4.659   4.802   1.330
  924TIP3    H2 2779   4.660   4.926   1.417
  925TIP3   OH2 2780   1.022   3.582   4.346
  925TIP3    H1 2781   1.035   3.511   4.409
  925TIP3    H2 2782   1.052   3.547   4.263
  926TIP3   OH2 2783   4.997   4.566   4.080
  926TIP3    H1 2784   4.927   4.562   4.146
  926TIP3    H2 2785   5.072   4.524   4.123
  927TIP3   OH2 2786   3.144   0.910   2.510
  927TIP3    H1 2787   3.204   0.858   2.562
  927TIP3    H2 2788   3.138   0.865   2.426
  928TIP3   OH2 2789   0.231   3.541   4.275
  928TIP3    H1 2790   0.241   3.471   4.210
  928TIP3    H2 2791   0.321   3.567   4.295
  929TIP3   OH2 2792   1.991   0.263   1.882
  929TIP3    H1 2793   1.904   0.275   1.920
  929TIP3    H2 2794   1.987   0.305   1.797
  930TIP3   OH2 2795   5.879   3.092   2.745
  930TIP3    H1 2796   5.851   3.069   2.834
  930TIP3    H2 2797   5.973   3.109   2.752
  931TIP3   OH2 2798   0.366   6.010   3.056
  931TIP3    H1 2799   0.302   5.939   3.059
  931TIP3    H2 2800   0.413   5.996   2.974
  932TIP3   OH2 2801   4.487   0.236   4.565
  932TIP3    H1 2802   4.509   0.143   4.563
  932TIP3    H2 2803   4.480   0.258   4.658
  933TIP3   OH2 2804   1.875   4.106   4.596
  933TIP3    H1 2805   1.911   4.026   4.556
  933TIP3    H2 2806   1.891   4.095   4.690
  934TIP3   OH2 2807   1.980   2.922   2.919
  934TIP3    H1 2808   1.949   2.945   3.007
  934TIP3    H2 2809   1.971   2.827   2.915
  935TIP3   OH2 2810   3.032   2.439   4.839
  935TIP3    H1 2811   3.116   2.412   4.803
  935TIP3    H2 2812   2.969   2.424   4.769
  936TIP3   OH2 2813   4.192   5.239   0.706
  936TIP3    H1 2814   4.107   5.211   0.673
  936TIP3    H2 2815   4.246   5.253   0.628
  937TIP3   OH2 2816   0.687   1.037   1.810
  937TIP3    H1 2817   0.665   1.001   1.724
  937TIP3    H2 2818   0.617   1.006   1.868
  938TIP3   OH2 2819   4.312   3.393   1.473
  938TIP3    H1 2820   4.295   3.306   1.511
  938TIP3    H2 2821   4.247   3.450   1.514
  939TIP3   OH2 2822   1.459   2.377   1.920
  939TIP3    H1 2823   1.523   2.314   1.889
  939TIP3    H2 2824   1.385   2.368   1.860
  940TIP3   OH2 2825   5.235   2.026   3.707
  940TIP3    H1 2826   5.188   2.101   3.673
  940TIP3    H2 2827   5.246   1.968   3.632
  941TIP3   OH2 2828   1.566   0.521   0.458
  941TIP3    H1 2829   1.496   0.554   0.515
  941TIP3    H2 2830   1.618   0.464   0.515
  942TIP3   OH2 2831   5.820   0.735   2.953
  942TIP3    H1 2832   5.818   0.813   3.008
  942TIP3    H2 2833   5.907   0.698   2.966
  943TIP3   OH2 2834   4.100   1.694   2.519
  943TIP3    H1 2835   4.162   1.699   2.591
  943TIP3    H2 2836   4.091   1.601   2.501
  944TIP3   OH2 2837   5.715   0.600   4.069
  944TIP3    H1 2838   5.644   0.585   4.131
  944TIP3    H2 2839   5.696   0.686   4.032
  945TIP3   OH2 2840   2.809   5.236   0.099
  945TIP3    H1 2841   2.786   5.201   0.013
  945TIP3    H2 2842   2.878   5.300   0.081
  946TIP3   OH2 2843   1.480   5.633   2.939
  946TIP3    H1 2844   1.544   5.693   2.976
  946TIP3    H2 2845   1.455   5.672   2.856
  947TIP3   OH2 2846   2.712   2.848   3.099
  947TIP3    H1 2847   2.794   2.839   3.050
  947TIP3    H2 2848   2.710   2.940   3.125
  948TIP3   OH2 2849   5.963   0.912   4.555
  948TIP3    H1 2850   6.041   0.882   4.508
  948TIP3    H2 2851   5.906   0.947   4.487
  949TIP3   OH2 2852   0.687   0.157   4.528
  949TIP3    H1 2853   0.665   0.067   4.554
  949TIP3    H2 2854   0.767   0.177   4.578
  950TIP3   OH2 2855   0.969   3.555   3.109
  950TIP3    H1 2856   0.911   3.579   3.182
  950TIP3    H2 2857   0.976   3.634   3.056
  951TIP3   OH2 2858   5.505   4.324   0.024
  951TIP3    H1 2859   5.470   4.318  -0.065
  951TIP3    H2 2860   5.538   4.414   0.030
  952TIP3   OH2 2861   6.194   4.351   4.304
  952TIP3    H1 2862   6.265   4.386   4.357
  952TIP3    H2 2863   6.187   4.411   4.230
  953TIP3   OH2 2864   0.292   2.946   3.365
  953TIP3    H1 2865   0.287   3.037   3.393
  953TIP3    H2 2866   0.366   2.943   3.303
  954TIP3   OH2 2867   0.830   3.665   2.482
  954TIP3    H1 2868   0.793   3.726   2.417
  954TIP3    H2 2869   0.925   3.676   2.474
  955TIP3   OH2 2870   5.346   2.639   1.446
  955TIP3    H1 2871   5.306   2.616   1.362
  955TIP3    H2 2872   5.421   2.693   1.423
  956TIP3   OH2 2873   2.679   4.471   4.516
  956TIP3    H1 2874   2.675   4.562   4.486
  956TIP3    H2 2875   2.644   4.420   4.443
  957TIP3   OH2 2876   6.207   1.373   1.050
  957TIP3    H1 2877   6.256   1.437   1.101
  957TIP3    H2 2878   6.260   1.360   0.971
  958TIP3   OH2 2879   4.888   1.073   5.036
  958TIP3    H1 2880   4.813   1.047   4.982
  958TIP3    H2 2881   4.875   1.026   5.119
  959TIP3   OH2 2882   0.857   5.169   2.510
  959TIP3    H1 2883   0.897   5.172   2.597
  959TIP3    H2 2884   0.908   5.104   2.462
  960TIP3   OH2 2885   5.079   5.881   3.909
  960TIP3    H1 2886   5.135   5.804   3.915
  960TIP3    H2 2887   5.122   5.947   3.964
  961TIP3   OH2 2888   5.297   1.337   0.799
  961TIP3    H1 2889   5.228   1.270   0.792
  961TIP3    H2 2890   5.378   1.289   0.783
  962TIP3   OH2 2891   1.384   1.700   1.947
  962TIP3    H1 2892   1.437   1.620   1.954
  962TIP3    H2 2893   1.361   1.721   2.038
  963TIP3   OH2 2894   4.335   5.162   4.434
  963TIP3    H1 2895   4.296   5.075   4.423
  963TIP3    H2 2896   4.424   5.153   4.400
  964TIP3   OH2 2897   2.018   0.468   0.117
  964TIP3    H1 2898   1.974   0.552   0.101
  964TIP3    H2 2899   1.947   0.405   0.125
  965TIP3   OH2 2900   2.593   1.526   4.184
  965TIP3    H1 2901   2.615   1.598   4.125
  965TIP3    H2 2902   2.663   1.462   4.172
  966TIP3   OH2 2903   5.450   5.234   0.846
  966TIP3    H1 2904   5.464   5.315   0.796
  966TIP3    H2 2905   5.407   5.175   0.784
  967TIP3   OH2 2906   0.070   0.314   1.444
  967TIP3    H1 2907   0.110   0.244   1.495
  967TIP3    H2 2908  -0.024   0.300   1.453
  968TIP3   OH2 2909   2.617   2.669   2.406
  968TIP3    H1 2910   2.560   2.621   2.467
  968TIP3    H2 2911   2.655   2.601   2.351
  969TIP3   OH2 2912   0.080   2.744   4.818
  969TIP3    H1 2913   0.153   2.684   4.804
  969TIP3    H2 2914   0.119   2.831   4.809
  970TIP3   OH2 2915   1.202   3.403   4.837
  970TIP3    H1 2916   1.295   3.383   4.829
  970TIP3    H2 2917   1.160   3.319   4.854
  971TIP3   OH2 2918   3.908   1.506   0.090
  971TIP3    H1 2919   3.962   1.505   0.169
  971TIP3    H2 2920   3.839   1.442   0.107
  972TIP3   OH2 2921  -0.014   4.031   2.685
  972TIP3    H1 2922   0.032   3.974   2.746
  972TIP3    H2 2923   0.005   4.120   2.716
  973TIP3   OH2 2924   0.140   3.390   2.540
  973TIP3    H1 2925   0.095   3.378   2.456
  973TIP3    H2 2926   0.230   3.413   2.516
  974TIP3   OH2 2927   2.189   3.514   3.498
  974TIP3    H1 2928   2.121   3.447   3.492
  974TIP3    H2 2929   2.271   3.466   3.497
  975TIP3   OH2 2930   6.201   4.087   4.416
  975TIP3    H1 2931   6.163   4.174   4.401
  975TIP3    H2 2932   6.168   4.059   4.501
  976TIP3   OH2 2933   1.925   2.175   3.146
  976TIP3    H1 2934   1.937   2.080   3.144
  976TIP3    H2 2935   1.983   2.208   3.077
  977TIP3   OH2 2936   0.218   4.428   4.218
  977TIP3    H1 2937   0.226   4.487   4.293
  977TIP3    H2 2938   0.308   4.397   4.204
  978TIP3   OH2 2939   1.651   2.382   4.090
  978TIP3    H1 2940   1.679   2.385   4.182
  978TIP3    H2 2941   1.622   2.472   4.071
  979TIP3   OH2 2942   2.972   4.685   4.267
  979TIP3    H1 2943   2.991   4.778   4.258
  979TIP3    H2 2944   2.899   4.669   4.208
  980TIP3   OH2 2945   0.689   0.926   1.277
  980TIP3    H1 2946   0.607   0.939   1.229
  980TIP3    H2 2947   0.688   0.833   1.300
  981TIP3   OH2 2948   2.393   3.081   1.655
  981TIP3    H1 2949   2.426   3.002   1.612
  981TIP3    H2 2950   2.426   3.074   1.745
  982TIP3   OH2 2951   2.351   5.656   0.902
  982TIP3    H1 2952   2.297   5.607   0.965
  982TIP3    H2 2953   2.293   5.671   0.828
  983TIP3   OH2 2954   5.749   3.915   2.048
  983TIP3    H1 2955   5.749   3.922   2.144
  983TIP3    H2 2956   5.773   4.003   2.019
  984TIP3   OH2 2957   0.493   1.702   4.856
  984TIP3    H1 2958   0.406   1.719   4.820
  984TIP3    H2 2959   0.549   1.692   4.779
  985TIP3   OH2 2960   2.243   4.437   4.408
  985TIP3    H1 2961   2.154   4.406   4.419
  985TIP3    H2 2962   2.277   4.388   4.333
  986TIP3   OH2 2963   5.999   3.090   0.566
  986TIP3    H1 2964   5.934   3.028   0.601
  986TIP3    H2 2965   6.080   3.039   0.561
  987TIP3   OH2 2966   5.702   3.214   4.378
  987TIP3    H1 2967   5.624   3.191   4.327
  987TIP3    H2 2968   5.756   3.265   4.316
  988TIP3   OH2 2969   2.886   3.739   0.150
  988TIP3    H1 2970   2.925   3.826   0.162
  988TIP3    H2 2971   2.955   3.688   0.106
  989TIP3   OH2 2972   5.243   1.528   4.009
  989TIP3    H1 2973   5.227   1.583   3.932
  989TIP3    H2 2974   5.187   1.566   4.077
  990TIP3   OH2 2975   4.749   2.536   1.271
  990TIP3    H1 2976   4.822   2.577   1.225
  990TIP3    H2 2977   4.677   2.599   1.263
  991TIP3   OH2 2978   4.284   4.782   2.908
  991TIP3    H1 2979   4.281   4.878   2.913
  991TIP3    H2 2980   4.374   4.763   2.879
  992TIP3   OH2 2981   4.496   1.689   2.265
  992TIP3    H1 2982   4.401   1.692   2.253
  992TIP3    H2 2983   4.521   1.781   2.274
  993TIP3   OH2 2984   2.212   1.139   2.843
  993TIP3    H1 2985   2.255   1.223   2.825
  993TIP3    H2 2986   2.237   1.117   2.932
  994TIP3   OH2 2987   2.023   2.113   0.164
  994TIP3    H1 2988   2.015   2.018   0.175
  994TIP3    H2 2989   1.994   2.129   0.074
  995TIP3   OH2 2990   2.318   1.681   2.841
  995TIP3    H1 2991   2.382   1.653   2.775
  995TIP3    H2 2992   2.343   1.771   2.861
  996TIP3   OH2 2993   1.870   0.399   4.742
  996TIP3    H1 2994   1.918   0.368   4.666
  996TIP3    H2 2995   1.796   0.339   4.750
  997TIP3   OH2 2996   5.093   5.605   1.330
  997TIP3    H1 2997   5.135   5.607   1.244
  997TIP3    H2 2998   5.027   5.536   1.323
  998TIP3   OH2 2999   1.811   5.561   4.379
  998TIP3    H1 3000   1.793   5.624   4.448
  998TIP3    H2 3001   1.901   5.533   4.396
  999TIP3   OH2 3002   0.667   1.349   0.244
  999TIP3    H1 3003   0.702   1.279   0.189
  999TIP3    H2 3004   0.658   1.423   0.184
 1000TIP3   OH2 3005   5.038   1.549   3.257
 1000TIP3    H1 3006   5.072   1.576   3.172
 1000TIP3    H2 3007   5.098   1.481   3.287
 1001TIP3   OH2 3008   3.953   4.216   0.261
 1001TIP3    H1 3009   3.901   4.150   0.307
 1001TIP3    H2 3010   3.973   4.177   0.176
 1002TIP3   OH2 3011   3.006   4.868   2.736
 1002TIP3    H1 3012   2.982   4.776   2.728
 1002TIP3    H2 3013   2.924   4.915   2.727
 1003TIP3   OH2 3014   1.111   3.802   3.343
 1003TIP3    H1 3015   1.020   3.811   3.369
 1003TIP3    H2 3016   1.110   3.737   3.273
 1004TIP3   OH2 3017   1.561   4.916   1.268
 1004TIP3    H1 3018   1.530   4.966   1.192
 1004TIP3    H2 3019   1.640   4.871   1.237
 1005TIP3   OH2 3020   2.611   5.393   1.594
 1005TIP3    H1 3021   2.652   5.463   1.645
 1005TIP3    H2 3022   2.666   5.316   1.611
 1006TIP3   OH2 3023   0.460   0.280   2.022
 1006TIP3    H1 3024   0.473   0.285   2.117
 1006TIP3    H2 3025   0.480   0.368   1.990
 1007TIP3   OH2 3026   3.085   4.218   2.494
 1007TIP3    H1 3027   3.177   4.235   2.513
 1007TIP3    H2 3028   3.084   4.131   2.453
 1008TIP3   OH2 3029   2.522   5.217   1.386
 1008TIP3    H1 3030   2.550   5.144   1.443
 1008TIP3    H2 3031   2.560   5.196   1.301
 1009TIP3   OH2 3032   1.422   1.393   3.521
 1009TIP3    H1 3033   1.425   1.373   3.428
 1009TIP3    H2 3034   1.342   1.443   3.532
 1010TIP3   OH2 3035   2.035   1.261   4.573
 1010TIP3    H1 3036   2.046   1.342   4.523
 1010TIP3    H2 3037   2.112   1.257   4.630
 1011TIP3   OH2 3038   1.264   3.176   2.439
 1011TIP3    H1 3039   1.250   3.270   2.432
 1011TIP3    H2 3040   1.180   3.137   2.412
 1012TIP3   OH2 3041   5.007   3.677   0.390
 1012TIP3    H1 3042   4.914   3.697   0.383
 1012TIP3    H2 3043   5.030   3.704   0.480
 1013TIP3   OH2 3044   3.721   1.936   3.967
 1013TIP3    H1 3045   3.735   2.009   3.905
 1013TIP3    H2 3046   3.806   1.924   4.008
 1014TIP3   OH2 3047   2.703   2.742   3.407
 1014TIP3    H1 3048   2.789   2.769   3.373
 1014TIP3    H2 3049   2.656   2.825   3.421
 1015TIP3   OH2 3050   5.327   1.000   4.574
 1015TIP3    H1 3051   5.246   0.958   4.545
 1015TIP3    H2 3052   5.371   0.934   4.627
 1016TIP3   OH2 3053   1.250   2.926   3.800
 1016TIP3    H1 3054   1.285   3.001   3.752
 1016TIP3    H2 3055   1.228   2.862   3.732
 1017TIP3   OH2 3056   0.224   1.186   3.826
 1017TIP3    H1 3057   0.236   1.092   3.816
 1017TIP3    H2 3058   0.130   1.199   3.816
 1018TIP3   OH2 3059   6.238   0.794   3.607
 1018TIP3    H1 3060   6.166   0.837   3.561
 1018TIP3    H2 3061   6.301   0.773   3.538
 1019TIP3   OH2 3062   0.245   0.330   0.125
 1019TIP3    H1 3063   0.222   0.375   0.043
 1019TIP3    H2 3064   0.164   0.330   0.175
 1020TIP3   OH2 3065   2.210   4.488   3.671
 1020TIP3    H1 3066   2.152   4.548   3.718
 1020TIP3    H2 3067   2.291   4.538   3.661
 1021TIP3   OH2 3068   4.217   1.072   1.341
 1021TIP3    H1 3069   4.194   1.135   1.410
 1021TIP3    H2 3070   4.305   1.099   1.313
 1022TIP3   OH2 3071   5.255   3.808   4.096
 1022TIP3    H1 3072   5.239   3.726   4.143
 1022TIP3    H2 3073   5.245   3.785   4.004
 1023TIP3   OH2 3074   2.234   2.020   1.066
 1023TIP3    H1 3075   2.314   2.007   1.117
 1023TIP3    H2 3076   2.245   2.106   1.026
 1024TIP3   OH2 3077   2.877   3.432   3.540
 1024TIP3    H1 3078   2.793   3.478   3.542
 1024TIP3    H2 3079   2.921   3.458   3.621
 1025TIP3   OH2 3080   0.505   3.141   2.775
 1025TIP3    H1 3081   0.426   3.186   2.805
 1025TIP3    H2 3082   0.473   3.077   2.711
 1026TIP3   OH2 3083   1.305   1.334   1.113
 1026TIP3    H1 3084   1.366   1.282   1.060
 1026TIP3    H2 3085   1.258   1.269   1.165
 1027TIP3   OH2 3086   0.283   1.677   3.947
 1027TIP3    H1 3087   0.292   1.666   4.041
 1027TIP3    H2 3088   0.305   1.768   3.931
 1028TIP3   OH2 3089   3.462   2.910   4.530
 1028TIP3    H1 3090   3.460   2.926   4.436
 1028TIP3    H2 3091   3.539   2.855   4.544
 1029TIP3   OH2 3092   4.513   0.006   4.681
 1029TIP3    H1 3093   4.506  -0.088   4.664
 1029TIP3    H2 3094   4.488   0.016   4.773
 1030TIP3   OH2 3095   4.907   3.473   0.940
 1030TIP3    H1 3096   4.984   3.515   0.978
 1030TIP3    H2 3097   4.892   3.397   0.996
 1031TIP3   OH2 3098   2.784   3.927   4.800
 1031TIP3    H1 3099   2.689   3.926   4.815
 1031TIP3    H2 3100   2.800   4.008   4.751
 1032TIP3   OH2 3101   0.883   2.562   4.846
 1032TIP3    H1 3102   0.837   2.556   4.930
 1032TIP3    H2 3103   0.863   2.650   4.814
 1033TIP3   OH2 3104   0.050   1.663   4.724
 1033TIP3    H1 3105  -0.023   1.621   4.679
 1033TIP3    H2 3106   0.088   1.593   4.777
 1034TIP3   OH2 3107   2.893   3.006   4.768
 1034TIP3    H1 3108   2.881   2.934   4.830
 1034TIP3    H2 3109   2.925   2.964   4.689
 1035TIP3   OH2 3110   5.914   1.324   4.975
 1035TIP3    H1 3111   5.955   1.266   5.039
 1035TIP3    H2 3112   5.828   1.343   5.011
 1036TIP3   OH2 3113   3.518  -0.027   3.555
 1036TIP3    H1 3114   3.606  -0.010   3.590
 1036TIP3    H2 3115   3.471   0.055   3.568
 1037TIP3   OH2 3116   2.326   0.992   3.568
 1037TIP3    H1 3117   2.296   1.027   3.652
 1037TIP3    H2 3118   2.251   1.002   3.509
 1038TIP3   OH2 3119   0.274   3.540   0.244
 1038TIP3    H1 3120   0.261   3.620   0.193
 1038TIP3    H2 3121   0.225   3.554   0.324
 1039TIP3   OH2 3122   5.944   5.522   1.224
 1039TIP3    H1 3123   6.038   5.509   1.240
 1039TIP3    H2 3124   5.902   5.457   1.279
 1040TIP3   OH2 3125   4.417   5.903   0.848
 1040TIP3    H1 3126   4.437   5.902   0.754
 1040TIP3    H2 3127   4.405   5.810   0.870
 1041TIP3   OH2 3128   4.855   5.890   4.284
 1041TIP3    H1 3129   4.809   5.910   4.366
 1041TIP3    H2 3130   4.856   5.973   4.237
 1042TIP3   OH2 3131   6.103   2.806   2.941
 1042TIP3    H1 3132   6.129   2.770   3.026
 1042TIP3    H2 3133   6.184   2.838   2.902
 1043TIP3   OH2 3134   1.172   4.228   2.021
 1043TIP3    H1 3135   1.185   4.320   2.044
 1043TIP3    H2 3136   1.168   4.227   1.926
 1044TIP3   OH2 3137   1.819   0.319   2.883
 1044TIP3    H1 3138   1.764   0.386   2.844
 1044TIP3    H2 3139   1.874   0.366   2.946
 1045TIP3   OH2 3140   1.062   3.700   0.365
 1045TIP3    H1 3141   1.014   3.624   0.333
 1045TIP3    H2 3142   1.154   3.675   0.358
 1046TIP3   OH2 3143   5.576   3.150   3.376
 1046TIP3    H1 3144   5.572   3.245   3.364
 1046TIP3    H2 3145   5.543   3.135   3.464
 1047TIP3   OH2 3146   1.957   5.455   2.212
 1047TIP3    H1 3147   1.879   5.499   2.248
 1047TIP3    H2 3148   1.948   5.464   2.118
 1048TIP3   OH2 3149   1.055   0.791   4.148
 1048TIP3    H1 3150   1.034   0.865   4.092
 1048TIP3    H2 3151   1.019   0.814   4.234
 1049TIP3   OH2 3152   1.004   0.038   4.056
 1049TIP3    H1 3153   1.092   0.054   4.021
 1049TIP3    H2 3154   0.998   0.095   4.133
 1050TIP3   OH2 3155   0.363   3.641   1.058
 1050TIP3    H1 3156   0.417   3.562   1.046
 1050TIP3    H2 3157   0.313   3.623   1.138
 1051TIP3   OH2 3158   4.497   1.150   2.119
 1051TIP3    H1 3159   4.478   1.057   2.124
 1051TIP3    H2 3160   4.590   1.157   2.142
 1052TIP3   OH2 3161   6.108   3.454   2.729
 1052TIP3    H1 3162   6.190   3.494   2.702
 1052TIP3    H2 3163   6.134   3.384   2.789
 1053TIP3   OH2 3164   3.421   1.499   4.368
 1053TIP3    H1 3165   3.338   1.484   4.413
 1053TIP3    H2 3166   3.421   1.438   4.295
 1054TIP3   OH2 3167   3.832   1.057   4.369
 1054TIP3    H1 3168   3.753   1.014   4.336
 1054TIP3    H2 3169   3.819   1.062   4.464
 1055TIP3   OH2 3170   6.073   2.037   1.373
 1055TIP3    H1 3171   6.101   1.961   1.425
 1055TIP3    H2 3172   6.141   2.047   1.307
 1056TIP3   OH2 3173   0.916   0.106   1.815
 1056TIP3    H1 3174   0.927   0.127   1.908
 1056TIP3    H2 3175   0.949   0.184   1.770
 1057TIP3   OH2 3176   3.056   4.896   5.003
 1057TIP3    H1 3177   2.995   4.829   4.972
 1057TIP3    H2 3178   3.122   4.902   4.934
 1058TIP3   OH2 3179   2.974   4.868   2.152
 1058TIP3    H1 3180   2.954   4.955   2.186
 1058TIP3    H2 3181   2.970   4.811   2.228
 1059TIP3   OH2 3182   3.839   2.474   3.345
 1059TIP3    H1 3183   3.832   2.461   3.440
 1059TIP3    H2 3184   3.873   2.391   3.312
 1060TIP3   OH2 3185   6.280   3.344   1.763
 1060TIP3    H1 3186   6.289   3.439   1.777
 1060TIP3    H2 3187   6.299   3.306   1.849
 1061TIP3   OH2 3188   5.576   4.523   4.730
 1061TIP3    H1 3189   5.581   4.613   4.762
 1061TIP3    H2 3190   5.667   4.498   4.713
 1062TIP3   OH2 3191   3.676   2.565   1.415
 1062TIP3    H1 3192   3.603   2.567   1.477
 1062TIP3    H2 3193   3.702   2.657   1.406
 1063TIP3   OH2 3194   5.546   4.195   1.489
 1063TIP3    H1 3195   5.552   4.144   1.570
 1063TIP3    H2 3196   5.459   4.235   1.492
 1064TIP3   OH2 3197   3.424   0.332   4.109
 1064TIP3    H1 3198   3.374   0.252   4.094
 1064TIP3    H2 3199   3.513   0.310   4.083
 1065TIP3   OH2 3200   2.373   4.904   2.212
 1065TIP3    H1 3201   2.295   4.954   2.186
 1065TIP3    H2 3202   2.346   4.858   2.292
 1066TIP3   OH2 3203   5.186   2.819   4.975
 1066TIP3    H1 3204   5.237   2.839   5.054
 1066TIP3    H2 3205   5.250   2.824   4.904
 1067TIP3   OH2 3206   3.449   5.003   0.833
 1067TIP3    H1 3207   3.457   5.062   0.758
 1067TIP3    H2 3208   3.467   5.058   0.909
 1068TIP3   OH2 3209   3.433   4.046   5.198
 1068TIP3    H1 3210   3.424   4.121   5.139
 1068TIP3    H2 3211   3.375   3.980   5.161
 1069TIP3   OH2 3212   2.839   5.717   3.378
 1069TIP3    H1 3213   2.882   5.654   3.322
 1069TIP3    H2 3214   2.748   5.687   3.383
 1070TIP3   OH2 3215   6.219   4.459   1.246
 1070TIP3    H1 3216   6.267   4.410   1.312
 1070TIP3    H2 3217   6.156   4.511   1.296
 1071TIP3   OH2 3218   1.227   5.564   4.376
 1071TIP3    H1 3219   1.295   5.497   4.385
 1071TIP3    H2 3220   1.261   5.639   4.424
 1072TIP3   OH2 3221   4.780   5.202   2.408
 1072TIP3    H1 3222   4.864   5.200   2.454
 1072TIP3    H2 3223   4.722   5.150   2.464
 1073TIP3   OH2 3224   0.993   1.036   4.042
 1073TIP3    H1 3225   1.048   1.105   4.078
 1073TIP3    H2 3226   1.028   1.020   3.954
 1074TIP3   OH2 3227   0.883   4.186   4.092
 1074TIP3    H1 3228   0.798   4.222   4.068
 1074TIP3    H2 3229   0.901   4.121   4.024
 1075TIP3   OH2 3230   3.488   3.389   2.202
 1075TIP3    H1 3231   3.505   3.362   2.111
 1075TIP3    H2 3232   3.414   3.335   2.229
 1076TIP3   OH2 3233   3.938   4.657   2.991
 1076TIP3    H1 3234   3.870   4.698   2.937
 1076TIP3    H2 3235   3.947   4.715   3.066
 1077TIP3   OH2 3236   5.213   1.372   1.070
 1077TIP3    H1 3237   5.279   1.426   1.112
 1077TIP3    H2 3238   5.246   1.359   0.981
 1078TIP3   OH2 3239   1.538   5.676   4.899
 1078TIP3    H1 3240   1.504   5.587   4.907
 1078TIP3    H2 3241   1.548   5.706   4.990
 1079TIP3   OH2 3242   3.848   2.978   2.159
 1079TIP3    H1 3243   3.893   3.036   2.097
 1079TIP3    H2 3244   3.850   3.026   2.242
 1080TIP3   OH2 3245   6.372   0.601   1.483
 1080TIP3    H1 3246   6.277   0.607   1.468
 1080TIP3    H2 3247   6.389   0.507   1.490
 1081TIP3   OH2 3248   4.753   4.215   3.748
 1081TIP3    H1 3249   4.684   4.244   3.807
 1081TIP3    H2 3250   4.792   4.296   3.715
 1082TIP3   OH2 3251   4.359   2.476   0.661
 1082TIP3    H1 3252   4.291   2.523   0.613
 1082TIP3    H2 3253   4.363   2.519   0.746
 1083TIP3   OH2 3254   3.190   5.274   4.335
 1083TIP3    H1 3255   3.134   5.289   4.411
 1083TIP3    H2 3256   3.129   5.257   4.263
 1084TIP3   OH2 3257   1.720   3.970   0.178
 1084TIP3    H1 3258   1.689   4.036   0.117
 1084TIP3    H2 3259   1.775   4.018   0.240
 1085TIP3   OH2 3260   4.399   3.135   3.641
 1085TIP3    H1 3261   4.441   3.205   3.591
 1085TIP3    H2 3262   4.374   3.070   3.575
 1086TIP3   OH2 3263   0.905   4.057   3.089
 1086TIP3    H1 3264   0.817   4.072   3.055
 1086TIP3    H2 3265   0.892   4.028   3.179
 1087TIP3   OH2 3266   1.454   3.857   3.669
 1087TIP3    H1 3267   1.402   3.790   3.625
 1087TIP3    H2 3268   1.422   3.858   3.759
 1088TIP3   OH2 3269   2.176   1.024   1.348
 1088TIP3    H1 3270   2.203   0.941   1.387
 1088TIP3    H2 3271   2.237   1.089   1.383
 1089TIP3   OH2 3272   4.485   2.342   1.281
 1089TIP3    H1 3273   4.447   2.389   1.355
 1089TIP3    H2 3274   4.411   2.301   1.237
 1090TIP3   OH2 3275   2.538   5.128   1.117
 1090TIP3    H1 3276   2.447   5.135   1.088
 1090TIP3    H2 3277   2.543   5.043   1.160
 1091TIP3   OH2 3278   0.880   1.942   2.326
 1091TIP3    H1 3279   0.908   1.946   2.234
 1091TIP3    H2 3280   0.951   1.985   2.374
 1092TIP3   OH2 3281   6.075   2.238   2.405
 1092TIP3    H1 3282   6.158   2.285   2.389
 1092TIP3    H2 3283   6.098   2.145   2.395
 1093TIP3   OH2 3284   6.091   5.132   0.653
 1093TIP3    H1 3285   5.998   5.111   0.660
 1093TIP3    H2 3286   6.098   5.179   0.570
 1094TIP3   OH2 3287   5.343   3.008   0.137
 1094TIP3    H1 3288   5.374   2.924   0.103
 1094TIP3    H2 3289   5.250   2.995   0.154
 1095TIP3   OH2 3290   0.882   4.670   4.628
 1095TIP3    H1 3291   0.908   4.584   4.597
 1095TIP3    H2 3292   0.956   4.727   4.606
 1096TIP3   OH2 3293   3.385   1.134   4.374
 1096TIP3    H1 3294   3.294   1.111   4.396
 1096TIP3    H2 3295   3.376   1.196   4.301
 1097TIP3   OH2 3296   0.219   4.718   4.656
 1097TIP3    H1 3297   0.185   4.629   4.669
 1097TIP3    H2 3298   0.300   4.720   4.707
 1098TIP3   OH2 3299   3.117   1.119   0.570
 1098TIP3    H1 3300   3.136   1.034   0.610
 1098TIP3    H2 3301   3.031   1.143   0.607
 1099TIP3   OH2 3302   4.865   4.983   3.735
 1099TIP3    H1 3303   4.859   4.895   3.773
 1099TIP3    H2 3304   4.776   5.002   3.704
 1100TIP3   OH2 3305   4.661   0.521   4.695
 1100TIP3    H1 3306   4.625   0.552   4.612
 1100TIP3    H2 3307   4.617   0.438   4.711
 1101TIP3   OH2 3308   1.581   4.615   2.789
 1101TIP3    H1 3309   1.609   4.666   2.865
 1101TIP3    H2 3310   1.498   4.575   2.817
 1102TIP3   OH2 3311   6.170   0.802   1.619
 1102TIP3    H1 3312   6.209   0.835   1.700
 1102TIP3    H2 3313   6.130   0.719   1.643
 1103TIP3   OH2 3314   1.552   2.664   4.157
 1103TIP3    H1 3315   1.632   2.712   4.178
 1103TIP3    H2 3316   1.497   2.727   4.111
 1104TIP3   OH2 3317   1.012   1.860   4.148
 1104TIP3    H1 3318   1.027   1.795   4.079
 1104TIP3    H2 3319   1.098   1.869   4.190
 1105TIP3   OH2 3320   1.682   4.717   0.611
 1105TIP3    H1 3321   1.658   4.800   0.653
 1105TIP3    H2 3322   1.718   4.663   0.681
 1106TIP3   OH2 3323   2.776   3.562   3.128
 1106TIP3    H1 3324   2.695   3.522   3.097
 1106TIP3    H2 3325   2.767   3.655   3.105
 1107TIP3   OH2 3326   0.081   1.174   4.697
 1107TIP3    H1 3327   0.141   1.203   4.628
 1107TIP3    H2 3328  -0.005   1.178   4.656
 1108TIP3   OH2 3329   0.948   2.696   1.713
 1108TIP3    H1 3330   1.019   2.662   1.658
 1108TIP3    H2 3331   0.868   2.661   1.673
 1109TIP3   OH2 3332   3.399   1.811   4.003
 1109TIP3    H1 3333   3.449   1.730   3.992
 1109TIP3    H2 3334   3.437   1.853   4.081
 1110TIP3   OH2 3335   2.376   1.507   1.537
 1110TIP3    H1 3336   2.315   1.516   1.610
 1110TIP3    H2 3337   2.328   1.542   1.462
 1111TIP3   OH2 3338   0.850   3.677   4.745
 1111TIP3    H1 3339   0.904   3.726   4.683
 1111TIP3    H2 3340   0.813   3.744   4.802
 1112TIP3   OH2 3341   3.729   3.697   3.613
 1112TIP3    H1 3342   3.718   3.671   3.522
 1112TIP3    H2 3343   3.823   3.703   3.625
 1113TIP3   OH2 3344   5.166   3.703   3.566
 1113TIP3    H1 3345   5.245   3.658   3.536
 1113TIP3    H2 3346   5.168   3.787   3.521
 1114TIP3   OH2 3347   3.580   2.235   0.632
 1114TIP3    H1 3348   3.614   2.193   0.553
 1114TIP3    H2 3349   3.647   2.300   0.655
 1115TIP3   OH2 3350   4.349   5.818   1.593
 1115TIP3    H1 3351   4.419   5.876   1.562
 1115TIP3    H2 3352   4.376   5.731   1.564
 1116TIP3   OH2 3353   6.240   1.600   1.830
 1116TIP3    H1 3354   6.214   1.564   1.915
 1116TIP3    H2 3355   6.162   1.592   1.775
 1117TIP3   OH2 3356   1.952   5.131   4.577
 1117TIP3    H1 3357   2.000   5.164   4.501
 1117TIP3    H2 3358   2.002   5.054   4.605
 1118TIP3   OH2 3359   2.522   4.899   1.278
 1118TIP3    H1 3360   2.571   4.817   1.276
 1118TIP3    H2 3361   2.563   4.949   1.349
 1119TIP3   OH2 3362   3.784   1.004   2.949
 1119TIP3    H1 3363   3.857   0.949   2.978
 1119TIP3    H2 3364   3.806   1.091   2.982
 1120TIP3   OH2 3365   3.705   4.082   0.344
 1120TIP3    H1 3366   3.688   4.150   0.410
 1120TIP3    H2 3367   3.630   4.023   0.351
 1121TIP3   OH2 3368   2.076   5.710   4.729
 1121TIP3    H1 3369   2.135   5.681   4.799
 1121TIP3    H2 3370   2.048   5.629   4.687
 1122TIP3   OH2 3371   2.795   1.961   1.535
 1122TIP3    H1 3372   2.841   1.911   1.467
 1122TIP3    H2 3373   2.703   1.944   1.520
 1123TIP3   OH2 3374   0.791   2.613   3.446
 1123TIP3    H1 3375   0.730   2.547   3.414
 1123TIP3    H2 3376   0.830   2.650   3.366
 1124TIP3   OH2 3377   4.406   4.163   0.022
 1124TIP3    H1 3378   4.416   4.173   0.117
 1124TIP3    H2 3379   4.452   4.238  -0.014
 1125TIP3   OH2 3380   5.417   0.408   2.339
 1125TIP3    H1 3381   5.493   0.429   2.285
 1125TIP3    H2 3382   5.342   0.434   2.286
 1126TIP3   OH2 3383   5.738   2.210   1.566
 1126TIP3    H1 3384   5.809   2.191   1.627
 1126TIP3    H2 3385   5.716   2.302   1.583
 1127TIP3   OH2 3386   1.238   3.363   3.902
 1127TIP3    H1 3387   1.199   3.326   3.981
 1127TIP3    H2 3388   1.304   3.299   3.876
 1128TIP3   OH2 3389   0.641   1.087   3.846
 1128TIP3    H1 3390   0.708   1.062   3.910
 1128TIP3    H2 3391   0.678   1.063   3.761
 1129TIP3   OH2 3392   4.561   2.740   1.200
 1129TIP3    H1 3393   4.504   2.765   1.272
 1129TIP3    H2 3394   4.553   2.812   1.137
 1130TIP3   OH2 3395   2.692   0.400   3.236
 1130TIP3    H1 3396   2.768   0.344   3.254
 1130TIP3    H2 3397   2.697   0.470   3.301
 1131TIP3   OH2 3398   0.815   3.343   2.693
 1131TIP3    H1 3399   0.899   3.357   2.736
 1131TIP3    H2 3400   0.828   3.377   2.604
 1132TIP3   OH2 3401   1.368   5.581   0.152
 1132TIP3    H1 3402   1.337   5.646   0.214
 1132TIP3    H2 3403   1.463   5.584   0.159
 1133TIP3   OH2 3404   2.050   5.142   3.373
 1133TIP3    H1 3405   2.027   5.114   3.462
 1133TIP3    H2 3406   2.082   5.232   3.383
 1134TIP3   OH2 3407   0.405   5.526   3.836
 1134TIP3    H1 3408   0.380   5.600   3.891
 1134TIP3    H2 3409   0.484   5.556   3.791
 1135TIP3   OH2 3410   5.551   0.961   0.287
 1135TIP3    H1 3411   5.478   0.942   0.345
 1135TIP3    H2 3412   5.597   0.877   0.278
 1136TIP3   OH2 3413   5.385   0.025   3.287
 1136TIP3    H1 3414   5.421   0.111   3.311
 1136TIP3    H2 3415   5.357  -0.012   3.371
 1137TIP3   OH2 3416   4.075   3.915   0.443
 1137TIP3    H1 3417   3.999   3.870   0.408
 1137TIP3    H2 3418   4.117   3.955   0.367
 1138TIP3   OH2 3419   3.766   1.580   1.361
 1138TIP3    H1 3420   3.720   1.628   1.292
 1138TIP3    H2 3421   3.762   1.638   1.437
 1139TIP3   OH2 3422   2.526   5.335   2.568
 1139TIP3    H1 3423   2.511   5.410   2.510
 1139TIP3    H2 3424   2.482   5.262   2.526
 1140TIP3   OH2 3425   4.257   0.672   4.430
 1140TIP3    H1 3426   4.211   0.669   4.514
 1140TIP3    H2 3427   4.231   0.756   4.392
 1141TIP3   OH2 3428   0.611   4.251   0.336
 1141TIP3    H1 3429   0.576   4.219   0.253
 1141TIP3    H2 3430   0.565   4.200   0.403
 1142TIP3   OH2 3431   4.312   0.656   1.843
 1142TIP3    H1 3432   4.271   0.742   1.833
 1142TIP3    H2 3433   4.250   0.596   1.802
 1143TIP3   OH2 3434   4.595   2.630   4.953
 1143TIP3    H1 3435   4.611   2.698   4.888
 1143TIP3    H2 3436   4.582   2.678   5.035
 1144TIP3   OH2 3437   1.574   2.997   3.702
 1144TIP3    H1 3438   1.665   3.012   3.729
 1144TIP3    H2 3439   1.578   2.993   3.606
 1145TIP3   OH2 3440   0.143   0.861   3.184
 1145TIP3    H1 3441   0.121   0.931   3.122
 1145TIP3    H2 3442   0.218   0.894   3.232
 1146TIP3   OH2 3443   4.966   0.187   5.016
 1146TIP3    H1 3444   4.886   0.154   4.977
 1146TIP3    H2 3445   4.978   0.274   4.977
 1147TIP3   OH2 3446   5.737   1.582   4.762
 1147TIP3    H1 3447   5.702   1.665   4.795
 1147TIP3    H2 3448   5.743   1.595   4.667
 1148TIP3   OH2 3449   1.760   2.176   2.491
 1148TIP3    H1 3450   1.698   2.204   2.424
 1148TIP3    H2 3451   1.726   2.212   2.572
 1149TIP3   OH2 3452   3.606   1.775   4.658
 1149TIP3    H1 3453   3.570   1.849   4.609
 1149TIP3    H2 3454   3.546   1.764   4.732
 1150TIP3   OH2 3455   5.913   3.653   4.567
 1150TIP3    H1 3456   5.971   3.682   4.497
 1150TIP3    H2 3457   5.872   3.733   4.600
 1151TIP3   OH2 3458   3.462   2.186   2.972
 1151TIP3    H1 3459   3.411   2.123   2.922
 1151TIP3    H2 3460   3.412   2.200   3.052
 1152TIP3   OH2 3461   6.245   3.401   0.411
 1152TIP3    H1 3462   6.271   3.478   0.360
 1152TIP3    H2 3463   6.240   3.433   0.501
 1153TIP3   OH2 3464   1.025   0.120   2.649
 1153TIP3    H1 3465   1.110   0.076   2.643
 1153TIP3    H2 3466   1.008   0.152   2.560
 1154TIP3   OH2 3467   2.626   2.212   1.427
 1154TIP3    H1 3468   2.717   2.196   1.401
 1154TIP3    H2 3469   2.612   2.152   1.501
 1155TIP3   OH2 3470   5.268   3.063   3.917
 1155TIP3    H1 3471   5.283   2.981   3.964
 1155TIP3    H2 3472   5.249   3.127   3.985
 1156TIP3   OH2 3473   0.881   2.867   4.563
 1156TIP3    H1 3474   0.946   2.883   4.632
 1156TIP3    H2 3475   0.912   2.920   4.489
 1157TIP3   OH2 3476   5.086   3.330   4.132
 1157TIP3    H1 3477   5.043   3.394   4.189
 1157TIP3    H2 3478   5.081   3.248   4.181
 1158TIP3   OH2 3479   2.038   2.787   1.341
 1158TIP3    H1 3480   2.038   2.750   1.252
 1158TIP3    H2 3481   1.955   2.760   1.378
 1159TIP3   OH2 3482   0.672   3.995   2.897
 1159TIP3    H1 3483   0.709   3.921   2.848
 1159TIP3    H2 3484   0.593   4.019   2.848
 1160TIP3   OH2 3485   5.837   3.451   3.418
 1160TIP3    H1 3486   5.897   3.377   3.413
 1160TIP3    H2 3487   5.779   3.440   3.343
 1161TIP3   OH2 3488   6.106   1.613   3.779
 1161TIP3    H1 3489   6.171   1.574   3.721
 1161TIP3    H2 3490   6.110   1.561   3.859
 1162TIP3   OH2 3491   1.585   3.497   0.961
 1162TIP3    H1 3492   1.543   3.527   1.042
 1162TIP3    H2 3493   1.531   3.423   0.932
 1163TIP3   OH2 3494   2.958   1.336   2.773
 1163TIP3    H1 3495   2.889   1.280   2.738
 1163TIP3    H2 3496   3.036   1.310   2.724
 1164TIP3   OH2 3497   0.898   2.303   1.873
 1164TIP3    H1 3498   0.880   2.288   1.780
 1164TIP3    H2 3499   0.854   2.229   1.917
 1165TIP3   OH2 3500   0.673   1.287   1.446
 1165TIP3    H1 3501   0.734   1.216   1.466
 1165TIP3    H2 3502   0.611   1.287   1.518
 1166TIP3   OH2 3503   1.035   1.529   2.637
 1166TIP3    H1 3504   0.948   1.505   2.669
 1166TIP3    H2 3505   1.095   1.497   2.705
 1167TIP3   OH2 3506   3.392   0.125   4.469
 1167TIP3    H1 3507   3.400   0.032   4.447
 1167TIP3    H2 3508   3.327   0.127   4.539
 1168TIP3   OH2 3509   1.924   0.836   1.172
 1168TIP3    H1 3510   1.935   0.930   1.186
 1168TIP3    H2 3511   1.902   0.802   1.259
 1169TIP3   OH2 3512   2.626   1.319   2.851
 1169TIP3    H1 3513   2.674   1.401   2.840
 1169TIP3    H2 3514   2.688   1.251   2.826
 1170TIP3   OH2 3515   5.289   0.121   0.965
 1170TIP3    H1 3516   5.329   0.072   1.037
 1170TIP3    H2 3517   5.249   0.054   0.909
 1171TIP3   OH2 3518   2.684   3.438   4.784
 1171TIP3    H1 3519   2.702   3.413   4.875
 1171TIP3    H2 3520   2.746   3.387   4.732
 1172TIP3   OH2 3521   3.268   4.541   0.324
 1172TIP3    H1 3522   3.347   4.529   0.271
 1172TIP3    H2 3523   3.197   4.509   0.269
 1173TIP3   OH2 3524   2.086   2.360   1.041
 1173TIP3    H1 3525   2.020   2.296   1.068
 1173TIP3    H2 3526   2.038   2.423   0.989
 1174TIP3   OH2 3527   0.449   4.474   1.351
 1174TIP3    H1 3528   0.535   4.447   1.320
 1174TIP3    H2 3529   0.393   4.472   1.273
 1175TIP3   OH2 3530   4.733   3.768   1.791
 1175TIP3    H1 3531   4.825   3.743   1.799
 1175TIP3    H2 3532   4.733   3.862   1.810
 1176TIP3   OH2 3533   2.165   0.122   3.555
 1176TIP3    H1 3534   2.100   0.074   3.607
 1176TIP3    H2 3535   2.143   0.214   3.568
 1177TIP3   OH2 3536   3.809   2.482   4.550
 1177TIP3    H1 3537   3.902   2.476   4.568
 1177TIP3    H2 3538   3.798   2.442   4.464
 1178TIP3   OH2 3539   1.580   2.824   3.349
 1178TIP3    H1 3540   1.637   2.747   3.343
 1178TIP3    H2 3541   1.637   2.894   3.378
 1179TIP3   OH2 3542   1.210   4.181   4.882
 1179TIP3    H1 3543   1.164   4.116   4.829
 1179TIP3    H2 3544   1.233   4.250   4.820
 1180TIP3   OH2 3545   2.226   2.574   4.820
 1180TIP3    H1 3546   2.179   2.519   4.882
 1180TIP3    H2 3547   2.314   2.583   4.857
 1181TIP3   OH2 3548   3.885   0.376   5.091
 1181TIP3    H1 3549   3.835   0.426   5.155
 1181TIP3    H2 3550   3.976   0.405   5.104
 1182TIP3   OH2 3551   5.590   0.717   3.660
 1182TIP3    H1 3552   5.576   0.760   3.744
 1182TIP3    H2 3553   5.557   0.628   3.673
 1183TIP3   OH2 3554   2.850   1.171   1.331
 1183TIP3    H1 3555   2.872   1.248   1.278
 1183TIP3    H2 3556   2.925   1.112   1.318
 1184TIP3   OH2 3557   0.805   2.321   3.461
 1184TIP3    H1 3558   0.805   2.341   3.554
 1184TIP3    H2 3559   0.895   2.297   3.441
 1185TIP3   OH2 3560   6.248   2.979   1.993
 1185TIP3    H1 3561   6.231   3.073   2.001
 1185TIP3    H2 3562   6.334   2.966   2.034
 1186TIP3   OH2 3563   2.006   4.387   3.248
 1186TIP3    H1 3564   2.008   4.292   3.245
 1186TIP3    H2 3565   2.070   4.415   3.183
 1187TIP3   OH2 3566   3.412   5.158   1.817
 1187TIP3    H1 3567   3.382   5.159   1.908
 1187TIP3    H2 3568   3.376   5.077   1.781
 1188TIP3   OH2 3569   3.984   0.736   2.418
 1188TIP3    H1 3570   3.952   0.647   2.409
 1188TIP3    H2 3571   3.905   0.789   2.433
 1189TIP3   OH2 3572   3.730   2.608   5.035
 1189TIP3    H1 3573   3.774   2.523   5.031
 1189TIP3    H2 3574   3.648   2.591   5.081
 1190TIP3   OH2 3575   1.105   0.539   0.636
 1190TIP3    H1 3576   1.040   0.585   0.689
 1190TIP3    H2 3577   1.063   0.526   0.551
 1191TIP3   OH2 3578   4.083   2.682   2.780
 1191TIP3    H1 3579   4.153   2.617   2.790
 1191TIP3    H2 3580   4.003   2.635   2.800
 1192TIP3   OH2 3581   2.213   5.257   4.713
 1192TIP3    H1 3582   2.171   5.196   4.774
 1192TIP3    H2 3583   2.267   5.202   4.657
 1193TIP3   OH2 3584   1.717   4.387   2.668
 1193TIP3    H1 3585   1.740   4.374   2.576
 1193TIP3    H2 3586   1.689   4.478   2.673
 1194TIP3   OH2 3587   5.026   5.056   5.051
 1194TIP3    H1 3588   5.099   5.112   5.024
 1194TIP3    H2 3589   5.068   4.978   5.087
 1195TIP3   OH2 3590   6.008   4.357   3.772
 1195TIP3    H1 3591   6.023   4.284   3.832
 1195TIP3    H2 3592   5.914   4.354   3.754
 1196TIP3   OH2 3593   5.360   5.351   3.936
 1196TIP3    H1 3594   5.449   5.323   3.914
 1196TIP3    H2 3595   5.324   5.279   3.987
 1197TIP3   OH2 3596   4.798   2.157   4.524
 1197TIP3    H1 3597   4.790   2.064   4.505
 1197TIP3    H2 3598   4.847   2.160   4.606
 1198TIP3   OH2 3599   1.572   2.891   0.734
 1198TIP3    H1 3600   1.623   2.839   0.672
 1198TIP3    H2 3601   1.637   2.942   0.782
 1199TIP3   OH2 3602   6.171   1.013   2.564
 1199TIP3    H1 3603   6.234   1.035   2.495
 1199TIP3    H2 3604   6.187   0.920   2.581
 1200TIP3   OH2 3605   3.487   4.451   0.996
 1200TIP3    H1 3606   3.460   4.445   1.088
 1200TIP3    H2 3607   3.404   4.457   0.948
 1201TIP3   OH2 3608   2.921   3.528   1.365
 1201TIP3    H1 3609   2.879   3.490   1.288
 1201TIP3    H2 3610   2.848   3.547   1.425
 1202TIP3   OH2 3611   3.748   0.848   2.491
 1202TIP3    H1 3612   3.672   0.903   2.471
 1202TIP3    H2 3613   3.725   0.803   2.572
 1203TIP3   OH2 3614   4.949   2.105   2.524
 1203TIP3    H1 3615   5.006   2.033   2.496
 1203TIP3    H2 3616   4.862   2.079   2.494
 1204TIP3   OH2 3617   4.456   4.960   1.821
 1204TIP3    H1 3618   4.458   4.973   1.916
 1204TIP3    H2 3619   4.373   4.916   1.805
 1205TIP3   OH2 3620   3.609   1.332   0.195
 1205TIP3    H1 3621   3.542   1.396   0.219
 1205TIP3    H2 3622   3.652   1.310   0.278
 1206TIP3   OH2 3623   3.347   2.448   2.241
 1206TIP3    H1 3624   3.425   2.489   2.202
 1206TIP3    H2 3625   3.280   2.515   2.237
 1207TIP3   OH2 3626   2.776   5.009   2.687
 1207TIP3    H1 3627   2.686   4.980   2.701
 1207TIP3    H2 3628   2.776   5.100   2.717
 1208TIP3   OH2 3629   4.087   2.941   4.360
 1208TIP3    H1 3630   4.089   2.866   4.301
 1208TIP3    H2 3631   4.061   3.014   4.305
 1209TIP3   OH2 3632   2.170   0.597   1.668
 1209TIP3    H1 3633   2.226   0.529   1.630
 1209TIP3    H2 3634   2.230   0.670   1.685
 1210TIP3   OH2 3635   0.259   5.475   4.535
 1210TIP3    H1 3636   0.260   5.460   4.440
 1210TIP3    H2 3637   0.308   5.401   4.572
 1211TIP3   OH2 3638   4.720   4.551   3.450
 1211TIP3    H1 3639   4.640   4.556   3.397
 1211TIP3    H2 3640   4.764   4.634   3.435
 1212TIP3   OH2 3641   1.257   0.828   0.480
 1212TIP3    H1 3642   1.166   0.800   0.486
 1212TIP3    H2 3643   1.252   0.920   0.453
 1213TIP3   OH2 3644   5.466   3.112   4.255
 1213TIP3    H1 3645   5.396   3.053   4.284
 1213TIP3    H2 3646   5.497   3.073   4.173
 1214TIP3   OH2 3647   6.266   5.092   2.815
 1214TIP3    H1 3648   6.249   5.186   2.815
 1214TIP3    H2 3649   6.205   5.056   2.879
 1215TIP3   OH2 3650   2.952   2.659   2.074
 1215TIP3    H1 3651   2.999   2.735   2.039
 1215TIP3    H2 3652   2.995   2.584   2.032
 1216TIP3   OH2 3653   3.350   0.914   0.966
 1216TIP3    H1 3654   3.314   0.838   1.012
 1216TIP3    H2 3655   3.274   0.961   0.932
 1217TIP3   OH2 3656   0.810   3.216   3.303
 1217TIP3    H1 3657   0.746   3.278   3.269
 1217TIP3    H2 3658   0.758   3.139   3.327
 1218TIP3   OH2 3659   4.994   1.223   2.495
 1218TIP3    H1 3660   4.899   1.219   2.490
 1218TIP3    H2 3661   5.015   1.184   2.580
 1219TIP3   OH2 3662   1.914   1.664   1.412
 1219TIP3    H1 3663   1.938   1.749   1.448
 1219TIP3    H2 3664   1.818   1.664   1.412
 1220TIP3   OH2 3665   0.025   2.237   4.488
 1220TIP3    H1 3666   0.071   2.178   4.428
 1220TIP3    H2 3667  -0.041   2.281   4.434
 1221TIP3   OH2 3668   0.827   5.511   4.356
 1221TIP3    H1 3669   0.898   5.447   4.352
 1221TIP3    H2 3670   0.755   5.469   4.309
 1222TIP3   OH2 3671   3.838   2.712   2.114
 1222TIP3    H1 3672   3.848   2.808   2.117
 1222TIP3    H2 3673   3.901   2.680   2.179
 1223TIP3   OH2 3674   2.700   1.617   4.455
 1223TIP3    H1 3675   2.644   1.538   4.454
 1223TIP3    H2 3676   2.677   1.663   4.374
 1224TIP3   OH2 3677   1.344   5.163   2.192
 1224TIP3    H1 3678   1.370   5.254   2.208
 1224TIP3    H2 3679   1.420   5.112   2.220
 1225TIP3   OH2 3680   4.830   5.844   2.199
 1225TIP3    H1 3681   4.742   5.825   2.231
 1225TIP3    H2 3682   4.884   5.848   2.278
 1226TIP3   OH2 3683   4.691   3.495   4.171
 1226TIP3    H1 3684   4.645   3.578   4.166
 1226TIP3    H2 3685   4.621   3.429   4.165
 1227TIP3   OH2 3686   3.770   5.220   2.847
 1227TIP3    H1 3687   3.843   5.210   2.907
 1227TIP3    H2 3688   3.810   5.229   2.761
 1228TIP3   OH2 3689   2.621   3.178   0.624
 1228TIP3    H1 3690   2.680   3.126   0.679
 1228TIP3    H2 3691   2.676   3.206   0.550
 1229TIP3   OH2 3692   3.778   5.314   3.532
 1229TIP3    H1 3693   3.864   5.322   3.573
 1229TIP3    H2 3694   3.721   5.368   3.586
 1230TIP3   OH2 3695   0.838   1.724   3.883
 1230TIP3    H1 3696   0.781   1.648   3.890
 1230TIP3    H2 3697   0.797   1.778   3.815
 1231TIP3   OH2 3698   0.688   0.331   3.618
 1231TIP3    H1 3699   0.615   0.296   3.568
 1231TIP3    H2 3700   0.735   0.254   3.650
 1232TIP3   OH2 3701   1.337   2.854   2.085
 1232TIP3    H1 3702   1.392   2.785   2.047
 1232TIP3    H2 3703   1.397   2.927   2.099
 1233TIP3   OH2 3704   2.823   1.041   0.649
 1233TIP3    H1 3705   2.829   0.946   0.658
 1233TIP3    H2 3706   2.847   1.075   0.735
 1234TIP3   OH2 3707   6.189   0.961   3.222
 1234TIP3    H1 3708   6.144   0.896   3.168
 1234TIP3    H2 3709   6.264   0.988   3.168
 1235TIP3   OH2 3710   1.724   5.661   4.654
 1235TIP3    H1 3711   1.671   5.714   4.594
 1235TIP3    H2 3712   1.700   5.693   4.741
 1236TIP3   OH2 3713   2.941   2.555   4.032
 1236TIP3    H1 3714   2.979   2.500   3.964
 1236TIP3    H2 3715   2.998   2.632   4.035
 1237TIP3   OH2 3716   1.988   3.696   1.530
 1237TIP3    H1 3717   1.970   3.755   1.604
 1237TIP3    H2 3718   2.083   3.697   1.521
 1238TIP3   OH2 3719   3.932   4.585   4.338
 1238TIP3    H1 3720   3.938   4.547   4.250
 1238TIP3    H2 3721   3.894   4.516   4.391
 1239TIP3   OH2 3722   2.419   1.627   2.165
 1239TIP3    H1 3723   2.481   1.670   2.106
 1239TIP3    H2 3724   2.423   1.534   2.141
 1240TIP3   OH2 3725   2.025   0.059   4.247
 1240TIP3    H1 3726   2.098   0.120   4.239
 1240TIP3    H2 3727   2.014   0.048   4.341
 1241TIP3   OH2 3728   2.405   0.180   2.533
 1241TIP3    H1 3729   2.396   0.171   2.628
 1241TIP3    H2 3730   2.380   0.094   2.498
 1242TIP3   OH2 3731   4.392   1.558   2.971
 1242TIP3    H1 3732   4.403   1.492   2.903
 1242TIP3    H2 3733   4.370   1.638   2.923
 1243TIP3   OH2 3734   6.220   2.890   1.570
 1243TIP3    H1 3735   6.174   2.817   1.610
 1243TIP3    H2 3736   6.198   2.965   1.626
 1244TIP3   OH2 3737   1.654   5.337   2.165
 1244TIP3    H1 3738   1.666   5.250   2.127
 1244TIP3    H2 3739   1.603   5.321   2.245
 1245TIP3   OH2 3740   3.096   5.408   0.043
 1245TIP3    H1 3741   3.175   5.459   0.026
 1245TIP3    H2 3742   3.122   5.344   0.110
 1246TIP3   OH2 3743   0.742   0.583   4.726
 1246TIP3    H1 3744   0.755   0.597   4.632
 1246TIP3    H2 3745   0.766   0.491   4.739
 1247TIP3   OH2 3746   2.305   2.079   4.091
 1247TIP3    H1 3747   2.308   2.017   4.165
 1247TIP3    H2 3748   2.287   2.024   4.015
 1248TIP3   OH2 3749   2.010   2.985   5.200
 1248TIP3    H1 3750   1.968   2.976   5.115
 1248TIP3    H2 3751   1.997   2.900   5.243
 1249TIP3   OH2 3752   5.058   1.155   3.820
 1249TIP3    H1 3753   5.120   1.084   3.835
 1249TIP3    H2 3754   4.978   1.111   3.791
 1250TIP3   OH2 3755   3.181   3.345   4.752
 1250TIP3    H1 3756   3.210   3.428   4.791
 1250TIP3    H2 3757   3.256   3.287   4.760
 1251TIP3   OH2 3758   0.945   0.463   0.376
 1251TIP3    H1 3759   0.867   0.490   0.425
 1251TIP3    H2 3760   0.940   0.512   0.294
 1252TIP3   OH2 3761   6.069   1.718   0.948
 1252TIP3    H1 3762   6.022   1.637   0.966
 1252TIP3    H2 3763   6.152   1.709   0.996
 1253TIP3   OH2 3764   0.483   5.852   2.402
 1253TIP3    H1 3765   0.406   5.881   2.451
 1253TIP3    H2 3766   0.449   5.828   2.316
 1254TIP3   OH2 3767   0.681   0.687   1.363
 1254TIP3    H1 3768   0.618   0.658   1.429
 1254TIP3    H2 3769   0.763   0.643   1.388
 1255TIP3   OH2 3770   5.083   1.465   1.925
 1255TIP3    H1 3771   5.052   1.398   1.986
 1255TIP3    H2 3772   5.047   1.439   1.840
 1256TIP3   OH2 3773   0.618   4.826   1.323
 1256TIP3    H1 3774   0.616   4.744   1.371
 1256TIP3    H2 3775   0.583   4.891   1.384
 1257TIP3   OH2 3776   5.977   5.594   4.888
 1257TIP3    H1 3777   5.980   5.539   4.810
 1257TIP3    H2 3778   6.068   5.599   4.918
 1258TIP3   OH2 3779   1.533   2.136   4.355
 1258TIP3    H1 3780   1.601   2.071   4.370
 1258TIP3    H2 3781   1.549   2.168   4.266
 1259TIP3   OH2 3782   1.457   5.113   4.153
 1259TIP3    H1 3783   1.447   5.132   4.060
 1259TIP3    H2 3784   1.532   5.166   4.181
 1260TIP3   OH2 3785   0.726   3.718   0.325
 1260TIP3    H1 3786   0.806   3.691   0.280
 1260TIP3    H2 3787   0.706   3.645   0.383
 1261TIP3   OH2 3788   1.285   2.149   4.869
 1261TIP3    H1 3789   1.250   2.234   4.893
 1261TIP3    H2 3790   1.318   2.160   4.779
 1262TIP3   OH2 3791   4.523   0.580   2.809
 1262TIP3    H1 3792   4.550   0.518   2.741
 1262TIP3    H2 3793   4.496   0.658   2.762
 1263TIP3   OH2 3794   3.534   5.148   4.200
 1263TIP3    H1 3795   3.481   5.080   4.158
 1263TIP3    H2 3796   3.558   5.111   4.284
 1264TIP3   OH2 3797   6.174   2.440   1.177
 1264TIP3    H1 3798   6.111   2.484   1.235
 1264TIP3    H2 3799   6.139   2.352   1.165
 1265TIP3   OH2 3800   3.134   3.196   3.342
 1265TIP3    H1 3801   3.190   3.168   3.270
 1265TIP3    H2 3802   3.054   3.227   3.299
 1266TIP3   OH2 3803   5.818   4.729   1.558
 1266TIP3    H1 3804   5.776   4.809   1.527
 1266TIP3    H2 3805   5.828   4.742   1.652
 1267TIP3   OH2 3806   5.875   4.214   5.179
 1267TIP3    H1 3807   5.839   4.235   5.265
 1267TIP3    H2 3808   5.950   4.157   5.198
 1268TIP3   OH2 3809   0.158   2.224   4.055
 1268TIP3    H1 3810   0.233   2.282   4.043
 1268TIP3    H2 3811   0.082   2.282   4.055
 1269TIP3   OH2 3812   5.335   2.199   1.203
 1269TIP3    H1 3813   5.359   2.247   1.282
 1269TIP3    H2 3814   5.379   2.246   1.132
 1270TIP3   OH2 3815   1.088   5.120   5.199
 1270TIP3    H1 3816   1.109   5.062   5.126
 1270TIP3    H2 3817   1.136   5.201   5.181
 1271TIP3   OH2 3818   4.079   0.256   2.371
 1271TIP3    H1 3819   4.089   0.167   2.339
 1271TIP3    H2 3820   4.059   0.247   2.464
 1272TIP3   OH2 3821   0.718   5.605   1.921
 1272TIP3    H1 3822   0.739   5.699   1.922
 1272TIP3    H2 3823   0.791   5.564   1.967
 1273TIP3   OH2 3824   3.176   1.477   4.487
 1273TIP3    H1 3825   3.198   1.565   4.517
 1273TIP3    H2 3826   3.114   1.491   4.416
 1274TIP3   OH2 3827   2.550   4.408   1.205
 1274TIP3    H1 3828   2.485   4.354   1.250
 1274TIP3    H2 3829   2.617   4.347   1.177
 1275TIP3   OH2 3830   2.426   1.432   0.651
 1275TIP3    H1 3831   2.464   1.445   0.564
 1275TIP3    H2 3832   2.406   1.339   0.655
 1276TIP3   OH2 3833   2.958   2.236   0.381
 1276TIP3    H1 3834   2.962   2.316   0.433
 1276TIP3    H2 3835   2.907   2.260   0.303
 1277TIP3   OH2 3836   0.532   4.978   1.547
 1277TIP3    H1 3837   0.465   5.020   1.600
 1277TIP3    H2 3838   0.604   4.960   1.608
 1278TIP3   OH2 3839   3.093   1.546   0.981
 1278TIP3    H1 3840   3.006   1.537   1.020
 1278TIP3    H2 3841   3.090   1.489   0.904
 1279TIP3   OH2 3842   4.642   0.232   2.181
 1279TIP3    H1 3843   4.580   0.207   2.249
 1279TIP3    H2 3844   4.598   0.301   2.132
 1280TIP3   OH2 3845   3.197   4.337   4.866
 1280TIP3    H1 3846   3.198   4.411   4.926
 1280TIP3    H2 3847   3.260   4.275   4.903
 1281TIP3   OH2 3848   5.959   1.197   1.787
 1281TIP3    H1 3849   6.025   1.197   1.718
 1281TIP3    H2 3850   5.891   1.257   1.755
 1282TIP3   OH2 3851   0.762   1.128   4.346
 1282TIP3    H1 3852   0.764   1.053   4.287
 1282TIP3    H2 3853   0.818   1.102   4.420
 1283TIP3   OH2 3854   4.454   2.652   2.550
 1283TIP3    H1 3855   4.429   2.568   2.510
 1283TIP3    H2 3856   4.380   2.710   2.531
 1284TIP3   OH2 3857   1.897   0.596   0.645
 1284TIP3    H1 3858   1.991   0.593   0.667
 1284TIP3    H2 3859   1.893   0.566   0.555
 1285TIP3   OH2 3860   4.360   2.151   0.523
 1285TIP3    H1 3861   4.318   2.069   0.498
 1285TIP3    H2 3862   4.302   2.188   0.589
 1286TIP3   OH2 3863   1.105   3.174   4.948
 1286TIP3    H1 3864   1.145   3.089   4.932
 1286TIP3    H2 3865   1.074   3.170   5.038
 1287TIP3   OH2 3866   0.414   4.552   0.547
 1287TIP3    H1 3867   0.358   4.485   0.509
 1287TIP3    H2 3868   0.472   4.578   0.475
 1288TIP3   OH2 3869   5.032   1.255   2.106
 1288TIP3    H1 3870   5.077   1.267   2.190
 1288TIP3    H2 3871   5.074   1.178   2.068
 1289TIP3   OH2 3872   2.569   4.286   3.921
 1289TIP3    H1 3873   2.555   4.381   3.923
 1289TIP3    H2 3874   2.663   4.276   3.933
 1290TIP3   OH2 3875   2.775   2.724   1.340
 1290TIP3    H1 3876   2.747   2.699   1.252
 1290TIP3    H2 3877   2.826   2.649   1.372
 1291TIP3   OH2 3878   3.049   0.451   3.279
 1291TIP3    H1 3879   3.073   0.451   3.372
 1291TIP3    H2 3880   3.095   0.528   3.244
 1292TIP3   OH2 3881   1.959   0.189   1.537
 1292TIP3    H1 3882   1.965   0.277   1.576
 1292TIP3    H2 3883   2.048   0.171   1.506
 1293TIP3   OH2 3884   5.413   4.176   3.832
 1293TIP3    H1 3885   5.431   4.125   3.753
 1293TIP3    H2 3886   5.484   4.240   3.837
 1294TIP3   OH2 3887   4.123   5.447   4.062
 1294TIP3    H1 3888   4.128   5.520   4.124
 1294TIP3    H2 3889   4.050   5.469   4.004
 1295TIP3   OH2 3890   6.230   3.655   0.240
 1295TIP3    H1 3891   6.134   3.664   0.241
 1295TIP3    H2 3892   6.263   3.743   0.253
 1296TIP3   OH2 3893   1.354   3.843   2.386
 1296TIP3    H1 3894   1.384   3.934   2.380
 1296TIP3    H2 3895   1.435   3.792   2.395
 1297TIP3   OH2 3896   1.638   1.339   1.710
 1297TIP3    H1 3897   1.572   1.338   1.641
 1297TIP3    H2 3898   1.674   1.250   1.709
 1298TIP3   OH2 3899   5.268   1.013   1.615
 1298TIP3    H1 3900   5.291   0.925   1.642
 1298TIP3    H2 3901   5.226   1.052   1.692
 1299TIP3   OH2 3902   2.206   5.828   4.967
 1299TIP3    H1 3903   2.187   5.880   5.045
 1299TIP3    H2 3904   2.230   5.742   5.000
 1300TIP3   OH2 3905   1.696   1.265   2.670
 1300TIP3    H1 3906   1.673   1.352   2.638
 1300TIP3    H2 3907   1.779   1.278   2.717
 1301TIP3   OH2 3908  -0.010   3.088   1.188
 1301TIP3    H1 3909   0.021   3.178   1.201
 1301TIP3    H2 3910   0.041   3.036   1.249
 1302TIP3   OH2 3911   5.082   5.096   1.034
 1302TIP3    H1 3912   5.061   5.184   1.065
 1302TIP3    H2 3913   5.171   5.081   1.065
 1303TIP3   OH2 3914   3.666   5.566   2.335
 1303TIP3    H1 3915   3.679   5.648   2.287
 1303TIP3    H2 3916   3.752   5.525   2.337
 1304TIP3   OH2 3917   2.853   5.495   2.097
 1304TIP3    H1 3918   2.851   5.467   2.189
 1304TIP3    H2 3919   2.761   5.502   2.072
 1305TIP3   OH2 3920   0.572   1.480   1.632
 1305TIP3    H1 3921   0.600   1.499   1.722
 1305TIP3    H2 3922   0.625   1.538   1.577
 1306TIP3   OH2 3923   5.566   1.657   0.597
 1306TIP3    H1 3924   5.537   1.734   0.548
 1306TIP3    H2 3925   5.503   1.588   0.573
 1307TIP3   OH2 3926   0.802   3.046   2.797
 1307TIP3    H1 3927   0.742   3.116   2.773
 1307TIP3    H2 3928   0.837   3.073   2.882
 1308TIP3   OH2 3929   0.383  -0.035   1.480
 1308TIP3    H1 3930   0.430   0.039   1.442
 1308TIP3    H2 3931   0.426  -0.049   1.565
 1309TIP3   OH2 3932   1.233   4.415   4.704
 1309TIP3    H1 3933   1.212   4.457   4.788
 1309TIP3    H2 3934   1.266   4.487   4.650
 1310TIP3   OH2 3935   0.426   4.174   4.662
 1310TIP3    H1 3936   0.458   4.219   4.740
 1310TIP3    H2 3937   0.347   4.128   4.691
 1311TIP3   OH2 3938   5.690   0.268   1.930
 1311TIP3    H1 3939   5.655   0.327   1.997
 1311TIP3    H2 3940   5.640   0.288   1.851
 1312TIP3   OH2 3941   3.739   4.085   4.489
 1312TIP3    H1 3942   3.711   4.015   4.430
 1312TIP3    H2 3943   3.732   4.047   4.576
 1313TIP3   OH2 3944   5.576   0.882   0.863
 1313TIP3    H1 3945   5.550   0.806   0.915
 1313TIP3    H2 3946   5.571   0.852   0.772
 1314TIP3   OH2 3947   4.107   1.800   0.308
 1314TIP3    H1 3948   4.020   1.791   0.270
 1314TIP3    H2 3949   4.156   1.852   0.243
 1315TIP3   OH2 3950   5.618   4.647   2.882
 1315TIP3    H1 3951   5.700   4.630   2.928
 1315TIP3    H2 3952   5.561   4.683   2.950
 1316TIP3   OH2 3953   3.107   2.863   0.588
 1316TIP3    H1 3954   3.064   2.860   0.503
 1316TIP3    H2 3955   3.111   2.771   0.616
 1317TIP3   OH2 3956   5.166   4.356   1.658
 1317TIP3    H1 3957   5.192   4.272   1.619
 1317TIP3    H2 3958   5.200   4.422   1.598
 1318TIP3   OH2 3959   5.477   0.182   2.819
 1318TIP3    H1 3960   5.499   0.232   2.741
 1318TIP3    H2 3961   5.472   0.247   2.889
 1319TIP3   OH2 3962   6.155   2.686   3.188
 1319TIP3    H1 3963   6.136   2.594   3.169
 1319TIP3    H2 3964   6.158   2.690   3.284
 1320TIP3   OH2 3965   1.797   3.150   1.205
 1320TIP3    H1 3966   1.854   3.091   1.156
 1320TIP3    H2 3967   1.825   3.141   1.296
 1321TIP3   OH2 3968   0.253   1.680   1.058
 1321TIP3    H1 3969   0.342   1.710   1.038
 1321TIP3    H2 3970   0.246   1.690   1.153
 1322TIP3   OH2 3971   5.387   4.891   3.343
 1322TIP3    H1 3972   5.447   4.908   3.416
 1322TIP3    H2 3973   5.397   4.797   3.325
 1323TIP3   OH2 3974   3.708   1.915   1.421
 1323TIP3    H1 3975   3.669   2.000   1.399
 1323TIP3    H2 3976   3.690   1.904   1.514
 1324TIP3   OH2 3977   5.260   1.569   2.501
 1324TIP3    H1 3978   5.352   1.557   2.477
 1324TIP3    H2 3979   5.251   1.522   2.584
 1325TIP3   OH2 3980   4.516   5.717   0.125
 1325TIP3    H1 3981   4.531   5.722   0.220
 1325TIP3    H2 3982   4.487   5.805   0.101
 1326TIP3   OH2 3983   6.154   3.398   3.982
 1326TIP3    H1 3984   6.100   3.321   3.963
 1326TIP3    H2 3985   6.194   3.379   4.066
 1327TIP3   OH2 3986   1.017   4.240   0.421
 1327TIP3    H1 3987   0.936   4.262   0.466
 1327TIP3    H2 3988   1.002   4.151   0.388
 1328TIP3   OH2 3989   5.957   1.747   4.537
 1328TIP3    H1 3990   6.032   1.777   4.484
 1328TIP3    H2 3991   5.991   1.746   4.627
 1329TIP3   OH2 3992   5.250   1.343   3.182
 1329TIP3    H1 3993   5.305   1.410   3.142
 1329TIP3    H2 3994   5.289   1.327   3.268
 1330TIP3   OH2 3995   2.985   3.147   5.084
 1330TIP3    H1 3996   3.046   3.104   5.025
 1330TIP3    H2 3997   3.037   3.168   5.162
 1331TIP3   OH2 3998   0.718   2.990   1.441
 1331TIP3    H1 3999   0.813   2.999   1.446
 1331TIP3    H2 4000   0.691   3.064   1.386
 1332TIP3   OH2 4001   0.855   4.981   0.943
 1332TIP3    H1 4002   0.811   5.028   1.014
 1332TIP3    H2 4003   0.888   5.050   0.885
 1333TIP3   OH2 4004   0.823   1.698   3.058
 1333TIP3    H1 4005   0.837   1.777   3.006
 1333TIP3    H2 4006   0.792   1.729   3.143
 1334TIP3   OH2 4007   4.232   1.908   0.669
 1334TIP3    H1 4008   4.139   1.929   0.679
 1334TIP3    H2 4009   4.276   1.963   0.733
 1335TIP3   OH2 4010   2.386   4.254   0.871
 1335TIP3    H1 4011   2.343   4.190   0.814
 1335TIP3    H2 4012   2.432   4.313   0.811
 1336TIP3   OH2 4013   4.711   2.302   5.213
 1336TIP3    H1 4014   4.715   2.330   5.122
 1336TIP3    H2 4015   4.618   2.310   5.236
 1337TIP3   OH2 4016   0.909   5.783   0.118
 1337TIP3    H1 4017   0.993   5.763   0.159
 1337TIP3    H2 4018   0.868   5.697   0.105
 1338TIP3   OH2 4019   5.133   3.364   1.252
 1338TIP3    H1 4020   5.178   3.410   1.181
 1338TIP3    H2 4021   5.102   3.283   1.212
 1339TIP3   OH2 4022   6.243   4.695   3.805
 1339TIP3    H1 4023   6.224   4.668   3.715
 1339TIP3    H2 4024   6.304   4.630   3.838
 1340TIP3   OH2 4025   5.833   1.293   3.905
 1340TIP3    H1 4026   5.895   1.284   3.977
 1340TIP3    H2 4027   5.749   1.265   3.942
 1341TIP3   OH2 4028   2.861   2.493   0.497
 1341TIP3    H1 4029   2.815   2.520   0.418
 1341TIP3    H2 4030   2.914   2.569   0.522
 1342TIP3   OH2 4031   1.271   2.983   1.822
 1342TIP3    H1 4032   1.250   2.955   1.733
 1342TIP3    H2 4033   1.366   2.974   1.829
 1343TIP3   OH2 4034   2.512   1.034   5.100
 1343TIP3    H1 4035   2.438   1.068   5.150
 1343TIP3    H2 4036   2.534   1.105   5.040
 1344TIP3   OH2 4037   0.643   1.231   1.084
 1344TIP3    H1 4038   0.591   1.259   1.009
 1344TIP3    H2 4039   0.709   1.172   1.047
 1345TIP3   OH2 4040   4.951   0.393   2.101
 1345TIP3    H1 4041   4.973   0.486   2.095
 1345TIP3    H2 4042   4.923   0.381   2.192
 1346TIP3   OH2 4043   1.923   0.248   1.181
 1346TIP3    H1 4044   1.833   0.214   1.187
 1346TIP3    H2 4045   1.920   0.332   1.228
 1347TIP3   OH2 4046   0.615   5.693   2.773
 1347TIP3    H1 4047   0.611   5.604   2.738
 1347TIP3    H2 4048   0.704   5.701   2.808
 1348TIP3   OH2 4049   0.257   0.992   1.326
 1348TIP3    H1 4050   0.332   0.989   1.266
 1348TIP3    H2 4051   0.196   1.054   1.287
 1349TIP3   OH2 4052   4.122   2.556   5.152
 1349TIP3    H1 4053   4.043   2.530   5.104
 1349TIP3    H2 4054   4.188   2.492   5.126
 1350TIP3   OH2 4055   3.604   4.446   3.595
 1350TIP3    H1 4056   3.689   4.481   3.568
 1350TIP3    H2 4057   3.601   4.358   3.558
 1351TIP3   OH2 4058   0.602   0.169   1.204
 1351TIP3    H1 4059   0.640   0.201   1.286
 1351TIP3    H2 4060   0.625   0.076   1.203
 1352TIP3   OH2 4061   1.202   0.358   1.320
 1352TIP3    H1 4062   1.111   0.345   1.295
 1352TIP3    H2 4063   1.212   0.453   1.324
 1353TIP3   OH2 4064   2.896   5.078   1.299
 1353TIP3    H1 4065   2.918   5.144   1.363
 1353TIP3    H2 4066   2.931   5.112   1.216
 1354TIP3   OH2 4067   6.190   5.770   4.819
 1354TIP3    H1 4068   6.127   5.821   4.870
 1354TIP3    H2 4069   6.261   5.751   4.879
 1355TIP3   OH2 4070   5.400   4.608   3.341
 1355TIP3    H1 4071   5.435   4.567   3.420
 1355TIP3    H2 4072   5.471   4.603   3.277
 1356TIP3   OH2 4073   5.772   3.213   3.677
 1356TIP3    H1 4074   5.773   3.119   3.693
 1356TIP3    H2 4075   5.845   3.227   3.616
 1357TIP3   OH2 4076   5.635   2.143   0.814
 1357TIP3    H1 4077   5.596   2.061   0.783
 1357TIP3    H2 4078   5.707   2.160   0.753
 1358TIP3   OH2 4079   0.513   2.249   4.763
 1358TIP3    H1 4080   0.525   2.232   4.670
 1358TIP3    H2 4081   0.419   2.252   4.775
 1359TIP3   OH2 4082   5.232   1.654   4.875
 1359TIP3    H1 4083   5.232   1.568   4.918
 1359TIP3    H2 4084   5.321   1.664   4.841
 1360TIP3   OH2 4085   2.954   0.283   4.839
 1360TIP3    H1 4086   2.884   0.348   4.836
 1360TIP3    H2 4087   3.025   0.323   4.789
 1361TIP3   OH2 4088   4.796   0.244   1.736
 1361TIP3    H1 4089   4.877   0.207   1.770
 1361TIP3    H2 4090   4.772   0.311   1.800
 1362TIP3   OH2 4091   3.081   0.690   5.156
 1362TIP3    H1 4092   3.079   0.754   5.226
 1362TIP3    H2 4093   3.152   0.630   5.179
 1363TIP3   OH2 4094   0.822   1.828   1.245
 1363TIP3    H1 4095   0.732   1.830   1.278
 1363TIP3    H2 4096   0.823   1.893   1.174
 1364TIP3   OH2 4097   5.763   1.615   1.462
 1364TIP3    H1 4098   5.698   1.629   1.393
 1364TIP3    H2 4099   5.762   1.520   1.477
 1365TIP3   OH2 4100   3.927  -0.005   4.409
 1365TIP3    H1 4101   3.907   0.081   4.444
 1365TIP3    H2 4102   4.006  -0.032   4.455
 1366TIP3   OH2 4103   5.118   5.317   1.656
 1366TIP3    H1 4104   5.126   5.399   1.706
 1366TIP3    H2 4105   5.120   5.248   1.722
 1367TIP3   OH2 4106   5.902   3.193   1.017
 1367TIP3    H1 4107   5.977   3.153   0.972
 1367TIP3    H2 4108   5.877   3.130   1.083
 1368TIP3   OH2 4109   4.449   2.142   1.528
 1368TIP3    H1 4110   4.382   2.178   1.469
 1368TIP3    H2 4111   4.400   2.116   1.606
 1369TIP3   OH2 4112   0.290   1.833   1.698
 1369TIP3    H1 4113   0.258   1.747   1.673
 1369TIP3    H2 4114   0.254   1.848   1.785
 1370TIP3   OH2 4115   5.515   3.466   2.271
 1370TIP3    H1 4116   5.600   3.453   2.230
 1370TIP3    H2 4117   5.495   3.383   2.314
 1371TIP3   OH2 4118   0.057   5.077   4.889
 1371TIP3    H1 4119   0.037   5.023   4.813
 1371TIP3    H2 4120   0.152   5.084   4.890
 1372TIP3   OH2 4121   5.737   1.994   3.703
 1372TIP3    H1 4122   5.722   1.923   3.765
 1372TIP3    H2 4123   5.770   1.950   3.624
 1373TIP3   OH2 4124   3.506   5.137   1.055
 1373TIP3    H1 4125   3.584   5.174   1.096
 1373TIP3    H2 4126   3.465   5.086   1.125
 1374TIP3   OH2 4127   5.438   3.472   5.119
 1374TIP3    H1 4128   5.399   3.442   5.201
 1374TIP3    H2 4129   5.455   3.565   5.133
 1375TIP3   OH2 4130   0.444   4.470   3.466
 1375TIP3    H1 4131   0.530   4.509   3.474
 1375TIP3    H2 4132   0.443   4.431   3.378
 1376TIP3   OH2 4133   4.211   4.930   2.636
 1376TIP3    H1 4134   4.211   4.835   2.642
 1376TIP3    H2 4135   4.132   4.957   2.684
 1377TIP3   OH2 4136   2.405   0.106   0.747
 1377TIP3    H1 4137   2.420   0.058   0.665
 1377TIP3    H2 4138   2.320   0.076   0.777
 1378TIP3   OH2 4139   3.378   3.667   4.344
 1378TIP3    H1 4140   3.405   3.687   4.254
 1378TIP3    H2 4141   3.459   3.641   4.388
 1379TIP3   OH2 4142   5.576   2.307   3.982
 1379TIP3    H1 4143   5.497   2.299   4.034
 1379TIP3    H2 4144   5.545   2.328   3.894
 1380TIP3   OH2 4145   0.144   4.264   1.968
 1380TIP3    H1 4146   0.218   4.273   1.908
 1380TIP3    H2 4147   0.067   4.280   1.914
 1381TIP3   OH2 4148   1.133   4.406   0.136
 1381TIP3    H1 4149   1.067   4.466   0.172
 1381TIP3    H2 4150   1.198   4.398   0.206
 1382TIP3   OH2 4151   3.048   2.463   2.808
 1382TIP3    H1 4152   3.117   2.508   2.857
 1382TIP3    H2 4153   3.078   2.373   2.799
 1383TIP3   OH2 4154   0.722   5.278   0.583
 1383TIP3    H1 4155   0.655   5.251   0.646
 1383TIP3    H2 4156   0.694   5.241   0.500
 1384TIP3   OH2 4157   2.806   5.958   2.382
 1384TIP3    H1 4158   2.755   5.878   2.391
 1384TIP3    H2 4159   2.775   5.997   2.300
 1385TIP3   OH2 4160   1.164   5.038   1.069
 1385TIP3    H1 4161   1.072   5.017   1.083
 1385TIP3    H2 4162   1.207   4.953   1.058
 1386TIP3   OH2 4163   1.881   0.222   0.203
 1386TIP3    H1 4164   1.808   0.173   0.168
 1386TIP3    H2 4165   1.860   0.233   0.296
 1387TIP3   OH2 4166   0.686   2.738   4.185
 1387TIP3    H1 4167   0.677   2.734   4.089
 1387TIP3    H2 4168   0.765   2.791   4.199
 1388TIP3   OH2 4169   5.683   3.741   3.884
 1388TIP3    H1 4170   5.670   3.834   3.905
 1388TIP3    H2 4171   5.738   3.742   3.806
 1389TIP3   OH2 4172   3.515   4.857   3.746
 1389TIP3    H1 4173   3.493   4.766   3.727
 1389TIP3    H2 4174   3.437   4.907   3.721
 1390TIP3   OH2 4175   0.803   1.979   4.959
 1390TIP3    H1 4176   0.857   1.948   4.887
 1390TIP3    H2 4177   0.831   2.069   4.975
 1391TIP3   OH2 4178   1.482   1.924   2.735
 1391TIP3    H1 4179   1.495   1.966   2.650
 1391TIP3    H2 4180   1.399   1.961   2.768
 1392TIP3   OH2 4181   0.032   0.717   3.367
 1392TIP3    H1 4182   0.038   0.774   3.290
 1392TIP3    H2 4183   0.100   0.650   3.353
 1393TIP3   OH2 4184   3.497   5.332   4.945
 1393TIP3    H1 4185   3.402   5.344   4.938
 1393TIP3    H2 4186   3.523   5.387   5.018
 1394TIP3   OH2 4187   3.080   4.598   3.914
 1394TIP3    H1 4188   3.118   4.573   3.998
 1394TIP3    H2 4189   3.006   4.654   3.936
 1395TIP3   OH2 4190   3.791   2.952   3.475
 1395TIP3    H1 4191   3.772   2.968   3.567
 1395TIP3    H2 4192   3.726   2.887   3.448
 1396TIP3   OH2 4193   0.330   5.002   2.959
 1396TIP3    H1 4194   0.267   5.048   3.014
 1396TIP3    H2 4195   0.276   4.953   2.896
 1397TIP3   OH2 4196   2.756   0.892   5.169
 1397TIP3    H1 4197   2.687   0.957   5.153
 1397TIP3    H2 4198   2.835   0.944   5.183
 1398TIP3   OH2 4199   5.757   5.035   3.766
 1398TIP3    H1 4200   5.735   5.036   3.859
 1398TIP3    H2 4201   5.835   4.981   3.760
 1399TIP3   OH2 4202   4.399   0.540   2.093
 1399TIP3    H1 4203   4.332   0.493   2.143
 1399TIP3    H2 4204   4.366   0.540   2.003
 1400TIP3   OH2 4205   0.308   2.600   4.867
 1400TIP3    H1 4206   0.326   2.615   4.960
 1400TIP3    H2 4207   0.391   2.617   4.823
 1401TIP3   OH2 4208   4.133   0.748   1.076
 1401TIP3    H1 4209   4.213   0.754   1.128
 1401TIP3    H2 4210   4.075   0.814   1.115
 1402TIP3   OH2 4211   5.920   3.033   2.061
 1402TIP3    H1 4212   6.001   3.009   2.107
 1402TIP3    H2 4213   5.854   3.040   2.130
 1403TIP3   OH2 4214   2.493   5.848   2.241
 1403TIP3    H1 4215   2.512   5.928   2.289
 1403TIP3    H2 4216   2.556   5.784   2.275
 1404TIP3   OH2 4217   6.301   3.766   3.534
 1404TIP3    H1 4218   6.240   3.784   3.606
 1404TIP3    H2 4219   6.383   3.744   3.578
 1405TIP3   OH2 4220   2.594   3.770   1.193
 1405TIP3    H1 4221   2.599   3.679   1.223
 1405TIP3    H2 4222   2.681   3.806   1.211
 1406TIP3   OH2 4223   2.115   4.079   3.659
 1406TIP3    H1 4224   2.054   4.021   3.613
 1406TIP3    H2 4225   2.177   4.106   3.592
 1407TIP3   OH2 4226   3.978   1.263   1.168
 1407TIP3    H1 4227   4.011   1.334   1.223
 1407TIP3    H2 4228   4.053   1.204   1.159
 1408TIP3   OH2 4229   0.842   1.256   0.526
 1408TIP3    H1 4230   0.832   1.279   0.433
 1408TIP3    H2 4231   0.904   1.319   0.560
 1409TIP3   OH2 4232   4.622   0.222   1.258
 1409TIP3    H1 4233   4.556   0.204   1.190
 1409TIP3    H2 4234   4.637   0.137   1.299
 1410TIP3   OH2 4235   5.847   1.965   4.799
 1410TIP3    H1 4236   5.900   1.955   4.720
 1410TIP3    H2 4237   5.886   2.039   4.845
 1411TIP3   OH2 4238   2.794   1.484   0.666
 1411TIP3    H1 4239   2.712   1.443   0.639
 1411TIP3    H2 4240   2.848   1.486   0.586
 1412TIP3   OH2 4241   1.865   1.491   1.696
 1412TIP3    H1 4242   1.870   1.586   1.710
 1412TIP3    H2 4243   1.778   1.466   1.727
 1413TIP3   OH2 4244   1.529   0.840   2.283
 1413TIP3    H1 4245   1.566   0.868   2.200
 1413TIP3    H2 4246   1.595   0.863   2.348
 1414TIP3   OH2 4247   4.116   5.634   4.426
 1414TIP3    H1 4248   4.051   5.645   4.496
 1414TIP3    H2 4249   4.123   5.540   4.414
 1415TIP3   OH2 4250   4.831   3.522   1.321
 1415TIP3    H1 4251   4.872   3.441   1.290
 1415TIP3    H2 4252   4.737   3.505   1.319
 1416TIP3   OH2 4253   0.843   1.097   3.602
 1416TIP3    H1 4254   0.757   1.086   3.562
 1416TIP3    H2 4255   0.882   1.171   3.556
 1417TIP3   OH2 4256   1.293   0.958   1.312
 1417TIP3    H1 4257   1.377   0.982   1.351
 1417TIP3    H2 4258   1.316   0.902   1.238
 1418TIP3   OH2 4259   0.551   4.060   4.414
 1418TIP3    H1 4260   0.468   4.076   4.369
 1418TIP3    H2 4261   0.534   4.081   4.505
 1419TIP3   OH2 4262   4.301   1.473   1.956
 1419TIP3    H1 4263   4.290   1.443   2.047
 1419TIP3    H2 4264   4.392   1.454   1.935
 1420TIP3   OH2 4265   3.371   4.913   2.322
 1420TIP3    H1 4266   3.449   4.968   2.327
 1420TIP3    H2 4267   3.382   4.863   2.242
 1421TIP3   OH2 4268   0.467   2.591   2.315
 1421TIP3    H1 4269   0.503   2.510   2.351
 1421TIP3    H2 4270   0.429   2.636   2.390
 1422TIP3   OH2 4271   1.425   1.475   2.906
 1422TIP3    H1 4272   1.355   1.486   2.971
 1422TIP3    H2 4273   1.446   1.381   2.910
 1423TIP3   OH2 4274   0.359   1.834   0.088
 1423TIP3    H1 4275   0.453   1.817   0.076
 1423TIP3    H2 4276   0.342   1.812   0.180
 1424TIP3   OH2 4277   5.557   1.785   3.761
 1424TIP3    H1 4278   5.478   1.779   3.708
 1424TIP3    H2 4279   5.579   1.694   3.781
 1425TIP3   OH2 4280   3.216   0.118   4.702
 1425TIP3    H1 4281   3.264   0.065   4.766
 1425TIP3    H2 4282   3.153   0.057   4.663
 1426TIP3   OH2 4283   2.525   1.636   2.661
 1426TIP3    H1 4284   2.533   1.610   2.570
 1426TIP3    H2 4285   2.601   1.598   2.704
 1427TIP3   OH2 4286   4.340   3.370   0.311
 1427TIP3    H1 4287   4.245   3.377   0.302
 1427TIP3    H2 4288   4.358   3.397   0.401
 1428TIP3   OH2 4289   1.437   3.232   0.065
 1428TIP3    H1 4290   1.431   3.183  -0.017
 1428TIP3    H2 4291   1.433   3.166   0.133
 1429TIP3   OH2 4292   1.898   1.649   3.402
 1429TIP3    H1 4293   1.876   1.639   3.494
 1429TIP3    H2 4294   1.961   1.721   3.400
 1430TIP3   OH2 4295   4.778   1.595   2.625
 1430TIP3    H1 4296   4.738   1.532   2.565
 1430TIP3    H2 4297   4.781   1.677   2.576
 1431TIP3   OH2 4298   4.020   2.002   0.841
 1431TIP3    H1 4299   4.101   1.961   0.872
 1431TIP3    H2 4300   3.981   2.041   0.919
 1432TIP3   OH2 4301   2.028   2.742   0.601
 1432TIP3    H1 4302   1.948   2.759   0.651
 1432TIP3    H2 4303   1.998   2.697   0.522
 1433TIP3   OH2 4304   2.490   3.868   2.463
 1433TIP3    H1 4305   2.430   3.861   2.389
 1433TIP3    H2 4306   2.452   3.809   2.529
 1434TIP3   OH2 4307   5.439   2.916   2.552
 1434TIP3    H1 4308   5.450   2.877   2.465
 1434TIP3    H2 4309   5.519   2.968   2.565
 1435TIP3   OH2 4310   1.851   4.248   2.448
 1435TIP3    H1 4311   1.776   4.280   2.398
 1435TIP3    H2 4312   1.865   4.159   2.415
 1436TIP3   OH2 4313   4.185   3.974   0.185
 1436TIP3    H1 4314   4.200   3.932   0.100
 1436TIP3    H2 4315   4.199   4.067   0.167
 1437TIP3   OH2 4316   2.745   3.746   5.169
 1437TIP3    H1 4317   2.687   3.707   5.233
 1437TIP3    H2 4318   2.768   3.674   5.110
 1438TIP3   OH2 4319   2.289   0.019   2.190
 1438TIP3    H1 4320   2.237   0.073   2.249
 1438TIP3    H2 4321   2.317   0.079   2.121
 1439TIP3   OH2 4322   1.662   1.921   0.116
 1439TIP3    H1 4323   1.637   1.838   0.076
 1439TIP3    H2 4324   1.598   1.984   0.083
 1440TIP3   OH2 4325   6.012   5.806   1.502
 1440TIP3    H1 4326   6.018   5.797   1.407
 1440TIP3    H2 4327   5.929   5.764   1.525
 1441TIP3   OH2 4328   1.293   2.028   0.580
 1441TIP3    H1 4329   1.295   1.943   0.624
 1441TIP3    H2 4330   1.354   2.019   0.507
 1442TIP3   OH2 4331   6.056   0.421   2.887
 1442TIP3    H1 4332   6.060   0.369   2.968
 1442TIP3    H2 4333   6.086   0.508   2.913
 1443TIP3   OH2 4334   2.826   0.339   2.096
 1443TIP3    H1 4335   2.853   0.379   2.013
 1443TIP3    H2 4336   2.774   0.263   2.070
 1444TIP3   OH2 4337   0.732   1.078   0.696
 1444TIP3    H1 4338   0.741   1.160   0.647
 1444TIP3    H2 4339   0.662   1.031   0.651
 1445TIP3   OH2 4340   0.594   2.892   4.522
 1445TIP3    H1 4341   0.689   2.884   4.525
 1445TIP3    H2 4342   0.563   2.802   4.511
 1446TIP3   OH2 4343   4.781   0.029   3.438
 1446TIP3    H1 4344   4.821  -0.028   3.503
 1446TIP3    H2 4345   4.690   0.038   3.466
 1447TIP3   OH2 4346   4.990   1.432   4.629
 1447TIP3    H1 4347   5.039   1.512   4.607
 1447TIP3    H2 4348   4.986   1.383   4.547
 1448TIP3   OH2 4349   5.935   0.074   2.812
 1448TIP3    H1 4350   6.014   0.051   2.861
 1448TIP3    H2 4351   5.963   0.142   2.751
 1449TIP3   OH2 4352   6.157   3.127   2.739
 1449TIP3    H1 4353   6.189   3.176   2.815
 1449TIP3    H2 4354   6.232   3.124   2.679
 1450TIP3   OH2 4355   6.314   0.086   2.567
 1450TIP3    H1 4356   6.278   0.087   2.655
 1450TIP3    H2 4357   6.322  -0.007   2.545
 1451TIP3   OH2 4358   0.296   0.974   2.283
 1451TIP3    H1 4359   0.342   0.923   2.216
 1451TIP3    H2 4360   0.349   0.961   2.362
 1452TIP3   OH2 4361   2.735   1.811   5.019
 1452TIP3    H1 4362   2.657   1.803   4.965
 1452TIP3    H2 4363   2.774   1.895   4.994
 1453TIP3   OH2 4364   4.745   2.239   1.352
 1453TIP3    H1 4365   4.653   2.263   1.345
 1453TIP3    H2 4366   4.792   2.320   1.334
 1454TIP3   OH2 4367   2.114   0.871   2.981
 1454TIP3    H1 4368   2.046   0.910   2.926
 1454TIP3    H2 4369   2.130   0.785   2.942
 1455TIP3   OH2 4370   1.966   2.736   3.470
 1455TIP3    H1 4371   1.898   2.801   3.454
 1455TIP3    H2 4372   2.023   2.776   3.536
 1456TIP3   OH2 4373   1.786   0.170   2.480
 1456TIP3    H1 4374   1.847   0.238   2.452
 1456TIP3    H2 4375   1.809   0.094   2.427
 1457TIP3   OH2 4376   0.223   4.150   4.341
 1457TIP3    H1 4377   0.257   4.237   4.359
 1457TIP3    H2 4378   0.134   4.151   4.378
 1458TIP3   OH2 4379   0.957   5.411   5.027
 1458TIP3    H1 4380   1.052   5.409   5.042
 1458TIP3    H2 4381   0.947   5.445   4.939
 1459TIP3   OH2 4382   6.002   2.145   2.933
 1459TIP3    H1 4383   5.957   2.228   2.950
 1459TIP3    H2 4384   6.054   2.162   2.854
 1460TIP3   OH2 4385   1.274   0.174   4.039
 1460TIP3    H1 4386   1.229   0.259   4.045
 1460TIP3    H2 4387   1.324   0.167   4.120
 1461TIP3   OH2 4388   5.427   3.794   4.975
 1461TIP3    H1 4389   5.475   3.772   5.055
 1461TIP3    H2 4390   5.489   3.774   4.904
 1462TIP3   OH2 4391   1.307   5.028   2.457
 1462TIP3    H1 4392   1.392   5.026   2.501
 1462TIP3    H2 4393   1.321   5.087   2.382
 1463TIP3   OH2 4394   4.057   3.109   2.015
 1463TIP3    H1 4395   4.078   3.196   1.981
 1463TIP3    H2 4396   4.141   3.077   2.048
 1464TIP3   OH2 4397   5.666   5.302   2.044
 1464TIP3    H1 4398   5.586   5.253   2.060
 1464TIP3    H2 4399   5.638   5.393   2.033
 1465TIP3   OH2 4400   5.817   0.267   2.458
 1465TIP3    H1 4401   5.845   0.188   2.411
 1465TIP3    H2 4402   5.893   0.324   2.456
 1466TIP3   OH2 4403   2.456   2.970   5.161
 1466TIP3    H1 4404   2.453   3.037   5.093
 1466TIP3    H2 4405   2.529   2.913   5.136
 1467TIP3   OH2 4406   4.946   1.723   3.465
 1467TIP3    H1 4407   4.969   1.668   3.539
 1467TIP3    H2 4408   4.999   1.690   3.392
 1468TIP3   OH2 4409   0.917   4.773   3.038
 1468TIP3    H1 4410   0.862   4.718   3.094
 1468TIP3    H2 4411   0.855   4.818   2.981
 1469TIP3   OH2 4412   1.961   5.723   0.929
 1469TIP3    H1 4413   1.898   5.652   0.912
 1469TIP3    H2 4414   2.000   5.741   0.844
 1470TIP3   OH2 4415   5.271   0.342   0.071
 1470TIP3    H1 4416   5.312   0.301   0.147
 1470TIP3    H2 4417   5.262   0.434   0.094
 1471TIP3   OH2 4418   3.323   5.868   2.723
 1471TIP3    H1 4419   3.256   5.936   2.716
 1471TIP3    H2 4420   3.303   5.824   2.806
 1472TIP3   OH2 4421   3.644   5.307   0.800
 1472TIP3    H1 4422   3.694   5.231   0.831
 1472TIP3    H2 4423   3.711   5.368   0.769
 1473TIP3   OH2 4424   3.344   1.988   1.441
 1473TIP3    H1 4425   3.410   1.991   1.372
 1473TIP3    H2 4426   3.390   1.955   1.518
 1474TIP3   OH2 4427   1.159   0.836   2.278
 1474TIP3    H1 4428   1.075   0.847   2.235
 1474TIP3    H2 4429   1.221   0.886   2.225
 1475TIP3   OH2 4430   1.595   5.489   3.977
 1475TIP3    H1 4431   1.546   5.417   3.938
 1475TIP3    H2 4432   1.528   5.548   4.012
 1476TIP3   OH2 4433   5.216   2.766   1.020
 1476TIP3    H1 4434   5.252   2.807   0.941
 1476TIP3    H2 4435   5.271   2.799   1.091
 1477TIP3   OH2 4436   2.555   2.507   1.362
 1477TIP3    H1 4437   2.602   2.424   1.354
 1477TIP3    H2 4438   2.590   2.562   1.292
 1478TIP3   OH2 4439   4.211   2.213   4.246
 1478TIP3    H1 4440   4.304   2.234   4.232
 1478TIP3    H2 4441   4.211   2.165   4.330
 1479TIP3   OH2 4442   2.280   5.799   3.411
 1479TIP3    H1 4443   2.274   5.757   3.325
 1479TIP3    H2 4444   2.190   5.801   3.444
 1480TIP3   OH2 4445   2.735   1.723   3.605
 1480TIP3    H1 4446   2.671   1.793   3.594
 1480TIP3    H2 4447   2.796   1.735   3.532
 1481TIP3   OH2 4448   2.475   5.564   4.903
 1481TIP3    H1 4449   2.523   5.482   4.916
 1481TIP3    H2 4450   2.385   5.543   4.926
 1482TIP3   OH2 4451   1.033   2.091   3.554
 1482TIP3    H1 4452   0.990   2.059   3.475
 1482TIP3    H2 4453   0.993   2.042   3.625
 1483TIP3   OH2 4454   0.793   0.235   0.186
 1483TIP3    H1 4455   0.823   0.326   0.180
 1483TIP3    H2 4456   0.702   0.242   0.213
 1484TIP3   OH2 4457   4.327   0.435   5.041
 1484TIP3    H1 4458   4.242   0.465   5.072
 1484TIP3    H2 4459   4.364   0.385   5.114
 1485TIP3   OH2 4460   1.932   3.956   4.915
 1485TIP3    H1 4461   1.906   4.048   4.902
 1485TIP3    H2 4462   1.851   3.912   4.942
 1486TIP3   OH2 4463   5.940   2.589   3.465
 1486TIP3    H1 4464   5.851   2.594   3.501
 1486TIP3    H2 4465   5.981   2.672   3.492
 1487TIP3   OH2 4466   0.455   5.005   4.673
 1487TIP3    H1 4467   0.408   5.010   4.756
 1487TIP3    H2 4468   0.540   4.966   4.695
 1488TIP3   OH2 4469   4.284   3.930   3.207
 1488TIP3    H1 4470   4.207   3.873   3.197
 1488TIP3    H2 4471   4.265   4.005   3.150
 1489TIP3   OH2 4472   2.935   0.911   2.711
 1489TIP3    H1 4473   2.987   0.849   2.762
 1489TIP3    H2 4474   2.982   0.919   2.628
 1490TIP3   OH2 4475   3.656   4.166   0.597
 1490TIP3    H1 4476   3.657   4.070   0.599
 1490TIP3    H2 4477   3.737   4.192   0.640
 1491TIP3   OH2 4478   4.935   3.530   4.275
 1491TIP3    H1 4479   4.956   3.622   4.257
 1491TIP3    H2 4480   4.843   3.521   4.251
 1492TIP3   OH2 4481   2.244   2.514   1.247
 1492TIP3    H1 4482   2.310   2.549   1.187
 1492TIP3    H2 4483   2.198   2.447   1.196
 1493TIP3   OH2 4484   0.319   3.656   1.876
 1493TIP3    H1 4485   0.230   3.672   1.843
 1493TIP3    H2 4486   0.329   3.718   1.948
 1494TIP3   OH2 4487   5.218   1.072   2.051
 1494TIP3    H1 4488   5.278   1.130   2.004
 1494TIP3    H2 4489   5.215   0.993   1.997
 1495TIP3   OH2 4490   6.225   5.889   1.075
 1495TIP3    H1 4491   6.291   5.917   1.138
 1495TIP3    H2 4492   6.241   5.943   0.997
 1496TIP3   OH2 4493   2.525   3.551   1.399
 1496TIP3    H1 4494   2.525   3.460   1.370
 1496TIP3    H2 4495   2.573   3.550   1.482
 1497TIP3   OH2 4496   4.022   2.216   1.372
 1497TIP3    H1 4497   4.022   2.138   1.428
 1497TIP3    H2 4498   3.938   2.259   1.390
 1498TIP3   OH2 4499   1.298   2.987   4.928
 1498TIP3    H1 4500   1.372   2.934   4.958
 1498TIP3    H2 4501   1.338   3.059   4.880
 1499TIP3   OH2 4502   2.508   1.788   3.329
 1499TIP3    H1 4503   2.507   1.806   3.423
 1499TIP3    H2 4504   2.435   1.839   3.294
 1500TIP3   OH2 4505   5.150   4.132   1.224
 1500TIP3    H1 4506   5.182   4.149   1.135
 1500TIP3    H2 4507   5.071   4.080   1.212
 1501TIP3   OH2 4508  -0.025   1.639   0.997
 1501TIP3    H1 4509  -0.041   1.635   0.902
 1501TIP3    H2 4510   0.067   1.664   1.004
 1502TIP3   OH2 4511   1.837   0.605   0.353
 1502TIP3    H1 4512   1.837   0.622   0.259
 1502TIP3    H2 4513   1.745   0.608   0.378
 1503TIP3   OH2 4514   3.526   4.256   4.627
 1503TIP3    H1 4515   3.441   4.299   4.620
 1503TIP3    H2 4516   3.544   4.222   4.540
 1504TIP3   OH2 4517   2.007   1.309   3.108
 1504TIP3    H1 4518   2.079   1.254   3.138
 1504TIP3    H2 4519   1.928   1.262   3.136
 1505TIP3   OH2 4520   4.670   1.617   4.516
 1505TIP3    H1 4521   4.761   1.644   4.531
 1505TIP3    H2 4522   4.648   1.652   4.429
 1506TIP3   OH2 4523   5.361   1.648   3.615
 1506TIP3    H1 4524   5.274   1.609   3.619
 1506TIP3    H2 4525   5.410   1.592   3.555
 1507TIP3   OH2 4526   2.378   4.531   3.989
 1507TIP3    H1 4527   2.306   4.530   4.051
 1507TIP3    H2 4528   2.440   4.594   4.025
 1508TIP3   OH2 4529   3.677   3.474   1.450
 1508TIP3    H1 4530   3.726   3.505   1.526
 1508TIP3    H2 4531   3.737   3.413   1.406
 1509TIP3   OH2 4532   2.541   0.791   3.539
 1509TIP3    H1 4533   2.481   0.848   3.491
 1509TIP3    H2 4534   2.498   0.777   3.624
 1510TIP3   OH2 4535   0.698   4.845   4.763
 1510TIP3    H1 4536   0.769   4.814   4.707
 1510TIP3    H2 4537   0.626   4.785   4.747
 1511TIP3   OH2 4538   5.141   1.745   3.870
 1511TIP3    H1 4539   5.095   1.779   3.947
 1511TIP3    H2 4540   5.140   1.817   3.808
 1512TIP3   OH2 4541   5.494   0.821   5.190
 1512TIP3    H1 4542   5.538   0.750   5.236
 1512TIP3    H2 4543   5.429   0.778   5.135
 1513TIP3   OH2 4544   6.045   4.648   1.354
 1513TIP3    H1 4545   6.106   4.674   1.423
 1513TIP3    H2 4546   5.960   4.679   1.385
 1514TIP3   OH2 4547   2.213   0.578   4.791
 1514TIP3    H1 4548   2.221   0.656   4.846
 1514TIP3    H2 4549   2.187   0.508   4.851
 1515TIP3   OH2 4550   0.213   3.167   1.945
 1515TIP3    H1 4551   0.268   3.181   1.868
 1515TIP3    H2 4552   0.201   3.072   1.950
 1516TIP3   OH2 4553   1.242   0.456   3.325
 1516TIP3    H1 4554   1.168   0.401   3.349
 1516TIP3    H2 4555   1.277   0.417   3.245
 1517TIP3   OH2 4556   5.647   1.569   0.103
 1517TIP3    H1 4557   5.623   1.654   0.066
 1517TIP3    H2 4558   5.698   1.590   0.181
 1518TIP3   OH2 4559   3.249   4.805   3.408
 1518TIP3    H1 4560   3.273   4.729   3.355
 1518TIP3    H2 4561   3.286   4.788   3.494
 1519TIP3   OH2 4562   1.879   5.969   3.165
 1519TIP3    H1 4563   1.830   6.041   3.126
 1519TIP3    H2 4564   1.824   5.892   3.151
 1520TIP3   OH2 4565   1.039   3.640   4.973
 1520TIP3    H1 4566   1.024   3.684   4.889
 1520TIP3    H2 4567   1.096   3.567   4.952
 1521TIP3   OH2 4568   2.403   2.284   3.865
 1521TIP3    H1 4569   2.432   2.335   3.789
 1521TIP3    H2 4570   2.484   2.244   3.899
 1522TIP3   OH2 4571   6.159   4.944   1.344
 1522TIP3    H1 4572   6.144   5.023   1.292
 1522TIP3    H2 4573   6.144   4.871   1.284
 1523TIP3   OH2 4574   1.908   3.883   1.172
 1523TIP3    H1 4575   1.960   3.959   1.200
 1523TIP3    H2 4576   1.922   3.878   1.078
 1524TIP3   OH2 4577   4.937   3.007   2.006
 1524TIP3    H1 4578   4.896   3.093   1.993
 1524TIP3    H2 4579   5.030   3.023   1.994
 1525TIP3   OH2 4580   4.163   0.062   0.774
 1525TIP3    H1 4581   4.081   0.092   0.812
 1525TIP3    H2 4582   4.198   0.140   0.729
 1526TIP3   OH2 4583   6.226   3.248   2.039
 1526TIP3    H1 4584   6.160   3.287   2.095
 1526TIP3    H2 4585   6.309   3.281   2.073
 1527TIP3   OH2 4586   3.868   1.777   0.182
 1527TIP3    H1 4587   3.880   1.749   0.091
 1527TIP3    H2 4588   3.773   1.770   0.196
 1528TIP3   OH2 4589   0.165   2.282   5.065
 1528TIP3    H1 4590   0.184   2.317   5.152
 1528TIP3    H2 4591   0.243   2.232   5.041
 1529TIP3   OH2 4592   1.177   1.534   3.463
 1529TIP3    H1 4593   1.087   1.566   3.468
 1529TIP3    H2 4594   1.227   1.608   3.429
 1530TIP3   OH2 4595   3.787   4.930   3.725
 1530TIP3    H1 4596   3.813   4.909   3.815
 1530TIP3    H2 4597   3.693   4.912   3.723
 1531TIP3   OH2 4598   5.167   4.155   4.735
 1531TIP3    H1 4599   5.152   4.230   4.792
 1531TIP3    H2 4600   5.248   4.115   4.767
 1532TIP3   OH2 4601   0.813   3.602   0.844
 1532TIP3    H1 4602   0.904   3.583   0.823
 1532TIP3    H2 4603   0.817   3.662   0.919
 1533TIP3   OH2 4604   3.900   5.018   2.049
 1533TIP3    H1 4605   3.936   5.093   2.003
 1533TIP3    H2 4606   3.930   4.941   2.001
 1534TIP3   OH2 4607   0.079   0.918   4.772
 1534TIP3    H1 4608   0.009   0.877   4.721
 1534TIP3    H2 4609   0.097   1.000   4.727
 1535TIP3   OH2 4610   2.268   4.136   4.787
 1535TIP3    H1 4611   2.363   4.135   4.794
 1535TIP3    H2 4612   2.250   4.135   4.693
 1536TIP3   OH2 4613   4.256   5.941   2.298
 1536TIP3    H1 4614   4.267   5.886   2.375
 1536TIP3    H2 4615   4.176   5.910   2.257
 1537TIP3   OH2 4616   1.069   4.674   3.672
 1537TIP3    H1 4617   1.152   4.695   3.628
 1537TIP3    H2 4618   1.081   4.584   3.702
 1538TIP3   OH2 4619   1.142   2.835   0.157
 1538TIP3    H1 4620   1.092   2.757   0.182
 1538TIP3    H2 4621   1.100   2.906   0.205
 1539TIP3   OH2 4622   1.790   5.854   5.110
 1539TIP3    H1 4623   1.754   5.769   5.136
 1539TIP3    H2 4624   1.802   5.847   5.015
 1540TIP3   OH2 4625   3.481   0.010   2.255
 1540TIP3    H1 4626   3.520   0.095   2.231
 1540TIP3    H2 4627   3.421   0.031   2.327
 1541TIP3   OH2 4628   3.562   0.839   0.773
 1541TIP3    H1 4629   3.505   0.906   0.809
 1541TIP3    H2 4630   3.528   0.757   0.809
 1542TIP3   OH2 4631   1.266   0.185   1.741
 1542TIP3    H1 4632   1.225   0.257   1.789
 1542TIP3    H2 4633   1.341   0.159   1.796
 1543TIP3   OH2 4634   0.900   4.984   1.481
 1543TIP3    H1 4635   0.848   5.031   1.546
 1543TIP3    H2 4636   0.980   5.035   1.473
 1544TIP3   OH2 4637   0.385   2.519   3.836
 1544TIP3    H1 4638   0.332   2.564   3.903
 1544TIP3    H2 4639   0.390   2.429   3.868
 1545TIP3   OH2 4640   3.580   3.655   3.920
 1545TIP3    H1 4641   3.570   3.660   3.825
 1545TIP3    H2 4642   3.675   3.658   3.934
 1546TIP3   OH2 4643   5.544   4.919   0.393
 1546TIP3    H1 4644   5.528   4.892   0.483
 1546TIP3    H2 4645   5.461   4.904   0.348
 1547TIP3   OH2 4646   0.115   2.326   2.202
 1547TIP3    H1 4647   0.162   2.303   2.122
 1547TIP3    H2 4648   0.123   2.248   2.257
 1548TIP3   OH2 4649   0.839   3.993   3.339
 1548TIP3    H1 4650   0.763   3.949   3.377
 1548TIP3    H2 4651   0.900   4.002   3.412
 1549TIP3   OH2 4652   3.043   5.488   3.916
 1549TIP3    H1 4653   3.103   5.526   3.979
 1549TIP3    H2 4654   2.956   5.498   3.956
 1550TIP3   OH2 4655   0.288   3.210   0.294
 1550TIP3    H1 4656   0.308   3.265   0.370
 1550TIP3    H2 4657   0.197   3.183   0.309
 1551TIP3   OH2 4658   2.292   4.440   0.511
 1551TIP3    H1 4659   2.318   4.506   0.446
 1551TIP3    H2 4660   2.356   4.449   0.581
 1552TIP3   OH2 4661   3.561   1.864   3.309
 1552TIP3    H1 4662   3.470   1.834   3.308
 1552TIP3    H2 4663   3.554   1.960   3.309
 1553TIP3   OH2 4664   4.713   0.601   3.357
 1553TIP3    H1 4665   4.788   0.560   3.313
 1553TIP3    H2 4666   4.686   0.536   3.422
 1554TIP3   OH2 4667   3.672   1.692   2.423
 1554TIP3    H1 4668   3.681   1.740   2.505
 1554TIP3    H2 4669   3.598   1.732   2.379
 1555TIP3   OH2 4670   2.246   1.567   3.434
 1555TIP3    H1 4671   2.174   1.597   3.379
 1555TIP3    H2 4672   2.308   1.639   3.433
 1556TIP3   OH2 4673   2.769   4.174   4.581
 1556TIP3    H1 4674   2.805   4.214   4.502
 1556TIP3    H2 4675   2.833   4.193   4.650
 1557TIP3   OH2 4676   0.648   5.057   2.677
 1557TIP3    H1 4677   0.712   5.103   2.623
 1557TIP3    H2 4678   0.575   5.039   2.618
 1558TIP3   OH2 4679   0.407   5.780   3.981
 1558TIP3    H1 4680   0.431   5.731   4.059
 1558TIP3    H2 4681   0.453   5.864   3.990
 1559TIP3   OH2 4682   5.441   5.185   2.211
 1559TIP3    H1 4683   5.447   5.252   2.279
 1559TIP3    H2 4684   5.360   5.138   2.231
 1560TIP3   OH2 4685   5.723   2.547   3.116
 1560TIP3    H1 4686   5.639   2.529   3.158
 1560TIP3    H2 4687   5.745   2.637   3.143
 1561TIP3   OH2 4688   0.278   4.243   0.946
 1561TIP3    H1 4689   0.217   4.258   0.873
 1561TIP3    H2 4690   0.297   4.330   0.979
 1562TIP3   OH2 4691   4.094   4.425   2.385
 1562TIP3    H1 4692   4.168   4.430   2.324
 1562TIP3    H2 4693   4.135   4.408   2.470
 1563TIP3   OH2 4694   2.298   3.940   3.219
 1563TIP3    H1 4695   2.263   3.912   3.304
 1563TIP3    H2 4696   2.390   3.960   3.236
 1564TIP3   OH2 4697   2.113   1.974   5.105
 1564TIP3    H1 4698   2.156   2.045   5.153
 1564TIP3    H2 4699   2.159   1.970   5.021
 1565TIP3   OH2 4700   2.627   3.622   4.590
 1565TIP3    H1 4701   2.680   3.584   4.659
 1565TIP3    H2 4702   2.572   3.550   4.559
 1566TIP3   OH2 4703   0.262   0.659   4.088
 1566TIP3    H1 4704   0.230   0.603   4.017
 1566TIP3    H2 4705   0.355   0.671   4.069
 1567TIP3   OH2 4706   1.503   3.613   2.440
 1567TIP3    H1 4707   1.492   3.518   2.446
 1567TIP3    H2 4708   1.572   3.633   2.502
 1568TIP3   OH2 4709   2.164   4.328   1.024
 1568TIP3    H1 4710   2.098   4.270   0.988
 1568TIP3    H2 4711   2.235   4.327   0.960
 1569TIP3   OH2 4712   2.127   4.041   1.308
 1569TIP3    H1 4713   2.070   4.110   1.341
 1569TIP3    H2 4714   2.178   4.014   1.384
 1570TIP3   OH2 4715   4.431   3.465   0.917
 1570TIP3    H1 4716   4.357   3.463   0.857
 1570TIP3    H2 4717   4.408   3.402   0.985
 1571TIP3   OH2 4718   0.182   0.959   2.648
 1571TIP3    H1 4719   0.130   0.919   2.579
 1571TIP3    H2 4720   0.161   0.910   2.727
 1572TIP3   OH2 4721   2.354   3.844   1.373
 1572TIP3    H1 4722   2.429   3.807   1.326
 1572TIP3    H2 4723   2.280   3.835   1.312
 1573TIP3   OH2 4724   5.669   0.817   3.264
 1573TIP3    H1 4725   5.722   0.842   3.340
 1573TIP3    H2 4726   5.698   0.876   3.194
 1574TIP3   OH2 4727   1.817   3.771   3.938
 1574TIP3    H1 4728   1.907   3.777   3.971
 1574TIP3    H2 4729   1.769   3.726   4.008
 1575TIP3   OH2 4730   0.100   1.117   1.605
 1575TIP3    H1 4731   0.124   1.031   1.572
 1575TIP3    H2 4732   0.121   1.177   1.534
 1576TIP3   OH2 4733   4.298   5.425   2.453
 1576TIP3    H1 4734   4.293   5.331   2.432
 1576TIP3    H2 4735   4.381   5.434   2.499
 1577TIP3   OH2 4736   1.902   4.761   1.938
 1577TIP3    H1 4737   1.989   4.722   1.937
 1577TIP3    H2 4738   1.913   4.843   1.986
 1578TIP3   OH2 4739   5.855   3.367   2.483
 1578TIP3    H1 4740   5.790   3.393   2.548
 1578TIP3    H2 4741   5.905   3.297   2.525
 1579TIP3   OH2 4742   1.908   0.717   3.682
 1579TIP3    H1 4743   1.907   0.796   3.736
 1579TIP3    H2 4744   1.998   0.686   3.687
 1580TIP3   OH2 4745   2.114   4.923   2.564
 1580TIP3    H1 4746   2.051   4.982   2.524
 1580TIP3    H2 4747   2.134   4.859   2.496
 1581TIP3   OH2 4748   4.654   0.361   4.382
 1581TIP3    H1 4749   4.593   0.303   4.427
 1581TIP3    H2 4750   4.620   0.449   4.397
 1582TIP3   OH2 4751   0.270   5.927   4.292
 1582TIP3    H1 4752   0.234   5.839   4.285
 1582TIP3    H2 4753   0.248   5.955   4.381
 1583TIP3   OH2 4754   3.890   2.912   0.127
 1583TIP3    H1 4755   3.980   2.892   0.153
 1583TIP3    H2 4756   3.836   2.850   0.177
 1584TIP3   OH2 4757   1.466   4.528   3.141
 1584TIP3    H1 4758   1.416   4.447   3.153
 1584TIP3    H2 4759   1.489   4.555   3.230
 1585TIP3   OH2 4760   5.083   1.976   2.272
 1585TIP3    H1 4761   5.130   2.056   2.250
 1585TIP3    H2 4762   5.085   1.924   2.193
 1586TIP3   OH2 4763   6.082   3.679   3.350
 1586TIP3    H1 4764   6.168   3.686   3.392
 1586TIP3    H2 4765   6.034   3.619   3.406
 1587TIP3   OH2 4766   1.409   1.187   4.508
 1587TIP3    H1 4767   1.470   1.217   4.576
 1587TIP3    H2 4768   1.406   1.092   4.520
 1588TIP3   OH2 4769   4.870   4.739   3.859
 1588TIP3    H1 4770   4.777   4.720   3.854
 1588TIP3    H2 4771   4.908   4.667   3.908
 1589TIP3   OH2 4772   0.715   1.311   4.806
 1589TIP3    H1 4773   0.764   1.274   4.733
 1589TIP3    H2 4774   0.628   1.327   4.770
 1590TIP3   OH2 4775   6.355   3.709   3.835
 1590TIP3    H1 4776   6.365   3.780   3.899
 1590TIP3    H2 4777   6.282   3.657   3.869
 1591TIP3   OH2 4778   2.618   2.941   2.461
 1591TIP3    H1 4779   2.629   2.856   2.503
 1591TIP3    H2 4780   2.657   3.003   2.522
 1592TIP3   OH2 4781   3.135   2.427   1.988
 1592TIP3    H1 4782   3.216   2.389   1.954
 1592TIP3    H2 4783   3.075   2.427   1.914
 1593TIP3   OH2 4784   2.603   5.564   2.974
 1593TIP3    H1 4785   2.679   5.621   2.959
 1593TIP3    H2 4786   2.609   5.540   3.066
 1594TIP3   OH2 4787   1.301   2.115   4.586
 1594TIP3    H1 4788   1.271   2.039   4.535
 1594TIP3    H2 4789   1.396   2.106   4.589
 1595TIP3   OH2 4790   0.922   2.939   0.592
 1595TIP3    H1 4791   0.925   2.923   0.686
 1595TIP3    H2 4792   0.909   3.033   0.583
 1596TIP3   OH2 4793   0.746   5.608   2.534
 1596TIP3    H1 4794   0.830   5.575   2.501
 1596TIP3    H2 4795   0.769   5.673   2.600
 1597TIP3   OH2 4796   1.992   5.358   1.444
 1597TIP3    H1 4797   1.946   5.331   1.365
 1597TIP3    H2 4798   1.976   5.452   1.450
 1598TIP3   OH2 4799   2.396   3.341   0.628
 1598TIP3    H1 4800   2.335   3.292   0.684
 1598TIP3    H2 4801   2.457   3.275   0.596
 1599TIP3   OH2 4802   5.438   5.552   0.184
 1599TIP3    H1 4803   5.501   5.512   0.244
 1599TIP3    H2 4804   5.406   5.479   0.131
 1600TIP3   OH2 4805   4.062   2.763   4.124
 1600TIP3    H1 4806   4.103   2.692   4.173
 1600TIP3    H2 4807   4.129   2.791   4.061
 1601TIP3   OH2 4808   0.303   3.826   4.497
 1601TIP3    H1 4809   0.380   3.817   4.441
 1601TIP3    H2 4810   0.229   3.805   4.440
 1602TIP3   OH2 4811   5.923   3.102   4.757
 1602TIP3    H1 4812   5.863   3.176   4.754
 1602TIP3    H2 4813   5.934   3.076   4.666
 1603TIP3   OH2 4814   6.258   0.694   0.685
 1603TIP3    H1 4815   6.285   0.620   0.738
 1603TIP3    H2 4816   6.239   0.764   0.748
 1604TIP3   OH2 4817   4.307   0.778   2.430
 1604TIP3    H1 4818   4.317   0.719   2.356
 1604TIP3    H2 4819   4.213   0.786   2.442
 1605TIP3   OH2 4820   2.714  -0.046   3.322
 1605TIP3    H1 4821   2.788   0.013   3.337
 1605TIP3    H2 4822   2.637   0.009   3.331
 1606TIP3   OH2 4823   5.583   0.429   3.781
 1606TIP3    H1 4824   5.544   0.388   3.703
 1606TIP3    H2 4825   5.676   0.436   3.761
 1607TIP3   OH2 4826   1.700   1.067   1.968
 1607TIP3    H1 4827   1.675   1.062   2.061
 1607TIP3    H2 4828   1.617   1.074   1.921
 1608TIP3   OH2 4829   4.744   2.920   0.815
 1608TIP3    H1 4830   4.770   2.831   0.791
 1608TIP3    H2 4831   4.747   2.969   0.733
 1609TIP3   OH2 4832   2.546   2.652   0.107
 1609TIP3    H1 4833   2.496   2.570   0.103
 1609TIP3    H2 4834   2.481   2.718   0.130
 1610TIP3   OH2 4835   5.177   4.269   0.745
 1610TIP3    H1 4836   5.142   4.244   0.659
 1610TIP3    H2 4837   5.228   4.348   0.727
 1611TIP3   OH2 4838   3.622   4.319   5.083
 1611TIP3    H1 4839   3.550   4.270   5.042
 1611TIP3    H2 4840   3.655   4.376   5.013
 1612TIP3   OH2 4841   3.109   4.137   2.949
 1612TIP3    H1 4842   3.033   4.164   3.000
 1612TIP3    H2 4843   3.106   4.193   2.871
 1613TIP3   OH2 4844   1.295   3.876   5.040
 1613TIP3    H1 4845   1.368   3.939   5.042
 1613TIP3    H2 4846   1.332   3.798   4.999
 1614TIP3   OH2 4847   2.445   1.967   2.590
 1614TIP3    H1 4848   2.398   1.891   2.555
 1614TIP3    H2 4849   2.384   2.040   2.581
 1615TIP3   OH2 4850   2.933   5.474   3.262
 1615TIP3    H1 4851   2.848   5.430   3.263
 1615TIP3    H2 4852   2.997   5.403   3.260
 1616TIP3   OH2 4853   1.376   4.355   3.363
 1616TIP3    H1 4854   1.292   4.374   3.321
 1616TIP3    H2 4855   1.361   4.370   3.456
 1617TIP3   OH2 4856   2.350   4.636   0.353
 1617TIP3    H1 4857   2.421   4.662   0.294
 1617TIP3    H2 4858   2.341   4.710   0.413
 1618TIP3   OH2 4859   5.049   1.282   3.014
 1618TIP3    H1 4860   5.113   1.296   3.083
 1618TIP3    H2 4861   5.020   1.369   2.989
 1619TIP3   OH2 4862   4.096   5.751   1.401
 1619TIP3    H1 4863   4.065   5.821   1.343
 1619TIP3    H2 4864   4.048   5.673   1.373
 1620TIP3   OH2 4865   2.548   4.183   4.761
 1620TIP3    H1 4866   2.602   4.194   4.683
 1620TIP3    H2 4867   2.562   4.263   4.812
 1621TIP3   OH2 4868   5.027   5.516   1.837
 1621TIP3    H1 4869   4.964   5.578   1.874
 1621TIP3    H2 4870   5.082   5.491   1.911
 1622TIP3   OH2 4871   2.890   3.323   0.729
 1622TIP3    H1 4872   2.866   3.241   0.772
 1622TIP3    H2 4873   2.824   3.386   0.759
 1623TIP3   OH2 4874   0.299   4.559   3.702
 1623TIP3    H1 4875   0.271   4.640   3.661
 1623TIP3    H2 4876   0.346   4.512   3.633
 1624TIP3   OH2 4877   0.715   1.622   4.671
 1624TIP3    H1 4878   0.645   1.604   4.608
 1624TIP3    H2 4879   0.795   1.597   4.626
 1625TIP3   OH2 4880   1.472   3.637   2.168
 1625TIP3    H1 4881   1.502   3.665   2.255
 1625TIP3    H2 4882   1.414   3.708   2.139
 1626TIP3   OH2 4883   0.036   2.706   4.096
 1626TIP3    H1 4884   0.060   2.647   4.167
 1626TIP3    H2 4885   0.119   2.722   4.050
 1627TIP3   OH2 4886   1.808   3.625   4.830
 1627TIP3    H1 4887   1.836   3.533   4.831
 1627TIP3    H2 4888   1.738   3.627   4.765
 1628TIP3   OH2 4889   0.733   0.858   3.087
 1628TIP3    H1 4890   0.657   0.827   3.137
 1628TIP3    H2 4891   0.712   0.838   2.996
 1629TIP3   OH2 4892   3.885   5.650   4.546
 1629TIP3    H1 4893   3.818   5.637   4.479
 1629TIP3    H2 4894   3.885   5.744   4.562
 1630TIP3   OH2 4895   5.863   0.495   0.819
 1630TIP3    H1 4896   5.941   0.502   0.763
 1630TIP3    H2 4897   5.876   0.415   0.869
 1631TIP3   OH2 4898   0.611   0.129   0.514
 1631TIP3    H1 4899   0.601   0.138   0.609
 1631TIP3    H2 4900   0.541   0.182   0.477
 1632TIP3   OH2 4901   3.632   1.107   2.249
 1632TIP3    H1 4902   3.577   1.166   2.197
 1632TIP3    H2 4903   3.592   1.021   2.239
 1633TIP3   OH2 4904   5.273   2.969   4.385
 1633TIP3    H1 4905   5.196   3.022   4.367
 1633TIP3    H2 4906   5.283   2.973   4.480
 1634TIP3   OH2 4907   4.831   5.747   1.160
 1634TIP3    H1 4908   4.912   5.781   1.198
 1634TIP3    H2 4909   4.858   5.706   1.078
 1635TIP3   OH2 4910   3.193   3.911   5.106
 1635TIP3    H1 4911   3.184   3.950   5.019
 1635TIP3    H2 4912   3.106   3.918   5.145
 1636TIP3   OH2 4913   0.732   2.499   1.666
 1636TIP3    H1 4914   0.709   2.519   1.757
 1636TIP3    H2 4915   0.666   2.545   1.614
 1637TIP3   OH2 4916   2.737   3.194   1.828
 1637TIP3    H1 4917   2.683   3.250   1.773
 1637TIP3    H2 4918   2.726   3.229   1.917
 1638TIP3   OH2 4919   3.827   2.498   3.940
 1638TIP3    H1 4920   3.812   2.410   3.905
 1638TIP3    H2 4921   3.903   2.489   3.997
 1639TIP3   OH2 4922   0.491   0.093   3.128
 1639TIP3    H1 4923   0.551   0.077   3.055
 1639TIP3    H2 4924   0.540   0.063   3.205
 1640TIP3   OH2 4925   4.298   3.035   0.836
 1640TIP3    H1 4926   4.316   3.070   0.749
 1640TIP3    H2 4927   4.302   2.940   0.825
 1641TIP3   OH2 4928   3.881   5.435   1.864
 1641TIP3    H1 4929   3.798   5.396   1.892
 1641TIP3    H2 4930   3.858   5.488   1.788
 1642TIP3   OH2 4931   6.412   4.375   2.211
 1642TIP3    H1 4932   6.467   4.355   2.135
 1642TIP3    H2 4933   6.343   4.431   2.176
 1643TIP3   OH2 4934   4.483   2.174   4.447
 1643TIP3    H1 4935   4.414   2.136   4.501
 1643TIP3    H2 4936   4.561   2.122   4.467
 1644TIP3   OH2 4937   4.083   1.974   1.986
 1644TIP3    H1 4938   4.167   1.986   2.030
 1644TIP3    H2 4939   4.035   2.055   2.004
 1645TIP3   OH2 4940   0.029   4.609   3.445
 1645TIP3    H1 4941  -0.020   4.543   3.494
 1645TIP3    H2 4942  -0.038   4.666   3.407
 1646TIP3   OH2 4943   2.658   0.019   3.956
 1646TIP3    H1 4944   2.640   0.022   3.862
 1646TIP3    H2 4945   2.712   0.096   3.973
 1647TIP3   OH2 4946   0.602   2.677   3.908
 1647TIP3    H1 4947   0.669   2.639   3.850
 1647TIP3    H2 4948   0.521   2.632   3.883
 1648TIP3   OH2 4949   4.213   0.131   1.503
 1648TIP3    H1 4950   4.179   0.085   1.580
 1648TIP3    H2 4951   4.150   0.111   1.433
 1649TIP3   OH2 4952   2.798   0.287   1.435
 1649TIP3    H1 4953   2.787   0.239   1.353
 1649TIP3    H2 4954   2.731   0.356   1.432
 1650TIP3   OH2 4955   1.502   3.449   4.873
 1650TIP3    H1 4956   1.476   3.357   4.865
 1650TIP3    H2 4957   1.587   3.447   4.917
 1651TIP3   OH2 4958   1.879   5.189   0.030
 1651TIP3    H1 4959   1.917   5.262  -0.019
 1651TIP3    H2 4960   1.895   5.113  -0.025
 1652TIP3   OH2 4961   6.081   4.731   3.189
 1652TIP3    H1 4962   6.091   4.694   3.277
 1652TIP3    H2 4963   6.143   4.683   3.135
 1653TIP3   OH2 4964   5.852   1.497   2.515
 1653TIP3    H1 4965   5.912   1.429   2.545
 1653TIP3    H2 4966   5.819   1.464   2.431
 1654TIP3   OH2 4967   6.210   4.365   0.956
 1654TIP3    H1 4968   6.187   4.321   1.038
 1654TIP3    H2 4969   6.154   4.443   0.954
 1655TIP3   OH2 4970   3.920   1.858   2.365
 1655TIP3    H1 4971   3.892   1.814   2.285
 1655TIP3    H2 4972   3.950   1.788   2.423
 1656TIP3   OH2 4973   3.117   3.624   1.944
 1656TIP3    H1 4974   3.150   3.701   1.990
 1656TIP3    H2 4975   3.024   3.643   1.930
 1657TIP3   OH2 4976   6.115   2.704   1.268
 1657TIP3    H1 4977   6.194   2.690   1.216
 1657TIP3    H2 4978   6.097   2.798   1.259
 1658TIP3   OH2 4979   3.873   1.112   1.841
 1658TIP3    H1 4980   3.907   1.142   1.757
 1658TIP3    H2 4981   3.883   1.017   1.839
 1659TIP3   OH2 4982   0.731   3.867   3.600
 1659TIP3    H1 4983   0.795   3.818   3.651
 1659TIP3    H2 4984   0.646   3.833   3.629
 1660TIP3   OH2 4985   4.029   1.509   2.109
 1660TIP3    H1 4986   4.001   1.418   2.103
 1660TIP3    H2 4987   3.949   1.558   2.124
 1661TIP3   OH2 4988   1.521   5.616   1.840
 1661TIP3    H1 4989   1.483   5.703   1.842
 1661TIP3    H2 4990   1.605   5.625   1.887
 1662TIP3   OH2 4991   2.654   1.728   2.041
 1662TIP3    H1 4992   2.737   1.699   2.004
 1662TIP3    H2 4993   2.608   1.768   1.967
 1663TIP3   OH2 4994   1.483   1.695   1.037
 1663TIP3    H1 4995   1.521   1.608   1.050
 1663TIP3    H2 4996   1.548   1.755   1.073
 1664TIP3   OH2 4997   4.442   0.382   4.792
 1664TIP3    H1 4998   4.363   0.425   4.825
 1664TIP3    H2 4999   4.473   0.329   4.865
 1665TIP3   OH2 5000   2.348   5.907   0.672
 1665TIP3    H1 5001   2.327   5.983   0.725
 1665TIP3    H2 5002   2.444   5.905   0.670
 1666TIP3   OH2 5003   4.256   4.470   3.530
 1666TIP3    H1 5004   4.314   4.401   3.563
 1666TIP3    H2 5005   4.261   4.463   3.435
 1667TIP3   OH2 5006   0.318   5.986   5.059
 1667TIP3    H1 5007   0.352   5.909   5.103
 1667TIP3    H2 5008   0.377   6.057   5.083
 1668TIP3   OH2 5009   2.993   0.132   2.273
 1668TIP3    H1 5010   3.072   0.104   2.228
 1668TIP3    H2 5011   2.943   0.180   2.207
 1669TIP3   OH2 5012   5.563   5.661   4.704
 1669TIP3    H1 5013   5.644   5.706   4.728
 1669TIP3    H2 5014   5.545   5.603   4.778
 1670TIP3   OH2 5015   0.622   1.050   4.925
 1670TIP3    H1 5016   0.694   1.048   4.862
 1670TIP3    H2 5017   0.653   0.997   4.999
 1671TIP3   OH2 5018   0.290   5.768   2.756
 1671TIP3    H1 5019   0.348   5.843   2.742
 1671TIP3    H2 5020   0.349   5.694   2.768
 1672TIP3   OH2 5021   4.746   1.993   2.838
 1672TIP3    H1 5022   4.770   2.056   2.906
 1672TIP3    H2 5023   4.801   1.916   2.856
 1673TIP3   OH2 5024   5.270   2.325   0.786
 1673TIP3    H1 5025   5.201   2.379   0.748
 1673TIP3    H2 5026   5.340   2.326   0.721
 1674TIP3   OH2 5027   2.078   0.072   4.811
 1674TIP3    H1 5028   2.002   0.107   4.858
 1674TIP3    H2 5029   2.093  -0.014   4.852
 1675TIP3   OH2 5030   4.586   3.702   0.980
 1675TIP3    H1 5031   4.583   3.738   0.891
 1675TIP3    H2 5032   4.522   3.631   0.979
 1676TIP3   OH2 5033   4.556   5.310   1.529
 1676TIP3    H1 5034   4.503   5.241   1.569
 1676TIP3    H2 5035   4.643   5.271   1.520
 1677TIP3   OH2 5036   0.954   2.371   2.441
 1677TIP3    H1 5037   0.887   2.316   2.483
 1677TIP3    H2 5038   0.970   2.441   2.504
 1678TIP3   OH2 5039   2.408   1.322   2.490
 1678TIP3    H1 5040   2.479   1.379   2.517
 1678TIP3    H2 5041   2.449   1.239   2.469
 1679TIP3   OH2 5042   4.930   2.660   1.109
 1679TIP3    H1 5043   5.011   2.652   1.059
 1679TIP3    H2 5044   4.918   2.754   1.120
 1680TIP3   OH2 5045   5.107   5.711   5.165
 1680TIP3    H1 5046   5.092   5.804   5.182
 1680TIP3    H2 5047   5.038   5.687   5.102
 1681TIP3   OH2 5048   1.082   2.436   2.164
 1681TIP3    H1 5049   1.091   2.484   2.082
 1681TIP3    H2 5050   1.126   2.490   2.229
 1682TIP3   OH2 5051   3.646   5.775   5.071
 1682TIP3    H1 5052   3.605   5.718   5.137
 1682TIP3    H2 5053   3.617   5.863   5.095
 1683TIP3   OH2 5054   4.307   0.373   1.287
 1683TIP3    H1 5055   4.296   0.349   1.195
 1683TIP3    H2 5056   4.296   0.291   1.335
 1684TIP3   OH2 5057   3.168   0.384   4.681
 1684TIP3    H1 5058   3.214   0.442   4.742
 1684TIP3    H2 5059   3.217   0.302   4.684
 1685TIP3   OH2 5060   0.303   2.956   1.747
 1685TIP3    H1 5061   0.283   3.044   1.713
 1685TIP3    H2 5062   0.271   2.897   1.680
 1686TIP3   OH2 5063   3.551   5.746   0.789
 1686TIP3    H1 5064   3.616   5.817   0.795
 1686TIP3    H2 5065   3.468   5.792   0.778
 1687TIP3   OH2 5066   1.499   3.398   0.353
 1687TIP3    H1 5067   1.411   3.375   0.322
 1687TIP3    H2 5068   1.558   3.363   0.285
 1688TIP3   OH2 5069   0.545   2.608   3.067
 1688TIP3    H1 5070   0.604   2.535   3.047
 1688TIP3    H2 5071   0.599   2.686   3.058
 1689TIP3   OH2 5072   0.427   4.242   1.855
 1689TIP3    H1 5073   0.472   4.326   1.864
 1689TIP3    H2 5074   0.497   4.177   1.852
 1690TIP3   OH2 5075   4.504   3.768   3.160
 1690TIP3    H1 5076   4.439   3.837   3.177
 1690TIP3    H2 5077   4.457   3.686   3.177
 1691TIP3   OH2 5078   1.752   5.933   3.909
 1691TIP3    H1 5079   1.717   5.847   3.885
 1691TIP3    H2 5080   1.844   5.916   3.931
 1692TIP3   OH2 5081   3.319   5.060   3.696
 1692TIP3    H1 5082   3.304   5.064   3.601
 1692TIP3    H2 5083   3.251   5.117   3.733
 1693TIP3   OH2 5084   5.445   4.163   0.601
 1693TIP3    H1 5085   5.431   4.224   0.674
 1693TIP3    H2 5086   5.366   4.108   0.600
 1694TIP3   OH2 5087   0.035   3.513   4.505
 1694TIP3    H1 5088   0.065   3.422   4.495
 1694TIP3    H2 5089   0.081   3.561   4.437
 1695TIP3   OH2 5090   4.063   3.956   1.345
 1695TIP3    H1 5091   4.071   4.042   1.303
 1695TIP3    H2 5092   4.073   3.974   1.438
 1696TIP3   OH2 5093   1.371   0.370   2.611
 1696TIP3    H1 5094   1.401   0.372   2.520
 1696TIP3    H2 5095   1.280   0.399   2.606
 1697TIP3   OH2 5096   6.333   1.743  -0.026
 1697TIP3    H1 5097   6.302   1.654  -0.039
 1697TIP3    H2 5098   6.322   1.760   0.067
 1698TIP3   OH2 5099   1.420   4.928   3.644
 1698TIP3    H1 5100   1.362   4.871   3.594
 1698TIP3    H2 5101   1.466   4.979   3.578
 1699TIP3   OH2 5102   4.451   0.893   3.570
 1699TIP3    H1 5103   4.379   0.902   3.508
 1699TIP3    H2 5104   4.527   0.871   3.516
 1700TIP3   OH2 5105   4.436   2.489   3.304
 1700TIP3    H1 5106   4.488   2.471   3.226
 1700TIP3    H2 5107   4.431   2.406   3.350
 1701TIP3   OH2 5108   1.266   5.016   4.465
 1701TIP3    H1 5109   1.331   5.050   4.404
 1701TIP3    H2 5110   1.318   4.983   4.539
 1702TIP3   OH2 5111   2.513   4.747   0.144
 1702TIP3    H1 5112   2.608   4.741   0.155
 1702TIP3    H2 5113   2.498   4.716   0.054
 1703TIP3   OH2 5114   4.022   1.634   3.548
 1703TIP3    H1 5115   4.009   1.680   3.465
 1703TIP3    H2 5116   4.113   1.606   3.547
 1704TIP3   OH2 5117   3.486   5.363   4.051
 1704TIP3    H1 5118   3.514   5.293   4.110
 1704TIP3    H2 5119   3.455   5.317   3.973
 1705TIP3   OH2 5120   5.651   1.613   4.491
 1705TIP3    H1 5121   5.723   1.648   4.437
 1705TIP3    H2 5122   5.573   1.657   4.458
 1706TIP3   OH2 5123   3.021   3.841   1.325
 1706TIP3    H1 5124   3.039   3.748   1.338
 1706TIP3    H2 5125   3.074   3.885   1.391
 1707TIP3   OH2 5126   0.077   1.453   2.036
 1707TIP3    H1 5127   0.029   1.391   2.091
 1707TIP3    H2 5128   0.073   1.536   2.083
 1708TIP3   OH2 5129   0.794   1.731   2.110
 1708TIP3    H1 5130   0.805   1.678   2.189
 1708TIP3    H2 5131   0.875   1.782   2.104
 1709TIP3   OH2 5132   4.812   2.689   2.283
 1709TIP3    H1 5133   4.788   2.598   2.299
 1709TIP3    H2 5134   4.778   2.709   2.196
 1710TIP3   OH2 5135   0.815   0.637   0.548
 1710TIP3    H1 5136   0.886   0.702   0.547
 1710TIP3    H2 5137   0.764   0.659   0.627
 1711TIP3   OH2 5138   4.488   0.246   0.801
 1711TIP3    H1 5139   4.476   0.204   0.886
 1711TIP3    H2 5140   4.400   0.275   0.776
 1712TIP3   OH2 5141   0.437   5.536   2.395
 1712TIP3    H1 5142   0.346   5.551   2.424
 1712TIP3    H2 5143   0.433   5.542   2.300
 1713TIP3   OH2 5144   5.799   2.499   1.619
 1713TIP3    H1 5145   5.791   2.508   1.524
 1713TIP3    H2 5146   5.709   2.492   1.650
 1714TIP3   OH2 5147   2.857   1.174   2.478
 1714TIP3    H1 5148   2.784   1.226   2.446
 1714TIP3    H2 5149   2.835   1.155   2.569
 1715TIP3   OH2 5150   1.142   5.051   2.003
 1715TIP3    H1 5151   1.156   5.125   2.061
 1715TIP3    H2 5152   1.229   5.034   1.965
 1716TIP3   OH2 5153   1.606   3.982   4.614
 1716TIP3    H1 5154   1.685   4.025   4.645
 1716TIP3    H2 5155   1.547   4.053   4.591
 1717TIP3   OH2 5156   6.389   5.028   2.449
 1717TIP3    H1 5157   6.389   4.934   2.467
 1717TIP3    H2 5158   6.299   5.055   2.464
 1718TIP3   OH2 5159   1.966   1.609   0.747
 1718TIP3    H1 5160   1.959   1.549   0.673
 1718TIP3    H2 5161   2.029   1.568   0.806
 1719TIP3   OH2 5162   3.793   1.868   4.315
 1719TIP3    H1 5163   3.768   1.780   4.286
 1719TIP3    H2 5164   3.819   1.857   4.406
 1720TIP3   OH2 5165   1.633   0.066   1.127
 1720TIP3    H1 5166   1.612   0.100   1.214
 1720TIP3    H2 5167   1.714   0.017   1.140
 1721TIP3   OH2 5168   4.003   4.372   3.559
 1721TIP3    H1 5169   3.961   4.459   3.557
 1721TIP3    H2 5170   4.096   4.390   3.547
 1722TIP3   OH2 5171   0.672   1.651   3.338
 1722TIP3    H1 5172   0.620   1.578   3.305
 1722TIP3    H2 5173   0.713   1.617   3.418
 1723TIP3   OH2 5174   5.388   1.276   1.930
 1723TIP3    H1 5175   5.406   1.363   1.894
 1723TIP3    H2 5176   5.437   1.272   2.011
 1724TIP3   OH2 5177   0.250   1.606   1.561
 1724TIP3    H1 5178   0.202   1.627   1.481
 1724TIP3    H2 5179   0.264   1.511   1.557
 1725TIP3   OH2 5180   5.337   0.428   3.007
 1725TIP3    H1 5181   5.427   0.459   2.995
 1725TIP3    H2 5182   5.292   0.501   3.051
 1726TIP3   OH2 5183   3.462   0.749   3.458
 1726TIP3    H1 5184   3.510   0.820   3.501
 1726TIP3    H2 5185   3.498   0.747   3.369
 1727TIP3   OH2 5186   6.162   1.578   3.190
 1727TIP3    H1 5187   6.180   1.672   3.183
 1727TIP3    H2 5188   6.068   1.570   3.169
 1728TIP3   OH2 5189   4.441   2.805   3.629
 1728TIP3    H1 5190   4.353   2.782   3.599
 1728TIP3    H2 5191   4.461   2.741   3.697
 1729TIP3   OH2 5192   3.687   2.146   3.284
 1729TIP3    H1 5193   3.740   2.225   3.293
 1729TIP3    H2 5194   3.749   2.079   3.256
 1730TIP3   OH2 5195   1.195   3.893   0.850
 1730TIP3    H1 5196   1.168   3.816   0.800
 1730TIP3    H2 5197   1.113   3.929   0.885
 1731TIP3   OH2 5198   4.594   2.702   3.387
 1731TIP3    H1 5199   4.540   2.751   3.450
 1731TIP3    H2 5200   4.536   2.633   3.355
 1732TIP3   OH2 5201   6.012   5.141   1.195
 1732TIP3    H1 5202   6.003   5.172   1.105
 1732TIP3    H2 5203   5.931   5.168   1.238
 1733TIP3   OH2 5204   0.773   3.914   4.268
 1733TIP3    H1 5205   0.726   3.985   4.223
 1733TIP3    H2 5206   0.865   3.931   4.248
 1734TIP3   OH2 5207   1.708   3.023   0.924
 1734TIP3    H1 5208   1.789   3.069   0.902
 1734TIP3    H2 5209   1.654   3.089   0.967
 1735TIP3   OH2 5210   1.057   2.837   3.507
 1735TIP3    H1 5211   1.092   2.775   3.571
 1735TIP3    H2 5212   1.019   2.907   3.560
 1736TIP3   OH2 5213   0.390   0.931   4.486
 1736TIP3    H1 5214   0.311   0.877   4.483
 1736TIP3    H2 5215   0.391   0.967   4.574
 1737TIP3   OH2 5216   6.318   5.260   3.274
 1737TIP3    H1 5217   6.274   5.338   3.307
 1737TIP3    H2 5218   6.279   5.187   3.323
 1738TIP3   OH2 5219   4.202   2.443   2.814
 1738TIP3    H1 5220   4.139   2.372   2.825
 1738TIP3    H2 5221   4.285   2.406   2.843
 1739TIP3   OH2 5222   4.487   0.103   1.032
 1739TIP3    H1 5223   4.556   0.045   0.999
 1739TIP3    H2 5224   4.416   0.043   1.057
 1740TIP3   OH2 5225   2.388   0.036   4.799
 1740TIP3    H1 5226   2.407   0.039   4.893
 1740TIP3    H2 5227   2.296   0.063   4.792
 1741TIP3   OH2 5228   2.510   2.566   4.149
 1741TIP3    H1 5229   2.430   2.607   4.115
 1741TIP3    H2 5230   2.481   2.480   4.180
 1742TIP3   OH2 5231   5.489   1.059   3.278
 1742TIP3    H1 5232   5.501   0.991   3.345
 1742TIP3    H2 5233   5.465   1.137   3.327
 1743TIP3   OH2 5234   5.032   5.230   0.034
 1743TIP3    H1 5235   5.039   5.216   0.128
 1743TIP3    H2 5236   5.086   5.307   0.016
 1744TIP3   OH2 5237   4.467   0.304   1.853
 1744TIP3    H1 5238   4.548   0.350   1.872
 1744TIP3    H2 5239   4.458   0.310   1.758
 1745TIP3   OH2 5240   2.690   1.955   3.247
 1745TIP3    H1 5241   2.764   1.904   3.214
 1745TIP3    H2 5242   2.627   1.890   3.277
 1746TIP3   OH2 5243   0.535   3.440   0.972
 1746TIP3    H1 5244   0.501   3.487   0.895
 1746TIP3    H2 5245   0.627   3.422   0.951
 1747TIP3   OH2 5246   0.107   5.188   4.141
 1747TIP3    H1 5247   0.181   5.249   4.148
 1747TIP3    H2 5248   0.038   5.239   4.098
 1748TIP3   OH2 5249   0.436   0.958   1.109
 1748TIP3    H1 5250   0.395   1.017   1.046
 1748TIP3    H2 5251   0.432   0.871   1.068
 1749TIP3   OH2 5252   0.990   5.042   3.420
 1749TIP3    H1 5253   0.931   4.969   3.436
 1749TIP3    H2 5254   1.052   5.009   3.354
 1750TIP3   OH2 5255   2.807   2.468   3.161
 1750TIP3    H1 5256   2.725   2.515   3.148
 1750TIP3    H2 5257   2.871   2.536   3.179
 1751TIP3   OH2 5258   3.449   3.481   3.105
 1751TIP3    H1 5259   3.529   3.513   3.062
 1751TIP3    H2 5260   3.407   3.560   3.139
 1752TIP3   OH2 5261   1.907   1.701   2.961
 1752TIP3    H1 5262   1.859   1.779   2.934
 1752TIP3    H2 5263   1.851   1.660   3.027
 1753TIP3   OH2 5264   4.469   0.222   3.755
 1753TIP3    H1 5265   4.560   0.207   3.777
 1753TIP3    H2 5266   4.419   0.174   3.820
 1754TIP3   OH2 5267   0.015   4.958   4.244
 1754TIP3    H1 5268   0.074   4.892   4.207
 1754TIP3    H2 5269   0.048   5.041   4.209
 1755TIP3   OH2 5270   4.462   5.776   1.937
 1755TIP3    H1 5271   4.541   5.728   1.912
 1755TIP3    H2 5272   4.495   5.862   1.965
 1756TIP3   OH2 5273   1.864   0.610   4.909
 1756TIP3    H1 5274   1.950   0.649   4.896
 1756TIP3    H2 5275   1.868   0.526   4.862
 1757TIP3   OH2 5276   2.043   4.815   3.450
 1757TIP3    H1 5277   2.049   4.812   3.546
 1757TIP3    H2 5278   2.089   4.896   3.426
 1758TIP3   OH2 5279   0.124   5.699   3.646
 1758TIP3    H1 5280   0.121   5.745   3.730
 1758TIP3    H2 5281   0.066   5.750   3.589
 1759TIP3   OH2 5282   5.546   5.066   3.040
 1759TIP3    H1 5283   5.468   5.091   3.089
 1759TIP3    H2 5284   5.616   5.066   3.106
 1760TIP3   OH2 5285   1.029   5.315   3.998
 1760TIP3    H1 5286   1.061   5.250   3.935
 1760TIP3    H2 5287   1.106   5.342   4.047
 1761TIP3   OH2 5288   1.015   0.951   3.746
 1761TIP3    H1 5289   1.086   0.936   3.683
 1761TIP3    H2 5290   0.949   1.000   3.697
 1762TIP3   OH2 5291   3.443   5.312   3.641
 1762TIP3    H1 5292   3.470   5.357   3.720
 1762TIP3    H2 5293   3.431   5.221   3.668
 1763TIP3   OH2 5294   1.049   5.364   4.352
 1763TIP3    H1 5295   1.095   5.440   4.386
 1763TIP3    H2 5296   1.089   5.348   4.266
 1764TIP3   OH2 5297   1.096   4.950   3.169
 1764TIP3    H1 5298   1.168   4.921   3.113
 1764TIP3    H2 5299   1.031   4.881   3.162
 1765TIP3   OH2 5300   1.544   1.865   4.523
 1765TIP3    H1 5301   1.480   1.882   4.454
 1765TIP3    H2 5302   1.555   1.770   4.522
 1766TIP3   OH2 5303   3.578   1.965   4.933
 1766TIP3    H1 5304   3.542   1.877   4.930
 1766TIP3    H2 5305   3.519   2.014   4.990
 1767TIP3   OH2 5306   5.516   5.980   4.355
 1767TIP3    H1 5307   5.511   5.914   4.286
 1767TIP3    H2 5308   5.507   5.930   4.437
 1768TIP3   OH2 5309   1.658   4.365   4.603
 1768TIP3    H1 5310   1.612   4.283   4.587
 1768TIP3    H2 5311   1.731   4.365   4.540
 1769TIP3   OH2 5312   1.633   0.713   3.839
 1769TIP3    H1 5313   1.698   0.773   3.875
 1769TIP3    H2 5314   1.586   0.680   3.916
 1770TIP3   OH2 5315   4.603   1.462   0.499
 1770TIP3    H1 5316   4.574   1.373   0.518
 1770TIP3    H2 5317   4.684   1.451   0.449
 1771TIP3   OH2 5318   5.112   0.046   1.552
 1771TIP3    H1 5319   5.035  -0.011   1.553
 1771TIP3    H2 5320   5.098   0.103   1.477
 1772TIP3   OH2 5321   3.208   4.233   1.383
 1772TIP3    H1 5322   3.267   4.226   1.309
 1772TIP3    H2 5323   3.265   4.234   1.460
 1773TIP3   OH2 5324   5.635   3.702   0.439
 1773TIP3    H1 5325   5.658   3.795   0.437
 1773TIP3    H2 5326   5.585   3.688   0.359
 1774TIP3   OH2 5327   2.888   0.664   2.851
 1774TIP3    H1 5328   2.941   0.629   2.780
 1774TIP3    H2 5329   2.810   0.699   2.808
 1775TIP3   OH2 5330   3.067   1.113   3.024
 1775TIP3    H1 5331   3.081   1.021   3.049
 1775TIP3    H2 5332   3.075   1.113   2.929
 1776TIP3   OH2 5333   3.630   4.532   0.492
 1776TIP3    H1 5334   3.643   4.483   0.573
 1776TIP3    H2 5335   3.632   4.624   0.519
 1777TIP3   OH2 5336   2.811   2.211   0.854
 1777TIP3    H1 5337   2.874   2.283   0.862
 1777TIP3    H2 5338   2.805   2.195   0.760
 1778TIP3   OH2 5339   2.144   3.148   2.876
 1778TIP3    H1 5340   2.082   3.083   2.909
 1778TIP3    H2 5341   2.126   3.226   2.927
 1779TIP3   OH2 5342   0.522   2.806   0.192
 1779TIP3    H1 5343   0.448   2.867   0.188
 1779TIP3    H2 5344   0.521   2.773   0.282
 1780TIP3   OH2 5345   5.186   2.226   1.786
 1780TIP3    H1 5346   5.112   2.192   1.736
 1780TIP3    H2 5347   5.148   2.296   1.840
 1781TIP3   OH2 5348   2.952   4.833   3.317
 1781TIP3    H1 5349   3.034   4.842   3.364
 1781TIP3    H2 5350   2.968   4.875   3.232
 1782TIP3   OH2 5351   2.543   1.909   2.216
 1782TIP3    H1 5352   2.594   1.851   2.160
 1782TIP3    H2 5353   2.566   1.884   2.305
 1783TIP3   OH2 5354   3.659   3.268   4.871
 1783TIP3    H1 5355   3.638   3.284   4.963
 1783TIP3    H2 5356   3.690   3.177   4.869
 1784TIP3   OH2 5357   4.673   3.659   2.407
 1784TIP3    H1 5358   4.762   3.637   2.377
 1784TIP3    H2 5359   4.629   3.693   2.329
 1785TIP3   OH2 5360   5.885   4.430   5.023
 1785TIP3    H1 5361   5.925   4.485   5.091
 1785TIP3    H2 5362   5.866   4.347   5.067
 1786TIP3   OH2 5363   1.909   4.169   0.911
 1786TIP3    H1 5364   1.859   4.123   0.977
 1786TIP3    H2 5365   1.883   4.129   0.828
 1787TIP3   OH2 5366   5.031   3.575   1.510
 1787TIP3    H1 5367   4.972   3.567   1.435
 1787TIP3    H2 5368   5.062   3.486   1.526
 1788TIP3   OH2 5369   1.982   5.427   1.093
 1788TIP3    H1 5370   1.902   5.463   1.131
 1788TIP3    H2 5371   1.994   5.343   1.137
 1789TIP3   OH2 5372   5.625   2.440   1.320
 1789TIP3    H1 5373   5.624   2.347   1.345
 1789TIP3    H2 5374   5.705   2.450   1.268
 1790TIP3   OH2 5375   0.612   4.706   3.409
 1790TIP3    H1 5376   0.539   4.704   3.472
 1790TIP3    H2 5377   0.689   4.723   3.463
 1791TIP3   OH2 5378   4.179   4.455   0.464
 1791TIP3    H1 5379   4.162   4.510   0.388
 1791TIP3    H2 5380   4.146   4.507   0.538
 1792TIP3   OH2 5381   1.647   4.822   3.921
 1792TIP3    H1 5382   1.689   4.739   3.945
 1792TIP3    H2 5383   1.553   4.804   3.931
 1793TIP3   OH2 5384   4.862   0.323   2.351
 1793TIP3    H1 5385   4.887   0.332   2.442
 1793TIP3    H2 5386   4.783   0.268   2.353
 1794TIP3   OH2 5387   0.277   0.709   4.775
 1794TIP3    H1 5388   0.367   0.710   4.807
 1794TIP3    H2 5389   0.247   0.799   4.783
 1795TIP3   OH2 5390   0.161   0.318   2.543
 1795TIP3    H1 5391   0.153   0.230   2.578
 1795TIP3    H2 5392   0.147   0.309   2.449
 1796TIP3   OH2 5393   2.572   3.999   5.106
 1796TIP3    H1 5394   2.543   3.936   5.039
 1796TIP3    H2 5395   2.587   3.945   5.184
 1797TIP3   OH2 5396   2.034   0.600   1.133
 1797TIP3    H1 5397   2.129   0.607   1.134
 1797TIP3    H2 5398   2.003   0.691   1.127
 1798TIP3   OH2 5399   3.636   3.265   0.368
 1798TIP3    H1 5400   3.643   3.174   0.396
 1798TIP3    H2 5401   3.549   3.272   0.330
 1799TIP3   OH2 5402   4.068   0.944   4.666
 1799TIP3    H1 5403   4.059   0.895   4.748
 1799TIP3    H2 5404   4.163   0.951   4.653
 1800TIP3   OH2 5405   6.292   3.421   2.328
 1800TIP3    H1 5406   6.196   3.418   2.325
 1800TIP3    H2 5407   6.315   3.488   2.263
 1801TIP3   OH2 5408   0.603   4.393   4.397
 1801TIP3    H1 5409   0.595   4.409   4.491
 1801TIP3    H2 5410   0.689   4.353   4.387
 1802TIP3   OH2 5411   2.487   3.074   1.339
 1802TIP3    H1 5412   2.399   3.089   1.373
 1802TIP3    H2 5413   2.516   2.994   1.382
 1803TIP3   OH2 5414   4.882   4.038   1.105
 1803TIP3    H1 5415   4.855   3.947   1.116
 1803TIP3    H2 5416   4.884   4.051   1.010
 1804TIP3   OH2 5417   5.586   5.476   1.153
 1804TIP3    H1 5418   5.573   5.382   1.161
 1804TIP3    H2 5419   5.569   5.510   1.241
 1805TIP3   OH2 5420   1.970   3.026   3.192
 1805TIP3    H1 5421   1.931   3.050   3.276
 1805TIP3    H2 5422   2.003   2.937   3.205
 1806TIP3   OH2 5423   2.762   0.786   1.685
 1806TIP3    H1 5424   2.818   0.719   1.725
 1806TIP3    H2 5425   2.822   0.858   1.665
 1807TIP3   OH2 5426   0.887   5.287   1.390
 1807TIP3    H1 5427   0.797   5.302   1.420
 1807TIP3    H2 5428   0.877   5.241   1.306
 1808TIP3   OH2 5429   5.722   5.759   2.888
 1808TIP3    H1 5430   5.650   5.820   2.875
 1808TIP3    H2 5431   5.690   5.697   2.954
 1809TIP3   OH2 5432   3.584   2.764   0.281
 1809TIP3    H1 5433   3.600   2.715   0.201
 1809TIP3    H2 5434   3.501   2.810   0.264
 1810TIP3   OH2 5435   0.684   1.339   4.161
 1810TIP3    H1 5436   0.591   1.321   4.146
 1810TIP3    H2 5437   0.716   1.262   4.208
 1811TIP3   OH2 5438   0.089   1.153   1.183
 1811TIP3    H1 5439   0.046   1.170   1.267
 1811TIP3    H2 5440   0.091   1.238   1.139
 1812TIP3   OH2 5441   1.765   5.651   4.135
 1812TIP3    H1 5442   1.740   5.581   4.075
 1812TIP3    H2 5443   1.765   5.609   4.222
 1813TIP3   OH2 5444   1.115   0.361   4.435
 1813TIP3    H1 5445   1.175   0.407   4.375
 1813TIP3    H2 5446   1.170   0.336   4.509
 1814TIP3   OH2 5447   3.548   0.595   1.937
 1814TIP3    H1 5448   3.639   0.581   1.914
 1814TIP3    H2 5449   3.533   0.539   2.013
 1815TIP3   OH2 5450   5.817   2.000   2.628
 1815TIP3    H1 5451   5.784   1.924   2.675
 1815TIP3    H2 5452   5.800   1.981   2.536
 1816TIP3   OH2 5453   1.187   3.260   1.354
 1816TIP3    H1 5454   1.245   3.295   1.423
 1816TIP3    H2 5455   1.157   3.338   1.307
 1817TIP3   OH2 5456   6.261   0.380   4.670
 1817TIP3    H1 5457   6.333   0.320   4.647
 1817TIP3    H2 5458   6.305   0.453   4.714
 1818TIP3   OH2 5459   0.100   2.879   2.168
 1818TIP3    H1 5460   0.036   2.808   2.162
 1818TIP3    H2 5461   0.181   2.841   2.137
 1819TIP3   OH2 5462   2.145   0.305   0.540
 1819TIP3    H1 5463   2.060   0.264   0.523
 1819TIP3    H2 5464   2.175   0.334   0.453
 1820TIP3   OH2 5465   4.863   4.821   1.838
 1820TIP3    H1 5466   4.815   4.857   1.762
 1820TIP3    H2 5467   4.954   4.817   1.809
 1821TIP3   OH2 5468   2.404   0.394   3.609
 1821TIP3    H1 5469   2.490   0.413   3.645
 1821TIP3    H2 5470   2.414   0.408   3.515
 1822TIP3   OH2 5471   3.829   5.195   3.903
 1822TIP3    H1 5472   3.825   5.218   3.996
 1822TIP3    H2 5473   3.862   5.275   3.861
 1823TIP3   OH2 5474   3.176   0.210   0.494
 1823TIP3    H1 5475   3.122   0.168   0.561
 1823TIP3    H2 5476   3.141   0.299   0.487
 1824TIP3   OH2 5477   1.537   0.063   0.689
 1824TIP3    H1 5478   1.518   0.154   0.670
 1824TIP3    H2 5479   1.506   0.050   0.779
 1825TIP3   OH2 5480   2.038   5.650   1.369
 1825TIP3    H1 5481   1.968   5.684   1.313
 1825TIP3    H2 5482   2.108   5.626   1.308
 1826TIP3   OH2 5483   6.340   1.874   4.510
 1826TIP3    H1 5484   6.372   1.964   4.502
 1826TIP3    H2 5485   6.291   1.873   4.592
 1827TIP3   OH2 5486   2.368   4.082   4.460
 1827TIP3    H1 5487   2.383   4.104   4.368
 1827TIP3    H2 5488   2.450   4.041   4.489
 1828TIP3   OH2 5489   4.419   3.100   2.629
 1828TIP3    H1 5490   4.395   3.010   2.607
 1828TIP3    H2 5491   4.415   3.102   2.725
 1829TIP3   OH2 5492   0.183   4.758   0.412
 1829TIP3    H1 5493   0.196   4.767   0.506
 1829TIP3    H2 5494   0.088   4.754   0.400
 1830TIP3   OH2 5495   3.669   5.987   3.569
 1830TIP3    H1 5496   3.720   5.938   3.634
 1830TIP3    H2 5497   3.690   5.945   3.486
 1831TIP3   OH2 5498   4.980   1.847   4.070
 1831TIP3    H1 5499   4.934   1.917   4.025
 1831TIP3    H2 5500   4.914   1.778   4.081
 1832TIP3   OH2 5501   2.686   2.056   5.241
 1832TIP3    H1 5502   2.653   2.075   5.153
 1832TIP3    H2 5503   2.775   2.089   5.242
 1833TIP3   OH2 5504   2.793   1.559   2.836
 1833TIP3    H1 5505   2.803   1.636   2.893
 1833TIP3    H2 5506   2.871   1.507   2.852
 1834TIP3   OH2 5507   3.451   5.754   1.901
 1834TIP3    H1 5508   3.418   5.844   1.909
 1834TIP3    H2 5509   3.470   5.727   1.991
 1835TIP3   OH2 5510   4.794   1.140   1.871
 1835TIP3    H1 5511   4.795   1.116   1.778
 1835TIP3    H2 5512   4.786   1.236   1.871
 1836TIP3   OH2 5513   4.980   3.744   3.934
 1836TIP3    H1 5514   5.068   3.727   3.902
 1836TIP3    H2 5515   4.933   3.779   3.858
 1837TIP3   OH2 5516   3.124   3.895   0.471
 1837TIP3    H1 5517   3.030   3.877   0.467
 1837TIP3    H2 5518   3.137   3.935   0.557
 1838TIP3   OH2 5519   3.668   4.534   4.113
 1838TIP3    H1 5520   3.761   4.522   4.131
 1838TIP3    H2 5521   3.636   4.446   4.091
 1839TIP3   OH2 5522   5.118   4.226   3.672
 1839TIP3    H1 5523   5.183   4.160   3.700
 1839TIP3    H2 5524   5.143   4.247   3.582
 1840TIP3   OH2 5525   1.858   1.410   2.013
 1840TIP3    H1 5526   1.910   1.343   1.969
 1840TIP3    H2 5527   1.922   1.474   2.045
 1841TIP3   OH2 5528   3.968   2.393   2.509
 1841TIP3    H1 5529   4.014   2.328   2.562
 1841TIP3    H2 5530   3.911   2.438   2.571
 1842TIP3   OH2 5531   4.075   1.522   0.342
 1842TIP3    H1 5532   4.085   1.614   0.367
 1842TIP3    H2 5533   4.164   1.487   0.345
 1843TIP3   OH2 5534   0.714   4.522   3.711
 1843TIP3    H1 5535   0.767   4.600   3.693
 1843TIP3    H2 5536   0.762   4.451   3.669
 1844TIP3   OH2 5537   5.128   0.276   2.921
 1844TIP3    H1 5538   5.130   0.319   2.835
 1844TIP3    H2 5539   5.213   0.298   2.960
 1845TIP3   OH2 5540   0.304   4.653   4.362
 1845TIP3    H1 5541   0.314   4.611   4.447
 1845TIP3    H2 5542   0.329   4.744   4.377
 1846TIP3   OH2 5543   0.477   2.787   0.466
 1846TIP3    H1 5544   0.560   2.744   0.485
 1846TIP3    H2 5545   0.412   2.738   0.515
 1847TIP3   OH2 5546   2.624   0.595   1.505
 1847TIP3    H1 5547   2.569   0.575   1.581
 1847TIP3    H2 5548   2.666   0.679   1.527
 1848TIP3   OH2 5549   2.528   4.890   1.961
 1848TIP3    H1 5550   2.507   4.807   1.918
 1848TIP3    H2 5551   2.481   4.885   2.045
 1849TIP3   OH2 5552   2.403   0.044   3.757
 1849TIP3    H1 5553   2.384   0.037   3.851
 1849TIP3    H2 5554   2.317   0.044   3.716
 1850TIP3   OH2 5555   6.369   3.154   0.362
 1850TIP3    H1 5556   6.327   3.096   0.425
 1850TIP3    H2 5557   6.315   3.233   0.362
 1851TIP3   OH2 5558   0.707   3.820   4.979
 1851TIP3    H1 5559   0.630   3.835   4.923
 1851TIP3    H2 5560   0.683   3.746   5.034
 1852TIP3   OH2 5561   5.511   0.755   2.369
 1852TIP3    H1 5562   5.452   0.741   2.295
 1852TIP3    H2 5563   5.457   0.740   2.447
 1853TIP3   OH2 5564   0.636   2.183   4.419
 1853TIP3    H1 5565   0.702   2.224   4.474
 1853TIP3    H2 5566   0.552   2.212   4.455
 1854TIP3   OH2 5567   5.194   1.046   3.491
 1854TIP3    H1 5568   5.278   1.075   3.456
 1854TIP3    H2 5569   5.131   1.110   3.458
 1855TIP3   OH2 5570   3.033   4.510   0.708
 1855TIP3    H1 5571   2.950   4.534   0.668
 1855TIP3    H2 5572   3.042   4.571   0.782
 1856TIP3   OH2 5573   1.985   1.675   4.230
 1856TIP3    H1 5574   1.923   1.736   4.191
 1856TIP3    H2 5575   2.040   1.730   4.286
 1857TIP3   OH2 5576   5.233   4.107   5.147
 1857TIP3    H1 5577   5.215   4.042   5.079
 1857TIP3    H2 5578   5.174   4.085   5.218
 1858TIP3   OH2 5579   3.438   5.779   3.460
 1858TIP3    H1 5580   3.495   5.856   3.469
 1858TIP3    H2 5581   3.434   5.763   3.366
 1859TIP3   OH2 5582   4.702   1.285   1.329
 1859TIP3    H1 5583   4.725   1.378   1.324
 1859TIP3    H2 5584   4.733   1.258   1.416
 1860TIP3   OH2 5585   4.302   4.231   1.027
 1860TIP3    H1 5586   4.251   4.263   0.953
 1860TIP3    H2 5587   4.236   4.199   1.089
 1861TIP3   OH2 5588   4.506   5.116   2.823
 1861TIP3    H1 5589   4.454   5.074   2.892
 1861TIP3    H2 5590   4.583   5.150   2.869
 1862TIP3   OH2 5591   6.119   4.070   0.832
 1862TIP3    H1 5592   6.101   4.099   0.921
 1862TIP3    H2 5593   6.042   4.095   0.782
 1863TIP3   OH2 5594   3.246   5.068   3.425
 1863TIP3    H1 5595   3.187   5.115   3.365
 1863TIP3    H2 5596   3.216   4.977   3.422
 1864TIP3   OH2 5597   5.664   2.210   3.132
 1864TIP3    H1 5598   5.693   2.143   3.194
 1864TIP3    H2 5599   5.734   2.275   3.132
 1865TIP3   OH2 5600   3.771   3.180   2.332
 1865TIP3    H1 5601   3.728   3.265   2.338
 1865TIP3    H2 5602   3.724   3.126   2.396
 1866TIP3   OH2 5603   3.949   5.278   0.527
 1866TIP3    H1 5604   3.877   5.336   0.502
 1866TIP3    H2 5605   3.940   5.202   0.470
 1867TIP3   OH2 5606   3.844   1.386   4.528
 1867TIP3    H1 5607   3.862   1.365   4.620
 1867TIP3    H2 5608   3.758   1.427   4.529
 1868TIP3   OH2 5609   0.298   3.839   2.454
 1868TIP3    H1 5610   0.337   3.794   2.528
 1868TIP3    H2 5611   0.348   3.920   2.445
 1869TIP3   OH2 5612   4.228   0.680   0.834
 1869TIP3    H1 5613   4.200   0.737   0.905
 1869TIP3    H2 5614   4.153   0.623   0.818
 1870TIP3   OH2 5615   0.633   0.902   1.572
 1870TIP3    H1 5616   0.648   0.912   1.478
 1870TIP3    H2 5617   0.570   0.830   1.578
 1871TIP3   OH2 5618   1.391   5.359   1.886
 1871TIP3    H1 5619   1.429   5.446   1.875
 1871TIP3    H2 5620   1.348   5.363   1.972
 1872TIP3   OH2 5621   3.369   2.636   3.989
 1872TIP3    H1 5622   3.455   2.661   4.024
 1872TIP3    H2 5623   3.347   2.555   4.036
 1873TIP3   OH2 5624   4.668   1.430   2.433
 1873TIP3    H1 5625   4.678   1.335   2.442
 1873TIP3    H2 5626   4.585   1.441   2.387
 1874TIP3   OH2 5627   6.170   0.045   3.625
 1874TIP3    H1 5628   6.265   0.054   3.635
 1874TIP3    H2 5629   6.159  -0.033   3.570
 1875TIP3   OH2 5630   3.746   1.443   3.290
 1875TIP3    H1 5631   3.750   1.371   3.353
 1875TIP3    H2 5632   3.838   1.463   3.272
 1876TIP3   OH2 5633   0.148   5.917   1.009
 1876TIP3    H1 5634   0.185   5.890   0.925
 1876TIP3    H2 5635   0.070   5.968   0.986
 1877TIP3   OH2 5636   2.130   0.381   3.614
 1877TIP3    H1 5637   2.225   0.386   3.605
 1877TIP3    H2 5638   2.100   0.472   3.608
 1878TIP3   OH2 5639   1.034   1.791   1.412
 1878TIP3    H1 5640   1.096   1.770   1.342
 1878TIP3    H2 5641   0.950   1.797   1.368
 1879TIP3   OH2 5642   2.393   1.172   0.686
 1879TIP3    H1 5643   2.367   1.091   0.641
 1879TIP3    H2 5644   2.364   1.159   0.776
 1880TIP3   OH2 5645   5.227   1.486   2.757
 1880TIP3    H1 5646   5.277   1.545   2.813
 1880TIP3    H2 5647   5.263   1.399   2.775
 1881TIP3   OH2 5648   4.981   5.190   3.310
 1881TIP3    H1 5649   5.039   5.119   3.339
 1881TIP3    H2 5650   5.024   5.270   3.341
 1882TIP3   OH2 5651   2.049   2.445   1.432
 1882TIP3    H1 5652   2.102   2.406   1.502
 1882TIP3    H2 5653   2.110   2.502   1.385
 1883TIP3   OH2 5654   1.964   5.326   4.946
 1883TIP3    H1 5655   1.920   5.364   4.870
 1883TIP3    H2 5656   1.950   5.232   4.937
 1884TIP3   OH2 5657   1.752   3.074   0.527
 1884TIP3    H1 5658   1.716   2.992   0.494
 1884TIP3    H2 5659   1.676   3.131   0.539
 1885TIP3   OH2 5660   2.488   2.079   5.026
 1885TIP3    H1 5661   2.501   2.031   4.944
 1885TIP3    H2 5662   2.470   2.169   4.998
 1886TIP3   OH2 5663   1.334   1.000   2.095
 1886TIP3    H1 5664   1.414   0.984   2.146
 1886TIP3    H2 5665   1.365   1.027   2.009
 1887TIP3   OH2 5666   1.449   1.090   0.740
 1887TIP3    H1 5667   1.470   0.998   0.757
 1887TIP3    H2 5668   1.407   1.120   0.820
 1888TIP3   OH2 5669   3.870   0.421   0.432
 1888TIP3    H1 5670   3.807   0.419   0.360
 1888TIP3    H2 5671   3.920   0.502   0.418
 1889TIP3   OH2 5672   2.989   2.217   3.178
 1889TIP3    H1 5673   2.944   2.207   3.262
 1889TIP3    H2 5674   2.949   2.293   3.137
 1890TIP3   OH2 5675   5.276   3.681   0.851
 1890TIP3    H1 5676   5.299   3.727   0.932
 1890TIP3    H2 5677   5.287   3.588   0.873
 1891TIP3   OH2 5678   4.242   0.328   4.077
 1891TIP3    H1 5679   4.219   0.320   4.169
 1891TIP3    H2 5680   4.160   0.352   4.033
 1892TIP3   OH2 5681   0.835   1.764   5.149
 1892TIP3    H1 5682   0.754   1.730   5.187
 1892TIP3    H2 5683   0.807   1.842   5.100
 1893TIP3   OH2 5684   1.837   1.224   3.335
 1893TIP3    H1 5685   1.814   1.306   3.292
 1893TIP3    H2 5686   1.769   1.211   3.401
 1894TIP3   OH2 5687   4.258   5.632   3.853
 1894TIP3    H1 5688   4.203   5.624   3.931
 1894TIP3    H2 5689   4.275   5.726   3.846
 1895TIP3   OH2 5690   0.956   0.597   1.471
 1895TIP3    H1 5691   1.044   0.619   1.443
 1895TIP3    H2 5692   0.956   0.612   1.565
 1896TIP3   OH2 5693   2.327   0.694   0.250
 1896TIP3    H1 5694   2.273   0.696   0.171
 1896TIP3    H2 5695   2.270   0.654   0.316
 1897TIP3   OH2 5696   1.271   5.764   4.895
 1897TIP3    H1 5697   1.359   5.753   4.857
 1897TIP3    H2 5698   1.218   5.695   4.854
 1898TIP3   OH2 5699   4.223   3.464   0.743
 1898TIP3    H1 5700   4.133   3.464   0.775
 1898TIP3    H2 5701   4.227   3.539   0.683
 1899TIP3   OH2 5702   3.853   4.605   3.613
 1899TIP3    H1 5703   3.852   4.620   3.518
 1899TIP3    H2 5704   3.914   4.670   3.647
 1900TIP3   OH2 5705   3.669   1.969   2.960
 1900TIP3    H1 5706   3.633   1.884   2.987
 1900TIP3    H2 5707   3.612   2.034   3.002
 1901TIP3   OH2 5708   5.549   3.659   4.209
 1901TIP3    H1 5709   5.593   3.592   4.157
 1901TIP3    H2 5710   5.591   3.741   4.183
 1902TIP3   OH2 5711   4.544   5.156   0.971
 1902TIP3    H1 5712   4.550   5.248   0.945
 1902TIP3    H2 5713   4.618   5.143   1.031
 1903TIP3   OH2 5714   4.859   5.009   4.515
 1903TIP3    H1 5715   4.853   5.085   4.572
 1903TIP3    H2 5716   4.897   5.043   4.434
 1904TIP3   OH2 5717   3.096   3.795   4.644
 1904TIP3    H1 5718   3.035   3.741   4.694
 1904TIP3    H2 5719   3.128   3.737   4.575
 1905TIP3   OH2 5720   2.397   3.057   3.131
 1905TIP3    H1 5721   2.412   3.043   3.038
 1905TIP3    H2 5722   2.368   3.148   3.138
 1906TIP3   OH2 5723   1.824   5.422   1.675
 1906TIP3    H1 5724   1.887   5.385   1.613
 1906TIP3    H2 5725   1.740   5.385   1.649
 1907TIP3   OH2 5726   2.145   4.376   4.836
 1907TIP3    H1 5727   2.177   4.286   4.842
 1907TIP3    H2 5728   2.074   4.380   4.899
 1908TIP3   OH2 5729   1.263   4.269   3.031
 1908TIP3    H1 5730   1.183   4.302   3.071
 1908TIP3    H2 5731   1.239   4.181   3.000
 1909TIP3   OH2 5732   1.230   2.667   1.843
 1909TIP3    H1 5733   1.220   2.752   1.887
 1909TIP3    H2 5734   1.324   2.650   1.845
 1910TIP3   OH2 5735   4.597   2.449   0.552
 1910TIP3    H1 5736   4.628   2.361   0.531
 1910TIP3    H2 5737   4.526   2.434   0.615
 1911TIP3   OH2 5738   5.056   5.248   0.812
 1911TIP3    H1 5739   5.045   5.172   0.869
 1911TIP3    H2 5740   5.016   5.320   0.860
 1912TIP3   OH2 5741   5.218   0.718   2.871
 1912TIP3    H1 5742   5.280   0.772   2.920
 1912TIP3    H2 5743   5.134   0.733   2.915
 1913TIP3   OH2 5744   0.696   0.157   2.527
 1913TIP3    H1 5745   0.768   0.167   2.465
 1913TIP3    H2 5746   0.695   0.064   2.548
 1914TIP3   OH2 5747   0.507   1.154   4.425
 1914TIP3    H1 5748   0.582   1.155   4.365
 1914TIP3    H2 5749   0.478   1.063   4.426
 1915TIP3   OH2 5750   0.699   0.006   0.070
 1915TIP3    H1 5751   0.767  -0.006   0.004
 1915TIP3    H2 5752   0.717   0.093   0.108
 1916TIP3   OH2 5753   0.245   4.948   1.357
 1916TIP3    H1 5754   0.250   5.003   1.435
 1916TIP3    H2 5755   0.313   4.882   1.370
 1917TIP3   OH2 5756   4.856   1.436   4.289
 1917TIP3    H1 5757   4.839   1.347   4.257
 1917TIP3    H2 5758   4.769   1.476   4.296
 1918TIP3   OH2 5759   0.158   5.532   4.805
 1918TIP3    H1 5760   0.072   5.490   4.813
 1918TIP3    H2 5761   0.173   5.539   4.711
 1919TIP3   OH2 5762   2.649   2.047   4.777
 1919TIP3    H1 5763   2.738   2.076   4.761
 1919TIP3    H2 5764   2.646   1.958   4.742
 1920TIP3   OH2 5765   0.983   2.308   1.032
 1920TIP3    H1 5766   1.029   2.332   0.952
 1920TIP3    H2 5767   0.890   2.312   1.009
 1921TIP3   OH2 5768   3.383   6.000   0.660
 1921TIP3    H1 5769   3.292   6.027   0.676
 1921TIP3    H2 5770   3.380   5.953   0.577
 1922TIP3   OH2 5771   0.454   2.383   0.966
 1922TIP3    H1 5772   0.410   2.323   1.026
 1922TIP3    H2 5773   0.387   2.407   0.902
 1923TIP3   OH2 5774   1.694   2.384   0.351
 1923TIP3    H1 5775   1.709   2.415   0.262
 1923TIP3    H2 5776   1.699   2.288   0.344
 1924TIP3   OH2 5777   5.598   4.874   1.113
 1924TIP3    H1 5778   5.539   4.801   1.127
 1924TIP3    H2 5779   5.547   4.952   1.136
 1925TIP3   OH2 5780   1.445   2.996   0.245
 1925TIP3    H1 5781   1.410   3.004   0.333
 1925TIP3    H2 5782   1.426   2.905   0.220
 1926TIP3   OH2 5783   3.224   0.408   2.101
 1926TIP3    H1 5784   3.133   0.435   2.112
 1926TIP3    H2 5785   3.237   0.403   2.007
 1927TIP3   OH2 5786   1.367   5.264   0.721
 1927TIP3    H1 5787   1.302   5.194   0.724
 1927TIP3    H2 5788   1.385   5.284   0.812
 1928TIP3   OH2 5789   5.551   3.170   4.601
 1928TIP3    H1 5790   5.586   3.091   4.642
 1928TIP3    H2 5791   5.609   3.186   4.526
 1929TIP3   OH2 5792   5.859   5.257   3.631
 1929TIP3    H1 5793   5.951   5.252   3.654
 1929TIP3    H2 5794   5.821   5.175   3.664
 1930TIP3   OH2 5795   1.761   3.675   1.232
 1930TIP3    H1 5796   1.817   3.747   1.202
 1930TIP3    H2 5797   1.797   3.597   1.190
 1931TIP3   OH2 5798   2.668   0.854   2.670
 1931TIP3    H1 5799   2.627   0.836   2.586
 1931TIP3    H2 5800   2.761   0.843   2.655
 1932TIP3   OH2 5801   2.421   1.805   0.894
 1932TIP3    H1 5802   2.369   1.830   0.971
 1932TIP3    H2 5803   2.398   1.869   0.827
 1933TIP3   OH2 5804   5.174   5.016   2.988
 1933TIP3    H1 5805   5.251   5.040   3.040
 1933TIP3    H2 5806   5.210   4.973   2.910
 1934TIP3   OH2 5807   4.742   1.549   3.713
 1934TIP3    H1 5808   4.827   1.563   3.756
 1934TIP3    H2 5809   4.684   1.523   3.784
 1935TIP3   OH2 5810   1.969   0.025   4.515
 1935TIP3    H1 5811   2.028  -0.037   4.557
 1935TIP3    H2 5812   1.893   0.029   4.574
 1936TIP3   OH2 5813   0.020   2.678   0.493
 1936TIP3    H1 5814   0.081   2.688   0.566
 1936TIP3    H2 5815   0.030   2.588   0.465
 1937TIP3   OH2 5816   1.913   1.383   0.587
 1937TIP3    H1 5817   1.890   1.416   0.500
 1937TIP3    H2 5818   1.837   1.331   0.614
 1938TIP3   OH2 5819   1.797   2.352   1.975
 1938TIP3    H1 5820   1.731   2.288   1.949
 1938TIP3    H2 5821   1.868   2.299   2.012
 1939TIP3   OH2 5822   2.760   3.554   1.582
 1939TIP3    H1 5823   2.810   3.611   1.640
 1939TIP3    H2 5824   2.718   3.491   1.642
 1940TIP3   OH2 5825   5.494   5.844   3.610
 1940TIP3    H1 5826   5.449   5.766   3.641
 1940TIP3    H2 5827   5.471   5.848   3.517
 1941TIP3   OH2 5828   1.377   1.700   0.416
 1941TIP3    H1 5829   1.406   1.743   0.497
 1941TIP3    H2 5830   1.398   1.763   0.347
 1942TIP3   OH2 5831   5.469   2.412   3.705
 1942TIP3    H1 5832   5.472   2.320   3.679
 1942TIP3    H2 5833   5.376   2.429   3.722
 1943TIP3   OH2 5834   0.189   1.200   0.082
 1943TIP3    H1 5835   0.268   1.228   0.036
 1943TIP3    H2 5836   0.221   1.143   0.152
 1944TIP3   OH2 5837   0.012   2.589   2.175
 1944TIP3    H1 5838  -0.064   2.571   2.230
 1944TIP3    H2 5839   0.061   2.507   2.174
 1945TIP3   OH2 5840   1.734   5.927   2.041
 1945TIP3    H1 5841   1.808   5.915   1.981
 1945TIP3    H2 5842   1.696   6.011   2.017
 1946TIP3   OH2 5843   1.906   3.530   0.817
 1946TIP3    H1 5844   1.920   3.510   0.909
 1946TIP3    H2 5845   1.991   3.513   0.776
 1947TIP3   OH2 5846   1.677   1.895   0.626
 1947TIP3    H1 5847   1.581   1.892   0.622
 1947TIP3    H2 5848   1.705   1.885   0.535
 1948TIP3   OH2 5849   4.884   2.653   1.839
 1948TIP3    H1 5850   4.813   2.661   1.774
 1948TIP3    H2 5851   4.947   2.720   1.814
 1949TIP3   OH2 5852   6.046   4.115   0.518
 1949TIP3    H1 5853   6.006   4.177   0.580
 1949TIP3    H2 5854   6.124   4.160   0.486
 1950TIP3   OH2 5855   2.949   4.338   1.347
 1950TIP3    H1 5856   3.031   4.292   1.366
 1950TIP3    H2 5857   2.943   4.337   1.251
 1951TIP3   OH2 5858   3.219   1.617   4.114
 1951TIP3    H1 5859   3.158   1.593   4.044
 1951TIP3    H2 5860   3.232   1.711   4.103
 1952TIP3   OH2 5861   2.109   1.696   1.044
 1952TIP3    H1 5862   2.093   1.761   0.975
 1952TIP3    H2 5863   2.187   1.649   1.014
 1953TIP3   OH2 5864   4.474   0.530   0.294
 1953TIP3    H1 5865   4.475   0.435   0.293
 1953TIP3    H2 5866   4.558   0.555   0.255
 1954TIP3   OH2 5867   1.460   4.119   3.567
 1954TIP3    H1 5868   1.451   4.050   3.633
 1954TIP3    H2 5869   1.412   4.086   3.491
 1955TIP3   OH2 5870   5.099   2.486   0.982
 1955TIP3    H1 5871   5.028   2.423   0.998
 1955TIP3    H2 5872   5.150   2.446   0.911
 1956TIP3   OH2 5873   4.420   4.274   3.608
 1956TIP3    H1 5874   4.499   4.248   3.561
 1956TIP3    H2 5875   4.451   4.294   3.697
 1957TIP3   OH2 5876   4.184   0.873   1.731
 1957TIP3    H1 5877   4.222   0.960   1.743
 1957TIP3    H2 5878   4.229   0.837   1.654
 1958TIP3   OH2 5879   4.301   5.952   4.124
 1958TIP3    H1 5880   4.215   5.918   4.100
 1958TIP3    H2 5881   4.303   5.947   4.219
 1959TIP3   OH2 5882   5.787   4.183   0.263
 1959TIP3    H1 5883   5.836   4.246   0.316
 1959TIP3    H2 5884   5.703   4.225   0.248
 1960TIP3   OH2 5885   6.281   3.492   4.925
 1960TIP3    H1 5886   6.345   3.445   4.871
 1960TIP3    H2 5887   6.233   3.547   4.863
 1961TIP3   OH2 5888   3.072   5.636   3.687
 1961TIP3    H1 5889   2.996   5.638   3.629
 1961TIP3    H2 5890   3.046   5.579   3.759
 1962TIP3   OH2 5891   2.807   2.378   4.211
 1962TIP3    H1 5892   2.872   2.309   4.198
 1962TIP3    H2 5893   2.841   2.452   4.161
 1963TIP3   OH2 5894   1.550   1.622   3.982
 1963TIP3    H1 5895   1.552   1.696   3.921
 1963TIP3    H2 5896   1.623   1.567   3.954
 1964TIP3   OH2 5897   2.350   5.914   1.569
 1964TIP3    H1 5898   2.373   6.007   1.576
 1964TIP3    H2 5899   2.281   5.902   1.634
 1965TIP3   OH2 5900   3.423   0.996   4.645
 1965TIP3    H1 5901   3.477   0.977   4.568
 1965TIP3    H2 5902   3.475   0.963   4.718
 1966TIP3   OH2 5903   5.691   4.650   4.141
 1966TIP3    H1 5904   5.777   4.608   4.148
 1966TIP3    H2 5905   5.694   4.720   4.206
 1967TIP3   OH2 5906   3.705   5.179   1.573
 1967TIP3    H1 5907   3.650   5.101   1.583
 1967TIP3    H2 5908   3.792   5.152   1.603
 1968TIP3   OH2 5909   3.136   3.309   4.491
 1968TIP3    H1 5910   3.166   3.325   4.580
 1968TIP3    H2 5911   3.052   3.354   4.485
 1969TIP3   OH2 5912   1.235   1.424   2.188
 1969TIP3    H1 5913   1.186   1.411   2.107
 1969TIP3    H2 5914   1.172   1.465   2.248
 1970TIP3   OH2 5915   5.527   5.529   3.753
 1970TIP3    H1 5916   5.475   5.586   3.696
 1970TIP3    H2 5917   5.534   5.446   3.705
 1971TIP3   OH2 5918   5.746   1.413   1.712
 1971TIP3    H1 5919   5.658   1.375   1.713
 1971TIP3    H2 5920   5.775   1.402   1.621
 1972TIP3   OH2 5921   1.617   4.333   2.305
 1972TIP3    H1 5922   1.538   4.313   2.355
 1972TIP3    H2 5923   1.603   4.423   2.274
 1973TIP3   OH2 5924   3.816   2.890   4.152
 1973TIP3    H1 5925   3.811   2.917   4.061
 1973TIP3    H2 5926   3.898   2.842   4.159
 1974TIP3   OH2 5927   5.117   1.973   4.586
 1974TIP3    H1 5928   5.142   1.957   4.495
 1974TIP3    H2 5929   5.200   1.984   4.632
 1975TIP3   OH2 5930   0.969   1.971   3.786
 1975TIP3    H1 5931   0.905   1.926   3.840
 1975TIP3    H2 5932   1.041   1.908   3.775
 1976TIP3   OH2 5933   1.692   3.268   2.997
 1976TIP3    H1 5934   1.646   3.195   3.039
 1976TIP3    H2 5935   1.677   3.256   2.904
 1977TIP3   OH2 5936   2.253   3.478   0.170
 1977TIP3    H1 5937   2.249   3.574   0.167
 1977TIP3    H2 5938   2.321   3.459   0.234
 1978TIP3   OH2 5939   0.752   4.150   1.601
 1978TIP3    H1 5940   0.693   4.125   1.529
 1978TIP3    H2 5941   0.759   4.072   1.655
 1979TIP3   OH2 5942   1.398   4.837   4.193
 1979TIP3    H1 5943   1.345   4.828   4.114
 1979TIP3    H2 5944   1.411   4.931   4.203
 1980TIP3   OH2 5945   3.611   2.889   0.689
 1980TIP3    H1 5946   3.522   2.920   0.673
 1980TIP3    H2 5947   3.651   2.957   0.743
 1981TIP3   OH2 5948   6.012   4.341   4.579
 1981TIP3    H1 5949   5.945   4.275   4.595
 1981TIP3    H2 5950   6.089   4.310   4.627
 1982TIP3   OH2 5951   3.832   1.071   1.378
 1982TIP3    H1 5952   3.843   1.165   1.391
 1982TIP3    H2 5953   3.849   1.032   1.464
 1983TIP3   OH2 5954   2.561   5.093   0.500
 1983TIP3    H1 5955   2.489   5.156   0.508
 1983TIP3    H2 5956   2.636   5.146   0.472
 1984TIP3   OH2 5957   4.460   5.035   0.072
 1984TIP3    H1 5958   4.514   5.046  -0.006
 1984TIP3    H2 5959   4.510   4.976   0.128
 1985TIP3   OH2 5960   5.365   4.786   2.200
 1985TIP3    H1 5961   5.345   4.818   2.288
 1985TIP3    H2 5962   5.447   4.831   2.177
 1986TIP3   OH2 5963   3.773   0.577   0.953
 1986TIP3    H1 5964   3.682   0.575   0.922
 1986TIP3    H2 5965   3.814   0.647   0.903
 1987TIP3   OH2 5966   1.717   0.571   2.300
 1987TIP3    H1 5967   1.757   0.534   2.378
 1987TIP3    H2 5968   1.683   0.495   2.252
 1988TIP3   OH2 5969   2.312   4.422   2.768
 1988TIP3    H1 5970   2.269   4.343   2.801
 1988TIP3    H2 5971   2.240   4.481   2.746
 1989TIP3   OH2 5972   3.481   1.091   0.202
 1989TIP3    H1 5973   3.454   1.080   0.294
 1989TIP3    H2 5974   3.536   1.169   0.203
 1990TIP3   OH2 5975   4.490   4.838   4.341
 1990TIP3    H1 5976   4.489   4.927   4.306
 1990TIP3    H2 5977   4.430   4.788   4.285
 1991TIP3   OH2 5978   2.281   2.579   3.623
 1991TIP3    H1 5979   2.328   2.630   3.557
 1991TIP3    H2 5980   2.225   2.644   3.667
 1992TIP3   OH2 5981   5.310   1.020   2.591
 1992TIP3    H1 5982   5.316   1.099   2.645
 1992TIP3    H2 5983   5.224   1.026   2.550
 1993TIP3   OH2 5984   4.970   5.718   1.658
 1993TIP3    H1 5985   5.006   5.655   1.721
 1993TIP3    H2 5986   4.883   5.685   1.639
 1994TIP3   OH2 5987   4.415   3.357   0.591
 1994TIP3    H1 5988   4.349   3.391   0.652
 1994TIP3    H2 5989   4.496   3.400   0.618
 1995TIP3   OH2 5990   3.593   5.896   4.379
 1995TIP3    H1 5991   3.598   5.837   4.453
 1995TIP3    H2 5992   3.510   5.875   4.336
 1996TIP3   OH2 5993   5.279   4.548   2.301
 1996TIP3    H1 5994   5.213   4.505   2.246
 1996TIP3    H2 5995   5.307   4.624   2.250
 1997TIP3   OH2 5996   1.776   4.531   5.141
 1997TIP3    H1 5997   1.765   4.606   5.198
 1997TIP3    H2 5998   1.726   4.553   5.062
 1998TIP3   OH2 5999   5.177   1.264   4.477
 1998TIP3    H1 6000   5.254   1.207   4.471
 1998TIP3    H2 6001   5.198   1.325   4.548
 1999TIP3   OH2 6002   2.684   3.423   2.004
 1999TIP3    H1 6003   2.593   3.431   1.976
 1999TIP3    H2 6004   2.685   3.463   2.091
 2000TIP3   OH2 6005   0.099   2.615   3.016
 2000TIP3    H1 6006   0.159   2.624   3.090
 2000TIP3    H2 6007   0.070   2.704   2.996
 2001TIP3   OH2 6008   5.752   0.289   4.233
 2001TIP3    H1 6009   5.842   0.319   4.232
 2001TIP3    H2 6010   5.700   0.366   4.256
 2002TIP3   OH2 6011   4.597   0.729   1.949
 2002TIP3    H1 6012   4.664   0.665   1.926
 2002TIP3    H2 6013   4.515   0.679   1.950
 2003TIP3   OH2 6014   1.808   2.471   1.174
 2003TIP3    H1 6015   1.830   2.378   1.169
 2003TIP3    H2 6016   1.781   2.484   1.265
 2004TIP3   OH2 6017   5.500   4.068   5.142
 2004TIP3    H1 6018   5.412   4.106   5.142
 2004TIP3    H2 6019   5.537   4.092   5.227
 2005TIP3   OH2 6020   0.484   3.276   4.485
 2005TIP3    H1 6021   0.499   3.318   4.400
 2005TIP3    H2 6022   0.572   3.265   4.521
 2006TIP3   OH2 6023   2.565   5.883   1.049
 2006TIP3    H1 6024   2.544   5.891   1.142
 2006TIP3    H2 6025   2.577   5.789   1.035
 2007TIP3   OH2 6026   1.479   2.444   3.167
 2007TIP3    H1 6027   1.547   2.431   3.233
 2007TIP3    H2 6028   1.458   2.356   3.136
 2008TIP3   OH2 6029   4.509   5.861   0.600
 2008TIP3    H1 6030   4.592   5.908   0.605
 2008TIP3    H2 6031   4.491   5.853   0.507
 2009TIP3   OH2 6032   4.739   4.017   4.012
 2009TIP3    H1 6033   4.648   4.001   3.989
 2009TIP3    H2 6034   4.749   4.112   4.010
 2010TIP3   OH2 6035   2.160   1.268   0.460
 2010TIP3    H1 6036   2.158   1.290   0.554
 2010TIP3    H2 6037   2.079   1.221   0.445
 2011TIP3   OH2 6038   6.185   0.959   3.821
 2011TIP3    H1 6039   6.248   0.936   3.890
 2011TIP3    H2 6040   6.214   0.909   3.744
 2012TIP3   OH2 6041   1.226   4.653   1.750
 2012TIP3    H1 6042   1.271   4.658   1.666
 2012TIP3    H2 6043   1.137   4.627   1.729
 2013TIP3   OH2 6044   4.196   0.360   0.766
 2013TIP3    H1 6045   4.112   0.401   0.745
 2013TIP3    H2 6046   4.226   0.322   0.683
 2014TIP3   OH2 6047   4.723   1.694   4.024
 2014TIP3    H1 6048   4.656   1.752   3.986
 2014TIP3    H2 6049   4.695   1.606   3.999
 2015TIP3   OH2 6050   2.840   5.510   4.106
 2015TIP3    H1 6051   2.778   5.471   4.167
 2015TIP3    H2 6052   2.926   5.499   4.147
 2016TIP3   OH2 6053   0.064   4.268   1.399
 2016TIP3    H1 6054   0.027   4.200   1.455
 2016TIP3    H2 6055   0.082   4.224   1.316
 2017TIP3   OH2 6056   6.088   4.966   3.029
 2017TIP3    H1 6057   6.040   5.025   3.087
 2017TIP3    H2 6058   6.097   4.885   3.078
 2018TIP3   OH2 6059   5.322   2.857   4.092
 2018TIP3    H1 6060   5.276   2.834   4.173
 2018TIP3    H2 6061   5.371   2.777   4.070
 2019TIP3   OH2 6062   2.319   1.826   3.558
 2019TIP3    H1 6063   2.280   1.878   3.628
 2019TIP3    H2 6064   2.247   1.810   3.497
 2020TIP3   OH2 6065   1.571   4.393   1.866
 2020TIP3    H1 6066   1.650   4.376   1.816
 2020TIP3    H2 6067   1.548   4.484   1.846
 2021TIP3   OH2 6068   2.779   0.328   3.948
 2021TIP3    H1 6069   2.688   0.327   3.919
 2021TIP3    H2 6070   2.773   0.335   4.044
 2022TIP3   OH2 6071   4.668   5.592   0.469
 2022TIP3    H1 6072   4.578   5.619   0.453
 2022TIP3    H2 6073   4.721   5.669   0.448
 2023TIP3   OH2 6074   1.538   4.004   4.188
 2023TIP3    H1 6075   1.475   4.067   4.223
 2023TIP3    H2 6076   1.623   4.045   4.201
 2024TIP3   OH2 6077   1.503   2.256   4.693
 2024TIP3    H1 6078   1.450   2.334   4.674
 2024TIP3    H2 6079   1.589   2.291   4.717
 2025TIP3   OH2 6080   0.564   1.066   3.588
 2025TIP3    H1 6081   0.520   1.001   3.642
 2025TIP3    H2 6082   0.558   1.031   3.499
 2026TIP3   OH2 6083   3.012   4.447   0.083
 2026TIP3    H1 6084   3.087   4.437   0.025
 2026TIP3    H2 6085   2.983   4.538   0.069
 2027TIP3   OH2 6086   1.571   4.289   0.901
 2027TIP3    H1 6087   1.649   4.242   0.869
 2027TIP3    H2 6088   1.513   4.220   0.933
 2028TIP3   OH2 6089   3.997   1.959   3.481
 2028TIP3    H1 6090   4.060   1.962   3.409
 2028TIP3    H2 6091   3.925   1.904   3.448
 2029TIP3   OH2 6092   2.855   1.602   2.560
 2029TIP3    H1 6093   2.937   1.557   2.539
 2029TIP3    H2 6094   2.846   1.591   2.654
 2030TIP3   OH2 6095   0.052   5.779   4.159
 2030TIP3    H1 6096   0.082   5.740   4.242
 2030TIP3    H2 6097  -0.012   5.845   4.186
 2031TIP3   OH2 6098   0.378   4.306   2.741
 2031TIP3    H1 6099   0.459   4.339   2.781
 2031TIP3    H2 6100   0.325   4.384   2.728
 2032TIP3   OH2 6101   4.689   0.636   0.103
 2032TIP3    H1 6102   4.779   0.644   0.074
 2032TIP3    H2 6103   4.656   0.726   0.106
 2033TIP3   OH2 6104   4.646   3.011   1.653
 2033TIP3    H1 6105   4.726   2.987   1.607
 2033TIP3    H2 6106   4.615   2.928   1.690
 2034TIP3   OH2 6107   2.328   1.643   4.290
 2034TIP3    H1 6108   2.321   1.730   4.329
 2034TIP3    H2 6109   2.413   1.643   4.247
 2035TIP3   OH2 6110   1.944   5.851   4.116
 2035TIP3    H1 6111   1.873   5.786   4.110
 2035TIP3    H2 6112   1.908   5.921   4.170
 2036TIP3   OH2 6113   1.405   3.632   0.132
 2036TIP3    H1 6114   1.332   3.573   0.150
 2036TIP3    H2 6115   1.446   3.597   0.053
 2037TIP3   OH2 6116   0.170   1.562   2.307
 2037TIP3    H1 6117   0.249   1.589   2.260
 2037TIP3    H2 6118   0.151   1.636   2.365
 2038TIP3   OH2 6119   0.660   2.372   1.152
 2038TIP3    H1 6120   0.584   2.427   1.134
 2038TIP3    H2 6121   0.726   2.433   1.185
 2039TIP3   OH2 6122  -0.031   5.671   1.357
 2039TIP3    H1 6123  -0.093   5.741   1.377
 2039TIP3    H2 6124   0.046   5.715   1.322
 2040TIP3   OH2 6125   3.125   5.391   2.409
 2040TIP3    H1 6126   3.160   5.310   2.447
 2040TIP3    H2 6127   3.155   5.389   2.318
 2041TIP3   OH2 6128   4.277   3.578   2.970
 2041TIP3    H1 6129   4.364   3.574   3.009
 2041TIP3    H2 6130   4.241   3.490   2.983
 2042TIP3   OH2 6131   1.553   4.764   4.408
 2042TIP3    H1 6132   1.521   4.770   4.318
 2042TIP3    H2 6133   1.646   4.740   4.399
 2043TIP3   OH2 6134   5.438   3.978   0.293
 2043TIP3    H1 6135   5.364   3.949   0.239
 2043TIP3    H2 6136   5.424   3.936   0.378
 2044TIP3   OH2 6137   4.963   2.921   1.217
 2044TIP3    H1 6138   5.032   2.941   1.281
 2044TIP3    H2 6139   4.887   2.898   1.270
 2045TIP3   OH2 6140   4.584   4.725   1.972
 2045TIP3    H1 6141   4.523   4.788   1.933
 2045TIP3    H2 6142   4.665   4.736   1.921
 2046TIP3   OH2 6143   3.703   3.339   0.937
 2046TIP3    H1 6144   3.720   3.393   1.015
 2046TIP3    H2 6145   3.725   3.396   0.864
 2047TIP3   OH2 6146   3.500   3.790   2.980
 2047TIP3    H1 6147   3.522   3.770   3.071
 2047TIP3    H2 6148   3.459   3.877   2.984
 2048TIP3   OH2 6149   2.434   3.976   2.863
 2048TIP3    H1 6150   2.480   3.924   2.797
 2048TIP3    H2 6151   2.500   4.036   2.898
 2049TIP3   OH2 6152   1.629   5.702   0.107
 2049TIP3    H1 6153   1.653   5.779   0.054
 2049TIP3    H2 6154   1.700   5.640   0.092
 2050TIP3   OH2 6155   3.833   1.379   0.720
 2050TIP3    H1 6156   3.854   1.467   0.688
 2050TIP3    H2 6157   3.780   1.340   0.651
 2051TIP3   OH2 6158   0.355   3.357   4.713
 2051TIP3    H1 6159   0.351   3.447   4.680
 2051TIP3    H2 6160   0.408   3.311   4.648
 2052TIP3   OH2 6161   2.592   4.359   3.623
 2052TIP3    H1 6162   2.532   4.401   3.685
 2052TIP3    H2 6163   2.648   4.429   3.591
 2053TIP3   OH2 6164   4.634   1.381   4.642
 2053TIP3    H1 6165   4.670   1.408   4.726
 2053TIP3    H2 6166   4.650   1.456   4.584
 2054TIP3   OH2 6167   0.521   1.464   1.243
 2054TIP3    H1 6168   0.445   1.428   1.289
 2054TIP3    H2 6169   0.522   1.557   1.267
 2055TIP3   OH2 6170   4.078   3.456   3.967
 2055TIP3    H1 6171   4.029   3.379   3.940
 2055TIP3    H2 6172   4.124   3.484   3.888
 2056TIP3   OH2 6173   0.750   2.805   4.816
 2056TIP3    H1 6174   0.657   2.819   4.835
 2056TIP3    H2 6175   0.763   2.845   4.730
 2057TIP3   OH2 6176   2.603   2.111   3.945
 2057TIP3    H1 6177   2.655   2.054   3.888
 2057TIP3    H2 6178   2.578   2.056   4.019
 2058TIP3   OH2 6179   2.807   1.378   4.015
 2058TIP3    H1 6180   2.806   1.459   3.964
 2058TIP3    H2 6181   2.767   1.313   3.958
 2059TIP3   OH2 6182   1.797   4.648   1.712
 2059TIP3    H1 6183   1.734   4.694   1.657
 2059TIP3    H2 6184   1.838   4.716   1.764
 2060TIP3   OH2 6185   1.853   2.960   4.362
 2060TIP3    H1 6186   1.794   2.914   4.302
 2060TIP3    H2 6187   1.922   2.993   4.305
 2061TIP3   OH2 6188   3.444   3.553   1.900
 2061TIP3    H1 6189   3.381   3.492   1.939
 2061TIP3    H2 6190   3.396   3.596   1.830
 2062TIP3   OH2 6191   4.837   0.764   2.722
 2062TIP3    H1 6192   4.871   0.795   2.638
 2062TIP3    H2 6193   4.792   0.682   2.702
 2063TIP3   OH2 6194   1.721   3.789   3.658
 2063TIP3    H1 6195   1.634   3.826   3.645
 2063TIP3    H2 6196   1.729   3.776   3.752
 2064TIP3   OH2 6197   3.064   5.955   1.849
 2064TIP3    H1 6198   3.057   5.972   1.755
 2064TIP3    H2 6199   3.126   5.882   1.856
 2065TIP3   OH2 6200   4.535   2.196   2.445
 2065TIP3    H1 6201   4.557   2.113   2.488
 2065TIP3    H2 6202   4.481   2.171   2.370
 2066TIP3   OH2 6203   0.212   3.003   4.809
 2066TIP3    H1 6204   0.250   3.017   4.722
 2066TIP3    H2 6205   0.192   3.090   4.842
 2067TIP3   OH2 6206   3.615   1.525   4.578
 2067TIP3    H1 6207   3.550   1.518   4.508
 2067TIP3    H2 6208   3.608   1.616   4.608
 2068TIP3   OH2 6209   3.414   4.530   2.948
 2068TIP3    H1 6210   3.415   4.618   2.911
 2068TIP3    H2 6211   3.322   4.513   2.969
 2069TIP3   OH2 6212   0.972   4.742   1.011
 2069TIP3    H1 6213   0.896   4.685   1.017
 2069TIP3    H2 6214   0.938   4.825   0.976
 2070TIP3   OH2 6215   4.436   4.684   1.430
 2070TIP3    H1 6216   4.419   4.766   1.382
 2070TIP3    H2 6217   4.354   4.666   1.476
 2071TIP3   OH2 6218   6.266   4.860   0.824
 2071TIP3    H1 6219   6.172   4.876   0.815
 2071TIP3    H2 6220   6.307   4.916   0.758
 2072TIP3   OH2 6221   4.948   0.448   4.971
 2072TIP3    H1 6222   4.963   0.490   5.056
 2072TIP3    H2 6223   4.997   0.502   4.909
 2073TIP3   OH2 6224   1.131   4.679   2.325
 2073TIP3    H1 6225   1.226   4.675   2.332
 2073TIP3    H2 6226   1.113   4.672   2.231
 2074TIP3   OH2 6227   5.655   0.830   3.909
 2074TIP3    H1 6228   5.585   0.895   3.921
 2074TIP3    H2 6229   5.716   0.871   3.848
 2075TIP3   OH2 6230   0.895   4.723   4.082
 2075TIP3    H1 6231   0.871   4.744   4.172
 2075TIP3    H2 6232   0.959   4.652   4.090
 2076TIP3   OH2 6233   3.068   4.829   1.433
 2076TIP3    H1 6234   3.024   4.828   1.348
 2076TIP3    H2 6235   3.100   4.740   1.444
 2077TIP3   OH2 6236   5.306   2.522   2.533
 2077TIP3    H1 6237   5.258   2.493   2.610
 2077TIP3    H2 6238   5.391   2.551   2.567
 2078TIP3   OH2 6239   2.003   4.240   1.739
 2078TIP3    H1 6240   1.958   4.205   1.816
 2078TIP3    H2 6241   1.984   4.178   1.670
 2079TIP3   OH2 6242   6.191   5.664   2.970
 2079TIP3    H1 6243   6.100   5.634   2.962
 2079TIP3    H2 6244   6.190   5.751   2.932
 2080TIP3   OH2 6245   2.991   3.487   2.201
 2080TIP3    H1 6246   2.914   3.541   2.185
 2080TIP3    H2 6247   2.996   3.429   2.125
 2081TIP3   OH2 6248   2.393   3.987   4.180
 2081TIP3    H1 6249   2.381   3.892   4.179
 2081TIP3    H2 6250   2.383   4.013   4.088
 2082TIP3   OH2 6251   3.359   1.156   0.441
 2082TIP3    H1 6252   3.423   1.203   0.494
 2082TIP3    H2 6253   3.276   1.166   0.489
 2083TIP3   OH2 6254   4.449   3.960   3.935
 2083TIP3    H1 6255   4.469   3.917   3.851
 2083TIP3    H2 6256   4.353   3.969   3.934
 2084TIP3   OH2 6257   5.950   5.801   1.809
 2084TIP3    H1 6258   5.890   5.750   1.754
 2084TIP3    H2 6259   5.970   5.879   1.756
 2085TIP3   OH2 6260   4.824   0.894   1.997
 2085TIP3    H1 6261   4.738   0.867   1.965
 2085TIP3    H2 6262   4.827   0.988   1.980
 2086TIP3   OH2 6263   4.494   5.744   2.621
 2086TIP3    H1 6264   4.482   5.778   2.710
 2086TIP3    H2 6265   4.494   5.649   2.631
 2087TIP3   OH2 6266   2.952   3.831   3.136
 2087TIP3    H1 6267   3.003   3.750   3.126
 2087TIP3    H2 6268   2.966   3.857   3.227
 2088TIP3   OH2 6269   6.089   1.001   0.257
 2088TIP3    H1 6270   5.997   1.011   0.230
 2088TIP3    H2 6271   6.131   0.960   0.181
 2089TIP3   OH2 6272   2.791   0.764   0.710
 2089TIP3    H1 6273   2.825   0.697   0.651
 2089TIP3    H2 6274   2.696   0.758   0.701
 2090TIP3   OH2 6275   1.433   3.631   5.108
 2090TIP3    H1 6276   1.461   3.582   5.030
 2090TIP3    H2 6277   1.440   3.569   5.180
 2091TIP3   OH2 6278   1.339   2.164   4.157
 2091TIP3    H1 6279   1.359   2.081   4.113
 2091TIP3    H2 6280   1.381   2.156   4.243
 2092TIP3   OH2 6281   4.577   5.829   2.336
 2092TIP3    H1 6282   4.542   5.805   2.421
 2092TIP3    H2 6283   4.522   5.902   2.307
 2093TIP3   OH2 6284   2.729   0.047   1.590
 2093TIP3    H1 6285   2.656   0.059   1.651
 2093TIP3    H2 6286   2.737   0.132   1.545
 2094TIP3   OH2 6287   1.318   4.048   2.750
 2094TIP3    H1 6288   1.393   4.104   2.730
 2094TIP3    H2 6289   1.251   4.108   2.782
 2095TIP3   OH2 6290   5.816   0.985   3.719
 2095TIP3    H1 6291   5.834   1.061   3.664
 2095TIP3    H2 6292   5.877   0.993   3.792
 2096TIP3   OH2 6293   3.385   3.012   4.875
 2096TIP3    H1 6294   3.381   3.076   4.804
 2096TIP3    H2 6295   3.301   3.019   4.920
 2097TIP3   OH2 6296   5.688   5.758   3.918
 2097TIP3    H1 6297   5.663   5.843   3.881
 2097TIP3    H2 6298   5.708   5.703   3.842
 2098TIP3   OH2 6299   5.937   0.974   3.945
 2098TIP3    H1 6300   5.934   1.043   4.012
 2098TIP3    H2 6301   6.028   0.974   3.915
 2099TIP3   OH2 6302   1.335   4.510   2.912
 2099TIP3    H1 6303   1.316   4.419   2.935
 2099TIP3    H2 6304   1.382   4.545   2.987
 2100TIP3   OH2 6305   2.423   2.864   4.283
 2100TIP3    H1 6306   2.495   2.923   4.305
 2100TIP3    H2 6307   2.416   2.869   4.188
 2101TIP3   OH2 6308   2.108   0.133   5.147
 2101TIP3    H1 6309   2.038   0.176   5.099
 2101TIP3    H2 6310   2.090   0.040   5.137
 2102TIP3   OH2 6311   0.397   0.266   1.437
 2102TIP3    H1 6312   0.387   0.330   1.508
 2102TIP3    H2 6313   0.387   0.319   1.357
 2103TIP3   OH2 6314  -0.033   1.584   0.703
 2103TIP3    H1 6315  -0.042   1.590   0.608
 2103TIP3    H2 6316   0.012   1.501   0.718
 2104TIP3   OH2 6317   4.104   5.223   1.913
 2104TIP3    H1 6318   4.030   5.267   1.956
 2104TIP3    H2 6319   4.177   5.235   1.974
 2105TIP3   OH2 6320   3.890   0.887   3.841
 2105TIP3    H1 6321   3.960   0.828   3.868
 2105TIP3    H2 6322   3.934   0.952   3.786
 2106TIP3   OH2 6323   1.527   1.077   4.100
 2106TIP3    H1 6324   1.618   1.060   4.078
 2106TIP3    H2 6325   1.501   1.004   4.157
 2107TIP3   OH2 6326   3.417   1.923   2.119
 2107TIP3    H1 6327   3.434   1.917   2.213
 2107TIP3    H2 6328   3.322   1.926   2.111
 2108TIP3   OH2 6329   5.936   2.122   0.072
 2108TIP3    H1 6330   5.969   2.188   0.133
 2108TIP3    H2 6331   5.854   2.092   0.111
 2109TIP3   OH2 6332   1.562   1.314   3.836
 2109TIP3    H1 6333   1.479   1.330   3.883
 2109TIP3    H2 6334   1.608   1.249   3.890
 2110TIP3   OH2 6335   4.440   1.892   3.019
 2110TIP3    H1 6336   4.523   1.861   2.982
 2110TIP3    H2 6337   4.464   1.932   3.102
 2111TIP3   OH2 6338   4.361   4.037   5.047
 2111TIP3    H1 6339   4.332   4.125   5.022
 2111TIP3    H2 6340   4.323   4.021   5.133
 2112TIP3   OH2 6341   4.937   2.883   4.809
 2112TIP3    H1 6342   4.873   2.824   4.849
 2112TIP3    H2 6343   5.010   2.885   4.870
 2113TIP3   OH2 6344   4.693   1.786   4.768
 2113TIP3    H1 6345   4.643   1.705   4.756
 2113TIP3    H2 6346   4.768   1.759   4.821
 2114TIP3   OH2 6347   2.501   3.318   1.218
 2114TIP3    H1 6348   2.524   3.228   1.239
 2114TIP3    H2 6349   2.440   3.311   1.144
 2115TIP3   OH2 6350   3.324   5.690   4.382
 2115TIP3    H1 6351   3.367   5.606   4.402
 2115TIP3    H2 6352   3.344   5.706   4.290
 2116TIP3   OH2 6353   4.069   5.726   0.081
 2116TIP3    H1 6354   4.120   5.645   0.076
 2116TIP3    H2 6355   4.022   5.719   0.164
 2117TIP3   OH2 6356   3.046   0.104   1.776
 2117TIP3    H1 6357   3.008   0.172   1.721
 2117TIP3    H2 6358   3.039   0.024   1.724
 2118TIP3   OH2 6359   2.644   0.442   0.981
 2118TIP3    H1 6360   2.651   0.500   1.057
 2118TIP3    H2 6361   2.560   0.466   0.940
 2119TIP3   OH2 6362   5.536   1.001   2.210
 2119TIP3    H1 6363   5.528   0.908   2.229
 2119TIP3    H2 6364   5.511   1.045   2.291
 2120TIP3   OH2 6365   1.946   5.051   3.629
 2120TIP3    H1 6366   1.989   4.996   3.695
 2120TIP3    H2 6367   1.971   5.140   3.653
 2121TIP3   OH2 6368   2.661   4.648   3.376
 2121TIP3    H1 6369   2.666   4.653   3.280
 2121TIP3    H2 6370   2.567   4.652   3.395
 2122TIP3   OH2 6371   0.854   0.497   2.935
 2122TIP3    H1 6372   0.879   0.453   2.854
 2122TIP3    H2 6373   0.909   0.576   2.938
 2123TIP3   OH2 6374   4.001   5.592   2.847
 2123TIP3    H1 6375   4.041   5.581   2.933
 2123TIP3    H2 6376   4.065   5.556   2.785
 2124TIP3   OH2 6377   4.100   2.217   3.982
 2124TIP3    H1 6378   4.169   2.177   3.928
 2124TIP3    H2 6379   4.138   2.221   4.070
 2125TIP3   OH2 6380   3.322   1.545   1.214
 2125TIP3    H1 6381   3.355   1.602   1.284
 2125TIP3    H2 6382   3.364   1.461   1.229
 2126TIP3   OH2 6383   2.711   5.045   1.839
 2126TIP3    H1 6384   2.785   4.988   1.861
 2126TIP3    H2 6385   2.638   5.009   1.888
 2127TIP3   OH2 6386   1.081   4.842   4.616
 2127TIP3    H1 6387   1.127   4.913   4.571
 2127TIP3    H2 6388   1.118   4.842   4.704
 2128TIP3   OH2 6389   5.856   0.843   1.025
 2128TIP3    H1 6390   5.847   0.835   0.930
 2128TIP3    H2 6391   5.950   0.856   1.040
 2129TIP3   OH2 6392   5.558   0.234   3.239
 2129TIP3    H1 6393   5.558   0.265   3.149
 2129TIP3    H2 6394   5.650   0.215   3.259
 2130TIP3   OH2 6395   3.615   2.035   2.395
 2130TIP3    H1 6396   3.532   1.988   2.403
 2130TIP3    H2 6397   3.671   1.997   2.462
 2131TIP3   OH2 6398   5.294   4.664   3.703
 2131TIP3    H1 6399   5.294   4.703   3.791
 2131TIP3    H2 6400   5.249   4.581   3.714
 2132TIP3   OH2 6401   5.011   5.771   0.193
 2132TIP3    H1 6402   4.988   5.859   0.165
 2132TIP3    H2 6403   5.059   5.784   0.275
 2133TIP3   OH2 6404   5.614   1.010   2.645
 2133TIP3    H1 6405   5.700   0.969   2.658
 2133TIP3    H2 6406   5.554   0.936   2.635
 2134TIP3   OH2 6407   0.473   0.179   4.357
 2134TIP3    H1 6408   0.542   0.211   4.416
 2134TIP3    H2 6409   0.521   0.133   4.288
 2135TIP3   OH2 6410   5.979   5.086   3.341
 2135TIP3    H1 6411   5.964   5.180   3.331
 2135TIP3    H2 6412   6.073   5.079   3.359
 2136TIP3   OH2 6413   4.968   4.735   3.563
 2136TIP3    H1 6414   4.982   4.714   3.655
 2136TIP3    H2 6415   5.032   4.682   3.516
 2137TIP3   OH2 6416   4.917   2.598   3.768
 2137TIP3    H1 6417   4.923   2.591   3.673
 2137TIP3    H2 6418   4.997   2.642   3.794
 2138TIP3   OH2 6419   0.294   4.724   5.118
 2138TIP3    H1 6420   0.348   4.645   5.109
 2138TIP3    H2 6421   0.292   4.740   5.212
 2139TIP3   OH2 6422   1.002   2.778   4.175
 2139TIP3    H1 6423   1.017   2.865   4.213
 2139TIP3    H2 6424   1.029   2.717   4.243
 2140TIP3   OH2 6425   2.141   1.500   4.849
 2140TIP3    H1 6426   2.165   1.569   4.911
 2140TIP3    H2 6427   2.142   1.543   4.764
 2141TIP3   OH2 6428   0.660   4.954   4.344
 2141TIP3    H1 6429   0.752   4.947   4.320
 2141TIP3    H2 6430   0.617   4.883   4.296
 2142TIP3   OH2 6431   3.200   5.966   3.558
 2142TIP3    H1 6432   3.214   5.872   3.572
 2142TIP3    H2 6433   3.242   6.008   3.633
 2143TIP3   OH2 6434   2.340   1.242   0.960
 2143TIP3    H1 6435   2.286   1.164   0.974
 2143TIP3    H2 6436   2.323   1.297   1.037
 2144TIP3   OH2 6437   1.884   4.699   4.107
 2144TIP3    H1 6438   1.855   4.691   4.198
 2144TIP3    H2 6439   1.906   4.791   4.097
 2145TIP3   OH2 6440   2.245   3.109   4.800
 2145TIP3    H1 6441   2.209   3.049   4.865
 2145TIP3    H2 6442   2.295   3.053   4.740
 2146TIP3   OH2 6443   1.666   0.985   4.850
 2146TIP3    H1 6444   1.723   1.062   4.856
 2146TIP3    H2 6445   1.685   0.947   4.765
 2147TIP3   OH2 6446   2.084   2.513   0.766
 2147TIP3    H1 6447   1.992   2.497   0.787
 2147TIP3    H2 6448   2.089   2.607   0.748
 2148TIP3   OH2 6449   4.686   5.392   4.746
 2148TIP3    H1 6450   4.622   5.463   4.747
 2148TIP3    H2 6451   4.685   5.358   4.835
 2149TIP3   OH2 6452   2.306   3.416   1.025
 2149TIP3    H1 6453   2.226   3.460   1.055
 2149TIP3    H2 6454   2.322   3.452   0.938
 2150TIP3   OH2 6455   3.595   5.564   3.607
 2150TIP3    H1 6456   3.536   5.625   3.651
 2150TIP3    H2 6457   3.551   5.544   3.524
 2151TIP3   OH2 6458   0.795   1.143   0.101
 2151TIP3    H1 6459   0.870   1.183   0.144
 2151TIP3    H2 6460   0.831   1.097   0.026
 2152TIP3   OH2 6461   1.013   3.512   4.046
 2152TIP3    H1 6462   0.945   3.454   4.081
 2152TIP3    H2 6463   1.005   3.502   3.951
 2153TIP3   OH2 6464   2.339   3.065   0.437
 2153TIP3    H1 6465   2.317   2.976   0.464
 2153TIP3    H2 6466   2.353   3.059   0.342
 2154TIP3   OH2 6467   1.113   3.193   4.100
 2154TIP3    H1 6468   1.061   3.157   4.172
 2154TIP3    H2 6469   1.199   3.210   4.138
 2155TIP3   OH2 6470   2.365   2.318   4.131
 2155TIP3    H1 6471   2.362   2.325   4.036
 2155TIP3    H2 6472   2.349   2.225   4.149
 2156TIP3   OH2 6473   3.500   4.911   0.388
 2156TIP3    H1 6474   3.475   4.944   0.301
 2156TIP3    H2 6475   3.431   4.943   0.446
 2157TIP3   OH2 6476   4.659   5.442   2.395
 2157TIP3    H1 6477   4.713   5.501   2.342
 2157TIP3    H2 6478   4.684   5.354   2.365
 2158TIP3   OH2 6479   2.815   0.537   3.478
 2158TIP3    H1 6480   2.751   0.570   3.541
 2158TIP3    H2 6481   2.834   0.612   3.422
 2159TIP3   OH2 6482   6.092   3.353   4.743
 2159TIP3    H1 6483   6.012   3.328   4.698
 2159TIP3    H2 6484   6.151   3.279   4.732
 2160TIP3   OH2 6485   1.422   3.962   0.972
 2160TIP3    H1 6486   1.350   3.965   0.909
 2160TIP3    H2 6487   1.428   3.870   0.997
 2161TIP3   OH2 6488   6.025   4.445   2.214
 2161TIP3    H1 6489   6.031   4.350   2.224
 2161TIP3    H2 6490   5.994   4.457   2.124
 2162TIP3   OH2 6491   3.300   0.568   0.671
 2162TIP3    H1 6492   3.276   0.660   0.678
 2162TIP3    H2 6493   3.222   0.526   0.634
 2163TIP3   OH2 6494   0.675   4.115   5.020
 2163TIP3    H1 6495   0.744   4.078   5.075
 2163TIP3    H2 6496   0.630   4.039   4.983
 2164TIP3   OH2 6497   0.828   4.285   1.057
 2164TIP3    H1 6498   0.923   4.277   1.068
 2164TIP3    H2 6499   0.804   4.360   1.112
 2165TIP3   OH2 6500   3.075   5.838   0.890
 2165TIP3    H1 6501   2.987   5.800   0.896
 2165TIP3    H2 6502   3.132   5.770   0.927
 2166TIP3   OH2 6503   2.832   2.408   4.639
 2166TIP3    H1 6504   2.749   2.399   4.687
 2166TIP3    H2 6505   2.855   2.318   4.615
 2167TIP3   OH2 6506   0.673   3.289   2.030
 2167TIP3    H1 6507   0.680   3.339   2.111
 2167TIP3    H2 6508   0.742   3.324   1.974
 2168TIP3   OH2 6509   1.666   0.295   2.247
 2168TIP3    H1 6510   1.698   0.226   2.305
 2168TIP3    H2 6511   1.574   0.306   2.272
 2169TIP3   OH2 6512   3.592   5.487   1.152
 2169TIP3    H1 6513   3.616   5.401   1.185
 2169TIP3    H2 6514   3.649   5.548   1.199
 2170TIP3   OH2 6515   3.328   0.770   1.412
 2170TIP3    H1 6516   3.369   0.841   1.362
 2170TIP3    H2 6517   3.295   0.812   1.491
 2171TIP3   OH2 6518   6.312   0.865   2.244
 2171TIP3    H1 6519   6.322   0.958   2.265
 2171TIP3    H2 6520   6.326   0.820   2.327
 2172TIP3   OH2 6521   1.842   1.762   3.993
 2172TIP3    H1 6522   1.757   1.802   3.974
 2172TIP3    H2 6523   1.829   1.669   3.978
 2173TIP3   OH2 6524   5.853   0.064   2.270
 2173TIP3    H1 6525   5.922   0.064   2.203
 2173TIP3    H2 6526   5.784   0.009   2.233
 2174TIP3   OH2 6527   6.210   2.022   4.073
 2174TIP3    H1 6528   6.232   2.063   3.990
 2174TIP3    H2 6529   6.240   1.931   4.063
 2175TIP3   OH2 6530   1.692   4.213   0.060
 2175TIP3    H1 6531   1.597   4.212   0.072
 2175TIP3    H2 6532   1.720   4.298   0.092
 2176TIP3   OH2 6533   1.158   2.396   1.855
 2176TIP3    H1 6534   1.161   2.489   1.833
 2176TIP3    H2 6535   1.065   2.374   1.855
 2177TIP3   OH2 6536   6.332   1.522   1.284
 2177TIP3    H1 6537   6.389   1.596   1.307
 2177TIP3    H2 6538   6.255   1.563   1.243
 2178TIP3   OH2 6539   3.962   2.242   3.286
 2178TIP3    H1 6540   3.942   2.167   3.230
 2178TIP3    H2 6541   4.029   2.210   3.347
 2179TIP3   OH2 6542   5.153   2.727   3.768
 2179TIP3    H1 6543   5.104   2.809   3.773
 2179TIP3    H2 6544   5.245   2.754   3.760
 2180TIP3   OH2 6545   1.837   4.655   0.872
 2180TIP3    H1 6546   1.874   4.579   0.916
 2180TIP3    H2 6547   1.898   4.726   0.891
 2181TIP3   OH2 6548   3.476   4.277   3.023
 2181TIP3    H1 6549   3.417   4.351   3.010
 2181TIP3    H2 6550   3.558   4.304   2.982
 2182TIP3   OH2 6551   1.440   2.127   2.569
 2182TIP3    H1 6552   1.345   2.134   2.573
 2182TIP3    H2 6553   1.463   2.161   2.482
 2183TIP3   OH2 6554   0.181   2.551   4.284
 2183TIP3    H1 6555   0.228   2.634   4.279
 2183TIP3    H2 6556   0.231   2.498   4.346
 2184TIP3   OH2 6557   0.184   1.819   2.469
 2184TIP3    H1 6558   0.160   1.911   2.462
 2184TIP3    H2 6559   0.110   1.778   2.513
 2185TIP3   OH2 6560   1.374   1.103   0.301
 2185TIP3    H1 6561   1.368   1.112   0.206
 2185TIP3    H2 6562   1.412   1.186   0.330
 2186TIP3   OH2 6563   4.357   1.378   3.160
 2186TIP3    H1 6564   4.346   1.447   3.095
 2186TIP3    H2 6565   4.449   1.353   3.154
 2187TIP3   OH2 6566   3.705   2.770   3.875
 2187TIP3    H1 6567   3.733   2.681   3.855
 2187TIP3    H2 6568   3.686   2.769   3.968
 2188TIP3   OH2 6569   4.045   3.719   4.085
 2188TIP3    H1 6570   4.019   3.689   4.172
 2188TIP3    H2 6571   4.050   3.639   4.032
 2189TIP3   OH2 6572   4.181   1.851   2.946
 2189TIP3    H1 6573   4.138   1.892   3.020
 2189TIP3    H2 6574   4.274   1.866   2.961
 2190TIP3   OH2 6575   1.753   5.359   0.603
 2190TIP3    H1 6576   1.670   5.320   0.576
 2190TIP3    H2 6577   1.787   5.301   0.671
 2191TIP3   OH2 6578   4.502   4.567   3.284
 2191TIP3    H1 6579   4.520   4.583   3.191
 2191TIP3    H2 6580   4.476   4.652   3.318
 2192TIP3   OH2 6581   4.116   0.425   3.397
 2192TIP3    H1 6582   4.201   0.409   3.438
 2192TIP3    H2 6583   4.128   0.398   3.305
 2193TIP3   OH2 6584   1.715   3.266   3.663
 2193TIP3    H1 6585   1.751   3.183   3.632
 2193TIP3    H2 6586   1.727   3.262   3.758
 2194TIP3   OH2 6587   6.093   0.667   3.002
 2194TIP3    H1 6588   6.111   0.671   3.096
 2194TIP3    H2 6589   6.121   0.752   2.968
 2195TIP3   OH2 6590   4.540   3.038   2.901
 2195TIP3    H1 6591   4.536   3.017   2.995
 2195TIP3    H2 6592   4.616   2.989   2.869
 2196TIP3   OH2 6593   5.401   1.067   4.197
 2196TIP3    H1 6594   5.417   1.002   4.265
 2196TIP3    H2 6595   5.362   1.016   4.125
 2197TIP3   OH2 6596   4.790   1.980   3.765
 2197TIP3    H1 6597   4.761   1.893   3.792
 2197TIP3    H2 6598   4.713   2.036   3.775
 2198TIP3   OH2 6599   3.976   5.529   1.316
 2198TIP3    H1 6600   3.925   5.577   1.251
 2198TIP3    H2 6601   3.910   5.479   1.365
 2199TIP3   OH2 6602   0.494   0.799   3.659
 2199TIP3    H1 6603   0.541   0.717   3.673
 2199TIP3    H2 6604   0.413   0.774   3.614
 2200TIP3   OH2 6605   5.993   4.860   3.556
 2200TIP3    H1 6606   5.990   4.934   3.495
 2200TIP3    H2 6607   6.043   4.892   3.631
 2201TIP3   OH2 6608   5.616   0.705   0.236
 2201TIP3    H1 6609   5.560   0.704   0.159
 2201TIP3    H2 6610   5.702   0.679   0.203
 2202TIP3   OH2 6611   3.515   2.021   1.209
 2202TIP3    H1 6612   3.539   2.082   1.138
 2202TIP3    H2 6613   3.572   1.945   1.195
 2203TIP3   OH2 6614   3.386   3.165   1.412
 2203TIP3    H1 6615   3.443   3.168   1.488
 2203TIP3    H2 6616   3.430   3.218   1.346
 2204TIP3   OH2 6617   3.049   5.207   3.856
 2204TIP3    H1 6618   2.990   5.194   3.781
 2204TIP3    H2 6619   3.050   5.302   3.869
 2205TIP3   OH2 6620   3.631   5.810   2.727
 2205TIP3    H1 6621   3.690   5.864   2.780
 2205TIP3    H2 6622   3.686   5.741   2.690
 2206TIP3   OH2 6623   1.390   3.892   3.937
 2206TIP3    H1 6624   1.431   3.941   4.008
 2206TIP3    H2 6625   1.335   3.828   3.981
 2207TIP3   OH2 6626   3.048   4.625   1.828
 2207TIP3    H1 6627   3.046   4.580   1.743
 2207TIP3    H2 6628   3.086   4.562   1.888
 2208TIP3   OH2 6629   6.043   4.731   4.763
 2208TIP3    H1 6630   6.021   4.817   4.726
 2208TIP3    H2 6631   5.960   4.682   4.760
 2209TIP3   OH2 6632   1.350   5.909   4.171
 2209TIP3    H1 6633   1.444   5.892   4.164
 2209TIP3    H2 6634   1.332   5.973   4.103
 2210TIP3   OH2 6635   2.683   3.580   0.333
 2210TIP3    H1 6636   2.746   3.639   0.291
 2210TIP3    H2 6637   2.672   3.615   0.421
 2211TIP3   OH2 6638   2.749   4.196   4.995
 2211TIP3    H1 6639   2.680   4.139   5.030
 2211TIP3    H2 6640   2.815   4.136   4.961
 2212TIP3   OH2 6641   4.783   3.782   1.168
 2212TIP3    H1 6642   4.717   3.742   1.111
 2212TIP3    H2 6643   4.803   3.713   1.232
 2213TIP3   OH2 6644   0.684   2.738   1.348
 2213TIP3    H1 6645   0.697   2.831   1.366
 2213TIP3    H2 6646   0.646   2.735   1.260
 2214TIP3   OH2 6647   2.033   0.776   2.606
 2214TIP3    H1 6648   2.045   0.713   2.535
 2214TIP3    H2 6649   2.035   0.861   2.562
 2215TIP3   OH2 6650   5.933   3.213   5.010
 2215TIP3    H1 6651   5.920   3.172   4.924
 2215TIP3    H2 6652   6.018   3.256   5.005
 2216TIP3   OH2 6653   2.773   2.817   4.557
 2216TIP3    H1 6654   2.745   2.769   4.480
 2216TIP3    H2 6655   2.694   2.825   4.611
 2217TIP3   OH2 6656   4.327   2.997   0.293
 2217TIP3    H1 6657   4.415   2.964   0.273
 2217TIP3    H2 6658   4.313   3.068   0.231
 2218TIP3   OH2 6659   1.036   1.404   1.398
 2218TIP3    H1 6660   1.095   1.469   1.436
 2218TIP3    H2 6661   1.094   1.333   1.370
 2219TIP3   OH2 6662   2.251   1.534   0.400
 2219TIP3    H1 6663   2.216   1.450   0.430
 2219TIP3    H2 6664   2.335   1.511   0.359
 2220TIP3   OH2 6665   0.884   0.446   3.392
 2220TIP3    H1 6666   0.853   0.423   3.480
 2220TIP3    H2 6667   0.945   0.518   3.405
 2221TIP3   OH2 6668   0.970   5.240   3.604
 2221TIP3    H1 6669   0.881   5.253   3.638
 2221TIP3    H2 6670   0.963   5.165   3.546
 2222TIP3   OH2 6671   3.473   1.710   1.390
 2222TIP3    H1 6672   3.523   1.722   1.310
 2222TIP3    H2 6673   3.486   1.791   1.439
 2223TIP3   OH2 6674   4.566   0.649   3.124
 2223TIP3    H1 6675   4.636   0.637   3.188
 2223TIP3    H2 6676   4.585   0.588   3.054
 2224TIP3   OH2 6677   1.634   5.871   4.228
 2224TIP3    H1 6678   1.667   5.802   4.170
 2224TIP3    H2 6679   1.710   5.895   4.281
 2225TIP3   OH2 6680   2.943   1.408   4.245
 2225TIP3    H1 6681   3.009   1.339   4.246
 2225TIP3    H2 6682   2.897   1.397   4.162
 2226TIP3   OH2 6683   5.945   5.563   3.768
 2226TIP3    H1 6684   6.022   5.507   3.770
 2226TIP3    H2 6685   5.979   5.651   3.785
 2227TIP3   OH2 6686   1.391   1.305   4.058
 2227TIP3    H1 6687   1.421   1.353   4.135
 2227TIP3    H2 6688   1.422   1.215   4.073
 2228TIP3   OH2 6689   0.514   1.450   2.245
 2228TIP3    H1 6690   0.494   1.541   2.264
 2228TIP3    H2 6691   0.473   1.434   2.160
 2229TIP3   OH2 6692   0.108   4.668   0.879
 2229TIP3    H1 6693   0.103   4.645   0.972
 2229TIP3    H2 6694   0.060   4.750   0.872
 2230TIP3   OH2 6695   3.100   3.313   2.523
 2230TIP3    H1 6696   3.149   3.377   2.574
 2230TIP3    H2 6697   3.093   3.237   2.580
 2231TIP3   OH2 6698   0.869   1.973   1.010
 2231TIP3    H1 6699   0.924   1.946   0.936
 2231TIP3    H2 6700   0.808   2.036   0.973
 2232TIP3   OH2 6701   2.587   1.971   2.909
 2232TIP3    H1 6702   2.653   1.907   2.935
 2232TIP3    H2 6703   2.623   2.056   2.935
 2233TIP3   OH2 6704   1.250   5.339   4.137
 2233TIP3    H1 6705   1.318   5.272   4.149
 2233TIP3    H2 6706   1.294   5.421   4.158
 2234TIP3   OH2 6707   6.271   2.484   0.937
 2234TIP3    H1 6708   6.233   2.420   0.876
 2234TIP3    H2 6709   6.247   2.451   1.024
 2235TIP3   OH2 6710   4.796   1.829   2.465
 2235TIP3    H1 6711   4.766   1.823   2.374
 2235TIP3    H2 6712   4.890   1.808   2.460
 2236TIP3   OH2 6713   0.947   5.296  -0.010
 2236TIP3    H1 6714   0.855   5.298   0.016
 2236TIP3    H2 6715   0.985   5.226   0.042
 2237TIP3   OH2 6716   4.387   5.052   4.090
 2237TIP3    H1 6717   4.294   5.032   4.100
 2237TIP3    H2 6718   4.391   5.148   4.090
 2238TIP3   OH2 6719   0.883   5.343   3.328
 2238TIP3    H1 6720   0.966   5.368   3.287
 2238TIP3    H2 6721   0.908   5.306   3.412
 2239TIP3   OH2 6722   5.215   0.837   0.920
 2239TIP3    H1 6723   5.224   0.905   0.987
 2239TIP3    H2 6724   5.186   0.760   0.967
 2240TIP3   OH2 6725   2.114   1.883   0.812
 2240TIP3    H1 6726   2.018   1.878   0.809
 2240TIP3    H2 6727   2.133   1.936   0.889
 2241TIP3   OH2 6728   2.359   4.879   0.499
 2241TIP3    H1 6729   2.449   4.873   0.532
 2241TIP3    H2 6730   2.340   4.973   0.501
 2242TIP3   OH2 6731   3.080   5.162   0.232
 2242TIP3    H1 6732   2.985   5.174   0.236
 2242TIP3    H2 6733   3.093   5.083   0.180
 2243TIP3   OH2 6734   4.925   0.420   4.653
 2243TIP3    H1 6735   4.912   0.327   4.670
 2243TIP3    H2 6736   4.869   0.464   4.718
 2244TIP3   OH2 6737   2.240   0.197   1.468
 2244TIP3    H1 6738   2.272   0.280   1.503
 2244TIP3    H2 6739   2.316   0.139   1.469
 2245TIP3   OH2 6740   5.889   3.649   2.425
 2245TIP3    H1 6741   5.922   3.591   2.356
 2245TIP3    H2 6742   5.891   3.595   2.504
 2246TIP3   OH2 6743   4.021   5.797   2.242
 2246TIP3    H1 6744   3.926   5.795   2.225
 2246TIP3    H2 6745   4.059   5.756   2.164
 2247TIP3   OH2 6746   4.931   4.871   0.410
 2247TIP3    H1 6747   4.954   4.804   0.475
 2247TIP3    H2 6748   4.863   4.924   0.452
 2248TIP3   OH2 6749   0.232   0.322   4.332
 2248TIP3    H1 6750   0.219   0.324   4.237
 2248TIP3    H2 6751   0.315   0.277   4.344
 2249TIP3   OH2 6752   0.180   5.606   2.475
 2249TIP3    H1 6753   0.158   5.550   2.550
 2249TIP3    H2 6754   0.114   5.584   2.410
 2250TIP3   OH2 6755   2.104   3.834   0.060
 2250TIP3    H1 6756   2.191   3.875   0.054
 2250TIP3    H2 6757   2.075   3.827  -0.031
 2251TIP3   OH2 6758   4.262   5.526   1.748
 2251TIP3    H1 6759   4.333   5.528   1.683
 2251TIP3    H2 6760   4.189   5.485   1.702
 2252TIP3   OH2 6761   4.415   4.008   2.056
 2252TIP3    H1 6762   4.491   4.066   2.061
 2252TIP3    H2 6763   4.339   4.068   2.057
 2253TIP3   OH2 6764   0.571   0.976   0.178
 2253TIP3    H1 6765   0.635   1.039   0.145
 2253TIP3    H2 6766   0.621   0.918   0.236
 2254TIP3   OH2 6767   4.359   0.457   1.011
 2254TIP3    H1 6768   4.365   0.536   0.958
 2254TIP3    H2 6769   4.299   0.400   0.964
 2255TIP3   OH2 6770   3.572   1.727   0.527
 2255TIP3    H1 6771   3.540   1.647   0.568
 2255TIP3    H2 6772   3.596   1.784   0.601
 2256TIP3   OH2 6773   2.625   3.709   0.551
 2256TIP3    H1 6774   2.560   3.766   0.593
 2256TIP3    H2 6775   2.695   3.700   0.616
 2257TIP3   OH2 6776   5.435   3.002   0.407
 2257TIP3    H1 6777   5.426   3.021   0.314
 2257TIP3    H2 6778   5.358   2.948   0.428
 2258TIP3   OH2 6779   2.798   5.063   2.258
 2258TIP3    H1 6780   2.705   5.073   2.278
 2258TIP3    H2 6781   2.843   5.095   2.337
 2259TIP3   OH2 6782   3.618   4.162   1.111
 2259TIP3    H1 6783   3.665   4.243   1.092
 2259TIP3    H2 6784   3.664   4.124   1.186
 2260TIP3   OH2 6785   4.040   5.627   2.478
 2260TIP3    H1 6786   4.023   5.537   2.452
 2260TIP3    H2 6787   4.063   5.672   2.396
 2261TIP3   OH2 6788   3.022   1.412   4.739
 2261TIP3    H1 6789   2.956   1.389   4.674
 2261TIP3    H2 6790   3.092   1.348   4.725
 2262TIP3   OH2 6791   3.816   3.832   3.176
 2262TIP3    H1 6792   3.803   3.744   3.141
 2262TIP3    H2 6793   3.894   3.865   3.130
 2263TIP3   OH2 6794   6.104   0.265   3.091
 2263TIP3    H1 6795   6.102   0.170   3.078
 2263TIP3    H2 6796   6.149   0.276   3.175
 2264TIP3   OH2 6797   3.632   1.656   1.792
 2264TIP3    H1 6798   3.640   1.669   1.886
 2264TIP3    H2 6799   3.661   1.566   1.777
 2265TIP3   OH2 6800   0.299   0.279   1.019
 2265TIP3    H1 6801   0.367   0.240   1.074
 2265TIP3    H2 6802   0.347   0.331   0.954
 2266TIP3   OH2 6803   2.661   1.238   0.591
 2266TIP3    H1 6804   2.575   1.221   0.629
 2266TIP3    H2 6805   2.719   1.172   0.630
 2267TIP3   OH2 6806   3.750   1.611   4.199
 2267TIP3    H1 6807   3.824   1.632   4.143
 2267TIP3    H2 6808   3.768   1.522   4.230
 2268TIP3   OH2 6809   5.081   2.110   0.869
 2268TIP3    H1 6810   5.131   2.044   0.822
 2268TIP3    H2 6811   5.132   2.190   0.861
 2269TIP3   OH2 6812   6.211   3.561   0.674
 2269TIP3    H1 6813   6.186   3.557   0.766
 2269TIP3    H2 6814   6.285   3.622   0.672
 2270TIP3   OH2 6815   4.684   2.438   2.353
 2270TIP3    H1 6816   4.618   2.380   2.389
 2270TIP3    H2 6817   4.766   2.412   2.396
 2271TIP3   OH2 6818   1.868   4.355   4.312
 2271TIP3    H1 6819   1.942   4.296   4.327
 2271TIP3    H2 6820   1.814   4.311   4.247
 2272TIP3   OH2 6821   5.164   2.118   0.489
 2272TIP3    H1 6822   5.206   2.198   0.458
 2272TIP3    H2 6823   5.105   2.093   0.417
 2273TIP3   OH2 6824   5.085   3.425   0.593
 2273TIP3    H1 6825   5.178   3.414   0.614
 2273TIP3    H2 6826   5.056   3.496   0.650
 2274TIP3   OH2 6827   2.388   0.068   0.254
 2274TIP3    H1 6828   2.462   0.046   0.197
 2274TIP3    H2 6829   2.342   0.138   0.208
 2275TIP3   OH2 6830   1.215   2.541   2.372
 2275TIP3    H1 6831   1.184   2.620   2.415
 2275TIP3    H2 6832   1.227   2.478   2.442
 2276TIP3   OH2 6833   1.398   4.867   3.252
 2276TIP3    H1 6834   1.453   4.789   3.250
 2276TIP3    H2 6835   1.381   4.886   3.160
 2277TIP3   OH2 6836   2.244   0.743   3.211
 2277TIP3    H1 6837   2.192   0.798   3.153
 2277TIP3    H2 6838   2.333   0.747   3.175
 2278TIP3   OH2 6839   5.126   4.238   3.013
 2278TIP3    H1 6840   5.179   4.275   3.084
 2278TIP3    H2 6841   5.179   4.251   2.934
 2279TIP3   OH2 6842   6.160   0.912   0.820
 2279TIP3    H1 6843   6.074   0.926   0.780
 2279TIP3    H2 6844   6.146   0.933   0.912
 2280TIP3   OH2 6845   2.352   5.672   0.536
 2280TIP3    H1 6846   2.351   5.755   0.585
 2280TIP3    H2 6847   2.360   5.698   0.445
 2281TIP3   OH2 6848   2.596   2.051   0.483
 2281TIP3    H1 6849   2.544   2.051   0.403
 2281TIP3    H2 6850   2.531   2.055   0.554
 2282TIP3   OH2 6851   5.934   0.305   1.182
 2282TIP3    H1 6852   6.021   0.344   1.176
 2282TIP3    H2 6853   5.883   0.368   1.233
 2283TIP3   OH2 6854   5.084   5.532   2.355
 2283TIP3    H1 6855   5.171   5.571   2.358
 2283TIP3    H2 6856   5.035   5.587   2.294
 2284TIP3   OH2 6857   0.370   1.186   1.900
 2284TIP3    H1 6858   0.436   1.136   1.946
 2284TIP3    H2 6859   0.288   1.164   1.944
 2285TIP3   OH2 6860   3.427   3.922   2.625
 2285TIP3    H1 6861   3.435   4.017   2.630
 2285TIP3    H2 6862   3.442   3.902   2.533
 2286TIP3   OH2 6863   4.485   3.709   0.517
 2286TIP3    H1 6864   4.537   3.764   0.576
 2286TIP3    H2 6865   4.408   3.685   0.568
 2287TIP3   OH2 6866   1.751   2.417   0.086
 2287TIP3    H1 6867   1.659   2.414   0.058
 2287TIP3    H2 6868   1.801   2.391   0.008
 2288TIP3   OH2 6869   4.058   4.403   3.848
 2288TIP3    H1 6870   4.070   4.368   3.759
 2288TIP3    H2 6871   4.138   4.379   3.894
 2289TIP3   OH2 6872   1.948   1.661   5.056
 2289TIP3    H1 6873   1.875   1.715   5.085
 2289TIP3    H2 6874   1.955   1.591   5.121
 2290TIP3   OH2 6875   0.036   4.751   4.950
 2290TIP3    H1 6876   0.033   4.841   4.980
 2290TIP3    H2 6877   0.120   4.717   4.982
 2291TIP3   OH2 6878   0.117   1.108   0.479
 2291TIP3    H1 6879   0.064   1.035   0.449
 2291TIP3    H2 6880   0.194   1.107   0.422
 2292TIP3   OH2 6881   1.200   0.627   1.331
 2292TIP3    H1 6882   1.295   0.639   1.322
 2292TIP3    H2 6883   1.162   0.688   1.267
 2293TIP3   OH2 6884   3.728   3.211   3.447
 2293TIP3    H1 6885   3.731   3.117   3.431
 2293TIP3    H2 6886   3.812   3.244   3.413
 2294TIP3   OH2 6887   2.055   3.376   4.812
 2294TIP3    H1 6888   2.017   3.297   4.849
 2294TIP3    H2 6889   2.090   3.349   4.727
 2295TIP3   OH2 6890   2.190   1.220   0.090
 2295TIP3    H1 6891   2.220   1.196   0.178
 2295TIP3    H2 6892   2.249   1.289   0.062
 2296TIP3   OH2 6893   3.367   5.539   0.268
 2296TIP3    H1 6894   3.377   5.600   0.341
 2296TIP3    H2 6895   3.317   5.588   0.203
 2297TIP3   OH2 6896   3.950   4.455   4.091
 2297TIP3    H1 6897   3.955   4.432   3.998
 2297TIP3    H2 6898   3.981   4.377   4.137
 2298TIP3   OH2 6899   5.189   3.895   3.370
 2298TIP3    H1 6900   5.147   3.912   3.286
 2298TIP3    H2 6901   5.273   3.942   3.364
 2299TIP3   OH2 6902   0.849   5.067   2.022
 2299TIP3    H1 6903   0.939   5.060   1.990
 2299TIP3    H2 6904   0.858   5.069   2.118
 2300TIP3   OH2 6905   5.824   0.877   2.422
 2300TIP3    H1 6906   5.844   0.859   2.514
 2300TIP3    H2 6907   5.782   0.798   2.390
 2301TIP3   OH2 6908   2.832   0.382   2.457
 2301TIP3    H1 6909   2.777   0.383   2.535
 2301TIP3    H2 6910   2.792   0.315   2.401
 2302TIP3   OH2 6911   6.188   4.312   0.285
 2302TIP3    H1 6912   6.122   4.343   0.347
 2302TIP3    H2 6913   6.250   4.384   0.278
 2303TIP3   OH2 6914   6.187   4.018   3.696
 2303TIP3    H1 6915   6.130   4.052   3.765
 2303TIP3    H2 6916   6.273   4.054   3.715
 2304TIP3   OH2 6917   4.022   1.697   4.719
 2304TIP3    H1 6918   4.085   1.642   4.765
 2304TIP3    H2 6919   3.944   1.697   4.774
 2305TIP3   OH2 6920   3.016   0.532   1.209
 2305TIP3    H1 6921   2.930   0.496   1.187
 2305TIP3    H2 6922   3.076   0.458   1.198
 2306TIP3   OH2 6923   2.231   3.656   5.189
 2306TIP3    H1 6924   2.294   3.695   5.128
 2306TIP3    H2 6925   2.242   3.707   5.270
 2307TIP3   OH2 6926   2.211   4.061   2.283
 2307TIP3    H1 6927   2.185   4.050   2.374
 2307TIP3    H2 6928   2.244   4.151   2.278
 2308TIP3   OH2 6929   3.720   0.446   0.193
 2308TIP3    H1 6930   3.643   0.421   0.141
 2308TIP3    H2 6931   3.790   0.454   0.129
 2309TIP3   OH2 6932   3.528   4.954   1.554
 2309TIP3    H1 6933   3.488   4.997   1.630
 2309TIP3    H2 6934   3.503   4.862   1.564
 2310TIP3   OH2 6935   6.131   2.273   0.212
 2310TIP3    H1 6936   6.159   2.191   0.253
 2310TIP3    H2 6937   6.203   2.295   0.152
 2311TIP3   OH2 6938   0.624   4.400   0.875
 2311TIP3    H1 6939   0.663   4.487   0.883
 2311TIP3    H2 6940   0.630   4.363   0.963
 2312TIP3   OH2 6941   4.974   2.193   3.851
 2312TIP3    H1 6942   4.890   2.238   3.856
 2312TIP3    H2 6943   4.957   2.115   3.798
 2313TIP3   OH2 6944   4.837   0.996   3.695
 2313TIP3    H1 6945   4.831   0.942   3.774
 2313TIP3    H2 6946   4.845   0.932   3.623
 2314TIP3   OH2 6947   5.686   1.509   5.077
 2314TIP3    H1 6948   5.722   1.555   5.001
 2314TIP3    H2 6949   5.593   1.500   5.056
 2315TIP3   OH2 6950   5.547   0.992   3.553
 2315TIP3    H1 6951   5.538   0.897   3.552
 2315TIP3    H2 6952   5.503   1.020   3.633
 2316TIP3   OH2 6953   2.383   1.188   0.308
 2316TIP3    H1 6954   2.312   1.216   0.365
 2316TIP3    H2 6955   2.372   1.093   0.300
 2317TIP3   OH2 6956   5.409   3.655   4.434
 2317TIP3    H1 6957   5.457   3.658   4.352
 2317TIP3    H2 6958   5.392   3.562   4.449
 2318TIP3   OH2 6959   1.002   1.387   1.677
 2318TIP3    H1 6960   0.954   1.355   1.601
 2318TIP3    H2 6961   0.978   1.479   1.684
 2319TIP3   OH2 6962   3.899   4.152   3.424
 2319TIP3    H1 6963   3.930   4.063   3.442
 2319TIP3    H2 6964   3.948   4.207   3.486
 2320TIP3   OH2 6965   4.859   1.363   1.560
 2320TIP3    H1 6966   4.816   1.369   1.646
 2320TIP3    H2 6967   4.823   1.436   1.510
 2321TIP3   OH2 6968   4.332   1.522   4.107
 2321TIP3    H1 6969   4.325   1.584   4.034
 2321TIP3    H2 6970   4.313   1.437   4.068
 2322TIP3   OH2 6971   0.056   5.835   4.991
 2322TIP3    H1 6972   0.069   5.756   5.043
 2322TIP3    H2 6973   0.135   5.887   5.008
 2323TIP3   OH2 6974   4.083   2.874   1.359
 2323TIP3    H1 6975   4.138   2.893   1.435
 2323TIP3    H2 6976   4.145   2.853   1.289
 2324TIP3   OH2 6977   1.748   1.995   2.017
 2324TIP3    H1 6978   1.670   1.969   1.967
 2324TIP3    H2 6979   1.731   1.962   2.106
 2325TIP3   OH2 6980   4.597   2.674   1.779
 2325TIP3    H1 6981   4.568   2.583   1.771
 2325TIP3    H2 6982   4.542   2.710   1.849
 2326TIP3   OH2 6983   5.075   2.136   3.079
 2326TIP3    H1 6984   4.990   2.148   3.121
 2326TIP3    H2 6985   5.054   2.104   2.991
 2327TIP3   OH2 6986   1.226   3.699   4.088
 2327TIP3    H1 6987   1.287   3.648   4.141
 2327TIP3    H2 6988   1.163   3.634   4.055
 2328TIP3   OH2 6989   4.881   5.372   4.291
 2328TIP3    H1 6990   4.899   5.462   4.265
 2328TIP3    H2 6991   4.793   5.354   4.258
 2329TIP3   OH2 6992   2.045   4.817   3.156
 2329TIP3    H1 6993   1.991   4.894   3.138
 2329TIP3    H2 6994   2.030   4.799   3.249
 2330TIP3   OH2 6995   4.473   5.551   3.029
 2330TIP3    H1 6996   4.496   5.620   3.092
 2330TIP3    H2 6997   4.495   5.469   3.074
 2331TIP3   OH2 6998   2.912   3.522   4.558
 2331TIP3    H1 6999   2.910   3.562   4.644
 2331TIP3    H2 7000   2.977   3.572   4.509
 2332TIP3   OH2 7001   4.390   0.786   4.123
 2332TIP3    H1 7002   4.472   0.738   4.112
 2332TIP3    H2 7003   4.333   0.724   4.169
 2333TIP3   OH2 7004   4.661   1.138   3.897
 2333TIP3    H1 7005   4.669   1.153   3.803
 2333TIP3    H2 7006   4.707   1.055   3.912
 2334TIP3   OH2 7007   5.148   0.661   3.312
 2334TIP3    H1 7008   5.098   0.722   3.366
 2334TIP3    H2 7009   5.235   0.661   3.350
 2335TIP3   OH2 7010   6.345   0.123   5.000
 2335TIP3    H1 7011   6.285   0.196   5.010
 2335TIP3    H2 7012   6.423   0.161   4.959
 2336TIP3   OH2 7013   1.415   4.639   0.467
 2336TIP3    H1 7014   1.481   4.663   0.532
 2336TIP3    H2 7015   1.439   4.689   0.389
 2337TIP3   OH2 7016   5.616   5.262   2.619
 2337TIP3    H1 7017   5.573   5.288   2.701
 2337TIP3    H2 7018   5.670   5.187   2.643
 2338TIP3   OH2 7019   1.453   1.348   3.249
 2338TIP3    H1 7020   1.412   1.419   3.200
 2338TIP3    H2 7021   1.534   1.330   3.201
 2339TIP3   OH2 7022   4.785   5.767   2.570
 2339TIP3    H1 7023   4.777   5.851   2.614
 2339TIP3    H2 7024   4.696   5.747   2.540
 2340TIP3   OH2 7025   0.393   4.969   4.126
 2340TIP3    H1 7026   0.369   4.919   4.204
 2340TIP3    H2 7027   0.374   4.911   4.053
 2341TIP3   OH2 7028   0.136   3.605   0.872
 2341TIP3    H1 7029   0.094   3.687   0.844
 2341TIP3    H2 7030   0.210   3.633   0.925
 2342TIP3   OH2 7031   1.294   1.165   2.295
 2342TIP3    H1 7032   1.268   1.256   2.281
 2342TIP3    H2 7033   1.273   1.122   2.212
 2343TIP3   OH2 7034   1.925   1.832   1.905
 2343TIP3    H1 7035   1.881   1.905   1.948
 2343TIP3    H2 7036   1.977   1.791   1.974
 2344TIP3   OH2 7037   2.823   4.268   1.595
 2344TIP3    H1 7038   2.832   4.286   1.501
 2344TIP3    H2 7039   2.842   4.175   1.603
 2345TIP3   OH2 7040   3.688   4.188   2.087
 2345TIP3    H1 7041   3.688   4.157   2.178
 2345TIP3    H2 7042   3.621   4.255   2.084
 2346TIP3   OH2 7043   4.676   2.659   2.728
 2346TIP3    H1 7044   4.649   2.677   2.818
 2346TIP3    H2 7045   4.595   2.654   2.679
 2347TIP3   OH2 7046   0.277   3.753   3.529
 2347TIP3    H1 7047   0.288   3.665   3.494
 2347TIP3    H2 7048   0.239   3.803   3.457
 2348TIP3   OH2 7049   2.908   5.264   3.611
 2348TIP3    H1 7050   2.989   5.312   3.594
 2348TIP3    H2 7051   2.931   5.172   3.595
 2349TIP3   OH2 7052   1.296   5.456   2.141
 2349TIP3    H1 7053   1.216   5.507   2.147
 2349TIP3    H2 7054   1.359   5.504   2.195
 2350TIP3   OH2 7055   4.569   3.730   4.150
 2350TIP3    H1 7056   4.554   3.816   4.111
 2350TIP3    H2 7057   4.484   3.704   4.186
 2351TIP3   OH2 7058   3.452   5.524   3.134
 2351TIP3    H1 7059   3.541   5.512   3.100
 2351TIP3    H2 7060   3.456   5.492   3.224
 2352TIP3   OH2 7061   1.030   0.134   4.308
 2352TIP3    H1 7062   1.090   0.070   4.346
 2352TIP3    H2 7063   1.032   0.208   4.370
 2353TIP3   OH2 7064   1.681   0.209   4.329
 2353TIP3    H1 7065   1.745   0.270   4.366
 2353TIP3    H2 7066   1.727   0.166   4.258
 2354TIP3   OH2 7067   4.944   5.686   4.799
 2354TIP3    H1 7068   4.925   5.697   4.892
 2354TIP3    H2 7069   5.038   5.705   4.792
 2355TIP3   OH2 7070  -0.007   1.399   2.721
 2355TIP3    H1 7071  -0.037   1.457   2.791
 2355TIP3    H2 7072   0.066   1.446   2.681
 2356TIP3   OH2 7073   2.387   0.810   4.772
 2356TIP3    H1 7074   2.334   0.750   4.720
 2356TIP3    H2 7075   2.345   0.896   4.760
 2357TIP3   OH2 7076   3.427   2.582   4.653
 2357TIP3    H1 7077   3.475   2.618   4.727
 2357TIP3    H2 7078   3.338   2.617   4.663
 2358TIP3   OH2 7079   4.617   1.987   2.579
 2358TIP3    H1 7080   4.684   1.932   2.538
 2358TIP3    H2 7081   4.648   2.000   2.668
 2359TIP3   OH2 7082   1.065   1.446   1.974
 2359TIP3    H1 7083   1.056   1.378   1.907
 2359TIP3    H2 7084   0.985   1.439   2.026
 2360TIP3   OH2 7085   5.612   0.223   4.017
 2360TIP3    H1 7086   5.635   0.287   3.949
 2360TIP3    H2 7087   5.651   0.257   4.097
 2361TIP3   OH2 7088   1.076   1.959   0.375
 2361TIP3    H1 7089   1.158   2.008   0.368
 2361TIP3    H2 7090   1.099   1.881   0.426
 2362TIP3   OH2 7091   0.516   5.448   4.687
 2362TIP3    H1 7092   0.529   5.359   4.657
 2362TIP3    H2 7093   0.597   5.493   4.666
 2363TIP3   OH2 7094   2.177   3.303   2.343
 2363TIP3    H1 7095   2.196   3.224   2.292
 2363TIP3    H2 7096   2.261   3.332   2.376
 2364TIP3   OH2 7097   4.814   0.848   0.871
 2364TIP3    H1 7098   4.859   0.839   0.787
 2364TIP3    H2 7099   4.847   0.930   0.908
 2365TIP3   OH2 7100   2.093   1.148   3.989
 2365TIP3    H1 7101   2.099   1.230   4.038
 2365TIP3    H2 7102   2.129   1.082   4.049
 2366TIP3   OH2 7103   4.628   4.591   1.649
 2366TIP3    H1 7104   4.564   4.641   1.598
 2366TIP3    H2 7105   4.682   4.547   1.583
 2367TIP3   OH2 7106   5.496   3.795   2.340
 2367TIP3    H1 7107   5.532   3.708   2.357
 2367TIP3    H2 7108   5.472   3.828   2.427
 2368TIP3   OH2 7109   1.495   4.030   3.087
 2368TIP3    H1 7110   1.403   4.038   3.063
 2368TIP3    H2 7111   1.534   3.978   3.018
 2369TIP3   OH2 7112   6.017   5.017   1.766
 2369TIP3    H1 7113   6.081   4.992   1.833
 2369TIP3    H2 7114   5.932   4.999   1.807
 2370TIP3   OH2 7115   0.089   1.161   2.808
 2370TIP3    H1 7116   0.049   1.236   2.763
 2370TIP3    H2 7117   0.120   1.105   2.737
 2371TIP3   OH2 7118   4.906   2.509   2.689
 2371TIP3    H1 7119   4.841   2.574   2.661
 2371TIP3    H2 7120   4.909   2.446   2.617
 2372TIP3   OH2 7121   2.995   2.173   4.157
 2372TIP3    H1 7122   3.084   2.185   4.190
 2372TIP3    H2 7123   2.962   2.097   4.204
 2373TIP3   OH2 7124   2.866   1.060   0.943
 2373TIP3    H1 7125   2.836   0.970   0.953
 2373TIP3    H2 7126   2.792   1.114   0.970
 2374TIP3   OH2 7127   2.695   0.157   0.394
 2374TIP3    H1 7128   2.751   0.080   0.404
 2374TIP3    H2 7129   2.736   0.207   0.323
 2375TIP3   OH2 7130   2.826   0.737   2.435
 2375TIP3    H1 7131   2.913   0.742   2.395
 2375TIP3    H2 7132   2.779   0.813   2.399
 2376TIP3   OH2 7133   3.990   5.111   3.652
 2376TIP3    H1 7134   4.043   5.176   3.697
 2376TIP3    H2 7135   3.915   5.096   3.711
 2377TIP3   OH2 7136   2.082   1.043   3.412
 2377TIP3    H1 7137   2.012   1.108   3.414
 2377TIP3    H2 7138   2.114   1.046   3.322
 2378TIP3   OH2 7139   5.206   4.414   4.891
 2378TIP3    H1 7140   5.294   4.380   4.904
 2378TIP3    H2 7141   5.209   4.456   4.805
 2379TIP3   OH2 7142   3.324   4.747   4.537
 2379TIP3    H1 7143   3.290   4.824   4.493
 2379TIP3    H2 7144   3.411   4.773   4.568
 2380TIP3   OH2 7145   2.613   4.165   2.960
 2380TIP3    H1 7146   2.584   4.163   3.051
 2380TIP3    H2 7147   2.709   4.170   2.966
 2381TIP3   OH2 7148   0.543   3.864   0.958
 2381TIP3    H1 7149   0.495   3.788   0.991
 2381TIP3    H2 7150   0.602   3.828   0.892
 2382TIP3   OH2 7151   3.794   4.161   2.618
 2382TIP3    H1 7152   3.887   4.141   2.631
 2382TIP3    H2 7153   3.749   4.078   2.638
 2383TIP3   OH2 7154   1.913   5.049   3.160
 2383TIP3    H1 7155   1.832   5.096   3.179
 2383TIP3    H2 7156   1.973   5.075   3.229
 2384TIP3   OH2 7157   3.055   4.462   1.617
 2384TIP3    H1 7158   3.018   4.377   1.594
 2384TIP3    H2 7159   3.072   4.504   1.533
 2385TIP3   OH2 7160   5.626   1.254   2.725
 2385TIP3    H1 7161   5.690   1.245   2.796
 2385TIP3    H2 7162   5.620   1.167   2.685
 2386TIP3   OH2 7163   1.678   3.605   4.125
 2386TIP3    H1 7164   1.588   3.572   4.114
 2386TIP3    H2 7165   1.679   3.645   4.212
 2387TIP3   OH2 7166   0.789   4.384   0.541
 2387TIP3    H1 7167   0.706   4.379   0.588
 2387TIP3    H2 7168   0.765   4.374   0.449
 2388TIP3   OH2 7169   5.322   2.564   1.181
 2388TIP3    H1 7170   5.255   2.579   1.114
 2388TIP3    H2 7171   5.402   2.546   1.131
 2389TIP3   OH2 7172   0.814   4.751   3.616
 2389TIP3    H1 7173   0.803   4.839   3.650
 2389TIP3    H2 7174   0.902   4.725   3.645
 2390TIP3   OH2 7175   6.030   0.437   3.445
 2390TIP3    H1 7176   6.034   0.408   3.536
 2390TIP3    H2 7177   6.060   0.362   3.394
 2391TIP3   OH2 7178   1.059   1.482   4.737
 2391TIP3    H1 7179   1.021   1.399   4.764
 2391TIP3    H2 7180   1.031   1.544   4.805
 2392TIP3   OH2 7181   1.742   0.560   1.048
 2392TIP3    H1 7182   1.743   0.476   1.002
 2392TIP3    H2 7183   1.812   0.553   1.112
 2393TIP3   OH2 7184   3.054   2.428   3.832
 2393TIP3    H1 7185   3.150   2.429   3.830
 2393TIP3    H2 7186   3.031   2.339   3.804
 2394TIP3   OH2 7187   3.195   4.171   0.121
 2394TIP3    H1 7188   3.176   4.258   0.086
 2394TIP3    H2 7189   3.222   4.120   0.045
 2395TIP3   OH2 7190   0.696   4.661   0.979
 2395TIP3    H1 7191   0.668   4.669   0.888
 2395TIP3    H2 7192   0.644   4.726   1.026
 2396TIP3   OH2 7193   0.803   3.390   3.535
 2396TIP3    H1 7194   0.822   3.336   3.458
 2396TIP3    H2 7195   0.858   3.355   3.604
 2397TIP3   OH2 7196   3.201   2.560  -0.069
 2397TIP3    H1 7197   3.132   2.617  -0.035
 2397TIP3    H2 7198   3.243   2.525   0.010
 2398TIP3   OH2 7199   3.076   5.165   3.232
 2398TIP3    H1 7200   3.136   5.232   3.199
 2398TIP3    H2 7201   3.053   5.113   3.155
 2399TIP3   OH2 7202   3.140   4.572   1.375
 2399TIP3    H1 7203   3.079   4.532   1.314
 2399TIP3    H2 7204   3.222   4.579   1.326
 2400TIP3   OH2 7205   5.509   1.260   1.638
 2400TIP3    H1 7206   5.425   1.222   1.664
 2400TIP3    H2 7207   5.556   1.189   1.595
 2401TIP3   OH2 7208   4.841   4.263   1.305
 2401TIP3    H1 7209   4.789   4.201   1.254
 2401TIP3    H2 7210   4.917   4.213   1.333
 2402TIP3   OH2 7211   1.133   3.055   3.353
 2402TIP3    H1 7212   1.093   2.976   3.389
 2402TIP3    H2 7213   1.194   3.084   3.421
 2403TIP3   OH2 7214   4.633   1.057   0.763
 2403TIP3    H1 7215   4.666   0.993   0.825
 2403TIP3    H2 7216   4.541   1.033   0.751
 2404TIP3   OH2 7217   3.794   0.126   5.151
 2404TIP3    H1 7218   3.819   0.205   5.104
 2404TIP3    H2 7219   3.830   0.054   5.099
 2405TIP3   OH2 7220   0.148   0.367   2.994
 2405TIP3    H1 7221   0.188   0.375   3.080
 2405TIP3    H2 7222   0.179   0.444   2.946
 2406TIP3   OH2 7223   2.220   4.037   2.594
 2406TIP3    H1 7224   2.166   4.102   2.639
 2406TIP3    H2 7225   2.281   4.006   2.661
 2407TIP3   OH2 7226   4.945   4.206   2.149
 2407TIP3    H1 7227   4.860   4.200   2.192
 2407TIP3    H2 7228   4.981   4.118   2.154
 2408TIP3   OH2 7229   1.741   5.641   3.136
 2408TIP3    H1 7230   1.747   5.619   3.229
 2408TIP3    H2 7231   1.664   5.697   3.129
 2409TIP3   OH2 7232   1.281   1.283   4.953
 2409TIP3    H1 7233   1.350   1.242   5.006
 2409TIP3    H2 7234   1.232   1.210   4.917
 2410TIP3   OH2 7235   4.866   3.368   0.456
 2410TIP3    H1 7236   4.954   3.386   0.487
 2410TIP3    H2 7237   4.809   3.395   0.528
 2411TIP3   OH2 7238   4.339   2.765   0.851
 2411TIP3    H1 7239   4.390   2.684   0.854
 2411TIP3    H2 7240   4.277   2.757   0.923
 2412TIP3   OH2 7241   0.715   1.585   1.898
 2412TIP3    H1 7242   0.740   1.606   1.988
 2412TIP3    H2 7243   0.665   1.661   1.868
 2413TIP3   OH2 7244   2.790   3.175   4.101
 2413TIP3    H1 7245   2.786   3.238   4.029
 2413TIP3    H2 7246   2.882   3.175   4.127
 2414TIP3   OH2 7247   0.396   4.874   0.248
 2414TIP3    H1 7248   0.389   4.958   0.203
 2414TIP3    H2 7249   0.313   4.865   0.294
 2415TIP3   OH2 7250   5.365   5.501   1.781
 2415TIP3    H1 7251   5.376   5.499   1.876
 2415TIP3    H2 7252   5.447   5.466   1.747
 2416TIP3   OH2 7253   3.960   4.828   1.669
 2416TIP3    H1 7254   3.891   4.784   1.719
 2416TIP3    H2 7255   3.921   4.842   1.583
 2417TIP3   OH2 7256   1.518   3.825   4.816
 2417TIP3    H1 7257   1.535   3.893   4.751
 2417TIP3    H2 7258   1.473   3.756   4.767
 2418TIP3   OH2 7259   6.205   3.609   4.690
 2418TIP3    H1 7260   6.147   3.533   4.696
 2418TIP3    H2 7261   6.279   3.578   4.638
 2419TIP3   OH2 7262   4.228   2.806   2.538
 2419TIP3    H1 7263   4.168   2.874   2.506
 2419TIP3    H2 7264   4.184   2.769   2.614
 2420TIP3   OH2 7265   5.588   2.433   2.884
 2420TIP3    H1 7266   5.565   2.495   2.816
 2420TIP3    H2 7267   5.514   2.435   2.945
 2421TIP3   OH2 7268   3.871   0.275   1.316
 2421TIP3    H1 7269   3.852   0.361   1.278
 2421TIP3    H2 7270   3.895   0.294   1.407
 2422TIP3   OH2 7271   3.606   1.285   4.756
 2422TIP3    H1 7272   3.608   1.358   4.694
 2422TIP3    H2 7273   3.515   1.254   4.753
 2423TIP3   OH2 7274   6.127   3.914   1.290
 2423TIP3    H1 7275   6.052   3.854   1.298
 2423TIP3    H2 7276   6.203   3.861   1.315
 2424TIP3   OH2 7277   3.623   0.528   4.977
 2424TIP3    H1 7278   3.581   0.443   4.994
 2424TIP3    H2 7279   3.663   0.551   5.061
 2425TIP3   OH2 7280   4.009   3.709   0.917
 2425TIP3    H1 7281   3.926   3.727   0.873
 2425TIP3    H2 7282   4.021   3.614   0.908
 2426TIP3   OH2 7283   2.672   4.196   0.170
 2426TIP3    H1 7284   2.627   4.117   0.198
 2426TIP3    H2 7285   2.765   4.172   0.166
 2427TIP3   OH2 7286   4.211   2.575   4.275
 2427TIP3    H1 7287   4.295   2.529   4.267
 2427TIP3    H2 7288   4.212   2.612   4.363
 2428TIP3   OH2 7289   4.481   5.188   2.260
 2428TIP3    H1 7290   4.525   5.244   2.324
 2428TIP3    H2 7291   4.526   5.207   2.177
 2429TIP3   OH2 7292   3.878   0.090   2.600
 2429TIP3    H1 7293   3.811   0.038   2.645
 2429TIP3    H2 7294   3.858   0.079   2.507
 2430TIP3   OH2 7295   4.309   0.779   2.807
 2430TIP3    H1 7296   4.384   0.831   2.776
 2430TIP3    H2 7297   4.241   0.792   2.741
 2431TIP3   OH2 7298   4.098   1.393   5.068
 2431TIP3    H1 7299   4.132   1.445   5.140
 2431TIP3    H2 7300   4.175   1.355   5.026
 2432TIP3   OH2 7301   4.841   5.292   1.477
 2432TIP3    H1 7302   4.930   5.289   1.443
 2432TIP3    H2 7303   4.800   5.364   1.429
 2433TIP3   OH2 7304   4.529   0.604   4.994
 2433TIP3    H1 7305   4.439   0.571   5.001
 2433TIP3    H2 7306   4.570   0.547   4.928
 2434TIP3   OH2 7307   1.809   3.732   2.797
 2434TIP3    H1 7308   1.790   3.718   2.704
 2434TIP3    H2 7309   1.724   3.752   2.837
 2435TIP3   OH2 7310   2.590   1.216   4.914
 2435TIP3    H1 7311   2.641   1.296   4.917
 2435TIP3    H2 7312   2.634   1.161   4.849
 2436TIP3   OH2 7313   5.069   3.351   3.107
 2436TIP3    H1 7314   5.058   3.259   3.084
 2436TIP3    H2 7315   5.066   3.353   3.203
 2437TIP3   OH2 7316   0.871   2.899   5.060
 2437TIP3    H1 7317   0.812   2.971   5.037
 2437TIP3    H2 7318   0.851   2.831   4.996
 2438TIP3   OH2 7319   4.900   1.807   4.555
 2438TIP3    H1 7320   4.976   1.865   4.555
 2438TIP3    H2 7321   4.825   1.865   4.566
 2439TIP3   OH2 7322   2.689   2.648   3.950
 2439TIP3    H1 7323   2.761   2.596   3.986
 2439TIP3    H2 7324   2.623   2.648   4.019
 2440TIP3   OH2 7325   2.225   5.315   3.887
 2440TIP3    H1 7326   2.266   5.343   3.805
 2440TIP3    H2 7327   2.287   5.341   3.955
 2441TIP3   OH2 7328   4.034   3.929   2.574
 2441TIP3    H1 7329   3.976   3.865   2.534
 2441TIP3    H2 7330   4.089   3.878   2.633
 2442TIP3   OH2 7331   1.425   0.449   3.539
 2442TIP3    H1 7332   1.354   0.459   3.475
 2442TIP3    H2 7333   1.459   0.361   3.524
 2443TIP3   OH2 7334   2.403   3.449   4.808
 2443TIP3    H1 7335   2.496   3.468   4.818
 2443TIP3    H2 7336   2.397   3.392   4.731
 2444TIP3   OH2 7337   6.102   0.968   2.872
 2444TIP3    H1 7338   6.187   1.011   2.865
 2444TIP3    H2 7339   6.091   0.921   2.789
 2445TIP3   OH2 7340   6.124   0.332   2.010
 2445TIP3    H1 7341   6.107   0.298   1.923
 2445TIP3    H2 7342   6.134   0.254   2.065
 2446TIP3   OH2 7343   0.994   3.058   1.436
 2446TIP3    H1 7344   1.009   2.971   1.398
 2446TIP3    H2 7345   1.077   3.104   1.424
 2447TIP3   OH2 7346   3.846   0.579   2.925
 2447TIP3    H1 7347   3.904   0.655   2.935
 2447TIP3    H2 7348   3.891   0.524   2.861
 2448TIP3   OH2 7349   0.610   0.579   1.053
 2448TIP3    H1 7350   0.624   0.488   1.027
 2448TIP3    H2 7351   0.694   0.606   1.092
 2449TIP3   OH2 7352   0.907   0.212   3.789
 2449TIP3    H1 7353   0.960   0.291   3.774
 2449TIP3    H2 7354   0.956   0.162   3.854
 2450TIP3   OH2 7355   2.884   2.216   2.692
 2450TIP3    H1 7356   2.861   2.305   2.666
 2450TIP3    H2 7357   2.800   2.175   2.713
 2451TIP3   OH2 7358   0.207   0.135   4.826
 2451TIP3    H1 7359   0.226   0.229   4.819
 2451TIP3    H2 7360   0.143   0.118   4.757
 2452TIP3   OH2 7361   3.772   3.338   3.115
 2452TIP3    H1 7362   3.839   3.308   3.054
 2452TIP3    H2 7363   3.737   3.417   3.075
 2453TIP3   OH2 7364   0.196   3.917   1.555
 2453TIP3    H1 7365   0.127   3.873   1.604
 2453TIP3    H2 7366   0.251   3.846   1.522
 2454TIP3   OH2 7367   3.352   5.205   0.122
 2454TIP3    H1 7368   3.275   5.202   0.179
 2454TIP3    H2 7369   3.352   5.295   0.088
 2455TIP3   OH2 7370   1.906   0.119   2.220
 2455TIP3    H1 7371   1.985   0.103   2.273
 2455TIP3    H2 7372   1.937   0.171   2.146
 2456TIP3   OH2 7373   5.812   2.122   3.948
 2456TIP3    H1 7374   5.750   2.193   3.965
 2456TIP3    H2 7375   5.801   2.103   3.855
 2457TIP3   OH2 7376   0.563   3.503   3.575
 2457TIP3    H1 7377   0.504   3.430   3.560
 2457TIP3    H2 7378   0.651   3.467   3.560
 2458TIP3   OH2 7379   5.400   0.683   0.041
 2458TIP3    H1 7380   5.326   0.651  -0.009
 2458TIP3    H2 7381   5.441   0.748  -0.015
 2459TIP3   OH2 7382   5.988   3.437   0.942
 2459TIP3    H1 7383   5.957   3.351   0.967
 2459TIP3    H2 7384   6.075   3.443   0.981
 2460TIP3   OH2 7385   0.502   2.802   0.840
 2460TIP3    H1 7386   0.517   2.802   0.934
 2460TIP3    H2 7387   0.429   2.863   0.827
 2461TIP3   OH2 7388   0.438   3.771   3.148
 2461TIP3    H1 7389   0.361   3.819   3.177
 2461TIP3    H2 7390   0.496   3.770   3.224
 2462TIP3   OH2 7391   0.112   1.850   3.657
 2462TIP3    H1 7392   0.172   1.808   3.595
 2462TIP3    H2 7393   0.165   1.863   3.736
 2463TIP3   OH2 7394   3.195   4.701   2.100
 2463TIP3    H1 7395   3.129   4.770   2.111
 2463TIP3    H2 7396   3.145   4.623   2.079
 2464TIP3   OH2 7397   0.051   5.066   1.864
 2464TIP3    H1 7398   0.059   5.127   1.937
 2464TIP3    H2 7399  -0.010   4.999   1.895
 2465TIP3   OH2 7400   2.473   2.346   4.990
 2465TIP3    H1 7401   2.383   2.373   5.010
 2465TIP3    H2 7402   2.527   2.417   5.026
 2466TIP3   OH2 7403   2.637   4.346   1.943
 2466TIP3    H1 7404   2.614   4.394   2.023
 2466TIP3    H2 7405   2.620   4.409   1.873
 2467TIP3   OH2 7406   0.737   4.034   0.517
 2467TIP3    H1 7407   0.731   4.086   0.437
 2467TIP3    H2 7408   0.824   3.995   0.513
 2468TIP3   OH2 7409   1.193   5.065   0.769
 2468TIP3    H1 7410   1.197   4.972   0.748
 2468TIP3    H2 7411   1.116   5.074   0.826
 2469TIP3   OH2 7412   4.425   5.017   0.761
 2469TIP3    H1 7413   4.491   5.053   0.821
 2469TIP3    H2 7414   4.368   5.090   0.741
 2470TIP3   OH2 7415   5.885   4.696   1.833
 2470TIP3    H1 7416   5.909   4.748   1.910
 2470TIP3    H2 7417   5.843   4.618   1.869
 2471TIP3   OH2 7418   4.577   5.816   1.250
 2471TIP3    H1 7419   4.670   5.799   1.234
 2471TIP3    H2 7420   4.575   5.862   1.334
 2472TIP3   OH2 7421   3.162   3.629   4.978
 2472TIP3    H1 7422   3.229   3.633   4.911
 2472TIP3    H2 7423   3.179   3.704   5.034
 2473TIP3   OH2 7424   3.692   1.128   3.254
 2473TIP3    H1 7425   3.706   1.204   3.199
 2473TIP3    H2 7426   3.751   1.061   3.219
 2474TIP3   OH2 7427   0.603   3.414   3.249
 2474TIP3    H1 7428   0.563   3.499   3.232
 2474TIP3    H2 7429   0.614   3.375   3.162
 2475TIP3   OH2 7430   5.880   5.629   4.499
 2475TIP3    H1 7431   5.788   5.604   4.510
 2475TIP3    H2 7432   5.876   5.724   4.484
 2476TIP3   OH2 7433   2.214   1.508   0.860
 2476TIP3    H1 7434   2.287   1.510   0.798
 2476TIP3    H2 7435   2.196   1.415   0.872
 2477TIP3   OH2 7436   1.292   1.539   1.334
 2477TIP3    H1 7437   1.324   1.620   1.293
 2477TIP3    H2 7438   1.279   1.479   1.261
 2478TIP3   OH2 7439   3.686   3.882   1.818
 2478TIP3    H1 7440   3.718   3.892   1.908
 2478TIP3    H2 7441   3.591   3.890   1.826
 2479TIP3   OH2 7442   4.279   3.021   3.414
 2479TIP3    H1 7443   4.317   3.029   3.326
 2479TIP3    H2 7444   4.213   2.953   3.405
 2480TIP3   OH2 7445   1.467   0.398   0.246
 2480TIP3    H1 7446   1.513   0.432   0.323
 2480TIP3    H2 7447   1.378   0.380   0.278
 2481TIP3   OH2 7448   2.642   1.042   2.002
 2481TIP3    H1 7449   2.592   0.963   1.981
 2481TIP3    H2 7450   2.678   1.026   2.089
 2482TIP3   OH2 7451   4.776   3.318   3.528
 2482TIP3    H1 7452   4.762   3.378   3.601
 2482TIP3    H2 7453   4.814   3.240   3.569
 2483TIP3   OH2 7454   5.843   4.401   4.084
 2483TIP3    H1 7455   5.931   4.404   4.121
 2483TIP3    H2 7456   5.855   4.367   3.995
 2484TIP3   OH2 7457   2.908   4.470   2.080
 2484TIP3    H1 7458   2.932   4.459   2.172
 2484TIP3    H2 7459   2.979   4.427   2.032
 2485TIP3   OH2 7460   3.142   5.931   2.407
 2485TIP3    H1 7461   3.147   5.839   2.431
 2485TIP3    H2 7462   3.058   5.961   2.442
 2486TIP3   OH2 7463   5.680   0.045   2.938
 2486TIP3    H1 7464   5.613   0.106   2.906
 2486TIP3    H2 7465   5.745   0.043   2.867
 2487TIP3   OH2 7466   5.493   2.152   3.643
 2487TIP3    H1 7467   5.436   2.102   3.585
 2487TIP3    H2 7468   5.557   2.087   3.674
 2488TIP3   OH2 7469   4.923   0.501   0.763
 2488TIP3    H1 7470   4.909   0.590   0.729
 2488TIP3    H2 7471   4.978   0.513   0.840
 2489TIP3   OH2 7472   6.252   5.468   3.768
 2489TIP3    H1 7473   6.348   5.475   3.773
 2489TIP3    H2 7474   6.220   5.545   3.816
 2490TIP3   OH2 7475   2.622   2.269   4.380
 2490TIP3    H1 7476   2.696   2.308   4.333
 2490TIP3    H2 7477   2.662   2.228   4.457
 2491TIP3   OH2 7478   5.188   2.893   0.464
 2491TIP3    H1 7479   5.132   2.836   0.517
 2491TIP3    H2 7480   5.128   2.936   0.404
 2492TIP3   OH2 7481   4.686   0.569   2.543
 2492TIP3    H1 7482   4.729   0.485   2.562
 2492TIP3    H2 7483   4.609   0.545   2.491
 2493TIP3   OH2 7484   2.556   3.057   4.653
 2493TIP3    H1 7485   2.612   3.134   4.660
 2493TIP3    H2 7486   2.567   3.028   4.562
 2494TIP3   OH2 7487   5.652   4.585   2.147
 2494TIP3    H1 7488   5.710   4.635   2.204
 2494TIP3    H2 7489   5.656   4.496   2.182
 2495TIP3   OH2 7490   1.972   3.597   2.974
 2495TIP3    H1 7491   1.968   3.664   3.043
 2495TIP3    H2 7492   1.900   3.621   2.915
 2496TIP3   OH2 7493   0.942   0.196   4.649
 2496TIP3    H1 7494   0.959   0.103   4.660
 2496TIP3    H2 7495   1.027   0.234   4.629
 2497TIP3   OH2 7496   2.917   2.104   4.782
 2497TIP3    H1 7497   2.995   2.073   4.828
 2497TIP3    H2 7498   2.892   2.184   4.827
 2498TIP3   OH2 7499   0.760   4.662   0.057
 2498TIP3    H1 7500   0.689   4.724   0.041
 2498TIP3    H2 7501   0.736   4.585   0.005
 2499TIP3   OH2 7502   6.025   1.705   5.022
 2499TIP3    H1 7503   6.073   1.638   5.071
 2499TIP3    H2 7504   6.003   1.664   4.939
 2500TIP3   OH2 7505   5.335   5.190   3.516
 2500TIP3    H1 7506   5.333   5.096   3.535
 2500TIP3    H2 7507   5.244   5.219   3.526
 2501TIP3   OH2 7508   1.111   2.366   0.795
 2501TIP3    H1 7509   1.134   2.457   0.776
 2501TIP3    H2 7510   1.121   2.321   0.711
 2502TIP3   OH2 7511   5.614   3.046   4.981
 2502TIP3    H1 7512   5.599   3.138   4.957
 2502TIP3    H2 7513   5.631   3.049   5.075
 2503TIP3   OH2 7514   2.300   4.592   1.071
 2503TIP3    H1 7515   2.223   4.535   1.078
 2503TIP3    H2 7516   2.373   4.538   1.099
 2504TIP3   OH2 7517   5.681   1.758   1.963
 2504TIP3    H1 7518   5.660   1.831   1.905
 2504TIP3    H2 7519   5.777   1.759   1.969
 2505TIP3   OH2 7520   1.469   5.369   3.724
 2505TIP3    H1 7521   1.538   5.346   3.662
 2505TIP3    H2 7522   1.447   5.287   3.768
 2506TIP3   OH2 7523   0.103   0.853   0.196
 2506TIP3    H1 7524   0.070   0.819   0.279
 2506TIP3    H2 7525   0.116   0.947   0.211
 2507TIP3   OH2 7526   1.778   2.599   3.199
 2507TIP3    H1 7527   1.769   2.558   3.113
 2507TIP3    H2 7528   1.855   2.655   3.192
 2508TIP3   OH2 7529   3.690   3.566   2.998
 2508TIP3    H1 7530   3.641   3.603   2.924
 2508TIP3    H2 7531   3.781   3.566   2.969
 2509TIP3   OH2 7532   4.291   5.179   1.579
 2509TIP3    H1 7533   4.216   5.237   1.596
 2509TIP3    H2 7534   4.253   5.104   1.534
 2510TIP3   OH2 7535   2.457   5.649   1.554
 2510TIP3    H1 7536   2.456   5.737   1.591
 2510TIP3    H2 7537   2.375   5.609   1.582
 2511TIP3   OH2 7538   1.521   3.809   1.244
 2511TIP3    H1 7539   1.512   3.825   1.338
 2511TIP3    H2 7540   1.599   3.754   1.236
 2512TIP3   OH2 7541   2.407   5.358   0.417
 2512TIP3    H1 7542   2.400   5.451   0.439
 2512TIP3    H2 7543   2.335   5.317   0.465
 2513TIP3   OH2 7544   2.614   4.468   1.703
 2513TIP3    H1 7545   2.658   4.391   1.668
 2513TIP3    H2 7546   2.648   4.541   1.651
 2514TIP3   OH2 7547   3.862   3.764   3.861
 2514TIP3    H1 7548   3.923   3.765   3.935
 2514TIP3    H2 7549   3.913   3.727   3.789
 2515TIP3   OH2 7550   0.140   2.776   2.449
 2515TIP3    H1 7551   0.152   2.820   2.365
 2515TIP3    H2 7552   0.207   2.815   2.506
 2516TIP3   OH2 7553   1.259   3.966   4.496
 2516TIP3    H1 7554   1.192   4.035   4.496
 2516TIP3    H2 7555   1.259   3.932   4.585
 2517TIP3   OH2 7556   1.749   5.092   4.982
 2517TIP3    H1 7557   1.808   5.017   4.980
 2517TIP3    H2 7558   1.752   5.122   5.073
 2518TIP3   OH2 7559   1.640   1.242   0.362
 2518TIP3    H1 7560   1.663   1.334   0.350
 2518TIP3    H2 7561   1.639   1.229   0.456
 2519TIP3   OH2 7562   3.002   1.496   1.777
 2519TIP3    H1 7563   3.074   1.436   1.799
 2519TIP3    H2 7564   3.006   1.504   1.681
 2520TIP3   OH2 7565   0.045   4.069   0.781
 2520TIP3    H1 7566  -0.046   4.090   0.801
 2520TIP3    H2 7567   0.058   4.101   0.692
 2521TIP3   OH2 7568   4.649   1.707   1.548
 2521TIP3    H1 7569   4.588   1.770   1.509
 2521TIP3    H2 7570   4.593   1.633   1.573
 2522TIP3   OH2 7571   1.676   1.343   3.095
 2522TIP3    H1 7572   1.705   1.254   3.074
 2522TIP3    H2 7573   1.676   1.389   3.011
 2523TIP3   OH2 7574   5.686   4.956   1.550
 2523TIP3    H1 7575   5.612   4.992   1.599
 2523TIP3    H2 7576   5.694   5.014   1.474
 2524TIP3   OH2 7577   0.843   4.212   0.759
 2524TIP3    H1 7578   0.774   4.190   0.697
 2524TIP3    H2 7579   0.797   4.230   0.842
 2525TIP3   OH2 7580   0.703   5.592   1.247
 2525TIP3    H1 7581   0.788   5.548   1.243
 2525TIP3    H2 7582   0.669   5.588   1.158
 2526TIP3   OH2 7583   0.386   0.574   2.143
 2526TIP3    H1 7584   0.415   0.530   2.063
 2526TIP3    H2 7585   0.416   0.664   2.132
 2527TIP3   OH2 7586   3.165   2.711   1.693
 2527TIP3    H1 7587   3.144   2.743   1.605
 2527TIP3    H2 7588   3.138   2.620   1.693
 2528TIP3   OH2 7589   1.703   5.603   2.257
 2528TIP3    H1 7590   1.675   5.530   2.203
 2528TIP3    H2 7591   1.626   5.660   2.263
 2529TIP3   OH2 7592   2.608   0.168   0.950
 2529TIP3    H1 7593   2.616   0.263   0.938
 2529TIP3    H2 7594   2.533   0.143   0.896
 2530TIP3   OH2 7595   3.418   3.930   4.808
 2530TIP3    H1 7596   3.509   3.912   4.831
 2530TIP3    H2 7597   3.416   3.924   4.713
 2531TIP3   OH2 7598   3.766   1.556   2.846
 2531TIP3    H1 7599   3.704   1.557   2.920
 2531TIP3    H2 7600   3.775   1.463   2.825
 2532TIP3   OH2 7601   3.589   5.593   1.718
 2532TIP3    H1 7602   3.574   5.504   1.748
 2532TIP3    H2 7603   3.535   5.647   1.775
 2533TIP3   OH2 7604   4.307   1.089   1.860
 2533TIP3    H1 7605   4.357   1.012   1.888
 2533TIP3    H2 7606   4.344   1.161   1.911
 2534TIP3   OH2 7607   1.231   3.430   1.961
 2534TIP3    H1 7608   1.285   3.494   1.915
 2534TIP3    H2 7609   1.290   3.359   1.984
 2535TIP3   OH2 7610   2.382   3.947   0.474
 2535TIP3    H1 7611   2.348   4.018   0.420
 2535TIP3    H2 7612   2.356   3.970   0.563
 2536TIP3   OH2 7613   5.623   5.460   0.390
 2536TIP3    H1 7614   5.604   5.488   0.480
 2536TIP3    H2 7615   5.693   5.518   0.361
 2537TIP3   OH2 7616   1.777   5.655   1.951
 2537TIP3    H1 7617   1.831   5.708   1.892
 2537TIP3    H2 7618   1.754   5.715   2.022
 2538TIP3   OH2 7619   3.019   4.662   3.072
 2538TIP3    H1 7620   2.994   4.755   3.068
 2538TIP3    H2 7621   2.948   4.620   3.120
 2539TIP3   OH2 7622   2.426   2.379   3.148
 2539TIP3    H1 7623   2.486   2.308   3.167
 2539TIP3    H2 7624   2.479   2.459   3.156
 2540TIP3   OH2 7625   3.842   1.778   3.339
 2540TIP3    H1 7626   3.748   1.797   3.329
 2540TIP3    H2 7627   3.873   1.762   3.249
 2541TIP3   OH2 7628   5.184   5.990   1.197
 2541TIP3    H1 7629   5.269   5.980   1.239
 2541TIP3    H2 7630   5.125   5.934   1.249
 2542TIP3   OH2 7631   3.950   3.339   4.961
 2542TIP3    H1 7632   3.987   3.426   4.976
 2542TIP3    H2 7633   3.863   3.356   4.924
 2543TIP3   OH2 7634   0.763   0.767   3.449
 2543TIP3    H1 7635   0.714   0.745   3.528
 2543TIP3    H2 7636   0.698   0.802   3.389
 2544TIP3   OH2 7637   3.813   2.200   2.060
 2544TIP3    H1 7638   3.808   2.214   2.155
 2544TIP3    H2 7639   3.746   2.133   2.042
 2545TIP3   OH2 7640   5.315   2.912   0.797
 2545TIP3    H1 7641   5.289   2.930   0.707
 2545TIP3    H2 7642   5.327   2.998   0.837
 2546TIP3   OH2 7643   3.392   5.213   4.565
 2546TIP3    H1 7644   3.463   5.172   4.614
 2546TIP3    H2 7645   3.375   5.154   4.491
 2547TIP3   OH2 7646   1.393   0.638   5.075
 2547TIP3    H1 7647   1.467   0.612   5.020
 2547TIP3    H2 7648   1.336   0.689   5.016
 2548TIP3   OH2 7649   4.138   3.691   2.165
 2548TIP3    H1 7650   4.164   3.773   2.206
 2548TIP3    H2 7651   4.217   3.637   2.167
 2549TIP3   OH2 7652   0.669   5.595   0.989
 2549TIP3    H1 7653   0.742   5.606   0.928
 2549TIP3    H2 7654   0.604   5.545   0.938
 2550TIP3   OH2 7655   3.220   0.701   3.268
 2550TIP3    H1 7656   3.138   0.742   3.295
 2550TIP3    H2 7657   3.279   0.711   3.343
 2551TIP3   OH2 7658   2.048   0.396   3.041
 2551TIP3    H1 7659   2.042   0.363   3.131
 2551TIP3    H2 7660   2.047   0.491   3.049
 2552TIP3   OH2 7661   6.219   4.551   4.886
 2552TIP3    H1 7662   6.153   4.613   4.855
 2552TIP3    H2 7663   6.289   4.606   4.922
 2553TIP3   OH2 7664   6.019   3.799   4.824
 2553TIP3    H1 7665   6.051   3.725   4.772
 2553TIP3    H2 7666   5.926   3.805   4.802
 2554TIP3   OH2 7667   4.319   3.671   5.193
 2554TIP3    H1 7668   4.288   3.589   5.231
 2554TIP3    H2 7669   4.303   3.661   5.099
 2555TIP3   OH2 7670   3.019   1.705   3.921
 2555TIP3    H1 7671   3.084   1.688   3.853
 2555TIP3    H2 7672   3.057   1.774   3.975
 2556TIP3   OH2 7673   4.300   1.164   3.728
 2556TIP3    H1 7674   4.301   1.151   3.633
 2556TIP3    H2 7675   4.347   1.088   3.763
 2557TIP3   OH2 7676   2.947   4.027   0.132
 2557TIP3    H1 7677   3.009   4.040   0.061
 2557TIP3    H2 7678   2.983   4.077   0.205
 2558TIP3   OH2 7679   2.551   1.407   1.847
 2558TIP3    H1 7680   2.636   1.414   1.890
 2558TIP3    H2 7681   2.544   1.488   1.797
 2559TIP3   OH2 7682   5.481   1.493   3.081
 2559TIP3    H1 7683   5.576   1.483   3.073
 2559TIP3    H2 7684   5.453   1.522   2.994
 2560TIP3   OH2 7685   2.968   2.900   1.192
 2560TIP3    H1 7686   3.039   2.961   1.208
 2560TIP3    H2 7687   2.898   2.929   1.251
 2561TIP3   OH2 7688   3.115   2.760   3.987
 2561TIP3    H1 7689   3.198   2.715   3.973
 2561TIP3    H2 7690   3.138   2.839   4.037
 2562TIP3   OH2 7691   3.150   1.990   2.165
 2562TIP3    H1 7692   3.105   2.074   2.162
 2562TIP3    H2 7693   3.192   1.988   2.251
 2563TIP3   OH2 7694   4.497   2.558   0.949
 2563TIP3    H1 7695   4.567   2.493   0.947
 2563TIP3    H2 7696   4.503   2.597   1.036
 2564TIP3   OH2 7697   2.726   3.890   2.283
 2564TIP3    H1 7698   2.695   3.970   2.241
 2564TIP3    H2 7699   2.671   3.881   2.361
 2565TIP3   OH2 7700   2.033   3.212   3.824
 2565TIP3    H1 7701   2.112   3.216   3.770
 2565TIP3    H2 7702   1.984   3.137   3.790
 2566TIP3   OH2 7703   5.441   2.371   0.014
 2566TIP3    H1 7704   5.397   2.439   0.065
 2566TIP3    H2 7705   5.518   2.348   0.066
 2567TIP3   OH2 7706   5.759   4.299   3.454
 2567TIP3    H1 7707   5.855   4.292   3.451
 2567TIP3    H2 7708   5.740   4.310   3.547
 2568TIP3   OH2 7709   2.760   1.105   4.293
 2568TIP3    H1 7710   2.851   1.115   4.266
 2568TIP3    H2 7711   2.750   1.011   4.308
 2569TIP3   OH2 7712   4.696   2.373   4.948
 2569TIP3    H1 7713   4.677   2.325   4.867
 2569TIP3    H2 7714   4.650   2.456   4.938
 2570TIP3   OH2 7715   5.919   5.330   4.383
 2570TIP3    H1 7716   5.833   5.349   4.420
 2570TIP3    H2 7717   5.900   5.286   4.300
 2571TIP3   OH2 7718   2.333   0.604   1.126
 2571TIP3    H1 7719   2.369   0.679   1.079
 2571TIP3    H2 7720   2.319   0.538   1.058
 2572TIP3   OH2 7721   2.979   0.669   4.324
 2572TIP3    H1 7722   3.005   0.748   4.371
 2572TIP3    H2 7723   3.021   0.598   4.372
 2573TIP3   OH2 7724   5.299   0.408   1.028
 2573TIP3    H1 7725   5.286   0.314   1.013
 2573TIP3    H2 7726   5.381   0.413   1.077
 2574TIP3   OH2 7727   5.068   0.886   2.473
 2574TIP3    H1 7728   4.983   0.857   2.440
 2574TIP3    H2 7729   5.106   0.937   2.402
 2575TIP3   OH2 7730   3.365   5.185   2.911
 2575TIP3    H1 7731   3.302   5.197   2.983
 2575TIP3    H2 7732   3.361   5.267   2.862
 2576TIP3   OH2 7733   2.654   0.522   3.717
 2576TIP3    H1 7734   2.727   0.539   3.776
 2576TIP3    H2 7735   2.630   0.431   3.734
 2577TIP3   OH2 7736   0.064   1.569   0.414
 2577TIP3    H1 7737   0.102   1.656   0.418
 2577TIP3    H2 7738   0.135   1.513   0.382
 2578TIP3   OH2 7739   0.911   5.787   1.371
 2578TIP3    H1 7740   0.957   5.792   1.287
 2578TIP3    H2 7741   0.859   5.707   1.365
 2579TIP3   OH2 7742   5.188   2.170   3.427
 2579TIP3    H1 7743   5.160   2.261   3.440
 2579TIP3    H2 7744   5.280   2.177   3.400
 2580TIP3   OH2 7745   0.517   3.587   4.951
 2580TIP3    H1 7746   0.460   3.511   4.965
 2580TIP3    H2 7747   0.578   3.558   4.882
 2581TIP3   OH2 7748   2.429   2.757   0.748
 2581TIP3    H1 7749   2.513   2.778   0.707
 2581TIP3    H2 7750   2.438   2.665   0.774
 2582TIP3   OH2 7751   3.694   3.639   4.392
 2582TIP3    H1 7752   3.668   3.551   4.421
 2582TIP3    H2 7753   3.779   3.653   4.433
 2583TIP3   OH2 7754   1.081   1.008   0.283
 2583TIP3    H1 7755   1.077   1.102   0.263
 2583TIP3    H2 7756   1.173   0.985   0.276
 2584TIP3   OH2 7757   5.405   2.557   0.250
 2584TIP3    H1 7758   5.419   2.595   0.164
 2584TIP3    H2 7759   5.314   2.528   0.249
 2585TIP3   OH2 7760   4.987   0.459   0.225
 2585TIP3    H1 7761   5.067   0.486   0.270
 2585TIP3    H2 7762   4.933   0.419   0.294
 2586TIP3   OH2 7763   5.753   3.447   0.299
 2586TIP3    H1 7764   5.826   3.385   0.307
 2586TIP3    H2 7765   5.710   3.445   0.384
 2587TIP3   OH2 7766   3.134   2.776   2.739
 2587TIP3    H1 7767   3.184   2.736   2.810
 2587TIP3    H2 7768   3.125   2.706   2.674
 2588TIP3   OH2 7769   3.606   4.909   3.416
 2588TIP3    H1 7770   3.519   4.939   3.444
 2588TIP3    H2 7771   3.644   4.870   3.495
 2589TIP3   OH2 7772   5.986   1.325   3.057
 2589TIP3    H1 7773   5.956   1.311   2.967
 2589TIP3    H2 7774   6.081   1.325   3.051
 2590TIP3   OH2 7775   0.960   0.862   0.494
 2590TIP3    H1 7776   0.967   0.931   0.560
 2590TIP3    H2 7777   0.989   0.903   0.413
 2591TIP3   OH2 7778   4.557   4.499   2.982
 2591TIP3    H1 7779   4.541   4.557   2.907
 2591TIP3    H2 7780   4.490   4.431   2.973
 2592TIP3   OH2 7781   5.192   4.792   0.953
 2592TIP3    H1 7782   5.139   4.842   1.014
 2592TIP3    H2 7783   5.245   4.734   1.009
 2593TIP3   OH2 7784   0.343   3.299   0.561
 2593TIP3    H1 7785   0.302   3.212   0.554
 2593TIP3    H2 7786   0.368   3.305   0.653
 2594TIP3   OH2 7787   3.663   5.675   0.179
 2594TIP3    H1 7788   3.585   5.623   0.197
 2594TIP3    H2 7789   3.694   5.642   0.095
 2595TIP3   OH2 7790   0.711   0.565   3.184
 2595TIP3    H1 7791   0.780   0.558   3.250
 2595TIP3    H2 7792   0.748   0.526   3.106
 2596TIP3   OH2 7793   2.579   2.885   4.901
 2596TIP3    H1 7794   2.646   2.951   4.916
 2596TIP3    H2 7795   2.546   2.904   4.813
 2597TIP3   OH2 7796   3.943   2.412   0.473
 2597TIP3    H1 7797   3.914   2.385   0.560
 2597TIP3    H2 7798   4.005   2.344   0.446
 2598TIP3   OH2 7799   4.100   2.644   2.006
 2598TIP3    H1 7800   4.187   2.677   2.025
 2598TIP3    H2 7801   4.102   2.553   2.035
 2599TIP3   OH2 7802   2.762   2.915   1.804
 2599TIP3    H1 7803   2.756   3.006   1.835
 2599TIP3    H2 7804   2.671   2.886   1.797
 2600TIP3   OH2 7805   3.500   4.990   0.098
 2600TIP3    H1 7806   3.460   4.942   0.026
 2600TIP3    H2 7807   3.469   5.080   0.088
 2601TIP3   OH2 7808   6.252   3.787   2.439
 2601TIP3    H1 7809   6.309   3.864   2.440
 2601TIP3    H2 7810   6.192   3.802   2.366
 2602TIP3   OH2 7811   1.106   0.455   4.886
 2602TIP3    H1 7812   1.070   0.522   4.828
 2602TIP3    H2 7813   1.033   0.395   4.902
 2603TIP3   OH2 7814   5.657   1.406   1.218
 2603TIP3    H1 7815   5.601   1.375   1.289
 2603TIP3    H2 7816   5.598   1.457   1.162
 2604TIP3   OH2 7817   1.223   5.632   3.485
 2604TIP3    H1 7818   1.313   5.654   3.511
 2604TIP3    H2 7819   1.225   5.538   3.468
 2605TIP3   OH2 7820   2.025   5.682   2.688
 2605TIP3    H1 7821   2.096   5.663   2.627
 2605TIP3    H2 7822   1.946   5.655   2.642
 2606TIP3   OH2 7823   3.125   2.180   2.502
 2606TIP3    H1 7824   3.082   2.257   2.465
 2606TIP3    H2 7825   3.215   2.185   2.468
 2607TIP3   OH2 7826   2.008   0.922   4.851
 2607TIP3    H1 7827   1.943   0.991   4.857
 2607TIP3    H2 7828   2.038   0.924   4.760
 2608TIP3   OH2 7829   4.496   3.482   3.103
 2608TIP3    H1 7830   4.552   3.488   3.025
 2608TIP3    H2 7831   4.554   3.503   3.176
 2609TIP3   OH2 7832   2.550   0.058   1.801
 2609TIP3    H1 7833   2.529  -0.023   1.848
 2609TIP3    H2 7834   2.490   0.123   1.838
 2610TIP3   OH2 7835   4.863   3.735   3.047
 2610TIP3    H1 7836   4.800   3.665   3.027
 2610TIP3    H2 7837   4.882   3.725   3.140
 2611TIP3   OH2 7838   2.830   2.872   2.237
 2611TIP3    H1 7839   2.851   2.798   2.179
 2611TIP3    H2 7840   2.808   2.831   2.321
 2612TIP3   OH2 7841   4.149   2.484   1.196
 2612TIP3    H1 7842   4.057   2.504   1.181
 2612TIP3    H2 7843   4.148   2.405   1.249
 2613TIP3   OH2 7844   2.820   0.596   0.146
 2613TIP3    H1 7845   2.823   0.519   0.088
 2613TIP3    H2 7846   2.810   0.670   0.086
 2614TIP3   OH2 7847   5.046   2.428   0.657
 2614TIP3    H1 7848   5.053   2.392   0.569
 2614TIP3    H2 7849   4.985   2.502   0.648
 2615TIP3   OH2 7850   5.516   0.788   2.995
 2615TIP3    H1 7851   5.537   0.723   2.929
 2615TIP3    H2 7852   5.592   0.789   3.053
 2616TIP3   OH2 7853   4.747   4.362   1.893
 2616TIP3    H1 7854   4.690   4.386   1.819
 2616TIP3    H2 7855   4.803   4.439   1.905
 2617TIP3   OH2 7856   1.871   5.755   1.184
 2617TIP3    H1 7857   1.905   5.753   1.094
 2617TIP3    H2 7858   1.855   5.848   1.201
 2618TIP3   OH2 7859   5.321   5.812   1.751
 2618TIP3    H1 7860   5.340   5.719   1.749
 2618TIP3    H2 7861   5.236   5.820   1.707
 2619TIP3   OH2 7862   4.287   2.061   1.739
 2619TIP3    H1 7863   4.223   1.993   1.719
 2619TIP3    H2 7864   4.315   2.042   1.829
 2620TIP3   OH2 7865   4.798   1.773   5.065
 2620TIP3    H1 7866   4.867   1.775   4.999
 2620TIP3    H2 7867   4.795   1.862   5.100
 2621TIP3   OH2 7868   3.662   3.853   0.540
 2621TIP3    H1 7869   3.703   3.885   0.620
 2621TIP3    H2 7870   3.713   3.775   0.517
 2622TIP3   OH2 7871   5.142   1.199   4.207
 2622TIP3    H1 7872   5.134   1.250   4.288
 2622TIP3    H2 7873   5.236   1.182   4.199
 2623TIP3   OH2 7874   2.598   4.138   2.201
 2623TIP3    H1 7875   2.671   4.171   2.254
 2623TIP3    H2 7876   2.580   4.208   2.138
 2624TIP3   OH2 7877   0.371   4.919   4.411
 2624TIP3    H1 7878   0.328   4.935   4.495
 2624TIP3    H2 7879   0.458   4.959   4.420
 2625TIP3   OH2 7880   5.454   2.615   4.101
 2625TIP3    H1 7881   5.405   2.534   4.087
 2625TIP3    H2 7882   5.453   2.629   4.196
 2626TIP3   OH2 7883   0.292   1.909   4.421
 2626TIP3    H1 7884   0.229   1.946   4.359
 2626TIP3    H2 7885   0.342   1.984   4.453
 2627TIP3   OH2 7886   6.090   4.645   3.444
 2627TIP3    H1 7887   6.029   4.695   3.498
 2627TIP3    H2 7888   6.115   4.571   3.499
 2628TIP3   OH2 7889   4.441   2.491   3.627
 2628TIP3    H1 7890   4.375   2.537   3.575
 2628TIP3    H2 7891   4.427   2.521   3.717
 2629TIP3   OH2 7892   2.931   5.197   4.917
 2629TIP3    H1 7893   2.904   5.153   4.998
 2629TIP3    H2 7894   3.017   5.159   4.896
 2630TIP3   OH2 7895   0.057   0.196   0.899
 2630TIP3    H1 7896   0.140   0.217   0.943
 2630TIP3    H2 7897   0.060   0.101   0.889
 2631TIP3   OH2 7898   2.856   0.509   1.825
 2631TIP3    H1 7899   2.909   0.559   1.886
 2631TIP3    H2 7900   2.918   0.454   1.777
 2632TIP3   OH2 7901   5.599   2.799   2.335
 2632TIP3    H1 7902   5.597   2.705   2.316
 2632TIP3    H2 7903   5.663   2.808   2.405
 2633TIP3   OH2 7904   1.738   4.611   3.061
 2633TIP3    H1 7905   1.784   4.527   3.060
 2633TIP3    H2 7906   1.653   4.591   3.100
 2634TIP3   OH2 7907   0.638   0.830   4.382
 2634TIP3    H1 7908   0.616   0.754   4.328
 2634TIP3    H2 7909   0.553   0.863   4.412
 2635TIP3   OH2 7910   6.231   5.710   0.853
 2635TIP3    H1 7911   6.239   5.759   0.934
 2635TIP3    H2 7912   6.167   5.759   0.801
 2636TIP3   OH2 7913   1.955   2.283   4.968
 2636TIP3    H1 7914   1.930   2.192   4.988
 2636TIP3    H2 7915   2.014   2.276   4.893
 2637TIP3   OH2 7916   0.410   1.170   5.107
 2637TIP3    H1 7917   0.472   1.120   5.053
 2637TIP3    H2 7918   0.462   1.198   5.182
 2638TIP3   OH2 7919   0.567   5.166   2.944
 2638TIP3    H1 7920   0.484   5.128   2.973
 2638TIP3    H2 7921   0.580   5.131   2.856
 2639TIP3   OH2 7922   3.815   5.550   5.023
 2639TIP3    H1 7923   3.773   5.626   4.983
 2639TIP3    H2 7924   3.753   5.521   5.090
 2640TIP3   OH2 7925   0.283   4.255   3.989
 2640TIP3    H1 7926   0.325   4.267   4.074
 2640TIP3    H2 7927   0.347   4.289   3.926
 2641TIP3   OH2 7928  -0.013   0.268   3.228
 2641TIP3    H1 7929   0.051   0.335   3.249
 2641TIP3    H2 7930   0.038   0.196   3.192
 2642TIP3   OH2 7931   4.162   2.625   0.543
 2642TIP3    H1 7932   4.083   2.588   0.504
 2642TIP3    H2 7933   4.137   2.714   0.569
 2643TIP3   OH2 7934   2.548   0.746   0.584
 2643TIP3    H1 7935   2.592   0.760   0.501
 2643TIP3    H2 7936   2.473   0.806   0.582
 2644TIP3   OH2 7937   2.827   1.894   0.289
 2644TIP3    H1 7938   2.882   1.831   0.335
 2644TIP3    H2 7939   2.888   1.947   0.238
 2645TIP3   OH2 7940   4.327   2.785   4.824
 2645TIP3    H1 7941   4.282   2.789   4.740
 2645TIP3    H2 7942   4.260   2.758   4.887
 2646TIP3   OH2 7943   1.504   1.561   4.550
 2646TIP3    H1 7944   1.471   1.538   4.636
 2646TIP3    H2 7945   1.591   1.521   4.545
 2647TIP3   OH2 7946   3.052   2.860   1.894
 2647TIP3    H1 7947   2.967   2.895   1.866
 2647TIP3    H2 7948   3.083   2.810   1.818
 2648TIP3   OH2 7949   4.496   0.556   1.608
 2648TIP3    H1 7950   4.456   0.548   1.695
 2648TIP3    H2 7951   4.463   0.480   1.560
 2649TIP3   OH2 7952   4.294   5.276   2.824
 2649TIP3    H1 7953   4.367   5.214   2.824
 2649TIP3    H2 7954   4.331   5.357   2.790
 2650TIP3   OH2 7955   0.936   5.211   0.731
 2650TIP3    H1 7956   0.979   5.159   0.663
 2650TIP3    H2 7957   0.876   5.268   0.683
 2651TIP3   OH2 7958   1.977   2.954   4.901
 2651TIP3    H1 7959   1.961   2.918   4.814
 2651TIP3    H2 7960   2.039   2.894   4.941
 2652TIP3   OH2 7961   4.511   4.436   1.192
 2652TIP3    H1 7962   4.489   4.449   1.100
 2652TIP3    H2 7963   4.508   4.341   1.205
 2653TIP3   OH2 7964   2.498   5.656   3.711
 2653TIP3    H1 7965   2.435   5.727   3.721
 2653TIP3    H2 7966   2.577   5.688   3.754
 2654TIP3   OH2 7967   2.409   0.057   4.033
 2654TIP3    H1 7968   2.503   0.045   4.017
 2654TIP3    H2 7969   2.391   0.003   4.110
 2655TIP3   OH2 7970   5.934   3.358   3.073
 2655TIP3    H1 7971   5.903   3.318   2.992
 2655TIP3    H2 7972   5.905   3.299   3.142
 2656TIP3   OH2 7973   5.726   4.622   3.863
 2656TIP3    H1 7974   5.705   4.530   3.876
 2656TIP3    H2 7975   5.718   4.661   3.949
 2657TIP3   OH2 7976   0.648   5.082   0.352
 2657TIP3    H1 7977   0.589   5.044   0.417
 2657TIP3    H2 7978   0.713   5.014   0.335
 2658TIP3   OH2 7979   5.719   0.393   4.683
 2658TIP3    H1 7980   5.683   0.432   4.763
 2658TIP3    H2 7981   5.763   0.466   4.639
 2659TIP3   OH2 7982   4.008   4.796   4.970
 2659TIP3    H1 7983   4.051   4.711   4.976
 2659TIP3    H2 7984   3.914   4.775   4.968
 2660TIP3   OH2 7985   5.447   3.963   4.327
 2660TIP3    H1 7986   5.536   3.993   4.339
 2660TIP3    H2 7987   5.438   3.889   4.388
 2661TIP3   OH2 7988   0.981   3.438   0.270
 2661TIP3    H1 7989   0.919   3.367   0.285
 2661TIP3    H2 7990   1.049   3.399   0.215
 2662TIP3   OH2 7991   2.909   2.078   1.083
 2662TIP3    H1 7992   2.884   2.126   1.162
 2662TIP3    H2 7993   2.858   2.118   1.013
 2663TIP3   OH2 7994   3.914   3.360   4.494
 2663TIP3    H1 7995   3.933   3.440   4.543
 2663TIP3    H2 7996   3.978   3.297   4.526
 2664TIP3   OH2 7997   4.142   4.081   2.357
 2664TIP3    H1 7998   4.170   3.993   2.333
 2664TIP3    H2 7999   4.082   4.068   2.431
 2665TIP3   OH2 8000   2.502   1.948   1.504
 2665TIP3    H1 8001   2.500   1.859   1.470
 2665TIP3    H2 8002   2.410   1.976   1.501
 2666TIP3   OH2 8003   0.787   0.961   4.736
 2666TIP3    H1 8004   0.856   1.000   4.683
 2666TIP3    H2 8005   0.820   0.874   4.759
 2667TIP3   OH2 8006   5.500   1.344   2.187
 2667TIP3    H1 8007   5.573   1.396   2.220
 2667TIP3    H2 8008   5.477   1.286   2.260
 2668TIP3   OH2 8009   2.169   0.951   1.840
 2668TIP3    H1 8010   2.095   0.909   1.884
 2668TIP3    H2 8011   2.230   0.973   1.911
 2669TIP3   OH2 8012   1.655   1.598   2.865
 2669TIP3    H1 8013   1.661   1.597   2.769
 2669TIP3    H2 8014   1.566   1.569   2.884
 2670TIP3   OH2 8015   3.551   0.799   3.178
 2670TIP3    H1 8016   3.588   0.714   3.156
 2670TIP3    H2 8017   3.530   0.839   3.094
 2671TIP3   OH2 8018   1.380   2.029   0.849
 2671TIP3    H1 8019   1.342   2.089   0.785
 2671TIP3    H2 8020   1.319   2.029   0.923
 2672TIP3   OH2 8021   0.712   2.398   3.041
 2672TIP3    H1 8022   0.724   2.355   2.956
 2672TIP3    H2 8023   0.684   2.327   3.099
 2673TIP3   OH2 8024   0.348   3.339   0.058
 2673TIP3    H1 8025   0.361   3.284   0.135
 2673TIP3    H2 8026   0.316   3.422   0.093
 2674TIP3   OH2 8027   3.204   4.264   0.377
 2674TIP3    H1 8028   3.291   4.290   0.409
 2674TIP3    H2 8029   3.222   4.215   0.297
 2675TIP3   OH2 8030   2.214   5.625   1.998
 2675TIP3    H1 8031   2.128   5.585   1.984
 2675TIP3    H2 8032   2.268   5.589   1.928
 2676TIP3   OH2 8033   3.147   3.988   4.799
 2676TIP3    H1 8034   3.240   3.975   4.817
 2676TIP3    H2 8035   3.123   3.915   4.742
 2677TIP3   OH2 8036   0.882   4.461   3.402
 2677TIP3    H1 8037   0.892   4.435   3.493
 2677TIP3    H2 8038   0.871   4.378   3.355
 2678TIP3   OH2 8039   5.770   4.947   4.021
 2678TIP3    H1 8040   5.726   4.926   4.103
 2678TIP3    H2 8041   5.850   4.894   4.022
 2679TIP3   OH2 8042   1.150   1.192   4.211
 2679TIP3    H1 8043   1.108   1.277   4.227
 2679TIP3    H2 8044   1.244   1.211   4.215
 2680TIP3   OH2 8045   5.385   2.329   1.455
 2680TIP3    H1 8046   5.412   2.296   1.540
 2680TIP3    H2 8047   5.424   2.417   1.449
 2681TIP3   OH2 8048   4.524   1.335   0.121
 2681TIP3    H1 8049   4.537   1.250   0.164
 2681TIP3    H2 8050   4.605   1.350   0.073
 2682TIP3   OH2 8051   5.081   0.592   1.027
 2682TIP3    H1 8052   5.136   0.519   1.054
 2682TIP3    H2 8053   5.010   0.595   1.092
 2683TIP3   OH2 8054   5.897   5.256   5.200
 2683TIP3    H1 8055   5.918   5.202   5.124
 2683TIP3    H2 8056   5.826   5.312   5.171
 2684TIP3   OH2 8057   3.975   0.659   4.426
 2684TIP3    H1 8058   4.005   0.747   4.405
 2684TIP3    H2 8059   3.933   0.668   4.511
 2685TIP3   OH2 8060   1.300   5.864   0.788
 2685TIP3    H1 8061   1.329   5.786   0.836
 2685TIP3    H2 8062   1.205   5.854   0.783
 2686TIP3   OH2 8063   4.402   0.061   2.593
 2686TIP3    H1 8064   4.365   0.075   2.680
 2686TIP3    H2 8065   4.395  -0.033   2.579
 2687TIP3   OH2 8066   0.111   4.462   4.754
 2687TIP3    H1 8067   0.121   4.489   4.845
 2687TIP3    H2 8068   0.018   4.442   4.745
 2688TIP3   OH2 8069   1.577   1.405   0.916
 2688TIP3    H1 8070   1.626   1.360   0.847
 2688TIP3    H2 8071   1.644   1.443   0.972
 2689TIP3   OH2 8072   3.780   3.958   0.784
 2689TIP3    H1 8073   3.861   3.943   0.735
 2689TIP3    H2 8074   3.791   4.046   0.822
 2690TIP3   OH2 8075   1.763   1.233   2.389
 2690TIP3    H1 8076   1.738   1.240   2.481
 2690TIP3    H2 8077   1.818   1.309   2.373
 2691TIP3   OH2 8078   0.958   4.460   4.475
 2691TIP3    H1 8079   0.901   4.390   4.444
 2691TIP3    H2 8080   1.020   4.474   4.403
 2692TIP3   OH2 8081   2.779   1.043   0.374
 2692TIP3    H1 8082   2.729   1.125   0.378
 2692TIP3    H2 8083   2.804   1.026   0.465
 2693TIP3   OH2 8084   3.912   3.657   4.597
 2693TIP3    H1 8085   3.884   3.620   4.681
 2693TIP3    H2 8086   3.961   3.736   4.621
 2694TIP3   OH2 8087   5.935   3.034   4.509
 2694TIP3    H1 8088   5.844   3.039   4.482
 2694TIP3    H2 8089   5.985   3.026   4.428
 2695TIP3   OH2 8090   4.102   1.273   0.742
 2695TIP3    H1 8091   4.085   1.190   0.698
 2695TIP3    H2 8092   4.015   1.305   0.768
 2696TIP3   OH2 8093   5.211   0.335   0.482
 2696TIP3    H1 8094   5.209   0.424   0.447
 2696TIP3    H2 8095   5.269   0.340   0.558
 2697TIP3   OH2 8096   5.547   5.739   2.103
 2697TIP3    H1 8097   5.500   5.761   2.183
 2697TIP3    H2 8098   5.497   5.781   2.033
 2698TIP3   OH2 8099   4.175   2.765   1.111
 2698TIP3    H1 8100   4.085   2.751   1.082
 2698TIP3    H2 8101   4.195   2.692   1.169
 2699TIP3   OH2 8102   3.847   3.276   1.331
 2699TIP3    H1 8103   3.915   3.232   1.280
 2699TIP3    H2 8104   3.835   3.219   1.408
 2700TIP3   OH2 8105   3.230   3.464   2.714
 2700TIP3    H1 8106   3.212   3.449   2.807
 2700TIP3    H2 8107   3.250   3.557   2.708
 2701TIP3   OH2 8108   4.581   0.588   3.982
 2701TIP3    H1 8109   4.564   0.494   3.984
 2701TIP3    H2 8110   4.651   0.598   3.917
 2702TIP3   OH2 8111   5.892   4.414   1.903
 2702TIP3    H1 8112   5.911   4.377   1.817
 2702TIP3    H2 8113   5.811   4.371   1.931
 2703TIP3   OH2 8114   4.458   2.504   4.294
 2703TIP3    H1 8115   4.538   2.455   4.311
 2703TIP3    H2 8116   4.482   2.596   4.307
 2704TIP3   OH2 8117   1.866   5.201   0.292
 2704TIP3    H1 8118   1.879   5.179   0.200
 2704TIP3    H2 8119   1.941   5.162   0.337
 2705TIP3   OH2 8120   2.243   3.200   1.962
 2705TIP3    H1 8121   2.180   3.147   1.914
 2705TIP3    H2 8122   2.220   3.188   2.054
 2706TIP3   OH2 8123   1.183   0.074   4.914
 2706TIP3    H1 8124   1.089   0.070   4.932
 2706TIP3    H2 8125   1.218  -0.009   4.946
 2707TIP3   OH2 8126   1.182   1.010   1.553
 2707TIP3    H1 8127   1.235   0.981   1.478
 2707TIP3    H2 8128   1.222   1.092   1.579
 2708TIP3   OH2 8129   2.179   1.950   2.436
 2708TIP3    H1 8130   2.221   1.870   2.404
 2708TIP3    H2 8131   2.115   1.920   2.500
 2709TIP3   OH2 8132   5.199   0.708   1.601
 2709TIP3    H1 8133   5.134   0.695   1.671
 2709TIP3    H2 8134   5.148   0.709   1.521
 2710TIP3   OH2 8135   3.262   3.363   3.558
 2710TIP3    H1 8136   3.198   3.320   3.500
 2710TIP3    H2 8137   3.299   3.291   3.608
 2711TIP3   OH2 8138   5.548   5.343   2.892
 2711TIP3    H1 8139   5.562   5.253   2.923
 2711TIP3    H2 8140   5.622   5.392   2.928
 2712TIP3   OH2 8141   3.128   0.511   0.478
 2712TIP3    H1 8142   3.139   0.533   0.385
 2712TIP3    H2 8143   3.034   0.522   0.494
 2713TIP3   OH2 8144   2.804   2.086   4.486
 2713TIP3    H1 8145   2.738   2.041   4.433
 2713TIP3    H2 8146   2.885   2.038   4.469
 2714TIP3   OH2 8147   1.741   1.850   2.645
 2714TIP3    H1 8148   1.677   1.913   2.678
 2714TIP3    H2 8149   1.711   1.830   2.556
 2715TIP3   OH2 8150   4.332   1.879   1.985
 2715TIP3    H1 8151   4.311   1.812   2.050
 2715TIP3    H2 8152   4.359   1.830   1.907
 2716TIP3   OH2 8153   0.027   0.132   1.865
 2716TIP3    H1 8154   0.039   0.214   1.914
 2716TIP3    H2 8155   0.091   0.137   1.794
 2717TIP3   OH2 8156   3.254   0.894   0.562
 2717TIP3    H1 8157   3.226   0.832   0.494
 2717TIP3    H2 8158   3.322   0.946   0.519
 2718TIP3   OH2 8159   2.412   1.404   1.172
 2718TIP3    H1 8160   2.458   1.432   1.093
 2718TIP3    H2 8161   2.480   1.368   1.228
 2719TIP3   OH2 8162   2.535   1.305   1.435
 2719TIP3    H1 8163   2.490   1.372   1.485
 2719TIP3    H2 8164   2.610   1.280   1.488
 2720TIP3   OH2 8165   0.760   4.574   1.646
 2720TIP3    H1 8166   0.810   4.621   1.579
 2720TIP3    H2 8167   0.700   4.639   1.682
 2721TIP3   OH2 8168   3.349   4.314   3.257
 2721TIP3    H1 8169   3.273   4.256   3.251
 2721TIP3    H2 8170   3.404   4.290   3.183
 2722TIP3   OH2 8171   1.704   1.533   2.601
 2722TIP3    H1 8172   1.672   1.599   2.539
 2722TIP3    H2 8173   1.778   1.493   2.557
 2723TIP3   OH2 8174   2.492   0.451   3.037
 2723TIP3    H1 8175   2.508   0.522   2.975
 2723TIP3    H2 8176   2.567   0.451   3.095
 2724TIP3   OH2 8177   1.720   5.364   2.981
 2724TIP3    H1 8178   1.734   5.458   2.996
 2724TIP3    H2 8179   1.628   5.351   3.004
 2725TIP3   OH2 8180   4.641   2.048   4.856
 2725TIP3    H1 8181   4.655   1.972   4.801
 2725TIP3    H2 8182   4.720   2.055   4.909
 2726TIP3   OH2 8183   0.296   3.505   2.888
 2726TIP3    H1 8184   0.265   3.417   2.870
 2726TIP3    H2 8185   0.248   3.531   2.967
 2727TIP3   OH2 8186   1.508   2.477   3.789
 2727TIP3    H1 8187   1.427   2.448   3.831
 2727TIP3    H2 8188   1.495   2.571   3.776
 2728TIP3   OH2 8189   2.376   4.791   1.535
 2728TIP3    H1 8190   2.469   4.779   1.554
 2728TIP3    H2 8191   2.359   4.732   1.460
 2729TIP3   OH2 8192   3.113   2.896   4.436
 2729TIP3    H1 8193   3.158   2.844   4.370
 2729TIP3    H2 8194   3.139   2.857   4.519
 2730TIP3   OH2 8195   3.768   0.377   0.674
 2730TIP3    H1 8196   3.693   0.436   0.681
 2730TIP3    H2 8197   3.805   0.395   0.587
 2731TIP3   OH2 8198   2.401   0.401   3.321
 2731TIP3    H1 8199   2.366   0.320   3.284
 2731TIP3    H2 8200   2.481   0.418   3.271
 2732TIP3   OH2 8201   3.182   3.264   0.969
 2732TIP3    H1 8202   3.140   3.238   0.887
 2732TIP3    H2 8203   3.269   3.223   0.965
 2733TIP3   OH2 8204   1.093   3.414   0.533
 2733TIP3    H1 8205   1.030   3.437   0.465
 2733TIP3    H2 8206   1.139   3.338   0.499
 2734TIP3   OH2 8207   2.747   5.440   3.769
 2734TIP3    H1 8208   2.772   5.367   3.826
 2734TIP3    H2 8209   2.773   5.411   3.681
 2735TIP3   OH2 8210   3.647   0.554   3.132
 2735TIP3    H1 8211   3.681   0.578   3.046
 2735TIP3    H2 8212   3.717   0.504   3.173
 2736TIP3   OH2 8213   3.063   1.203   3.760
 2736TIP3    H1 8214   3.044   1.115   3.793
 2736TIP3    H2 8215   2.977   1.246   3.755
 2737TIP3   OH2 8216   5.970   0.284   3.964
 2737TIP3    H1 8217   5.983   0.297   4.058
 2737TIP3    H2 8218   5.918   0.360   3.936
 2738TIP3   OH2 8219   5.434   4.360   4.501
 2738TIP3    H1 8220   5.465   4.402   4.582
 2738TIP3    H2 8221   5.415   4.433   4.442
 2739TIP3   OH2 8222   0.862   5.757   2.921
 2739TIP3    H1 8223   0.898   5.802   2.998
 2739TIP3    H2 8224   0.910   5.796   2.847
 2740TIP3   OH2 8225   6.153   5.297   0.426
 2740TIP3    H1 8226   6.226   5.346   0.388
 2740TIP3    H2 8227   6.079   5.357   0.420
 2741TIP3   OH2 8228   6.047   5.864   0.350
 2741TIP3    H1 8229   6.114   5.927   0.323
 2741TIP3    H2 8230   6.043   5.801   0.278
 2742TIP3   OH2 8231   2.530   0.327   1.349
 2742TIP3    H1 8232   2.528   0.409   1.300
 2742TIP3    H2 8233   2.507   0.259   1.285
 2743TIP3   OH2 8234   3.194   2.461   5.077
 2743TIP3    H1 8235   3.121   2.457   5.016
 2743TIP3    H2 8236   3.269   2.428   5.028
 2744TIP3   OH2 8237   5.982   5.768   2.450
 2744TIP3    H1 8238   6.078   5.766   2.459
 2744TIP3    H2 8239   5.950   5.772   2.541
 2745TIP3   OH2 8240   0.589   1.792   1.745
 2745TIP3    H1 8241   0.498   1.790   1.715
 2745TIP3    H2 8242   0.613   1.885   1.744
 2746TIP3   OH2 8243   5.873   5.934   2.235
 2746TIP3    H1 8244   5.952   5.985   2.217
 2746TIP3    H2 8245   5.906   5.857   2.282
 2747TIP3   OH2 8246   1.743   1.600   3.181
 2747TIP3    H1 8247   1.716   1.509   3.165
 2747TIP3    H2 8248   1.799   1.595   3.258
 2748TIP3   OH2 8249   0.691   1.431   2.489
 2748TIP3    H1 8250   0.598   1.412   2.489
 2748TIP3    H2 8251   0.728   1.366   2.428
 2749TIP3   OH2 8252   1.224   4.696   1.454
 2749TIP3    H1 8253   1.284   4.623   1.469
 2749TIP3    H2 8254   1.211   4.698   1.360
 2750TIP3   OH2 8255   3.039   3.266   1.551
 2750TIP3    H1 8256   2.946   3.253   1.535
 2750TIP3    H2 8257   3.072   3.302   1.468
 2751TIP3   OH2 8258   5.399   1.965   3.931
 2751TIP3    H1 8259   5.332   1.995   3.869
 2751TIP3    H2 8260   5.466   1.923   3.877
 2752TIP3   OH2 8261   5.178   3.704   4.585
 2752TIP3    H1 8262   5.259   3.712   4.534
 2752TIP3    H2 8263   5.108   3.727   4.524
 2753TIP3   OH2 8264   4.468   3.308   4.532
 2753TIP3    H1 8265   4.526   3.271   4.599
 2753TIP3    H2 8266   4.519   3.302   4.451
 2754TIP3   OH2 8267   3.486   0.832   2.432
 2754TIP3    H1 8268   3.459   0.840   2.340
 2754TIP3    H2 8269   3.435   0.759   2.466
 2755TIP3   OH2 8270   1.416   4.536   4.509
 2755TIP3    H1 8271   1.470   4.610   4.481
 2755TIP3    H2 8272   1.472   4.487   4.569
 2756TIP3   OH2 8273   1.346   2.487   4.231
 2756TIP3    H1 8274   1.414   2.521   4.172
 2756TIP3    H2 8275   1.337   2.395   4.206
 2757TIP3   OH2 8276   0.701   1.822   4.386
 2757TIP3    H1 8277   0.782   1.786   4.424
 2757TIP3    H2 8278   0.704   1.915   4.409
 2758TIP3   OH2 8279   5.200   4.575   4.666
 2758TIP3    H1 8280   5.127   4.587   4.605
 2758TIP3    H2 8281   5.174   4.625   4.744
 2759TIP3   OH2 8282   1.814   0.238   3.406
 2759TIP3    H1 8283   1.737   0.260   3.353
 2759TIP3    H2 8284   1.784   0.169   3.465
 2760TIP3   OH2 8285   4.570   1.842   3.875
 2760TIP3    H1 8286   4.513   1.841   3.798
 2760TIP3    H2 8287   4.560   1.930   3.912
 2761TIP3   OH2 8288   6.250   4.173   1.586
 2761TIP3    H1 8289   6.242   4.078   1.588
 2761TIP3    H2 8290   6.260   4.199   1.677
 2762TIP3   OH2 8291   4.161   5.860   4.970
 2762TIP3    H1 8292   4.185   5.950   4.992
 2762TIP3    H2 8293   4.090   5.839   5.031
 2763TIP3   OH2 8294   4.940   3.822   4.484
 2763TIP3    H1 8295   4.879   3.869   4.426
 2763TIP3    H2 8296   4.907   3.840   4.572
 2764TIP3   OH2 8297   3.042   1.373   3.089
 2764TIP3    H1 8298   3.128   1.386   3.049
 2764TIP3    H2 8299   3.013   1.288   3.056
 2765TIP3   OH2 8300   6.162   0.291   1.433
 2765TIP3    H1 8301   6.171   0.276   1.339
 2765TIP3    H2 8302   6.075   0.329   1.443
 2766TIP3   OH2 8303   2.303   4.873   5.056
 2766TIP3    H1 8304   2.235   4.806   5.052
 2766TIP3    H2 8305   2.356   4.849   5.132
 2767TIP3   OH2 8306   4.204   2.814   5.197
 2767TIP3    H1 8307   4.179   2.722   5.192
 2767TIP3    H2 8308   4.149   2.858   5.132
 2768TIP3   OH2 8309   1.621   0.117   2.694
 2768TIP3    H1 8310   1.680   0.124   2.618
 2768TIP3    H2 8311   1.678   0.092   2.766
 2769TIP3   OH2 8312   0.932   4.685   1.447
 2769TIP3    H1 8313   1.023   4.678   1.476
 2769TIP3    H2 8314   0.912   4.779   1.455
 2770TIP3   OH2 8315   3.997   1.496   0.970
 2770TIP3    H1 8316   3.998   1.412   1.016
 2770TIP3    H2 8317   4.087   1.507   0.939
 2771TIP3   OH2 8318   3.345   1.373   2.977
 2771TIP3    H1 8319   3.358   1.414   2.891
 2771TIP3    H2 8320   3.355   1.279   2.960
 2772TIP3   OH2 8321   5.562   4.075   2.315
 2772TIP3    H1 8322   5.505   4.105   2.386
 2772TIP3    H2 8323   5.563   3.979   2.324
 2773TIP3   OH2 8324   2.649   4.830   0.530
 2773TIP3    H1 8325   2.742   4.837   0.553
 2773TIP3    H2 8326   2.619   4.921   0.525
 2774TIP3   OH2 8327   3.992   5.103   3.357
 2774TIP3    H1 8328   4.076   5.142   3.380
 2774TIP3    H2 8329   3.957   5.070   3.439
 2775TIP3   OH2 8330   3.196   5.248   2.635
 2775TIP3    H1 8331   3.244   5.316   2.682
 2775TIP3    H2 8332   3.245   5.168   2.651
 2776TIP3   OH2 8333   1.849   5.502   0.367
 2776TIP3    H1 8334   1.787   5.456   0.424
 2776TIP3    H2 8335   1.856   5.446   0.290
 2777TIP3   OH2 8336   3.065   0.441   3.562
 2777TIP3    H1 8337   3.113   0.520   3.584
 2777TIP3    H2 8338   2.976   0.471   3.543
 2778TIP3   OH2 8339   6.031   3.701   1.736
 2778TIP3    H1 8340   6.014   3.644   1.661
 2778TIP3    H2 8341   6.092   3.650   1.791
 2779TIP3   OH2 8342   0.095   4.471   1.748
 2779TIP3    H1 8343   0.077   4.564   1.733
 2779TIP3    H2 8344   0.169   4.452   1.691
 2780TIP3   OH2 8345   2.042   5.582   3.656
 2780TIP3    H1 8346   2.016   5.665   3.616
 2780TIP3    H2 8347   2.039   5.598   3.750
 2781TIP3   OH2 8348   4.016   5.549   2.087
 2781TIP3    H1 8349   3.978   5.525   2.003
 2781TIP3    H2 8350   4.109   5.560   2.070
 2782TIP3   OH2 8351   5.649   5.910   0.273
 2782TIP3    H1 8352   5.554   5.914   0.262
 2782TIP3    H2 8353   5.662   5.860   0.353
 2783TIP3   OH2 8354   2.921   3.984   2.564
 2783TIP3    H1 8355   2.951   3.960   2.652
 2783TIP3    H2 8356   2.978   3.934   2.505
 2784TIP3   OH2 8357   4.327   3.586   4.921
 2784TIP3    H1 8358   4.322   3.490   4.918
 2784TIP3    H2 8359   4.397   3.608   4.859
 2785TIP3   OH2 8360   3.295   2.336   0.986
 2785TIP3    H1 8361   3.281   2.363   0.895
 2785TIP3    H2 8362   3.293   2.418   1.035
 2786TIP3   OH2 8363   4.533   5.424   0.933
 2786TIP3    H1 8364   4.591   5.449   0.861
 2786TIP3    H2 8365   4.454   5.477   0.919
 2787TIP3   OH2 8366   2.654   3.451   0.801
 2787TIP3    H1 8367   2.616   3.380   0.750
 2787TIP3    H2 8368   2.596   3.526   0.785
 2788TIP3   OH2 8369   5.732   1.909   4.100
 2788TIP3    H1 8370   5.779   1.852   4.039
 2788TIP3    H2 8371   5.748   1.998   4.067
 2789TIP3   OH2 8372   4.004   3.913   3.436
 2789TIP3    H1 8373   3.970   3.839   3.385
 2789TIP3    H2 8374   4.021   3.876   3.523
 2790TIP3   OH2 8375   5.873   2.914   5.045
 2790TIP3    H1 8376   5.870   2.989   5.104
 2790TIP3    H2 8377   5.793   2.920   4.994
 2791TIP3   OH2 8378   2.083   4.805   0.899
 2791TIP3    H1 8379   2.172   4.841   0.902
 2791TIP3    H2 8380   2.072   4.778   0.808
 2792TIP3   OH2 8381   4.086   5.724   4.088
 2792TIP3    H1 8382   4.066   5.806   4.043
 2792TIP3    H2 8383   4.000   5.688   4.112
 2793TIP3   OH2 8384   6.133   0.697   2.605
 2793TIP3    H1 8385   6.179   0.615   2.623
 2793TIP3    H2 8386   6.086   0.680   2.523
 2794TIP3   OH2 8387   4.368   3.605   4.310
 2794TIP3    H1 8388   4.304   3.549   4.267
 2794TIP3    H2 8389   4.316   3.677   4.347
 2795TIP3   OH2 8390   2.323   3.705   4.730
 2795TIP3    H1 8391   2.341   3.630   4.787
 2795TIP3    H2 8392   2.268   3.763   4.783
 2796TIP3   OH2 8393   4.061   0.685   1.546
 2796TIP3    H1 8394   4.095   0.671   1.634
 2796TIP3    H2 8395   4.127   0.647   1.488
 2797TIP3   OH2 8396   1.162   3.790   1.837
 2797TIP3    H1 8397   1.162   3.725   1.767
 2797TIP3    H2 8398   1.179   3.873   1.793
 2798TIP3   OH2 8399   0.375   2.115   2.368
 2798TIP3    H1 8400   0.408   2.031   2.333
 2798TIP3    H2 8401   0.281   2.112   2.352
 2799TIP3   OH2 8402   5.529   2.417   2.030
 2799TIP3    H1 8403   5.487   2.336   2.060
 2799TIP3    H2 8404   5.462   2.459   1.975
 2800TIP3   OH2 8405   5.269   0.570   4.308
 2800TIP3    H1 8406   5.259   0.482   4.271
 2800TIP3    H2 8407   5.195   0.579   4.368
 2801TIP3   OH2 8408   2.198   3.057   2.208
 2801TIP3    H1 8409   2.129   2.991   2.199
 2801TIP3    H2 8410   2.278   3.007   2.220
 2802TIP3   OH2 8411   3.023   0.633   1.474
 2802TIP3    H1 8412   2.944   0.687   1.474
 2802TIP3    H2 8413   3.024   0.591   1.388
 2803TIP3   OH2 8414   0.335   3.088   2.428
 2803TIP3    H1 8415   0.337   3.136   2.345
 2803TIP3    H2 8416   0.400   3.132   2.483
 2804TIP3   OH2 8417   6.137   2.574   1.676
 2804TIP3    H1 8418   6.052   2.604   1.646
 2804TIP3    H2 8419   6.154   2.494   1.626
 2805TIP3   OH2 8420   1.069   1.951   4.872
 2805TIP3    H1 8421   1.130   2.004   4.820
 2805TIP3    H2 8422   1.058   2.001   4.953
 2806TIP3   OH2 8423   5.326   1.636   1.423
 2806TIP3    H1 8424   5.254   1.580   1.396
 2806TIP3    H2 8425   5.401   1.607   1.372
 2807TIP3   OH2 8426   6.074   3.908   1.931
 2807TIP3    H1 8427   6.090   3.834   1.872
 2807TIP3    H2 8428   5.996   3.950   1.895
 2808TIP3   OH2 8429   3.943   3.460   0.813
 2808TIP3    H1 8430   3.942   3.382   0.870
 2808TIP3    H2 8431   3.892   3.435   0.737
 2809TIP3   OH2 8432   2.274   0.040   2.816
 2809TIP3    H1 8433   2.351   0.092   2.840
 2809TIP3    H2 8434   2.280  -0.039   2.869
 2810TIP3   OH2 8435   0.556   4.302   2.377
 2810TIP3    H1 8436   0.488   4.304   2.310
 2810TIP3    H2 8437   0.550   4.388   2.420
 2811TIP3   OH2 8438   4.346   1.928   2.505
 2811TIP3    H1 8439   4.437   1.955   2.496
 2811TIP3    H2 8440   4.350   1.837   2.535
 2812TIP3   OH2 8441   4.486   3.149   1.924
 2812TIP3    H1 8442   4.530   3.234   1.921
 2812TIP3    H2 8443   4.554   3.085   1.903
 2813TIP3   OH2 8444   4.741   0.462   1.929
 2813TIP3    H1 8445   4.811   0.422   1.981
 2813TIP3    H2 8446   4.787   0.504   1.856
 2814TIP3   OH2 8447   5.680   2.697   4.269
 2814TIP3    H1 8448   5.610   2.633   4.266
 2814TIP3    H2 8449   5.650   2.763   4.333
 2815TIP3   OH2 8450   1.167   1.765   2.544
 2815TIP3    H1 8451   1.251   1.723   2.560
 2815TIP3    H2 8452   1.108   1.693   2.521
 2816TIP3   OH2 8453   4.420   3.864   3.693
 2816TIP3    H1 8454   4.373   3.921   3.631
 2816TIP3    H2 8455   4.493   3.829   3.642
 2817TIP3   OH2 8456   2.707   4.943   3.405
 2817TIP3    H1 8457   2.681   4.919   3.494
 2817TIP3    H2 8458   2.771   4.876   3.381
 2818TIP3   OH2 8459   3.799   3.902   2.053
 2818TIP3    H1 8460   3.778   3.810   2.068
 2818TIP3    H2 8461   3.796   3.941   2.140
 2819TIP3   OH2 8462   0.366   0.985   4.183
 2819TIP3    H1 8463   0.417   0.977   4.103
 2819TIP3    H2 8464   0.400   0.916   4.240
 2820TIP3   OH2 8465   2.601   0.986   1.563
 2820TIP3    H1 8466   2.567   1.056   1.620
 2820TIP3    H2 8467   2.643   0.924   1.623
 2821TIP3   OH2 8468   1.597   1.313   4.691
 2821TIP3    H1 8469   1.684   1.343   4.717
 2821TIP3    H2 8470   1.537   1.364   4.747
 2822TIP3   OH2 8471   0.099   2.472   2.447
 2822TIP3    H1 8472   0.124   2.446   2.359
 2822TIP3    H2 8473   0.064   2.561   2.437
 2823TIP3   OH2 8474   2.918   4.613   2.688
 2823TIP3    H1 8475   2.873   4.616   2.604
 2823TIP3    H2 8476   2.893   4.528   2.726
 2824TIP3   OH2 8477   5.848   5.235   2.252
 2824TIP3    H1 8478   5.778   5.253   2.189
 2824TIP3    H2 8479   5.866   5.319   2.294
 2825TIP3   OH2 8480   5.846   1.314   1.466
 2825TIP3    H1 8481   5.829   1.316   1.372
 2825TIP3    H2 8482   5.919   1.252   1.476
 2826TIP3   OH2 8483   4.258   5.611   2.007
 2826TIP3    H1 8484   4.336   5.664   1.987
 2826TIP3    H2 8485   4.232   5.574   1.923
 2827TIP3   OH2 8486   4.242   5.899   3.808
 2827TIP3    H1 8487   4.151   5.929   3.811
 2827TIP3    H2 8488   4.292   5.975   3.778
 2828TIP3   OH2 8489   1.531   4.640   3.395
 2828TIP3    H1 8490   1.617   4.676   3.374
 2828TIP3    H2 8491   1.544   4.593   3.477
 2829TIP3   OH2 8492   0.416   0.963   2.534
 2829TIP3    H1 8493   0.334   0.981   2.580
 2829TIP3    H2 8494   0.453   0.888   2.581
 2830TIP3   OH2 8495   4.526   3.707   1.643
 2830TIP3    H1 8496   4.470   3.729   1.717
 2830TIP3    H2 8497   4.615   3.716   1.678
 2831TIP3   OH2 8498   0.369   5.802   4.651
 2831TIP3    H1 8499   0.369   5.710   4.677
 2831TIP3    H2 8500   0.338   5.848   4.729
 2832TIP3   OH2 8501   6.010   2.518   2.014
 2832TIP3    H1 8502   5.923   2.492   1.984
 2832TIP3    H2 8503   6.017   2.611   1.992
 2833TIP3   OH2 8504   6.243   2.736   0.829
 2833TIP3    H1 8505   6.330   2.773   0.846
 2833TIP3    H2 8506   6.250   2.644   0.854
 2834TIP3   OH2 8507   3.614   5.956   3.921
 2834TIP3    H1 8508   3.660   5.955   4.005
 2834TIP3    H2 8509   3.575   6.043   3.916
 2835TIP3   OH2 8510   3.511   3.981   2.070
 2835TIP3    H1 8511   3.594   4.029   2.061
 2835TIP3    H2 8512   3.474   3.980   1.982
 2836TIP3   OH2 8513   1.236   0.198   1.078
 2836TIP3    H1 8514   1.152   0.237   1.053
 2836TIP3    H2 8515   1.281   0.267   1.126
 2837TIP3   OH2 8516   1.479   3.246   0.917
 2837TIP3    H1 8517   1.461   3.272   0.827
 2837TIP3    H2 8518   1.414   3.178   0.936
 2838TIP3   OH2 8519   3.644   3.986   1.563
 2838TIP3    H1 8520   3.647   3.940   1.647
 2838TIP3    H2 8521   3.558   4.028   1.561
 2839TIP3   OH2 8522   5.170   5.150   3.999
 2839TIP3    H1 8523   5.121   5.071   4.021
 2839TIP3    H2 8524   5.133   5.178   3.915
 2840TIP3   OH2 8525   3.885   3.189   0.159
 2840TIP3    H1 8526   3.860   3.099   0.136
 2840TIP3    H2 8527   3.929   3.181   0.243
 2841TIP3   OH2 8528   4.263   0.610   1.388
 2841TIP3    H1 8529   4.285   0.521   1.361
 2841TIP3    H2 8530   4.299   0.665   1.319
 2842TIP3   OH2 8531   1.115   5.773   1.171
 2842TIP3    H1 8532   1.073   5.761   1.086
 2842TIP3    H2 8533   1.208   5.753   1.154
 2843TIP3   OH2 8534   1.371   2.507   3.417
 2843TIP3    H1 8535   1.467   2.500   3.415
 2843TIP3    H2 8536   1.349   2.560   3.340
 2844TIP3   OH2 8537   2.458   4.697   2.558
 2844TIP3    H1 8538   2.486   4.605   2.554
 2844TIP3    H2 8539   2.534   4.746   2.528
 2845TIP3   OH2 8540   5.816   3.628   3.060
 2845TIP3    H1 8541   5.850   3.542   3.083
 2845TIP3    H2 8542   5.865   3.654   2.982
 2846TIP3   OH2 8543   1.103   4.297   4.209
 2846TIP3    H1 8544   1.028   4.265   4.158
 2846TIP3    H2 8545   1.103   4.242   4.287
 2847TIP3   OH2 8546   6.161   1.859   4.707
 2847TIP3    H1 8547   6.151   1.774   4.748
 2847TIP3    H2 8548   6.170   1.921   4.780
 2848TIP3   OH2 8549   3.123   5.308   4.618
 2848TIP3    H1 8550   3.216   5.290   4.605
 2848TIP3    H2 8551   3.085   5.224   4.644
 2849TIP3   OH2 8552   3.452   0.495   1.432
 2849TIP3    H1 8553   3.538   0.494   1.475
 2849TIP3    H2 8554   3.445   0.582   1.394
 2850TIP3   OH2 8555   2.549   1.684   1.441
 2850TIP3    H1 8556   2.627   1.665   1.492
 2850TIP3    H2 8557   2.483   1.622   1.473
 2851TIP3   OH2 8558   4.227   4.075   3.581
 2851TIP3    H1 8559   4.284   4.152   3.588
 2851TIP3    H2 8560   4.186   4.084   3.495
 2852TIP3   OH2 8561   3.467   4.300   0.464
 2852TIP3    H1 8562   3.431   4.362   0.527
 2852TIP3    H2 8563   3.533   4.252   0.513
 2853TIP3   OH2 8564   1.954   5.221   2.897
 2853TIP3    H1 8565   1.904   5.231   2.978
 2853TIP3    H2 8566   1.903   5.158   2.845
 2854TIP3   OH2 8567   2.501   2.396   3.604
 2854TIP3    H1 8568   2.430   2.461   3.603
 2854TIP3    H2 8569   2.580   2.448   3.618
 2855TIP3   OH2 8570   5.652   2.070   0.027
 2855TIP3    H1 8571   5.680   2.141  -0.031
 2855TIP3    H2 8572   5.649   2.110   0.114
 2856TIP3   OH2 8573   3.973   4.774   0.926
 2856TIP3    H1 8574   3.965   4.869   0.921
 2856TIP3    H2 8575   3.887   4.741   0.902
 2857TIP3   OH2 8576   4.154   3.216   1.743
 2857TIP3    H1 8577   4.183   3.276   1.812
 2857TIP3    H2 8578   4.077   3.260   1.705
 2858TIP3   OH2 8579   5.554   1.812   3.052
 2858TIP3    H1 8580   5.587   1.871   2.985
 2858TIP3    H2 8581   5.630   1.789   3.105
 2859TIP3   OH2 8582   2.919   1.631   1.353
 2859TIP3    H1 8583   2.916   1.656   1.445
 2859TIP3    H2 8584   2.848   1.680   1.312
 2860TIP3   OH2 8585   5.543   2.724   0.749
 2860TIP3    H1 8586   5.527   2.708   0.656
 2860TIP3    H2 8587   5.484   2.797   0.771
 2861TIP3   OH2 8588   1.543   2.208   5.088
 2861TIP3    H1 8589   1.526   2.124   5.046
 2861TIP3    H2 8590   1.587   2.186   5.170
 2862TIP3   OH2 8591   1.047   4.949   2.469
 2862TIP3    H1 8592   1.063   4.855   2.469
 2862TIP3    H2 8593   1.132   4.988   2.451
 2863TIP3   OH2 8594   0.951   1.503   3.643
 2863TIP3    H1 8595   0.859   1.525   3.635
 2863TIP3    H2 8596   0.960   1.465   3.730
 2864TIP3   OH2 8597   0.346   3.018   0.504
 2864TIP3    H1 8598   0.324   3.024   0.411
 2864TIP3    H2 8599   0.408   2.945   0.510
 2865TIP3   OH2 8600   1.196   0.246   4.698
 2865TIP3    H1 8601   1.242   0.171   4.736
 2865TIP3    H2 8602   1.186   0.308   4.771
 2866TIP3   OH2 8603   2.051   3.479   1.120
 2866TIP3    H1 8604   1.965   3.439   1.108
 2866TIP3    H2 8605   2.064   3.479   1.215
 2867TIP3   OH2 8606   5.192   2.417   4.354
 2867TIP3    H1 8607   5.283   2.440   4.334
 2867TIP3    H2 8608   5.190   2.405   4.449
 2868TIP3   OH2 8609   2.408   4.741   3.425
 2868TIP3    H1 8610   2.389   4.759   3.333
 2868TIP3    H2 8611   2.342   4.677   3.451
 2869TIP3   OH2 8612   0.730   4.128   3.671
 2869TIP3    H1 8613   0.685   4.145   3.588
 2869TIP3    H2 8614   0.724   4.034   3.683
 2870TIP3   OH2 8615   1.701   4.917   2.411
 2870TIP3    H1 8616   1.749   4.838   2.388
 2870TIP3    H2 8617   1.631   4.888   2.470
 2871TIP3   OH2 8618   4.123   0.739   3.839
 2871TIP3    H1 8619   4.204   0.789   3.845
 2871TIP3    H2 8620   4.135   0.685   3.761
 2872TIP3   OH2 8621   2.476   5.031   4.714
 2872TIP3    H1 8622   2.391   4.993   4.691
 2872TIP3    H2 8623   2.539   4.959   4.702
 2873TIP3   OH2 8624   1.196   2.559   5.136
 2873TIP3    H1 8625   1.174   2.651   5.121
 2873TIP3    H2 8626   1.288   2.552   5.110
 2874TIP3   OH2 8627   1.710   2.378   4.404
 2874TIP3    H1 8628   1.769   2.436   4.451
 2874TIP3    H2 8629   1.732   2.290   4.435
 2875TIP3   OH2 8630   0.504   4.946   3.590
 2875TIP3    H1 8631   0.431   4.955   3.652
 2875TIP3    H2 8632   0.468   4.891   3.520
 2876TIP3   OH2 8633   4.174   4.956   4.345
 2876TIP3    H1 8634   4.095   4.981   4.298
 2876TIP3    H2 8635   4.204   4.876   4.301
 2877TIP3   OH2 8636   6.080   1.287   4.770
 2877TIP3    H1 8637   6.162   1.272   4.816
 2877TIP3    H2 8638   6.013   1.282   4.838
 2878TIP3   OH2 8639   1.548   0.373   1.213
 2878TIP3    H1 8640   1.481   0.413   1.268
 2878TIP3    H2 8641   1.630   0.413   1.243
 2879TIP3   OH2 8642   2.869   0.419   2.953
 2879TIP3    H1 8643   2.815   0.428   3.032
 2879TIP3    H2 8644   2.870   0.507   2.915
 2880TIP3   OH2 8645   2.367   5.233   2.788
 2880TIP3    H1 8646   2.434   5.263   2.849
 2880TIP3    H2 8647   2.407   5.244   2.701
 2881TIP3   OH2 8648   4.428   4.490   0.934
 2881TIP3    H1 8649   4.360   4.425   0.950
 2881TIP3    H2 8650   4.383   4.563   0.893
 2882TIP3   OH2 8651   0.947   5.651   3.246
 2882TIP3    H1 8652   0.939   5.709   3.170
 2882TIP3    H2 8653   0.979   5.708   3.316
 2883TIP3   OH2 8654   1.936   2.756   1.953
 2883TIP3    H1 8655   1.901   2.688   2.012
 2883TIP3    H2 8656   2.030   2.754   1.969
 2884TIP3   OH2 8657   3.698   4.631   5.188
 2884TIP3    H1 8658   3.722   4.604   5.100
 2884TIP3    H2 8659   3.752   4.578   5.246
 2885TIP3   OH2 8660   2.280   3.407   5.057
 2885TIP3    H1 8661   2.300   3.429   4.966
 2885TIP3    H2 8662   2.266   3.492   5.099
 2886TIP3   OH2 8663   3.706   2.825   1.773
 2886TIP3    H1 8664   3.641   2.800   1.707
 2886TIP3    H2 8665   3.779   2.765   1.758
 2887TIP3   OH2 8666   4.643   0.511   0.880
 2887TIP3    H1 8667   4.603   0.426   0.861
 2887TIP3    H2 8668   4.724   0.510   0.830
 2888TIP3   OH2 8669   2.970   4.197   4.794
 2888TIP3    H1 8670   3.022   4.277   4.801
 2888TIP3    H2 8671   3.034   4.127   4.800
 2889TIP3   OH2 8672   2.110   3.044   1.641
 2889TIP3    H1 8673   2.193   3.088   1.656
 2889TIP3    H2 8674   2.129   2.951   1.652
 2890TIP3   OH2 8675   3.345   3.548   0.976
 2890TIP3    H1 8676   3.317   3.590   1.057
 2890TIP3    H2 8677   3.355   3.456   1.000
 2891TIP3   OH2 8678   0.165   0.474   1.163
 2891TIP3    H1 8679   0.205   0.404   1.111
 2891TIP3    H2 8680   0.144   0.432   1.247
 2892TIP3   OH2 8681   0.407   4.602   2.242
 2892TIP3    H1 8682   0.498   4.598   2.215
 2892TIP3    H2 8683   0.377   4.688   2.213
 2893TIP3   OH2 8684   0.163   2.885   0.200
 2893TIP3    H1 8685   0.205   2.804   0.230
 2893TIP3    H2 8686   0.076   2.882   0.241
 2894TIP3   OH2 8687   2.479   5.812   2.626
 2894TIP3    H1 8688   2.510   5.723   2.646
 2894TIP3    H2 8689   2.552   5.869   2.650
 2895TIP3   OH2 8690   5.428   5.926   2.969
 2895TIP3    H1 8691   5.449   5.856   3.031
 2895TIP3    H2 8692   5.511   5.972   2.956
 2896TIP3   OH2 8693   1.219   1.898   4.440
 2896TIP3    H1 8694   1.281   1.930   4.374
 2896TIP3    H2 8695   1.258   1.815   4.470
 2897TIP3   OH2 8696   0.096   2.312   2.876
 2897TIP3    H1 8697   0.102   2.302   2.781
 2897TIP3    H2 8698   0.081   2.405   2.889
 2898TIP3   OH2 8699   3.017   0.256   0.700
 2898TIP3    H1 8700   2.953   0.197   0.739
 2898TIP3    H2 8701   3.021   0.330   0.759
 2899TIP3   OH2 8702   6.010   5.816   1.225
 2899TIP3    H1 8703   6.078   5.850   1.167
 2899TIP3    H2 8704   5.992   5.728   1.193
 2900TIP3   OH2 8705   2.978   2.520   1.416
 2900TIP3    H1 8706   3.014   2.522   1.327
 2900TIP3    H2 8707   2.989   2.610   1.448
 2901TIP3   OH2 8708   2.798   2.626   1.714
 2901TIP3    H1 8709   2.839   2.563   1.773
 2901TIP3    H2 8710   2.806   2.710   1.759
 2902TIP3   OH2 8711   0.249   1.372   4.139
 2902TIP3    H1 8712   0.321   1.341   4.084
 2902TIP3    H2 8713   0.280   1.455   4.175
 2903TIP3   OH2 8714   3.826   2.801   1.511
 2903TIP3    H1 8715   3.882   2.860   1.461
 2903TIP3    H2 8716   3.883   2.766   1.580
 2904TIP3   OH2 8717   4.353   2.028   4.027
 2904TIP3    H1 8718   4.390   2.101   4.078
 2904TIP3    H2 8719   4.342   1.958   4.090
 2905TIP3   OH2 8720   3.422   1.058   2.602
 2905TIP3    H1 8721   3.513   1.085   2.606
 2905TIP3    H2 8722   3.420   0.989   2.535
 2906TIP3   OH2 8723   1.068   5.923   4.210
 2906TIP3    H1 8724   1.050   6.017   4.203
 2906TIP3    H2 8725   1.163   5.916   4.197
 2907TIP3   OH2 8726   1.204   3.259   0.779
 2907TIP3    H1 8727   1.277   3.274   0.719
 2907TIP3    H2 8728   1.182   3.346   0.813
 2908TIP3   OH2 8729   3.986   5.290   4.599
 2908TIP3    H1 8730   3.898   5.264   4.573
 2908TIP3    H2 8731   3.974   5.374   4.643
 2909TIP3   OH2 8732   0.330   1.326   1.371
 2909TIP3    H1 8733   0.357   1.312   1.462
 2909TIP3    H2 8734   0.243   1.287   1.366
 2910TIP3   OH2 8735   1.941   1.002   2.153
 2910TIP3    H1 8736   1.932   1.067   2.083
 2910TIP3    H2 8737   1.863   0.948   2.146
 2911TIP3   OH2 8738   3.863   3.652   2.155
 2911TIP3    H1 8739   3.956   3.672   2.158
 2911TIP3    H2 8740   3.858   3.557   2.165
 2912TIP3   OH2 8741   1.395   2.424   4.479
 2912TIP3    H1 8742   1.459   2.353   4.481
 2912TIP3    H2 8743   1.380   2.441   4.386
 2913TIP3   OH2 8744   5.280   4.386   1.289
 2913TIP3    H1 8745   5.211   4.428   1.340
 2913TIP3    H2 8746   5.256   4.293   1.288
 2914TIP3   OH2 8747   3.147   4.401   3.729
 2914TIP3    H1 8748   3.096   4.331   3.768
 2914TIP3    H2 8749   3.138   4.475   3.790
 2915TIP3   OH2 8750   0.788   4.601   2.649
 2915TIP3    H1 8751   0.835   4.684   2.655
 2915TIP3    H2 8752   0.699   4.623   2.678
 2916TIP3   OH2 8753   4.940   5.416   3.872
 2916TIP3    H1 8754   4.911   5.341   3.924
 2916TIP3    H2 8755   5.034   5.402   3.860
 2917TIP3   OH2 8756   2.212   5.614   4.141
 2917TIP3    H1 8757   2.136   5.670   4.153
 2917TIP3    H2 8758   2.286   5.675   4.134
 2918TIP3   OH2 8759   3.720   4.765   0.824
 2918TIP3    H1 8760   3.715   4.792   0.732
 2918TIP3    H2 8761   3.637   4.792   0.862
 2919TIP3   OH2 8762   3.760   5.794   4.837
 2919TIP3    H1 8763   3.804   5.871   4.873
 2919TIP3    H2 8764   3.684   5.781   4.895
 2920TIP3   OH2 8765   4.765   3.488   2.636
 2920TIP3    H1 8766   4.840   3.546   2.635
 2920TIP3    H2 8767   4.717   3.508   2.556
 2921TIP3   OH2 8768   0.677   3.807   0.681
 2921TIP3    H1 8769   0.655   3.859   0.604
 2921TIP3    H2 8770   0.721   3.730   0.645
 2922TIP3   OH2 8771   6.271   2.085   3.816
 2922TIP3    H1 8772   6.347   2.137   3.788
 2922TIP3    H2 8773   6.223   2.067   3.735
 2923TIP3   OH2 8774   0.395   2.490   1.532
 2923TIP3    H1 8775   0.369   2.578   1.560
 2923TIP3    H2 8776   0.400   2.439   1.613
 2924TIP3   OH2 8777   0.876   3.294   2.384
 2924TIP3    H1 8778   0.918   3.208   2.376
 2924TIP3    H2 8779   0.928   3.351   2.328
 2925TIP3   OH2 8780   0.775   2.703   2.654
 2925TIP3    H1 8781   0.749   2.789   2.620
 2925TIP3    H2 8782   0.862   2.717   2.691
 2926TIP3   OH2 8783   3.151   2.486   4.469
 2926TIP3    H1 8784   3.169   2.423   4.539
 2926TIP3    H2 8785   3.090   2.548   4.508
 2927TIP3   OH2 8786   1.582   4.518   3.619
 2927TIP3    H1 8787   1.632   4.441   3.645
 2927TIP3    H2 8788   1.639   4.592   3.641
 2928TIP3   OH2 8789   3.158   1.160   1.519
 2928TIP3    H1 8790   3.130   1.238   1.471
 2928TIP3    H2 8791   3.218   1.116   1.459
 2929TIP3   OH2 8792   2.557   4.346   4.254
 2929TIP3    H1 8793   2.597   4.262   4.236
 2929TIP3    H2 8794   2.466   4.336   4.226
 2930TIP3   OH2 8795   4.121   0.469   1.782
 2930TIP3    H1 8796   4.141   0.381   1.813
 2930TIP3    H2 8797   4.027   0.480   1.802
 2931TIP3   OH2 8798   0.999   1.649   0.258
 2931TIP3    H1 8799   0.953   1.657   0.341
 2931TIP3    H2 8800   0.995   1.737   0.220
 2932TIP3   OH2 8801   0.633   5.252   2.092
 2932TIP3    H1 8802   0.702   5.187   2.079
 2932TIP3    H2 8803   0.554   5.210   2.060
 2933TIP3   OH2 8804   2.648   1.793   4.242
 2933TIP3    H1 8805   2.620   1.778   4.151
 2933TIP3    H2 8806   2.641   1.888   4.254
 2934TIP3   OH2 8807   0.658   0.413   4.468
 2934TIP3    H1 8808   0.681   0.321   4.483
 2934TIP3    H2 8809   0.742   0.458   4.459
 2935TIP3   OH2 8810   6.175   5.627   1.739
 2935TIP3    H1 8811   6.088   5.654   1.766
 2935TIP3    H2 8812   6.161   5.577   1.659
 2936TIP3   OH2 8813   4.562   1.607   0.781
 2936TIP3    H1 8814   4.530   1.569   0.699
 2936TIP3    H2 8815   4.594   1.532   0.831
 2937TIP3   OH2 8816   2.944   5.465   2.623
 2937TIP3    H1 8817   2.983   5.544   2.661
 2937TIP3    H2 8818   3.010   5.432   2.562
 2938TIP3   OH2 8819   5.551   1.243   0.751
 2938TIP3    H1 8820   5.614   1.202   0.691
 2938TIP3    H2 8821   5.567   1.200   0.835
 2939TIP3   OH2 8822   3.979   4.836   3.549
 2939TIP3    H1 8823   3.970   4.854   3.455
 2939TIP3    H2 8824   3.938   4.910   3.592
 2940TIP3   OH2 8825   2.636   0.389   2.679
 2940TIP3    H1 8826   2.570   0.324   2.700
 2940TIP3    H2 8827   2.659   0.427   2.764
 2941TIP3   OH2 8828   5.012   0.740   4.032
 2941TIP3    H1 8829   5.025   0.646   4.043
 2941TIP3    H2 8830   5.070   0.780   4.098
 2942TIP3   OH2 8831   1.570   1.151   2.208
 2942TIP3    H1 8832   1.623   1.211   2.261
 2942TIP3    H2 8833   1.499   1.124   2.266
 2943TIP3   OH2 8834   4.337   0.072   4.250
 2943TIP3    H1 8835   4.327   0.162   4.281
 2943TIP3    H2 8836   4.260   0.026   4.283
 2944TIP3   OH2 8837   3.144   2.132   3.608
 2944TIP3    H1 8838   3.132   2.118   3.702
 2944TIP3    H2 8839   3.076   2.078   3.567
 2945TIP3   OH2 8840   4.069   4.785   2.310
 2945TIP3    H1 8841   4.065   4.722   2.382
 2945TIP3    H2 8842   3.980   4.786   2.274
 2946TIP3   OH2 8843   4.177   4.399   4.711
 2946TIP3    H1 8844   4.111   4.469   4.710
 2946TIP3    H2 8845   4.241   4.425   4.646
 2947TIP3   OH2 8846   4.776   1.182   2.178
 2947TIP3    H1 8847   4.823   1.246   2.126
 2947TIP3    H2 8848   4.827   1.102   2.172
 2948TIP3   OH2 8849   2.353   1.360   2.870
 2948TIP3    H1 8850   2.445   1.348   2.847
 2948TIP3    H2 8851   2.354   1.430   2.936
 2949TIP3   OH2 8852   1.512   3.167   4.818
 2949TIP3    H1 8853   1.519   3.158   4.723
 2949TIP3    H2 8854   1.598   3.142   4.851
 2950TIP3   OH2 8855   5.375   2.046   2.505
 2950TIP3    H1 8856   5.296   2.077   2.461
 2950TIP3    H2 8857   5.447   2.093   2.463
 2951TIP3   OH2 8858   2.517   1.179   4.196
 2951TIP3    H1 8859   2.606   1.177   4.232
 2951TIP3    H2 8860   2.519   1.118   4.123
 2952TIP3   OH2 8861   4.528   0.941   2.433
 2952TIP3    H1 8862   4.460   0.874   2.426
 2952TIP3    H2 8863   4.547   0.964   2.342
 2953TIP3   OH2 8864   4.192   0.141   4.622
 2953TIP3    H1 8865   4.269   0.145   4.564
 2953TIP3    H2 8866   4.162   0.231   4.627
 2954TIP3   OH2 8867   5.040   2.757   2.454
 2954TIP3    H1 8868   5.047   2.851   2.434
 2954TIP3    H2 8869   4.975   2.725   2.391
 2955TIP3   OH2 8870   3.395   1.485   2.729
 2955TIP3    H1 8871   3.387   1.449   2.641
 2955TIP3    H2 8872   3.439   1.569   2.717
 2956TIP3   OH2 8873   4.165   3.775   4.436
 2956TIP3    H1 8874   4.104   3.849   4.436
 2956TIP3    H2 8875   4.115   3.703   4.475
 2957TIP3   OH2 8876   5.096   4.468   3.779
 2957TIP3    H1 8877   5.120   4.379   3.754
 2957TIP3    H2 8878   5.002   4.473   3.765
 2958TIP3   OH2 8879   5.738   1.138   2.374
 2958TIP3    H1 8880   5.811   1.147   2.436
 2958TIP3    H2 8881   5.749   1.050   2.337
 2959TIP3   OH2 8882   0.582   3.280   4.853
 2959TIP3    H1 8883   0.630   3.360   4.833
 2959TIP3    H2 8884   0.505   3.282   4.796
 2960TIP3   OH2 8885   5.673   4.081   3.304
 2960TIP3    H1 8886   5.699   4.006   3.359
 2960TIP3    H2 8887   5.693   4.158   3.357
 2961TIP3   OH2 8888   5.165   5.840   4.300
 2961TIP3    H1 8889   5.089   5.873   4.253
 2961TIP3    H2 8890   5.156   5.875   4.389
 2962TIP3   OH2 8891   4.291   5.154   2.488
 2962TIP3    H1 8892   4.374   5.123   2.451
 2962TIP3    H2 8893   4.275   5.097   2.563
 2963TIP3   OH2 8894   3.420   0.254   3.778
 2963TIP3    H1 8895   3.505   0.285   3.808
 2963TIP3    H2 8896   3.401   0.308   3.701
 2964TIP3   OH2 8897   3.651   2.537   2.242
 2964TIP3    H1 8898   3.695   2.603   2.187
 2964TIP3    H2 8899   3.710   2.462   2.242
 2965TIP3   OH2 8900   3.554   5.161   3.879
 2965TIP3    H1 8901   3.510   5.078   3.863
 2965TIP3    H2 8902   3.646   5.144   3.858
 2966TIP3   OH2 8903   1.993   4.354   1.332
 2966TIP3    H1 8904   1.989   4.448   1.350
 2966TIP3    H2 8905   1.905   4.322   1.352
 2967TIP3   OH2 8906   1.412   4.287   0.043
 2967TIP3    H1 8907   1.377   4.219  -0.014
 2967TIP3    H2 8908   1.411   4.366  -0.010
 2968TIP3   OH2 8909   3.392   5.341   0.791
 2968TIP3    H1 8910   3.488   5.342   0.795
 2968TIP3    H2 8911   3.364   5.405   0.857
 2969TIP3   OH2 8912   1.108   4.988   4.241
 2969TIP3    H1 8913   1.128   4.898   4.216
 2969TIP3    H2 8914   1.173   5.009   4.308
 2970TIP3   OH2 8915   5.291   5.474   0.623
 2970TIP3    H1 8916   5.308   5.517   0.708
 2970TIP3    H2 8917   5.375   5.480   0.577
 2971TIP3   OH2 8918   3.478   2.004   4.539
 2971TIP3    H1 8919   3.486   2.079   4.480
 2971TIP3    H2 8920   3.428   2.037   4.614
 2972TIP3   OH2 8921   0.226   2.695   0.670
 2972TIP3    H1 8922   0.259   2.629   0.731
 2972TIP3    H2 8923   0.234   2.778   0.718
 2973TIP3   OH2 8924   5.865   3.066   2.429
 2973TIP3    H1 8925   5.910   3.002   2.484
 2973TIP3    H2 8926   5.934   3.102   2.372
 2974TIP3   OH2 8927   5.712   4.071   3.018
 2974TIP3    H1 8928   5.695   4.077   3.112
 2974TIP3    H2 8929   5.807   4.078   3.010
 2975TIP3   OH2 8930   2.692   4.757   2.401
 2975TIP3    H1 8931   2.707   4.851   2.415
 2975TIP3    H2 8932   2.773   4.726   2.360
 2976TIP3   OH2 8933   5.300   4.475   1.030
 2976TIP3    H1 8934   5.313   4.438   1.117
 2976TIP3    H2 8935   5.216   4.438   1.001
 2977TIP3   OH2 8936   5.868   1.651   2.893
 2977TIP3    H1 8937   5.957   1.685   2.893
 2977TIP3    H2 8938   5.831   1.679   2.809
 2978TIP3   OH2 8939   3.734   5.399   0.443
 2978TIP3    H1 8940   3.677   5.384   0.368
 2978TIP3    H2 8941   3.700   5.478   0.484
 2979TIP3   OH2 8942   3.352   2.846   3.066
 2979TIP3    H1 8943   3.360   2.836   3.161
 2979TIP3    H2 8944   3.439   2.822   3.033
 2980TIP3   OH2 8945   5.104   4.032   0.001
 2980TIP3    H1 8946   5.163   4.049   0.074
 2980TIP3    H2 8947   5.046   4.109  -0.002
 2981TIP3   OH2 8948   3.681   3.583   5.094
 2981TIP3    H1 8949   3.602   3.622   5.132
 2981TIP3    H2 8950   3.680   3.492   5.123
 2982TIP3   OH2 8951   6.058   5.233   0.908
 2982TIP3    H1 8952   6.089   5.316   0.946
 2982TIP3    H2 8953   6.092   5.234   0.819
 2983TIP3   OH2 8954   5.215   1.250   0.238
 2983TIP3    H1 8955   5.288   1.189   0.230
 2983TIP3    H2 8956   5.221   1.306   0.160
 2984TIP3   OH2 8957   2.622   2.918   0.400
 2984TIP3    H1 8958   2.542   2.970   0.402
 2984TIP3    H2 8959   2.681   2.969   0.344
 2985TIP3   OH2 8960   0.915   4.232   0.066
 2985TIP3    H1 8961   0.986   4.233   0.130
 2985TIP3    H2 8962   0.909   4.140   0.038
 2986TIP3   OH2 8963   0.845   2.285   0.208
 2986TIP3    H1 8964   0.902   2.337   0.152
 2986TIP3    H2 8965   0.770   2.262   0.152
 2987TIP3   OH2 8966   3.352   0.986   4.064
 2987TIP3    H1 8967   3.315   1.060   4.016
 2987TIP3    H2 8968   3.430   1.022   4.107
 2988TIP3   OH2 8969   5.434   4.271   3.482
 2988TIP3    H1 8970   5.461   4.362   3.493
 2988TIP3    H2 8971   5.473   4.226   3.557
 2989TIP3   OH2 8972   0.757   5.980   2.491
 2989TIP3    H1 8973   0.785   6.006   2.403
 2989TIP3    H2 8974   0.709   5.898   2.478
 2990TIP3   OH2 8975   4.773   2.611   4.535
 2990TIP3    H1 8976   4.826   2.542   4.494
 2990TIP3    H2 8977   4.832   2.686   4.541
 2991TIP3   OH2 8978   4.974   1.865   0.932
 2991TIP3    H1 8979   4.926   1.886   0.852
 2991TIP3    H2 8980   4.976   1.947   0.981
 2992TIP3   OH2 8981   2.265   2.263   0.871
 2992TIP3    H1 8982   2.195   2.314   0.912
 2992TIP3    H2 8983   2.239   2.257   0.779
 2993TIP3   OH2 8984   0.512   5.492   3.523
 2993TIP3    H1 8985   0.567   5.515   3.598
 2993TIP3    H2 8986   0.463   5.572   3.505
 2994TIP3   OH2 8987   1.271   2.731   4.551
 2994TIP3    H1 8988   1.263   2.636   4.556
 2994TIP3    H2 8989   1.265   2.751   4.458
 2995TIP3   OH2 8990   1.466   1.203   2.919
 2995TIP3    H1 8991   1.473   1.182   2.826
 2995TIP3    H2 8992   1.530   1.145   2.962
 2996TIP3   OH2 8993   1.025   1.059   0.663
 2996TIP3    H1 8994   1.098   1.108   0.698
 2996TIP3    H2 8995   0.964   1.125   0.630
 2997TIP3   OH2 8996   2.477   0.594   0.810
 2997TIP3    H1 8997   2.470   0.501   0.789
 2997TIP3    H2 8998   2.518   0.633   0.733
 2998TIP3   OH2 8999   1.676   3.491   1.434
 2998TIP3    H1 9000   1.601   3.543   1.464
 2998TIP3    H2 9001   1.730   3.553   1.385
 2999TIP3   OH2 9002   3.263   4.720   4.161
 2999TIP3    H1 9003   3.191   4.686   4.214
 2999TIP3    H2 9004   3.340   4.713   4.217
 3000TIP3   OH2 9005   4.351   1.361   0.670
 3000TIP3    H1 9006   4.256   1.348   0.681
 3000TIP3    H2 9007   4.375   1.297   0.603
 3001TIP3   OH2 9008   1.760   4.760   3.694
 3001TIP3    H1 9009   1.756   4.825   3.624
 3001TIP3    H2 9010   1.720   4.802   3.769
 3002TIP3   OH2 9011   2.098   3.814   0.342
 3002TIP3    H1 9012   2.186   3.778   0.335
 3002TIP3    H2 9013   2.075   3.840   0.252
 3003TIP3   OH2 9014   1.699   5.135   4.715
 3003TIP3    H1 9015   1.739   5.134   4.802
 3003TIP3    H2 9016   1.772   5.123   4.655
 3004TIP3   OH2 9017   0.474   3.221   1.867
 3004TIP3    H1 9018   0.545   3.237   1.930
 3004TIP3    H2 9019   0.475   3.297   1.809
 3005TIP3   OH2 9020   1.027   3.128   0.214
 3005TIP3    H1 9021   0.962   3.069   0.252
 3005TIP3    H2 9022   0.996   3.141   0.124
 3006TIP3   OH2 9023   4.521   2.745   0.283
 3006TIP3    H1 9024   4.459   2.679   0.251
 3006TIP3    H2 9025   4.502   2.751   0.377
 3007TIP3   OH2 9026   4.553   3.719   4.750
 3007TIP3    H1 9027   4.574   3.698   4.659
 3007TIP3    H2 9028   4.611   3.792   4.772
 3008TIP3   OH2 9029   2.720   4.542   3.840
 3008TIP3    H1 9030   2.772   4.519   3.763
 3008TIP3    H2 9031   2.769   4.613   3.882
 3009TIP3   OH2 9032   2.267   1.950   4.879
 3009TIP3    H1 9033   2.333   1.882   4.866
 3009TIP3    H2 9034   2.288   2.017   4.813
 3010TIP3   OH2 9035   3.926   5.947   3.105
 3010TIP3    H1 9036   3.857   6.002   3.142
 3010TIP3    H2 9037   3.896   5.858   3.119
 3011TIP3   OH2 9038   0.024   0.366   0.526
 3011TIP3    H1 9039   0.003   0.273   0.531
 3011TIP3    H2 9040  -0.012   0.403   0.606
 3012TIP3   OH2 9041   6.020   4.126   4.202
 3012TIP3    H1 9042   5.967   4.092   4.275
 3012TIP3    H2 9043   6.099   4.160   4.244
 3013TIP3   OH2 9044   0.579   5.424   3.044
 3013TIP3    H1 9045   0.550   5.408   3.134
 3013TIP3    H2 9046   0.579   5.338   3.003
 3014TIP3   OH2 9047   1.869   4.331   2.127
 3014TIP3    H1 9048   1.775   4.322   2.141
 3014TIP3    H2 9049   1.908   4.261   2.180
 3015TIP3   OH2 9050   1.232   1.656   0.964
 3015TIP3    H1 9051   1.326   1.661   0.983
 3015TIP3    H2 9052   1.227   1.608   0.881
 3016TIP3   OH2 9053   4.704   2.921   3.610
 3016TIP3    H1 9054   4.692   3.016   3.618
 3016TIP3    H2 9055   4.614   2.886   3.607
 3017TIP3   OH2 9056   2.739   1.444   4.803
 3017TIP3    H1 9057   2.830   1.462   4.826
 3017TIP3    H2 9058   2.744   1.392   4.723
 3018TIP3   OH2 9059   1.631   4.956   0.762
 3018TIP3    H1 9060   1.622   4.908   0.844
 3018TIP3    H2 9061   1.709   5.009   0.773
 3019TIP3   OH2 9062   0.432   4.243   0.733
 3019TIP3    H1 9063   0.508   4.295   0.759
 3019TIP3    H2 9064   0.379   4.238   0.812
 3020TIP3   OH2 9065   4.182   5.911   4.692
 3020TIP3    H1 9066   4.093   5.912   4.657
 3020TIP3    H2 9067   4.171   5.889   4.785
 3021TIP3   OH2 9068   1.610   1.306   1.334
 3021TIP3    H1 9069   1.632   1.219   1.368
 3021TIP3    H2 9070   1.570   1.289   1.249
 3022TIP3   OH2 9071   3.637   3.623   0.842
 3022TIP3    H1 9072   3.551   3.580   0.852
 3022TIP3    H2 9073   3.617   3.707   0.800
 3023TIP3   OH2 9074   0.749   0.190   1.447
 3023TIP3    H1 9075   0.692   0.250   1.495
 3023TIP3    H2 9076   0.747   0.109   1.498
 3024TIP3   OH2 9077   2.469   1.762   4.940
 3024TIP3    H1 9078   2.399   1.730   4.997
 3024TIP3    H2 9079   2.498   1.684   4.892
 3025TIP3   OH2 9080   0.076   1.290   0.664
 3025TIP3    H1 9081  -0.009   1.288   0.708
 3025TIP3    H2 9082   0.072   1.217   0.601
 3026TIP3   OH2 9083   2.940   1.751   4.543
 3026TIP3    H1 9084   3.007   1.730   4.479
 3026TIP3    H2 9085   2.860   1.709   4.509
 3027TIP3   OH2 9086   2.623   1.013   1.264
 3027TIP3    H1 9087   2.563   1.048   1.330
 3027TIP3    H2 9088   2.680   1.087   1.241
 3028TIP3   OH2 9089   5.699   0.976   4.732
 3028TIP3    H1 9090   5.761   0.968   4.660
 3028TIP3    H2 9091   5.679   1.070   4.736
 3029TIP3   OH2 9092   1.911   2.079   3.686
 3029TIP3    H1 9093   1.980   2.043   3.742
 3029TIP3    H2 9094   1.956   2.107   3.607
 3030TIP3   OH2 9095   2.072   3.456   2.086
 3030TIP3    H1 9096   2.122   3.421   2.160
 3030TIP3    H2 9097   2.132   3.450   2.011
 3031TIP3   OH2 9098   4.483   4.257   4.829
 3031TIP3    H1 9099   4.404   4.283   4.782
 3031TIP3    H2 9100   4.550   4.250   4.762
 3032TIP3   OH2 9101   4.825   0.924   3.977
 3032TIP3    H1 9102   4.820   0.962   4.065
 3032TIP3    H2 9103   4.905   0.871   3.979
 3033TIP3   OH2 9104   6.067   4.385   1.530
 3033TIP3    H1 9105   6.077   4.449   1.600
 3033TIP3    H2 9106   6.114   4.308   1.561
 3034TIP3   OH2 9107   6.091   4.877   4.114
 3034TIP3    H1 9108   6.174   4.910   4.147
 3034TIP3    H2 9109   6.032   4.878   4.189
 3035TIP3   OH2 9110   3.505   5.391   3.396
 3035TIP3    H1 9111   3.490   5.372   3.488
 3035TIP3    H2 9112   3.536   5.308   3.359
 3036TIP3   OH2 9113   0.827   3.473   1.315
 3036TIP3    H1 9114   0.855   3.471   1.406
 3036TIP3    H2 9115   0.821   3.567   1.294
 3037TIP3   OH2 9116   3.771   5.276   4.164
 3037TIP3    H1 9117   3.686   5.233   4.159
 3037TIP3    H2 9118   3.753   5.363   4.200
 3038TIP3   OH2 9119   3.120   3.898   2.304
 3038TIP3    H1 9120   3.150   3.846   2.230
 3038TIP3    H2 9121   3.127   3.840   2.379
 3039TIP3   OH2 9122   4.187   2.009   3.275
 3039TIP3    H1 9123   4.158   2.074   3.212
 3039TIP3    H2 9124   4.265   2.046   3.315
 3040TIP3   OH2 9125   6.251   0.532   3.764
 3040TIP3    H1 9126   6.231   0.612   3.716
 3040TIP3    H2 9127   6.204   0.463   3.717
 3041TIP3   OH2 9128   5.848   0.250   0.923
 3041TIP3    H1 9129   5.894   0.238   1.007
 3041TIP3    H2 9130   5.765   0.205   0.935
 3042TIP3   OH2 9131   5.536   2.532   2.263
 3042TIP3    H1 9132   5.535   2.493   2.176
 3042TIP3    H2 9133   5.445   2.525   2.293
 3043TIP3   OH2 9134   0.679   0.153   2.922
 3043TIP3    H1 9135   0.756   0.103   2.897
 3043TIP3    H2 9136   0.696   0.183   3.011
 3044TIP3   OH2 9137   6.234   1.494   4.576
 3044TIP3    H1 9138   6.250   1.503   4.482
 3044TIP3    H2 9139   6.264   1.405   4.596
 3045TIP3   OH2 9140   1.890   3.283   3.331
 3045TIP3    H1 9141   1.893   3.239   3.246
 3045TIP3    H2 9142   1.872   3.213   3.394
 3046TIP3   OH2 9143   0.641   4.674   5.086
 3046TIP3    H1 9144   0.601   4.760   5.099
 3046TIP3    H2 9145   0.674   4.676   4.996
 3047TIP3   OH2 9146   4.237   1.410   3.411
 3047TIP3    H1 9147   4.298   1.405   3.337
 3047TIP3    H2 9148   4.282   1.466   3.475
 3048TIP3   OH2 9149   0.395   5.552   0.157
 3048TIP3    H1 9150   0.363   5.467   0.127
 3048TIP3    H2 9151   0.335   5.616   0.117
 3049TIP3   OH2 9152   4.393   5.003   3.037
 3049TIP3    H1 9153   4.468   4.997   3.096
 3049TIP3    H2 9154   4.317   4.986   3.093
 3050TIP3   OH2 9155   1.373   0.589   2.848
 3050TIP3    H1 9156   1.390   0.513   2.793
 3050TIP3    H2 9157   1.317   0.645   2.796
 3051TIP3   OH2 9158   4.736   0.952   3.216
 3051TIP3    H1 9159   4.659   0.960   3.161
 3051TIP3    H2 9160   4.808   0.934   3.154
 3052TIP3   OH2 9161   4.785   5.360   2.756
 3052TIP3    H1 9162   4.846   5.367   2.829
 3052TIP3    H2 9163   4.833   5.396   2.681
 3053TIP3   OH2 9164   2.333   1.027   2.043
 3053TIP3    H1 9165   2.413   0.990   2.082
 3053TIP3    H2 9166   2.276   1.044   2.118
 3054TIP3   OH2 9167   2.791   1.276   4.562
 3054TIP3    H1 9168   2.793   1.268   4.466
 3054TIP3    H2 9169   2.778   1.186   4.592
 3055TIP3   OH2 9170   0.724   1.608   0.933
 3055TIP3    H1 9171   0.815   1.598   0.962
 3055TIP3    H2 9172   0.689   1.519   0.934
 3056TIP3   OH2 9173   1.677   2.172   3.272
 3056TIP3    H1 9174   1.757   2.193   3.224
 3056TIP3    H2 9175   1.678   2.076   3.277
 3057TIP3   OH2 9176   4.794   2.699   3.023
 3057TIP3    H1 9177   4.801   2.710   3.117
 3057TIP3    H2 9178   4.720   2.755   2.997
 3058TIP3   OH2 9179   5.676   2.307   0.192
 3058TIP3    H1 9180   5.644   2.302   0.282
 3058TIP3    H2 9181   5.763   2.346   0.199
 3059TIP3   OH2 9182   4.938   5.501   2.573
 3059TIP3    H1 9183   4.952   5.486   2.480
 3059TIP3    H2 9184   4.896   5.587   2.577
 3060TIP3   OH2 9185   2.197   1.488   2.486
 3060TIP3    H1 9186   2.184   1.504   2.580
 3060TIP3    H2 9187   2.255   1.412   2.483
 3061TIP3   OH2 9188   1.535   1.023   1.416
 3061TIP3    H1 9189   1.543   1.055   1.506
 3061TIP3    H2 9190   1.557   0.930   1.421
 3062TIP3   OH2 9191   0.190   1.237   3.289
 3062TIP3    H1 9192   0.155   1.325   3.307
 3062TIP3    H2 9193   0.117   1.178   3.309
 3063TIP3   OH2 9194   1.328   0.617   2.363
 3063TIP3    H1 9195   1.259   0.682   2.377
 3063TIP3    H2 9196   1.371   0.645   2.282
 3064TIP3   OH2 9197   5.459   2.830   4.849
 3064TIP3    H1 9198   5.499   2.749   4.881
 3064TIP3    H2 9199   5.498   2.899   4.903
 3065TIP3   OH2 9200   5.469   2.484   3.220
 3065TIP3    H1 9201   5.394   2.463   3.163
 3065TIP3    H2 9202   5.456   2.429   3.297
 3066TIP3   OH2 9203   1.055   5.825   0.643
 3066TIP3    H1 9204   1.074   5.753   0.582
 3066TIP3    H2 9205   0.962   5.844   0.629
 3067TIP3   OH2 9206   5.241   3.124   2.479
 3067TIP3    H1 9207   5.285   3.080   2.552
 3067TIP3    H2 9208   5.312   3.162   2.427
 3068TIP3   OH2 9209   4.019   1.488   3.206
 3068TIP3    H1 9210   4.024   1.580   3.181
 3068TIP3    H2 9211   4.097   1.473   3.260
 3069TIP3   OH2 9212   2.279   1.728   5.163
 3069TIP3    H1 9213   2.226   1.807   5.171
 3069TIP3    H2 9214   2.227   1.659   5.204
 3070TIP3   OH2 9215   3.330   3.204   0.471
 3070TIP3    H1 9216   3.340   3.257   0.391
 3070TIP3    H2 9217   3.258   3.246   0.518
 3071TIP3   OH2 9218   0.720   0.137   2.228
 3071TIP3    H1 9219   0.751   0.052   2.260
 3071TIP3    H2 9220   0.628   0.140   2.254
 3072TIP3   OH2 9221   3.177   5.094   1.479
 3072TIP3    H1 9222   3.112   5.024   1.479
 3072TIP3    H2 9223   3.241   5.068   1.413
 3073TIP3   OH2 9224   4.158   0.816   0.177
 3073TIP3    H1 9225   4.103   0.893   0.164
 3073TIP3    H2 9226   4.163   0.774   0.091
 3074TIP3   OH2 9227   5.427   5.677   3.123
 3074TIP3    H1 9228   5.351   5.619   3.118
 3074TIP3    H2 9229   5.433   5.701   3.215
 3075TIP3   OH2 9230   3.031   5.004   0.788
 3075TIP3    H1 9231   3.061   5.095   0.784
 3075TIP3    H2 9232   3.110   4.954   0.808
 3076TIP3   OH2 9233   5.424   2.675   0.496
 3076TIP3    H1 9234   5.343   2.726   0.502
 3076TIP3    H2 9235   5.433   2.655   0.403
 3077TIP3   OH2 9236   4.080   2.525   1.593
 3077TIP3    H1 9237   4.003   2.476   1.623
 3077TIP3    H2 9238   4.057   2.616   1.610
 3078TIP3   OH2 9239   1.551   4.836   2.631
 3078TIP3    H1 9240   1.534   4.744   2.648
 3078TIP3    H2 9241   1.584   4.870   2.714
 3079TIP3   OH2 9242   2.851   4.151   1.945
 3079TIP3    H1 9243   2.795   4.222   1.914
 3079TIP3    H2 9244   2.871   4.174   2.035
 3080TIP3   OH2 9245   4.271   3.191   3.906
 3080TIP3    H1 9246   4.264   3.285   3.896
 3080TIP3    H2 9247   4.320   3.161   3.830
 3081TIP3   OH2 9248   1.261   5.758   2.541
 3081TIP3    H1 9249   1.178   5.711   2.529
 3081TIP3    H2 9250   1.249   5.839   2.490
 3082TIP3   OH2 9251   5.702   3.879   4.203
 3082TIP3    H1 9252   5.748   3.905   4.283
 3082TIP3    H2 9253   5.691   3.961   4.154
 3083TIP3   OH2 9254   2.049   2.249   2.916
 3083TIP3    H1 9255   2.032   2.221   2.826
 3083TIP3    H2 9256   2.125   2.307   2.910
 3084TIP3   OH2 9257   0.355   0.008   2.019
 3084TIP3    H1 9258   0.341   0.098   1.990
 3084TIP3    H2 9259   0.415   0.015   2.093
 3085TIP3   OH2 9260   0.057   5.594   0.685
 3085TIP3    H1 9261  -0.017   5.639   0.727
 3085TIP3    H2 9262   0.040   5.603   0.591
 3086TIP3   OH2 9263   5.858   5.168   2.870
 3086TIP3    H1 9264   5.816   5.152   2.785
 3086TIP3    H2 9265   5.906   5.087   2.889
 3087TIP3   OH2 9266   1.688   5.899   3.411
 3087TIP3    H1 9267   1.634   5.942   3.345
 3087TIP3    H2 9268   1.697   5.964   3.481
 3088TIP3   OH2 9269   5.067   5.163   3.733
 3088TIP3    H1 9270   5.138   5.100   3.742
 3088TIP3    H2 9271   4.988   5.110   3.725
 3089TIP3   OH2 9272   3.171   2.225   1.621
 3089TIP3    H1 9273   3.148   2.152   1.563
 3089TIP3    H2 9274   3.177   2.185   1.708
 3090TIP3   OH2 9275   1.210   4.946   0.387
 3090TIP3    H1 9276   1.230   4.871   0.444
 3090TIP3    H2 9277   1.168   4.908   0.310
 3091TIP3   OH2 9278   5.622   2.508   4.571
 3091TIP3    H1 9279   5.689   2.562   4.613
 3091TIP3    H2 9280   5.636   2.420   4.605
 3092TIP3   OH2 9281   3.668   2.411   0.360
 3092TIP3    H1 9282   3.617   2.465   0.421
 3092TIP3    H2 9283   3.758   2.441   0.371
 3093TIP3   OH2 9284   2.814   5.269   2.785
 3093TIP3    H1 9285   2.841   5.341   2.728
 3093TIP3    H2 9286   2.732   5.298   2.825
 3094TIP3   OH2 9287   3.943   5.840   5.150
 3094TIP3    H1 9288   3.868   5.892   5.121
 3094TIP3    H2 9289   3.907   5.784   5.219
 3095TIP3   OH2 9290   0.224   3.812   0.182
 3095TIP3    H1 9291   0.249   3.800   0.274
 3095TIP3    H2 9292   0.133   3.841   0.186
 3096TIP3   OH2 9293   5.257   4.956   3.689
 3096TIP3    H1 9294   5.254   4.864   3.664
 3096TIP3    H2 9295   5.334   4.964   3.745
 3097TIP3   OH2 9296   5.621   1.246   4.102
 3097TIP3    H1 9297   5.629   1.332   4.144
 3097TIP3    H2 9298   5.549   1.204   4.149
 3098TIP3   OH2 9299   4.522   4.621   2.726
 3098TIP3    H1 9300   4.560   4.536   2.704
 3098TIP3    H2 9301   4.498   4.659   2.641
 3099TIP3   OH2 9302   3.104   5.016   4.040
 3099TIP3    H1 9303   3.082   5.086   3.979
 3099TIP3    H2 9304   3.040   4.947   4.022
 3100TIP3   OH2 9305   3.957   3.021   1.758
 3100TIP3    H1 9306   3.982   3.018   1.850
 3100TIP3    H2 9307   4.017   3.084   1.719
 3101TIP3   OH2 9308   3.058   5.622   1.507
 3101TIP3    H1 9309   3.112   5.677   1.564
 3101TIP3    H2 9310   3.121   5.580   1.448
 3102TIP3   OH2 9311   1.366   0.624   0.638
 3102TIP3    H1 9312   1.301   0.582   0.694
 3102TIP3    H2 9313   1.320   0.697   0.597
 3103TIP3   OH2 9314   1.025   4.466   1.705
 3103TIP3    H1 9315   1.038   4.378   1.742
 3103TIP3    H2 9316   0.932   4.484   1.718
 3104TIP3   OH2 9317   4.641   3.121   4.676
 3104TIP3    H1 9318   4.710   3.145   4.615
 3104TIP3    H2 9319   4.666   3.035   4.709
 3105TIP3   OH2 9320   2.672   2.989   1.139
 3105TIP3    H1 9321   2.656   2.895   1.132
 3105TIP3    H2 9322   2.618   3.017   1.213
 3106TIP3   OH2 9323   5.121   3.975   4.305
 3106TIP3    H1 9324   5.112   4.033   4.381
 3106TIP3    H2 9325   5.048   3.913   4.314
 3107TIP3   OH2 9326   5.061   5.875   2.371
 3107TIP3    H1 9327   5.122   5.847   2.303
 3107TIP3    H2 9328   5.106   5.854   2.453
 3108TIP3   OH2 9329   0.700   3.743   1.955
 3108TIP3    H1 9330   0.782   3.736   2.005
 3108TIP3    H2 9331   0.637   3.780   2.017
 3109TIP3   OH2 9332   3.117   0.110   0.218
 3109TIP3    H1 9333   3.177   0.166   0.267
 3109TIP3    H2 9334   3.081   0.051   0.284
 3110TIP3   OH2 9335   5.814   5.423   1.446
 3110TIP3    H1 9336   5.811   5.346   1.502
 3110TIP3    H2 9337   5.723   5.448   1.433
 3111TIP3   OH2 9338   5.051   1.736   2.477
 3111TIP3    H1 9339   5.096   1.804   2.427
 3111TIP3    H2 9340   5.121   1.678   2.508
 3112TIP3   OH2 9341   2.246   2.033   1.473
 3112TIP3    H1 9342   2.173   2.002   1.419
 3112TIP3    H2 9343   2.279   2.110   1.427
 3113TIP3   OH2 9344   0.388   0.376   3.765
 3113TIP3    H1 9345   0.370   0.428   3.844
 3113TIP3    H2 9346   0.386   0.440   3.694
 3114TIP3   OH2 9347   5.312   5.194   4.769
 3114TIP3    H1 9348   5.271   5.233   4.846
 3114TIP3    H2 9349   5.256   5.220   4.696
 3115TIP3   OH2 9350   4.790   0.189   0.910
 3115TIP3    H1 9351   4.782   0.137   0.829
 3115TIP3    H2 9352   4.724   0.257   0.901
 3116TIP3   OH2 9353   0.837   0.504   0.120
 3116TIP3    H1 9354   0.830   0.531   0.028
 3116TIP3    H2 9355   0.746   0.500   0.150
 3117TIP3   OH2 9356   5.578   1.716   1.287
 3117TIP3    H1 9357   5.538   1.671   1.212
 3117TIP3    H2 9358   5.567   1.809   1.268
 3118TIP3   OH2 9359   4.948   3.954   0.634
 3118TIP3    H1 9360   4.917   3.978   0.722
 3118TIP3    H2 9361   4.880   3.986   0.575
 3119TIP3   OH2 9362   0.757   4.800   1.955
 3119TIP3    H1 9363   0.828   4.844   2.002
 3119TIP3    H2 9364   0.797   4.772   1.872
 3120TIP3   OH2 9365   0.758   4.301   4.808
 3120TIP3    H1 9366   0.804   4.232   4.761
 3120TIP3    H2 9367   0.701   4.255   4.869
 3121TIP3   OH2 9368   3.756   4.016   2.334
 3121TIP3    H1 9369   3.799   3.945   2.382
 3121TIP3    H2 9370   3.813   4.093   2.348
 3122TIP3   OH2 9371   3.632   2.908   1.190
 3122TIP3    H1 9372   3.597   2.822   1.211
 3122TIP3    H2 9373   3.555   2.965   1.185
 3123TIP3   OH2 9374   6.144   2.165   1.105
 3123TIP3    H1 9375   6.216   2.121   1.061
 3123TIP3    H2 9376   6.065   2.123   1.070
 3124TIP3   OH2 9377   0.493   1.327   3.612
 3124TIP3    H1 9378   0.525   1.238   3.603
 3124TIP3    H2 9379   0.413   1.330   3.561
 3125TIP3   OH2 9380   0.053   3.134   2.628
 3125TIP3    H1 9381   0.062   3.228   2.613
 3125TIP3    H2 9382   0.065   3.094   2.542
 3126TIP3   OH2 9383   5.968   1.595   1.720
 3126TIP3    H1 9384   5.892   1.538   1.703
 3126TIP3    H2 9385   5.951   1.632   1.807
 3127TIP3   OH2 9386   4.558   3.702   2.693
 3127TIP3    H1 9387   4.473   3.684   2.653
 3127TIP3    H2 9388   4.620   3.700   2.620
 3128TIP3   OH2 9389   0.112   5.233   1.116
 3128TIP3    H1 9390   0.132   5.159   1.058
 3128TIP3    H2 9391   0.072   5.193   1.193
 3129TIP3   OH2 9392   5.938   3.517   4.924
 3129TIP3    H1 9393   5.853   3.485   4.894
 3129TIP3    H2 9394   6.001   3.486   4.859
 3130TIP3   OH2 9395   0.862   4.008   1.088
 3130TIP3    H1 9396   0.794   4.075   1.082
 3130TIP3    H2 9397   0.883   3.987   0.997
 3131TIP3   OH2 9398   1.861   1.152   4.798
 3131TIP3    H1 9399   1.879   1.208   4.873
 3131TIP3    H2 9400   1.847   1.212   4.725
 3132TIP3   OH2 9401   3.055   5.678   2.176
 3132TIP3    H1 9402   3.079   5.670   2.268
 3132TIP3    H2 9403   2.988   5.611   2.162
 3133TIP3   OH2 9404   1.279   1.746   4.849
 3133TIP3    H1 9405   1.195   1.789   4.835
 3133TIP3    H2 9406   1.328   1.764   4.768
 3134TIP3   OH2 9407   5.289   2.856   1.641
 3134TIP3    H1 9408   5.322   2.789   1.580
 3134TIP3    H2 9409   5.353   2.857   1.712
 3135TIP3   OH2 9410   4.044   5.933   2.854
 3135TIP3    H1 9411   4.055   5.846   2.813
 3135TIP3    H2 9412   4.003   5.915   2.938
 3136TIP3   OH2 9413   5.598   4.463   1.281
 3136TIP3    H1 9414   5.552   4.380   1.269
 3136TIP3    H2 9415   5.678   4.440   1.329
 3137TIP3   OH2 9416   1.397   3.808   4.309
 3137TIP3    H1 9417   1.453   3.876   4.272
 3137TIP3    H2 9418   1.321   3.856   4.343
 3138TIP3   OH2 9419   2.012   1.680   4.562
 3138TIP3    H1 9420   2.091   1.703   4.611
 3138TIP3    H2 9421   1.940   1.714   4.615
 3139TIP3   OH2 9422   4.252   4.559   1.164
 3139TIP3    H1 9423   4.346   4.573   1.176
 3139TIP3    H2 9424   4.212   4.637   1.204
 3140TIP3   OH2 9425   3.790   3.351   4.100
 3140TIP3    H1 9426   3.802   3.263   4.136
 3140TIP3    H2 9427   3.775   3.336   4.006
 3141TIP3   OH2 9428   0.870   2.614   2.316
 3141TIP3    H1 9429   0.912   2.694   2.346
 3141TIP3    H2 9430   0.801   2.644   2.257
 3142TIP3   OH2 9431   4.503   5.861   2.863
 3142TIP3    H1 9432   4.466   5.820   2.941
 3142TIP3    H2 9433   4.474   5.952   2.866
 3143TIP3   OH2 9434   0.604   2.097   1.675
 3143TIP3    H1 9435   0.670   2.153   1.634
 3143TIP3    H2 9436   0.528   2.104   1.617
 3144TIP3   OH2 9437   0.254   3.974   4.735
 3144TIP3    H1 9438   0.270   3.928   4.652
 3144TIP3    H2 9439   0.171   4.019   4.722
 3145TIP3   OH2 9440   2.621   5.595   2.640
 3145TIP3    H1 9441   2.681   5.598   2.715
 3145TIP3    H2 9442   2.596   5.503   2.634
 3146TIP3   OH2 9443   3.161   4.783   4.777
 3146TIP3    H1 9444   3.099   4.711   4.767
 3146TIP3    H2 9445   3.220   4.775   4.702
 3147TIP3   OH2 9446   2.324   4.559   4.649
 3147TIP3    H1 9447   2.306   4.511   4.568
 3147TIP3    H2 9448   2.250   4.539   4.706
 3148TIP3   OH2 9449   2.466   0.861   1.059
 3148TIP3    H1 9450   2.505   0.864   0.972
 3148TIP3    H2 9451   2.539   0.879   1.118
 3149TIP3   OH2 9452   5.154   1.365   2.322
 3149TIP3    H1 9453   5.100   1.316   2.384
 3149TIP3    H2 9454   5.188   1.438   2.374
 3150TIP3   OH2 9455   2.288   5.658   1.254
 3150TIP3    H1 9456   2.375   5.626   1.280
 3150TIP3    H2 9457   2.296   5.753   1.255
 3151TIP3   OH2 9458   2.169   1.609   3.903
 3151TIP3    H1 9459   2.161   1.538   3.966
 3151TIP3    H2 9460   2.190   1.565   3.821
 3152TIP3   OH2 9461   5.386   3.547   1.682
 3152TIP3    H1 9462   5.328   3.550   1.758
 3152TIP3    H2 9463   5.474   3.546   1.719
 3153TIP3   OH2 9464   5.857   4.520   4.745
 3153TIP3    H1 9465   5.876   4.476   4.828
 3153TIP3    H2 9466   5.905   4.470   4.679
 3154TIP3   OH2 9467   0.741   2.533   5.082
 3154TIP3    H1 9468   0.788   2.559   5.162
 3154TIP3    H2 9469   0.664   2.487   5.114
 3155TIP3   OH2 9470   4.682   2.350   4.316
 3155TIP3    H1 9471   4.714   2.290   4.382
 3155TIP3    H2 9472   4.761   2.391   4.280
 3156TIP3   OH2 9473   5.781   1.728   2.653
 3156TIP3    H1 9474   5.798   1.649   2.602
 3156TIP3    H2 9475   5.691   1.752   2.632
 3157TIP3   OH2 9476   4.879   2.883   0.155
 3157TIP3    H1 9477   4.894   2.829   0.233
 3157TIP3    H2 9478   4.795   2.852   0.121
 3158TIP3   OH2 9479   2.394   0.369   0.643
 3158TIP3    H1 9480   2.412   0.289   0.692
 3158TIP3    H2 9481   2.304   0.359   0.612
 3159TIP3   OH2 9482   4.703   0.121   0.674
 3159TIP3    H1 9483   4.695   0.133   0.579
 3159TIP3    H2 9484   4.630   0.169   0.711
 3160TIP3   OH2 9485   6.325   3.945   0.268
 3160TIP3    H1 9486   6.231   3.951   0.288
 3160TIP3    H2 9487   6.337   4.003   0.193
 3161TIP3   OH2 9488   5.514   4.792   3.097
 3161TIP3    H1 9489   5.564   4.758   3.171
 3161TIP3    H2 9490   5.543   4.882   3.088
 3162TIP3   OH2 9491   5.442   0.394   2.623
 3162TIP3    H1 9492   5.429   0.481   2.660
 3162TIP3    H2 9493   5.446   0.408   2.528
 3163TIP3   OH2 9494   3.117   1.600   2.419
 3163TIP3    H1 9495   3.167   1.665   2.370
 3163TIP3    H2 9496   3.135   1.619   2.511
 3164TIP3   OH2 9497   4.994   1.800   2.024
 3164TIP3    H1 9498   4.914   1.828   1.979
 3164TIP3    H2 9499   4.966   1.728   2.081
 3165TIP3   OH2 9500   2.392   0.864   2.829
 3165TIP3    H1 9501   2.422   0.942   2.782
 3165TIP3    H2 9502   2.389   0.891   2.921
 3166TIP3   OH2 9503   5.283   1.951   1.490
 3166TIP3    H1 9504   5.337   1.961   1.568
 3166TIP3    H2 9505   5.320   1.875   1.445
 3167TIP3   OH2 9506   2.580   2.623   3.165
 3167TIP3    H1 9507   2.631   2.700   3.140
 3167TIP3    H2 9508   2.571   2.630   3.260
 3168TIP3   OH2 9509   1.680   5.278   4.320
 3168TIP3    H1 9510   1.722   5.360   4.347
 3168TIP3    H2 9511   1.747   5.234   4.268
 3169TIP3   OH2 9512   2.965   0.110   4.234
 3169TIP3    H1 9513   2.900   0.080   4.171
 3169TIP3    H2 9514   2.995   0.194   4.201
 3170TIP3   OH2 9515   3.098   5.677   2.743
 3170TIP3    H1 9516   3.135   5.621   2.811
 3170TIP3    H2 9517   3.103   5.765   2.780
 3171TIP3   OH2 9518   0.359   3.684   2.679
 3171TIP3    H1 9519   0.330   3.603   2.722
 3171TIP3    H2 9520   0.455   3.682   2.687
 3172TIP3   OH2 9521   4.346   0.368   3.559
 3172TIP3    H1 9522   4.365   0.442   3.616
 3172TIP3    H2 9523   4.386   0.293   3.603
 3173TIP3   OH2 9524   3.049   5.573   4.573
 3173TIP3    H1 9525   3.081   5.486   4.598
 3173TIP3    H2 9526   3.098   5.633   4.629
 3174TIP3   OH2 9527   0.248   0.466   2.762
 3174TIP3    H1 9528   0.329   0.416   2.763
 3174TIP3    H2 9529   0.197   0.427   2.691
 3175TIP3   OH2 9530   0.957   2.196   5.026
 3175TIP3    H1 9531   0.942   2.223   5.117
 3175TIP3    H2 9532   0.999   2.271   4.985
 3176TIP3   OH2 9533   5.824   0.244   3.205
 3176TIP3    H1 9534   5.824   0.339   3.222
 3176TIP3    H2 9535   5.898   0.211   3.257
 3177TIP3   OH2 9536   2.291   5.079   1.043
 3177TIP3    H1 9537   2.307   4.994   1.003
 3177TIP3    H2 9538   2.248   5.130   0.975
 3178TIP3   OH2 9539   0.735   1.471   3.895
 3178TIP3    H1 9540   0.677   1.431   3.960
 3178TIP3    H2 9541   0.688   1.464   3.812
 3179TIP3   OH2 9542   6.145   0.072   0.333
 3179TIP3    H1 9543   6.147   0.142   0.268
 3179TIP3    H2 9544   6.106  -0.002   0.287
 3180TIP3   OH2 9545   6.188   3.899   1.617
 3180TIP3    H1 9546   6.260   3.840   1.639
 3180TIP3    H2 9547   6.116   3.871   1.672
 3181TIP3   OH2 9548   6.135   1.249   1.584
 3181TIP3    H1 9549   6.207   1.189   1.601
 3181TIP3    H2 9550   6.175   1.336   1.583
 3182TIP3   OH2 9551   1.267   4.938   4.835
 3182TIP3    H1 9552   1.352   4.901   4.811
 3182TIP3    H2 9553   1.275   5.031   4.816
 3183TIP3   OH2 9554   0.086   2.026   1.283
 3183TIP3    H1 9555   0.122   2.103   1.326
 3183TIP3    H2 9556   0.027   1.987   1.347
 3184TIP3   OH2 9557   1.420   1.793   0.667
 3184TIP3    H1 9558   1.416   1.827   0.756
 3184TIP3    H2 9559   1.426   1.699   0.677
 3185TIP3   OH2 9560   1.741   0.823   4.165
 3185TIP3    H1 9561   1.746   0.735   4.202
 3185TIP3    H2 9562   1.654   0.855   4.190
 3186TIP3   OH2 9563   0.231   5.061   1.611
 3186TIP3    H1 9564   0.277   5.112   1.545
 3186TIP3    H2 9565   0.153   5.113   1.631
 3187TIP3   OH2 9566   5.853   0.046   4.162
 3187TIP3    H1 9567   5.808   0.117   4.208
 3187TIP3    H2 9568   5.881  -0.014   4.231
 3188TIP3   OH2 9569   2.604   5.656   4.087
 3188TIP3    H1 9570   2.567   5.658   4.176
 3188TIP3    H2 9571   2.692   5.620   4.098
 3189TIP3   OH2 9572   5.896   0.706   0.114
 3189TIP3    H1 9573   5.893   0.684   0.021
 3189TIP3    H2 9574   5.891   0.801   0.117
 3190TIP3   OH2 9575   5.982   1.283   3.656
 3190TIP3    H1 9576   5.905   1.269   3.602
 3190TIP3    H2 9577   5.948   1.304   3.743
 3191TIP3   OH2 9578   4.752   5.838   0.398
 3191TIP3    H1 9579   4.819   5.902   0.420
 3191TIP3    H2 9580   4.688   5.887   0.346
 3192TIP3   OH2 9581   5.329   0.425   3.430
 3192TIP3    H1 9582   5.404   0.401   3.484
 3192TIP3    H2 9583   5.368   0.474   3.357
 3193TIP3   OH2 9584   3.619   3.389   4.451
 3193TIP3    H1 9585   3.713   3.373   4.457
 3193TIP3    H2 9586   3.597   3.368   4.360
 3194TIP3   OH2 9587   1.508   0.303   4.579
 3194TIP3    H1 9588   1.505   0.289   4.485
 3194TIP3    H2 9589   1.418   0.327   4.603
 3195TIP3   OH2 9590   1.186   4.081   2.243
 3195TIP3    H1 9591   1.210   4.123   2.160
 3195TIP3    H2 9592   1.244   4.005   2.249
 3196TIP3   OH2 9593   2.622   1.637   0.215
 3196TIP3    H1 9594   2.569   1.654   0.136
 3196TIP3    H2 9595   2.615   1.717   0.266
 3197TIP3   OH2 9596   1.175   2.796   1.124
 3197TIP3    H1 9597   1.162   2.889   1.107
 3197TIP3    H2 9598   1.269   2.782   1.114
 3198TIP3   OH2 9599   2.545   3.238   2.235
 3198TIP3    H1 9600   2.513   3.325   2.208
 3198TIP3    H2 9601   2.485   3.211   2.304
 3199TIP3   OH2 9602   4.410   3.574   2.225
 3199TIP3    H1 9603   4.466   3.646   2.197
 3199TIP3    H2 9604   4.470   3.503   2.246
 3200TIP3   OH2 9605   4.367   1.199   2.585
 3200TIP3    H1 9606   4.273   1.201   2.570
 3200TIP3    H2 9607   4.405   1.203   2.497
 3201TIP3   OH2 9608   4.760   2.903   2.782
 3201TIP3    H1 9609   4.803   2.970   2.728
 3201TIP3    H2 9610   4.755   2.826   2.726
 3202TIP3   OH2 9611   0.466   5.372   0.483
 3202TIP3    H1 9612   0.391   5.330   0.442
 3202TIP3    H2 9613   0.514   5.412   0.410
 3203TIP3   OH2 9614   4.497   5.175   1.297
 3203TIP3    H1 9615   4.502   5.255   1.350
 3203TIP3    H2 9616   4.587   5.157   1.271
 3204TIP3   OH2 9617   4.357   1.527   4.598
 3204TIP3    H1 9618   4.313   1.526   4.512
 3204TIP3    H2 9619   4.426   1.593   4.588
 3205TIP3   OH2 9620   6.045   1.595   4.754
 3205TIP3    H1 9621   6.095   1.559   4.681
 3205TIP3    H2 9622   5.986   1.524   4.780
 3206TIP3   OH2 9623   5.640   4.924   4.269
 3206TIP3    H1 9624   5.561   4.975   4.252
 3206TIP3    H2 9625   5.610   4.853   4.327
 3207TIP3   OH2 9626   2.833   4.207   3.553
 3207TIP3    H1 9627   2.759   4.257   3.590
 3207TIP3    H2 9628   2.889   4.189   3.628
 3208TIP3   OH2 9629   4.955   4.501   1.241
 3208TIP3    H1 9630   4.933   4.413   1.270
 3208TIP3    H2 9631   5.003   4.489   1.159
 3209TIP3   OH2 9632   4.604   2.388   2.691
 3209TIP3    H1 9633   4.674   2.453   2.683
 3209TIP3    H2 9634   4.620   2.325   2.621
 3210TIP3   OH2 9635   0.348   2.698   2.101
 3210TIP3    H1 9636   0.416   2.747   2.054
 3210TIP3    H2 9637   0.396   2.649   2.168
 3211TIP3   OH2 9638   0.245   5.500   0.854
 3211TIP3    H1 9639   0.192   5.428   0.890
 3211TIP3    H2 9640   0.193   5.534   0.781
 3212TIP3   OH2 9641   1.806   0.670   0.073
 3212TIP3    H1 9642   1.729   0.723   0.091
 3212TIP3    H2 9643   1.805   0.658  -0.022
 3213TIP3   OH2 9644   6.114   5.570   4.321
 3213TIP3    H1 9645   6.163   5.628   4.379
 3213TIP3    H2 9646   6.028   5.562   4.363
 3214TIP3   OH2 9647   2.510   3.346   0.038
 3214TIP3    H1 9648   2.455   3.347  -0.040
 3214TIP3    H2 9649   2.448   3.348   0.111
 3215TIP3   OH2 9650   1.722   0.881   4.583
 3215TIP3    H1 9651   1.774   0.957   4.557
 3215TIP3    H2 9652   1.781   0.806   4.572
 3216TIP3   OH2 9653   1.354   1.409   4.348
 3216TIP3    H1 9654   1.391   1.340   4.403
 3216TIP3    H2 9655   1.268   1.426   4.386
 3217TIP3   OH2 9656   2.686   5.750   0.117
 3217TIP3    H1 9657   2.642   5.835   0.108
 3217TIP3    H2 9658   2.776   5.766   0.089
 3218TIP3   OH2 9659   3.333   4.181   1.073
 3218TIP3    H1 9660   3.327   4.088   1.097
 3218TIP3    H2 9661   3.426   4.197   1.061
 3219TIP3   OH2 9662   2.263   1.866   3.944
 3219TIP3    H1 9663   2.202   1.877   3.871
 3219TIP3    H2 9664   2.251   1.775   3.972
 3220TIP3   OH2 9665   0.346   3.228   2.194
 3220TIP3    H1 9666   0.340   3.323   2.191
 3220TIP3    H2 9667   0.301   3.198   2.115
 3221TIP3   OH2 9668   0.096   5.322   5.121
 3221TIP3    H1 9669   0.023   5.315   5.060
 3221TIP3    H2 9670   0.084   5.248   5.181
 3222TIP3   OH2 9671   3.568   4.321   2.298
 3222TIP3    H1 9672   3.609   4.407   2.302
 3222TIP3    H2 9673   3.486   4.336   2.250
 3223TIP3   OH2 9674   0.091   5.279   2.578
 3223TIP3    H1 9675   0.037   5.303   2.502
 3223TIP3    H2 9676   0.070   5.188   2.594
 3224TIP3   OH2 9677   0.976   2.479   0.033
 3224TIP3    H1 9678   0.945   2.539   0.101
 3224TIP3    H2 9679   1.034   2.532  -0.021
 3225TIP3   OH2 9680   4.585   5.050   3.269
 3225TIP3    H1 9681   4.632   4.992   3.329
 3225TIP3    H2 9682   4.636   5.048   3.188
 3226TIP3   OH2 9683   4.067   5.774   1.749
 3226TIP3    H1 9684   3.984   5.754   1.792
 3226TIP3    H2 9685   4.125   5.801   1.821
 3227TIP3   OH2 9686   2.252   3.680   0.625
 3227TIP3    H1 9687   2.199   3.760   0.625
 3227TIP3    H2 9688   2.200   3.617   0.576
 3228TIP3   OH2 9689   0.856   3.633   3.377
 3228TIP3    H1 9690   0.772   3.660   3.341
 3228TIP3    H2 9691   0.833   3.569   3.445
 3229TIP3   OH2 9692   2.586   0.711   4.090
 3229TIP3    H1 9693   2.526   0.761   4.035
 3229TIP3    H2 9694   2.631   0.777   4.142
 3230TIP3   OH2 9695   3.221   4.808   0.384
 3230TIP3    H1 9696   3.247   4.716   0.378
 3230TIP3    H2 9697   3.181   4.827   0.299
 3231TIP3   OH2 9698   0.915   1.780   2.746
 3231TIP3    H1 9699   0.887   1.692   2.721
 3231TIP3    H2 9700   0.995   1.795   2.697
 3232TIP3   OH2 9701   0.453   4.974   0.508
 3232TIP3    H1 9702   0.374   4.937   0.547
 3232TIP3    H2 9703   0.453   4.942   0.418
 3233TIP3   OH2 9704   4.412   0.932   0.630
 3233TIP3    H1 9705   4.322   0.922   0.659
 3233TIP3    H2 9706   4.455   0.850   0.656
 3234TIP3   OH2 9707   5.090   2.086   5.038
 3234TIP3    H1 9708   5.168   2.037   5.012
 3234TIP3    H2 9709   5.124   2.160   5.088
 3235TIP3   OH2 9710   2.669   5.892   0.407
 3235TIP3    H1 9711   2.650   5.894   0.314
 3235TIP3    H2 9712   2.650   5.981   0.437
 3236TIP3   OH2 9713   1.232   2.940   2.876
 3236TIP3    H1 9714   1.243   3.032   2.851
 3236TIP3    H2 9715   1.199   2.943   2.966
 3237TIP3   OH2 9716   4.078   2.105   5.138
 3237TIP3    H1 9717   4.125   2.026   5.112
 3237TIP3    H2 9718   3.991   2.094   5.100
 3238TIP3   OH2 9719   5.257   3.369   0.832
 3238TIP3    H1 9720   5.287   3.352   0.921
 3238TIP3    H2 9721   5.307   3.308   0.778
 3239TIP3   OH2 9722   3.476   2.287   0.193
 3239TIP3    H1 9723   3.417   2.349   0.236
 3239TIP3    H2 9724   3.564   2.315   0.220
 3240TIP3   OH2 9725   3.169   4.438   2.013
 3240TIP3    H1 9726   3.221   4.372   1.969
 3240TIP3    H2 9727   3.209   4.448   2.099
 3241TIP3   OH2 9728   1.152   0.816   0.783
 3241TIP3    H1 9729   1.109   0.731   0.771
 3241TIP3    H2 9730   1.087   0.880   0.754
 3242TIP3   OH2 9731   5.680   5.665   3.293
 3242TIP3    H1 9732   5.736   5.742   3.284
 3242TIP3    H2 9733   5.729   5.606   3.350
 3243TIP3   OH2 9734   3.149   0.331   3.791
 3243TIP3    H1 9735   3.239   0.298   3.788
 3243TIP3    H2 9736   3.134   0.367   3.704
 3244TIP3   OH2 9737   1.127   4.698   2.598
 3244TIP3    H1 9738   1.145   4.683   2.505
 3244TIP3    H2 9739   1.066   4.628   2.621
 3245TIP3   OH2 9740   4.172   3.543   1.659
 3245TIP3    H1 9741   4.231   3.536   1.734
 3245TIP3    H2 9742   4.091   3.580   1.695
 3246TIP3   OH2 9743   2.031   2.432   3.271
 3246TIP3    H1 9744   1.996   2.442   3.360
 3246TIP3    H2 9745   1.974   2.366   3.232
 3247TIP3   OH2 9746   1.717   3.775   5.013
 3247TIP3    H1 9747   1.639   3.815   4.975
 3247TIP3    H2 9748   1.742   3.707   4.951
 3248TIP3   OH2 9749   3.709   2.647   0.037
 3248TIP3    H1 9750   3.792   2.628   0.081
 3248TIP3    H2 9751   3.704   2.583  -0.034
 3249TIP3   OH2 9752   3.521   3.132   1.667
 3249TIP3    H1 9753   3.487   3.203   1.722
 3249TIP3    H2 9754   3.607   3.164   1.638
 3250TIP3   OH2 9755   5.747   1.563   3.858
 3250TIP3    H1 9756   5.674   1.524   3.809
 3250TIP3    H2 9757   5.790   1.489   3.901
 3251TIP3   OH2 9758   0.269   2.591   3.223
 3251TIP3    H1 9759   0.362   2.571   3.211
 3251TIP3    H2 9760   0.263   2.626   3.311
 3252TIP3   OH2 9761   3.296   1.336   4.960
 3252TIP3    H1 9762   3.257   1.251   4.941
 3252TIP3    H2 9763   3.304   1.379   4.875
 3253TIP3   OH2 9764   4.302   5.017   4.816
 3253TIP3    H1 9765   4.383   5.041   4.861
 3253TIP3    H2 9766   4.291   5.084   4.749
 3254TIP3   OH2 9767   5.355   4.854   4.245
 3254TIP3    H1 9768   5.272   4.851   4.198
 3254TIP3    H2 9769   5.344   4.792   4.317
 3255TIP3   OH2 9770   4.898   1.062   1.215
 3255TIP3    H1 9771   4.916   1.155   1.200
 3255TIP3    H2 9772   4.804   1.059   1.236
 3256TIP3   OH2 9773   3.068   2.029   1.439
 3256TIP3    H1 9774   3.163   2.017   1.448
 3256TIP3    H2 9775   3.030   1.969   1.503
 3257TIP3   OH2 9776   2.097   2.227   3.932
 3257TIP3    H1 9777   2.108   2.134   3.950
 3257TIP3    H2 9778   2.171   2.249   3.874
 3258TIP3   OH2 9779   2.398   0.149   1.148
 3258TIP3    H1 9780   2.478   0.146   1.095
 3258TIP3    H2 9781   2.364   0.060   1.145
 3259TIP3   OH2 9782   2.625   0.430   5.061
 3259TIP3    H1 9783   2.593   0.481   4.987
 3259TIP3    H2 9784   2.690   0.486   5.104
 3260TIP3   OH2 9785   2.912   2.983   0.066
 3260TIP3    H1 9786   2.823   2.999   0.097
 3260TIP3    H2 9787   2.966   3.046   0.114
 3261TIP3   OH2 9788   5.468   0.081   4.674
 3261TIP3    H1 9789   5.523   0.128   4.611
 3261TIP3    H2 9790   5.418   0.019   4.621
 3262TIP3   OH2 9791   1.096   2.384   3.357
 3262TIP3    H1 9792   1.142   2.466   3.341
 3262TIP3    H2 9793   1.106   2.334   3.277
 3263TIP3   OH2 9794   1.429   0.035   0.935
 3263TIP3    H1 9795   1.496   0.054   1.001
 3263TIP3    H2 9796   1.357   0.094   0.955
 3264TIP3   OH2 9797   1.499   5.292   2.384
 3264TIP3    H1 9798   1.491   5.381   2.419
 3264TIP3    H2 9799   1.531   5.239   2.457
 3265TIP3   OH2 9800   6.213   4.939   1.599
 3265TIP3    H1 9801   6.131   4.959   1.644
 3265TIP3    H2 9802   6.190   4.935   1.506
 3266TIP3   OH2 9803   1.097   2.817   2.179
 3266TIP3    H1 9804   1.054   2.804   2.094
 3266TIP3    H2 9805   1.186   2.843   2.156
 3267TIP3   OH2 9806   1.285   3.566   2.799
 3267TIP3    H1 9807   1.343   3.524   2.736
 3267TIP3    H2 9808   1.278   3.657   2.768
 3268TIP3   OH2 9809   5.792   1.251   4.640
 3268TIP3    H1 9810   5.810   1.274   4.549
 3268TIP3    H2 9811   5.849   1.308   4.691
 3269TIP3   OH2 9812   4.789   2.260   3.298
 3269TIP3    H1 9813   4.809   2.178   3.342
 3269TIP3    H2 9814   4.773   2.322   3.369
 3270TIP3   OH2 9815   3.593   1.488   4.987
 3270TIP3    H1 9816   3.659   1.486   5.057
 3270TIP3    H2 9817   3.603   1.403   4.943
 3271TIP3   OH2 9818   4.616   2.855   4.786
 3271TIP3    H1 9819   4.531   2.825   4.755
 3271TIP3    H2 9820   4.597   2.905   4.865
 3272TIP3   OH2 9821   0.144   5.788   3.888
 3272TIP3    H1 9822   0.238   5.786   3.903
 3272TIP3    H2 9823   0.105   5.778   3.975
 3273TIP3   OH2 9824   4.672   3.941   1.357
 3273TIP3    H1 9825   4.710   3.883   1.291
 3273TIP3    H2 9826   4.746   3.967   1.412
 3274TIP3   OH2 9827   6.019   2.955   0.926
 3274TIP3    H1 9828   5.957   2.940   0.854
 3274TIP3    H2 9829   6.080   2.882   0.920
 3275TIP3   OH2 9830   0.204   2.342   0.302
 3275TIP3    H1 9831   0.131   2.339   0.363
 3275TIP3    H2 9832   0.199   2.259   0.254
 3276TIP3   OH2 9833   2.067   4.323   0.326
 3276TIP3    H1 9834   2.128   4.260   0.289
 3276TIP3    H2 9835   2.117   4.367   0.395
 3277TIP3   OH2 9836   4.395   1.736   0.189
 3277TIP3    H1 9837   4.374   1.654   0.234
 3277TIP3    H2 9838   4.480   1.762   0.226
 3278TIP3   OH2 9839   2.635   4.537   0.481
 3278TIP3    H1 9840   2.596   4.624   0.474
 3278TIP3    H2 9841   2.604   4.490   0.404
 3279TIP3   OH2 9842   3.637   0.696   2.697
 3279TIP3    H1 9843   3.660   0.605   2.682
 3279TIP3    H2 9844   3.541   0.699   2.688
 3280TIP3   OH2 9845   6.285   4.459   2.554
 3280TIP3    H1 9846   6.369   4.480   2.596
 3280TIP3    H2 9847   6.295   4.369   2.525
 3281TIP3   OH2 9848   5.472   5.572   4.039
 3281TIP3    H1 9849   5.404   5.505   4.044
 3281TIP3    H2 9850   5.502   5.568   3.948
 3282TIP3   OH2 9851   4.504   3.743   1.382
 3282TIP3    H1 9852   4.566   3.815   1.374
 3282TIP3    H2 9853   4.511   3.715   1.474
 3283TIP3   OH2 9854   5.495   0.646   1.032
 3283TIP3    H1 9855   5.551   0.665   1.107
 3283TIP3    H2 9856   5.416   0.606   1.069
 3284TIP3   OH2 9857   2.968   3.358   0.320
 3284TIP3    H1 9858   3.028   3.423   0.283
 3284TIP3    H2 9859   2.888   3.369   0.269
 3285TIP3   OH2 9860   4.476   3.894   2.879
 3285TIP3    H1 9861   4.514   3.866   2.963
 3285TIP3    H2 9862   4.498   3.824   2.818
 3286TIP3   OH2 9863   0.290   4.336   0.348
 3286TIP3    H1 9864   0.335   4.261   0.386
 3286TIP3    H2 9865   0.280   4.313   0.255
 3287TIP3   OH2 9866   1.780   3.682   2.490
 3287TIP3    H1 9867   1.768   3.727   2.406
 3287TIP3    H2 9868   1.786   3.589   2.466
 3288TIP3   OH2 9869   0.779   2.158   2.524
 3288TIP3    H1 9870   0.742   2.201   2.447
 3288TIP3    H2 9871   0.804   2.071   2.494
 3289TIP3   OH2 9872   0.549   4.948   2.385
 3289TIP3    H1 9873   0.494   4.892   2.440
 3289TIP3    H2 9874   0.513   5.036   2.397
 3290TIP3   OH2 9875   5.164   0.337   2.582
 3290TIP3    H1 9876   5.257   0.342   2.606
 3290TIP3    H2 9877   5.146   0.419   2.537
 3291TIP3   OH2 9878   1.499   5.716   0.525
 3291TIP3    H1 9879   1.467   5.626   0.516
 3291TIP3    H2 9880   1.578   5.709   0.579
 3292TIP3   OH2 9881   2.482   0.217   2.815
 3292TIP3    H1 9882   2.510   0.211   2.907
 3292TIP3    H2 9883   2.418   0.288   2.814
 3293TIP3   OH2 9884   3.748   4.145   2.911
 3293TIP3    H1 9885   3.730   4.098   2.829
 3293TIP3    H2 9886   3.813   4.211   2.886
 3294TIP3   OH2 9887   6.291   0.829   1.904
 3294TIP3    H1 9888   6.278   0.746   1.950
 3294TIP3    H2 9889   6.247   0.894   1.959
 3295TIP3   OH2 9890   2.630   5.000   1.507
 3295TIP3    H1 9891   2.724   4.983   1.500
 3295TIP3    H2 9892   2.608   4.976   1.596
 3296TIP3   OH2 9893   0.361   1.404   2.048
 3296TIP3    H1 9894   0.269   1.395   2.074
 3296TIP3    H2 9895   0.374   1.339   1.979
 3297TIP3   OH2 9896   0.263   1.373   1.059
 3297TIP3    H1 9897   0.332   1.377   1.125
 3297TIP3    H2 9898   0.205   1.446   1.080
 3298TIP3   OH2 9899   1.843   1.099   4.452
 3298TIP3    H1 9900   1.800   1.162   4.394
 3298TIP3    H2 9901   1.914   1.149   4.492
 3299TIP3   OH2 9902   2.049   5.433   3.040
 3299TIP3    H1 9903   1.959   5.428   3.072
 3299TIP3    H2 9904   2.046   5.396   2.952
 3300TIP3   OH2 9905   2.318   5.412   4.300
 3300TIP3    H1 9906   2.285   5.481   4.358
 3300TIP3    H2 9907   2.339   5.458   4.218
 3301TIP3   OH2 9908   0.826   5.248   1.101
 3301TIP3    H1 9909   0.831   5.158   1.134
 3301TIP3    H2 9910   0.732   5.265   1.093
 3302TIP3   OH2 9911   0.331   5.314   2.699
 3302TIP3    H1 9912   0.261   5.280   2.643
 3302TIP3    H2 9913   0.285   5.366   2.765
 3303TIP3   OH2 9914   1.834   3.803   0.457
 3303TIP3    H1 9915   1.916   3.768   0.424
 3303TIP3    H2 9916   1.771   3.731   0.447
 3304TIP3   OH2 9917   4.774   1.059   0.172
 3304TIP3    H1 9918   4.678   1.053   0.175
 3304TIP3    H2 9919   4.793   1.092   0.084
 3305TIP3   OH2 9920   1.694   5.664   3.809
 3305TIP3    H1 9921   1.618   5.665   3.750
 3305TIP3    H2 9922   1.676   5.592   3.869
 3306TIP3   OH2 9923   3.990   3.602   3.056
 3306TIP3    H1 9924   3.964   3.536   2.992
 3306TIP3    H2 9925   4.033   3.553   3.126
 3307TIP3   OH2 9926   3.826   4.413   2.015
 3307TIP3    H1 9927   3.742   4.435   1.974
 3307TIP3    H2 9928   3.814   4.322   2.044
 3308TIP3   OH2 9929   3.895   5.439   2.318
 3308TIP3    H1 9930   3.947   5.359   2.309
 3308TIP3    H2 9931   3.924   5.495   2.246
 3309TIP3   OH2 9932   5.585   2.731   1.316
 3309TIP3    H1 9933   5.679   2.733   1.333
 3309TIP3    H2 9934   5.568   2.643   1.283
 3310TIP3   OH2 9935   5.488   5.158   5.167
 3310TIP3    H1 9936   5.502   5.064   5.182
 3310TIP3    H2 9937   5.522   5.200   5.245
 3311TIP3   OH2 9938   5.761   2.371   5.076
 3311TIP3    H1 9939   5.686   2.337   5.029
 3311TIP3    H2 9940   5.788   2.300   5.135
 3312TIP3   OH2 9941   1.458   2.071   0.307
 3312TIP3    H1 9942   1.419   2.029   0.230
 3312TIP3    H2 9943   1.552   2.053   0.299
 3313TIP3   OH2 9944   0.468   4.347   4.163
 3313TIP3    H1 9945   0.530   4.407   4.122
 3313TIP3    H2 9946   0.504   4.331   4.250
 3314TIP3   OH2 9947   1.285   5.201   0.322
 3314TIP3    H1 9948   1.376   5.185   0.345
 3314TIP3    H2 9949   1.242   5.116   0.332
 3315TIP3   OH2 9950   1.998   3.815   1.780
 3315TIP3    H1 9951   2.003   3.719   1.782
 3315TIP3    H2 9952   2.018   3.842   1.870
 3316TIP3   OH2 9953   5.067   5.671   3.196
 3316TIP3    H1 9954   5.065   5.687   3.102
 3316TIP3    H2 9955   5.101   5.582   3.204
 3317TIP3   OH2 9956   4.857   1.740   2.871
 3317TIP3    H1 9957   4.820   1.660   2.833
 3317TIP3    H2 9958   4.947   1.743   2.840
 3318TIP3   OH2 9959   1.619   4.433   4.896
 3318TIP3    H1 9960   1.526   4.415   4.910
 3318TIP3    H2 9961   1.629   4.435   4.801
 3319TIP3   OH2 9962   4.901   5.087   1.950
 3319TIP3    H1 9963   4.893   4.992   1.957
 3319TIP3    H2 9964   4.859   5.108   1.866
 3320TIP3   OH2 9965   2.515   5.617   5.188
 3320TIP3    H1 9966   2.518   5.603   5.093
 3320TIP3    H2 9967   2.590   5.674   5.205
 3321TIP3   OH2 9968   4.921   5.257   2.163
 3321TIP3    H1 9969   4.870   5.231   2.240
 3321TIP3    H2 9970   4.893   5.197   2.094
 3322TIP3   OH2 9971   1.203   2.425   3.820
 3322TIP3    H1 9972   1.146   2.352   3.845
 3322TIP3    H2 9973   1.168   2.500   3.868
 3323TIP3   OH2 9974   1.572   2.188   1.435
 3323TIP3    H1 9975   1.503   2.232   1.484
 3323TIP3    H2 9976   1.647   2.248   1.439
 3324TIP3   OH2 9977   4.661   3.565   2.913
 3324TIP3    H1 9978   4.692   3.484   2.872
 3324TIP3    H2 9979   4.612   3.610   2.845
 3325TIP3   OH2 9980   0.177   3.659   1.299
 3325TIP3    H1 9981   0.194   3.697   1.385
 3325TIP3    H2 9982   0.122   3.583   1.316
 3326TIP3   OH2 9983   0.347   4.955   4.926
 3326TIP3    H1 9984   0.349   5.033   4.981
 3326TIP3    H2 9985   0.332   4.882   4.986
 3327TIP3   OH2 9986   1.215   2.079   1.080
 3327TIP3    H1 9987   1.247   2.149   1.136
 3327TIP3    H2 9988   1.120   2.079   1.092
 3328TIP3   OH2 9989   5.812   2.001   2.362
 3328TIP3    H1 9990   5.811   2.096   2.377
 3328TIP3    H2 9991   5.740   1.986   2.301
 3329TIP3   OH2 9992   2.691   5.704   2.377
 3329TIP3    H1 9993   2.685   5.679   2.469
 3329TIP3    H2 9994   2.661   5.626   2.329
 3330TIP3   OH2 9995   5.446   0.699   3.377
 3330TIP3    H1 9996   5.489   0.676   3.460
 3330TIP3    H2 9997   5.515   0.741   3.326
 3331TIP3   OH2 9998   2.101   3.907   0.637
 3331TIP3    H1 9999   2.109   4.003   0.631
 3331TIP3    H210000   2.084   3.880   0.547
 3332TIP3   OH210001   0.927   3.983   0.318
 3332TIP3    H110002   0.890   3.896   0.335
 3332TIP3    H210003   0.927   3.990   0.222
 3333TIP3   OH210004   0.853   5.096   4.138
 3333TIP3    H110005   0.902   5.150   4.076
 3333TIP3    H210006   0.921   5.051   4.189
 3334TIP3   OH210007   5.397   5.843   1.351
 3334TIP3    H110008   5.406   5.915   1.414
 3334TIP3    H210009   5.347   5.776   1.399
 3335TIP3   OH210010   5.610   3.462   3.579
 3335TIP3    H110011   5.641   3.373   3.598
 3335TIP3    H210012   5.668   3.492   3.508
 3336TIP3   OH210013   5.028   1.335   0.727
 3336TIP3    H110014   5.026   1.428   0.748
 3336TIP3    H210015   5.025   1.331   0.631
 3337TIP3   OH210016   4.107   3.429   2.586
 3337TIP3    H110017   4.189   3.475   2.603
 3337TIP3    H210018   4.133   3.350   2.538
 3338TIP3   OH210019   0.043   0.449   0.812
 3338TIP3    H110020   0.109   0.485   0.871
 3338TIP3    H210021   0.041   0.355   0.831
 3339TIP3   OH210022   2.867   1.499   3.265
 3339TIP3    H110023   2.785   1.533   3.227
 3339TIP3    H210024   2.918   1.471   3.189
 3340TIP3   OH210025   3.557   5.349   0.237
 3340TIP3    H110026   3.517   5.262   0.241
 3340TIP3    H210027   3.483   5.409   0.235
 3341TIP3   OH210028   2.396   5.157   4.294
 3341TIP3    H110029   2.351   5.120   4.218
 3341TIP3    H210030   2.372   5.249   4.294
 3342TIP3   OH210031   5.192   4.973   2.659
 3342TIP3    H110032   5.187   4.930   2.574
 3342TIP3    H210033   5.271   4.938   2.699
 3343TIP3   OH210034   1.110   0.061   1.531
 3343TIP3    H110035   1.157   0.132   1.575
 3343TIP3    H210036   1.018   0.076   1.553
 3344TIP3   OH210037   4.775   0.926   1.459
 3344TIP3    H110038   4.718   0.993   1.495
 3344TIP3    H210039   4.716   0.855   1.434
 3345TIP3   OH210040   1.412   3.705   4.566
 3345TIP3    H110041   1.420   3.763   4.490
 3345TIP3    H210042   1.485   3.644   4.557
 3346TIP3   OH210043   4.488   2.375   1.705
 3346TIP3    H110044   4.500   2.300   1.647
 3346TIP3    H210045   4.512   2.342   1.792
 3347TIP3   OH210046   5.565   1.390   3.714
 3347TIP3    H110047   5.509   1.408   3.638
 3347TIP3    H210048   5.583   1.296   3.708
 3348TIP3   OH210049   4.458   0.364   3.282
 3348TIP3    H110050   4.394   0.360   3.353
 3348TIP3    H210051   4.407   0.342   3.204
 3349TIP3   OH210052   5.344   4.651   4.443
 3349TIP3    H110053   5.328   4.611   4.529
 3349TIP3    H210054   5.436   4.678   4.446
 3350TIP3   OH210055   5.248   5.273   4.287
 3350TIP3    H110056   5.186   5.223   4.234
 3350TIP3    H210057   5.218   5.261   4.377
 3351TIP3   OH210058   4.180   1.870   0.041
 3351TIP3    H110059   4.252   1.809   0.053
 3351TIP3    H210060   4.112   1.820  -0.005
 3352TIP3   OH210061   3.469   3.000   4.262
 3352TIP3    H110062   3.412   3.076   4.276
 3352TIP3    H210063   3.469   2.987   4.167
 3353TIP3   OH210064   2.396   3.331   3.472
 3353TIP3    H110065   2.459   3.335   3.544
 3353TIP3    H210066   2.450   3.332   3.393
 3354TIP3   OH210067   6.343   5.302   2.020
 3354TIP3    H110068   6.399   5.374   1.993
 3354TIP3    H210069   6.254   5.338   2.020
 3355TIP3   OH210070   0.471   0.310   2.712
 3355TIP3    H110071   0.547   0.286   2.658
 3355TIP3    H210072   0.495   0.394   2.752
 3356TIP3   OH210073   3.128   0.850   3.017
 3356TIP3    H110074   3.105   0.773   2.965
 3356TIP3    H210075   3.157   0.816   3.101
 3357TIP3   OH210076   3.024  -0.030   4.527
 3357TIP3    H110077   3.032   0.007   4.439
 3357TIP3    H210078   2.940   0.002   4.559
 3358TIP3   OH210079   3.089   4.167   3.268
 3358TIP3    H110080   3.037   4.198   3.342
 3358TIP3    H210081   3.034   4.186   3.191
 3359TIP3   OH210082   2.365   2.914   3.655
 3359TIP3    H110083   2.360   3.008   3.670
 3359TIP3    H210084   2.453   2.899   3.620
 3360TIP3   OH210085   5.691   2.282   4.735
 3360TIP3    H110086   5.785   2.272   4.746
 3360TIP3    H210087   5.653   2.231   4.807
 3361TIP3   OH210088   4.195   0.493   2.285
 3361TIP3    H110089   4.143   0.414   2.300
 3361TIP3    H210090   4.135   0.554   2.241
 3362TIP3   OH210091   1.679   4.832   1.534
 3362TIP3    H110092   1.621   4.804   1.463
 3362TIP3    H210093   1.688   4.927   1.521
 3363TIP3   OH210094   2.168   0.612   0.742
 3363TIP3    H110095   2.149   0.677   0.810
 3363TIP3    H210096   2.263   0.611   0.736
 3364TIP3   OH210097   2.738   0.342   4.226
 3364TIP3    H110098   2.796   0.400   4.275
 3364TIP3    H210099   2.721   0.269   4.286
 3365TIP3   OH210100   2.456   4.795   4.580
 3365TIP3    H110101   2.405   4.717   4.600
 3365TIP3    H210102   2.531   4.762   4.531
 3366TIP3   OH210103   5.826   5.830   4.171
 3366TIP3    H110104   5.783   5.805   4.253
 3366TIP3    H210105   5.757   5.821   4.105
 3367TIP3   OH210106   2.674   4.823   3.689
 3367TIP3    H110107   2.634   4.906   3.714
 3367TIP3    H210108   2.755   4.819   3.740
 3368TIP3   OH210109   6.123   3.856   2.717
 3368TIP3    H110110   6.148   3.786   2.657
 3368TIP3    H210111   6.182   3.928   2.695
 3369TIP3   OH210112   5.685   2.017   2.927
 3369TIP3    H110113   5.766   2.040   2.973
 3369TIP3    H210114   5.623   2.085   2.951
 3370TIP3   OH210115   3.269   5.376   2.173
 3370TIP3    H110116   3.341   5.422   2.129
 3370TIP3    H210117   3.261   5.293   2.126
 3371TIP3   OH210118   2.932   4.816   0.564
 3371TIP3    H110119   3.011   4.821   0.618
 3371TIP3    H210120   2.963   4.820   0.474
 3372TIP3   OH210121   6.205   4.145   2.110
 3372TIP3    H110122   6.296   4.169   2.125
 3372TIP3    H210123   6.207   4.092   2.030
 3373TIP3   OH210124   4.668   1.577   2.090
 3373TIP3    H110125   4.605   1.612   2.153
 3373TIP3    H210126   4.747   1.560   2.143
 3374TIP3   OH210127   5.094   4.438   2.150
 3374TIP3    H110128   5.059   4.350   2.164
 3374TIP3    H210129   5.114   4.441   2.057
 3375TIP3   OH210130   5.608   2.203   2.402
 3375TIP3    H110131   5.680   2.261   2.380
 3375TIP3    H210132   5.610   2.197   2.497
 3376TIP3   OH210133   1.351   0.043   2.228
 3376TIP3    H110134   1.282   0.001   2.280
 3376TIP3    H210135   1.432   0.022   2.275
 3377TIP3   OH210136   5.635   0.151   1.430
 3377TIP3    H110137   5.541   0.145   1.416
 3377TIP3    H210138   5.661   0.063   1.460
 3378TIP3   OH210139   4.488   1.487   1.635
 3378TIP3    H110140   4.421   1.484   1.566
 3378TIP3    H210141   4.476   1.404   1.682
 3379TIP3   OH210142   4.155   4.376   0.825
 3379TIP3    H110143   4.161   4.458   0.775
 3379TIP3    H210144   4.061   4.361   0.835
 3380TIP3   OH210145   3.373   4.530   1.244
 3380TIP3    H110146   3.405   4.452   1.288
 3380TIP3    H210147   3.449   4.588   1.240
 3381TIP3   OH210148   0.306   1.132   0.948
 3381TIP3    H110149   0.270   1.215   0.979
 3381TIP3    H210150   0.264   1.118   0.863
 3382TIP3   OH210151   4.480   5.467   3.866
 3382TIP3    H110152   4.417   5.538   3.871
 3382TIP3    H210153   4.525   5.481   3.783
 3383TIP3   OH210154   0.709   5.279   3.680
 3383TIP3    H110155   0.716   5.353   3.740
 3383TIP3    H210156   0.616   5.256   3.680
 3384TIP3   OH210157   2.777   4.207   2.420
 3384TIP3    H110158   2.723   4.152   2.476
 3384TIP3    H210159   2.864   4.169   2.426
 3385TIP3   OH210160   4.837   0.411   0.503
 3385TIP3    H110161   4.895   0.425   0.579
 3385TIP3    H210162   4.762   0.468   0.519
 3386TIP3   OH210163   4.186   0.602   4.706
 3386TIP3    H110164   4.118   0.669   4.719
 3386TIP3    H210165   4.142   0.533   4.657
 3387TIP3   OH210166   6.080   5.294   0.145
 3387TIP3    H110167   6.124   5.225   0.096
 3387TIP3    H210168   6.090   5.267   0.237
 3388TIP3   OH210169   1.336   3.646   0.418
 3388TIP3    H110170   1.392   3.595   0.360
 3388TIP3    H210171   1.391   3.663   0.495
 3389TIP3   OH210172   2.995   3.923   3.868
 3389TIP3    H110173   3.025   3.885   3.950
 3389TIP3    H210174   3.016   3.856   3.802
 3390TIP3   OH210175   0.169   5.146   3.118
 3390TIP3    H110176   0.237   5.123   3.181
 3390TIP3    H210177   0.101   5.188   3.170
 3391TIP3   OH210178   4.878   1.550   2.265
 3391TIP3    H110179   4.842   1.514   2.346
 3391TIP3    H210180   4.960   1.502   2.252
 3392TIP3   OH210181   5.585   3.620   0.989
 3392TIP3    H110182   5.501   3.580   1.012
 3392TIP3    H210183   5.587   3.702   1.037
 3393TIP3   OH210184   0.320   5.312   1.481
 3393TIP3    H110185   0.356   5.321   1.569
 3393TIP3    H210186   0.249   5.376   1.477
 3394TIP3   OH210187   0.397   2.188   1.499
 3394TIP3    H110188   0.352   2.249   1.557
 3394TIP3    H210189   0.373   2.216   1.410
 3395TIP3   OH210190   5.108   3.271   0.094
 3395TIP3    H110191   5.156   3.248   0.015
 3395TIP3    H210192   5.151   3.350   0.126
 3396TIP3   OH210193   3.337   5.703   2.188
 3396TIP3    H110194   3.245   5.723   2.172
 3396TIP3    H210195   3.347   5.612   2.161
 3397TIP3   OH210196   5.925   0.063   4.947
 3397TIP3    H110197   5.847   0.079   4.895
 3397TIP3    H210198   5.991   0.123   4.911
 3398TIP3   OH210199   3.695   3.002   4.825
 3398TIP3    H110200   3.607   2.974   4.801
 3398TIP3    H210201   3.733   2.928   4.871
 3399TIP3   OH210202   4.487   5.978   4.554
 3399TIP3    H110203   4.514   5.887   4.541
 3399TIP3    H210204   4.569   6.028   4.549
 3400TIP3   OH210205   1.539   5.102   0.034
 3400TIP3    H110206   1.576   5.016   0.013
 3400TIP3    H210207   1.572   5.122   0.121
 3401TIP3   OH210208   1.784   2.403   5.145
 3401TIP3    H110209   1.853   2.362   5.093
 3401TIP3    H210210   1.721   2.333   5.161
 3402TIP3   OH210211   0.788   5.416   2.826
 3402TIP3    H110212   0.810   5.359   2.900
 3402TIP3    H210213   0.862   5.476   2.820
 3403TIP3   OH210214   3.471   0.563   4.290
 3403TIP3    H110215   3.476   0.511   4.370
 3403TIP3    H210216   3.481   0.500   4.219
 3404TIP3   OH210217   4.069   3.824   4.743
 3404TIP3    H110218   4.129   3.869   4.683
 3404TIP3    H210219   4.102   3.846   4.830
 3405TIP3   OH210220   2.233   5.782   2.237
 3405TIP3    H110221   2.216   5.721   2.166
 3405TIP3    H210222   2.325   5.806   2.227
 3406TIP3   OH210223   5.230   3.840   2.249
 3406TIP3    H110224   5.321   3.867   2.238
 3406TIP3    H210225   5.234   3.745   2.260
 3407TIP3   OH210226   4.867   5.553   0.964
 3407TIP3    H110227   4.872   5.479   1.025
 3407TIP3    H210228   4.809   5.522   0.894
 3408TIP3   OH210229   6.315   3.400   3.319
 3408TIP3    H110230   6.254   3.421   3.390
 3408TIP3    H210231   6.278   3.321   3.279
 3409TIP3   OH210232   2.837   5.887   3.593
 3409TIP3    H110233   2.851   5.821   3.525
 3409TIP3    H210234   2.811   5.836   3.670
 3410TIP3   OH210235   6.094   3.841   0.581
 3410TIP3    H110236   6.064   3.929   0.559
 3410TIP3    H210237   6.174   3.855   0.633
 3411TIP3   OH210238   3.913   2.100   0.192
 3411TIP3    H110239   3.860   2.145   0.126
 3411TIP3    H210240   3.880   2.010   0.192
 3412TIP3   OH210241   0.115   3.565   3.102
 3412TIP3    H110242   0.072   3.519   3.174
 3412TIP3    H210243   0.044   3.613   3.059
 3413TIP3   OH210244   2.799   4.465   4.931
 3413TIP3    H110245   2.818   4.375   4.957
 3413TIP3    H210246   2.727   4.458   4.869
 3414TIP3   OH210247   5.150   5.223   4.548
 3414TIP3    H110248   5.163   5.130   4.525
 3414TIP3    H210249   5.055   5.234   4.550
 3415TIP3   OH210250   4.560   2.216   1.919
 3415TIP3    H110251   4.468   2.229   1.943
 3415TIP3    H210252   4.564   2.127   1.884
 3416TIP3   OH210253   0.129   2.276   1.482
 3416TIP3    H110254   0.116   2.340   1.412
 3416TIP3    H210255   0.115   2.325   1.563
 3417TIP3   OH210256   4.007   2.241   2.857
 3417TIP3    H110257   3.925   2.219   2.812
 3417TIP3    H210258   3.982   2.309   2.920
 3418TIP3   OH210259   3.926   4.575   2.588
 3418TIP3    H110260   3.954   4.536   2.505
 3418TIP3    H210261   3.864   4.511   2.624
 3419TIP3   OH210262   2.555   3.427   2.960
 3419TIP3    H110263   2.593   3.494   2.903
 3419TIP3    H210264   2.464   3.419   2.931
 3420TIP3   OH210265   0.767   1.333   2.204
 3420TIP3    H110266   0.693   1.393   2.196
 3420TIP3    H210267   0.776   1.293   2.118
 3421TIP3   OH210268   3.187   0.947   1.835
 3421TIP3    H110269   3.190   0.924   1.928
 3421TIP3    H210270   3.259   0.898   1.795
 3422TIP3   OH210271   5.315   1.998   1.040
 3422TIP3    H110272   5.397   1.972   1.083
 3422TIP3    H210273   5.287   2.076   1.087
 3423TIP3   OH210274   2.143   2.333   0.332
 3423TIP3    H110275   2.121   2.261   0.273
 3423TIP3    H210276   2.145   2.410   0.276
 3424TIP3   OH210277   6.355   2.732   5.093
 3424TIP3    H110278   6.377   2.770   5.008
 3424TIP3    H210279   6.261   2.749   5.103
 3425TIP3   OH210280   1.521   3.282   2.448
 3425TIP3    H110281   1.473   3.305   2.528
 3425TIP3    H210282   1.476   3.204   2.415
 3426TIP3   OH210283   5.952   5.099   4.947
 3426TIP3    H110284   5.903   5.018   4.964
 3426TIP3    H210285   5.950   5.108   4.851
 3427TIP3   OH210286   4.882   4.026   1.507
 3427TIP3    H110287   4.962   3.976   1.488
 3427TIP3    H210288   4.908   4.088   1.575
 3428TIP3   OH210289   1.283   2.088   1.750
 3428TIP3    H110290   1.270   1.997   1.724
 3428TIP3    H210291   1.194   2.124   1.754
 3429TIP3   OH210292   1.781   1.881   0.369
 3429TIP3    H110293   1.863   1.833   0.359
 3429TIP3    H210294   1.754   1.902   0.280
 3430TIP3   OH210295   3.232   1.498   3.687
 3430TIP3    H110296   3.199   1.510   3.598
 3430TIP3    H210297   3.185   1.421   3.720
 3431TIP3   OH210298   4.588   0.488   1.226
 3431TIP3    H110299   4.610   0.398   1.251
 3431TIP3    H210300   4.527   0.477   1.152
 3432TIP3   OH210301   1.345   4.912   2.986
 3432TIP3    H110302   1.425   4.964   2.971
 3432TIP3    H210303   1.289   4.932   2.910
 3433TIP3   OH210304   6.061   0.059   2.089
 3433TIP3    H110305   6.128   0.012   2.040
 3433TIP3    H210306   6.097   0.070   2.176
 3434TIP3   OH210307   1.903   3.042   1.913
 3434TIP3    H110308   1.903   2.947   1.899
 3434TIP3    H210309   1.873   3.053   2.003
 3435TIP3   OH210310   1.723   4.191   3.930
 3435TIP3    H110311   1.786   4.245   3.978
 3435TIP3    H210312   1.738   4.213   3.838
 3436TIP3   OH210313   0.289   2.038   1.058
 3436TIP3    H110314   0.227   2.061   1.128
 3436TIP3    H210315   0.374   2.037   1.102
 3437TIP3   OH210316   2.136   4.446   2.448
 3437TIP3    H110317   2.074   4.474   2.380
 3437TIP3    H210318   2.192   4.381   2.405
 3438TIP3   OH210319   0.572   0.477   0.230
 3438TIP3    H110320   0.547   0.385   0.222
 3438TIP3    H210321   0.510   0.523   0.174
 3439TIP3   OH210322   5.874   0.071   1.879
 3439TIP3    H110323   5.929   0.068   1.957
 3439TIP3    H210324   5.806   0.136   1.901
 3440TIP3   OH210325   5.241   2.563   3.426
 3440TIP3    H110326   5.164   2.518   3.393
 3440TIP3    H210327   5.242   2.543   3.520
 3441TIP3   OH210328   3.913   3.039   1.186
 3441TIP3    H110329   3.989   3.013   1.240
 3441TIP3    H210330   3.849   2.970   1.202
 3442TIP3   OH210331   6.133   5.242   3.650
 3442TIP3    H110332   6.192   5.289   3.708
 3442TIP3    H210333   6.190   5.187   3.597
 3443TIP3   OH210334   5.423   4.018   3.599
 3443TIP3    H110335   5.451   3.930   3.572
 3443TIP3    H210336   5.382   4.055   3.521
 3444TIP3   OH210337   2.239   3.497   3.897
 3444TIP3    H110338   2.289   3.571   3.863
 3444TIP3    H210339   2.149   3.529   3.902
 3445TIP3   OH210340   3.901   5.608   0.277
 3445TIP3    H110341   3.811   5.635   0.258
 3445TIP3    H210342   3.893   5.543   0.346
 3446TIP3   OH210343   4.191   1.707   3.258
 3446TIP3    H110344   4.175   1.801   3.256
 3446TIP3    H210345   4.286   1.699   3.264
 3447TIP3   OH210346   3.094   1.789   1.173
 3447TIP3    H110347   3.022   1.795   1.236
 3447TIP3    H210348   3.087   1.870   1.122
 3448TIP3   OH210349   0.813   2.611   3.720
 3448TIP3    H110350   0.838   2.519   3.727
 3448TIP3    H210351   0.822   2.632   3.627
 3449TIP3   OH210352   6.188   5.090   2.164
 3449TIP3    H110353   6.217   5.016   2.111
 3449TIP3    H210354   6.190   5.165   2.104
 3450TIP3   OH210355   5.424   0.987   3.810
 3450TIP3    H110356   5.334   0.953   3.811
 3450TIP3    H210357   5.417   1.072   3.855
 3451TIP3   OH210358   0.188   3.314   1.129
 3451TIP3    H110359   0.283   3.312   1.141
 3451TIP3    H210360   0.176   3.309   1.034
 3452TIP3   OH210361   4.789   4.045   0.383
 3452TIP3    H110362   4.694   4.056   0.391
 3452TIP3    H210363   4.800   3.982   0.312
 3453TIP3   OH210364   4.422   2.930   2.339
 3453TIP3    H110365   4.503   2.912   2.388
 3453TIP3    H210366   4.392   2.844   2.311
 3454TIP3   OH210367   4.256   0.112   3.180
 3454TIP3    H110368   4.177   0.061   3.164
 3454TIP3    H210369   4.321   0.077   3.118
 3455TIP3   OH210370   2.640   1.797   4.647
 3455TIP3    H110371   2.731   1.811   4.622
 3455TIP3    H210372   2.603   1.741   4.579
 3456TIP3   OH210373   0.474   4.647   4.816
 3456TIP3    H110374   0.526   4.567   4.807
 3456TIP3    H210375   0.475   4.666   4.910
 3457TIP3   OH210376   0.893   0.678   3.830
 3457TIP3    H110377   0.870   0.678   3.923
 3457TIP3    H210378   0.980   0.718   3.827
 3458TIP3   OH210379   2.812   1.421   1.998
 3458TIP3    H110380   2.861   1.430   2.080
 3458TIP3    H210381   2.870   1.457   1.931
 3459TIP3   OH210382   5.583   1.735   2.482
 3459TIP3    H110383   5.551   1.770   2.399
 3459TIP3    H210384   5.589   1.641   2.467
 3460TIP3   OH210385   0.897   1.505   4.232
 3460TIP3    H110386   0.866   1.453   4.306
 3460TIP3    H210387   0.843   1.476   4.158
 3461TIP3   OH210388   4.801   4.721   2.426
 3461TIP3    H110389   4.805   4.778   2.350
 3461TIP3    H210390   4.807   4.781   2.501
 3462TIP3   OH210391   3.223   5.336   4.935
 3462TIP3    H110392   3.151   5.363   4.992
 3462TIP3    H210393   3.206   5.381   4.853
 3463TIP3   OH210394   4.244   2.123   2.666
 3463TIP3    H110395   4.280   2.053   2.611
 3463TIP3    H210396   4.154   2.097   2.683
 3464TIP3   OH210397   1.377   1.658   3.727
 3464TIP3    H110398   1.307   1.722   3.714
 3464TIP3    H210399   1.342   1.596   3.790
 3465TIP3   OH210400   0.461   1.598   4.511
 3465TIP3    H110401   0.486   1.645   4.432
 3465TIP3    H210402   0.366   1.601   4.511
 3466TIP3   OH210403   3.974   5.524   4.777
 3466TIP3    H110404   3.947   5.594   4.718
 3466TIP3    H210405   3.899   5.513   4.837
 3467TIP3   OH210406   4.732   5.869   5.005
 3467TIP3    H110407   4.766   5.782   5.026
 3467TIP3    H210408   4.649   5.852   4.960
 3468TIP3   OH210409   4.091   0.327   1.028
 3468TIP3    H110410   4.081   0.326   0.933
 3468TIP3    H210411   4.019   0.381   1.059
 3469TIP3   OH210412   3.129   4.643   0.942
 3469TIP3    H110413   3.185   4.565   0.942
 3469TIP3    H210414   3.171   4.704   0.881
 3470TIP3   OH210415   2.292   1.330   4.169
 3470TIP3    H110416   2.323   1.421   4.163
 3470TIP3    H210417   2.371   1.277   4.156
 3471TIP3   OH210418   2.979   2.646   4.604
 3471TIP3    H110419   2.929   2.727   4.597
 3471TIP3    H210420   2.912   2.578   4.619
 3472TIP3   OH210421   5.434   2.575   4.390
 3472TIP3    H110422   5.391   2.640   4.447
 3472TIP3    H210423   5.500   2.535   4.446
 3473TIP3   OH210424   0.678   2.820   2.964
 3473TIP3    H110425   0.680   2.898   2.908
 3473TIP3    H210426   0.742   2.761   2.926
 3474TIP3   OH210427   4.309   2.288   2.003
 3474TIP3    H110428   4.300   2.336   2.086
 3474TIP3    H210429   4.228   2.308   1.955
 3475TIP3   OH210430   4.586   3.468   5.115
 3475TIP3    H110431   4.580   3.561   5.135
 3475TIP3    H210432   4.603   3.426   5.200
 3476TIP3   OH210433   3.523   0.848   2.145
 3476TIP3    H110434   3.499   0.928   2.098
 3476TIP3    H210435   3.519   0.779   2.079
 3477TIP3   OH210436   5.157   3.916   4.965
 3477TIP3    H110437   5.244   3.882   4.944
 3477TIP3    H210438   5.097   3.852   4.927
 3478TIP3   OH210439   3.477   2.433   4.932
 3478TIP3    H110440   3.546   2.411   4.871
 3478TIP3    H210441   3.484   2.528   4.943
 3479TIP3   OH210442   1.959   2.154   2.018
 3479TIP3    H110443   2.009   2.124   2.094
 3479TIP3    H210444   1.877   2.106   2.022
 3480TIP3   OH210445   4.187   0.783   3.461
 3480TIP3    H110446   4.258   0.735   3.418
 3480TIP3    H210447   4.161   0.726   3.534
 3481TIP3   OH210448   3.046   5.033   4.662
 3481TIP3    H110449   3.107   5.015   4.591
 3481TIP3    H210450   3.007   4.948   4.682
 3482TIP3   OH210451   3.130   0.724   2.321
 3482TIP3    H110452   3.198   0.660   2.343
 3482TIP3    H210453   3.056   0.671   2.293
 3483TIP3   OH210454   3.546   0.348   4.470
 3483TIP3    H110455   3.496   0.266   4.462
 3483TIP3    H210456   3.554   0.362   4.564
 3484TIP3   OH210457   3.632   5.647   0.534
 3484TIP3    H110458   3.551   5.676   0.492
 3484TIP3    H210459   3.665   5.725   0.579
 3485TIP3   OH210460   3.394   1.124   2.881
 3485TIP3    H110461   3.434   1.041   2.909
 3485TIP3    H210462   3.378   1.112   2.788
 3486TIP3   OH210463   4.843   3.493   4.811
 3486TIP3    H110464   4.886   3.407   4.808
 3486TIP3    H210465   4.831   3.516   4.719
 3487TIP3   OH210466   3.107   3.357   0.578
 3487TIP3    H110467   3.038   3.342   0.642
 3487TIP3    H210468   3.060   3.376   0.496
 3488TIP3   OH210469   5.126   1.582   0.315
 3488TIP3    H110470   5.179   1.546   0.243
 3488TIP3    H210471   5.113   1.508   0.374
 3489TIP3   OH210472   2.532   1.007   2.414
 3489TIP3    H110473   2.600   0.974   2.355
 3489TIP3    H210474   2.455   0.954   2.393
 3490TIP3   OH210475   2.201   3.024   0.697
 3490TIP3    H110476   2.123   2.978   0.666
 3490TIP3    H210477   2.250   3.043   0.617
 3491TIP3   OH210478   0.883   2.877   1.952
 3491TIP3    H110479   0.825   2.940   1.910
 3491TIP3    H210480   0.915   2.822   1.881
 3492TIP3   OH210481   0.275   4.755   0.661
 3492TIP3    H110482   0.302   4.669   0.628
 3492TIP3    H210483   0.241   4.737   0.749
 3493TIP3   OH210484   2.524   4.425   2.585
 3493TIP3    H110485   2.441   4.442   2.630
 3493TIP3    H210486   2.514   4.337   2.550
 3494TIP3   OH210487   3.585   1.036   4.207
 3494TIP3    H110488   3.547   1.071   4.288
 3494TIP3    H210489   3.615   0.948   4.231
 3495TIP3   OH210490   4.052   2.860   3.380
 3495TIP3    H110491   3.969   2.907   3.374
 3495TIP3    H210492   4.049   2.797   3.308
 3496TIP3   OH210493   3.453   3.201   1.030
 3496TIP3    H110494   3.490   3.235   1.112
 3496TIP3    H210495   3.506   3.241   0.962
 3497TIP3   OH210496   1.386   1.486   4.797
 3497TIP3    H110497   1.382   1.571   4.842
 3497TIP3    H210498   1.343   1.425   4.857
 3498TIP3   OH210499   1.720   3.763   2.199
 3498TIP3    H110500   1.657   3.695   2.176
 3498TIP3    H210501   1.802   3.735   2.158
 3499TIP3   OH210502   6.088   1.474   0.328
 3499TIP3    H110503   6.060   1.480   0.419
 3499TIP3    H210504   6.176   1.512   0.326
 3500TIP3   OH210505   3.354   2.824   3.769
 3500TIP3    H110506   3.291   2.771   3.720
 3500TIP3    H210507   3.378   2.768   3.843
 3501TIP3   OH210508   1.722   5.407   1.165
 3501TIP3    H110509   1.643   5.402   1.220
 3501TIP3    H210510   1.740   5.316   1.141
 3502TIP3   OH210511   5.469   4.861   0.054
 3502TIP3    H110512   5.510   4.947   0.063
 3502TIP3    H210513   5.376   4.880   0.042
 3503TIP3   OH210514   0.577   2.468   0.236
 3503TIP3    H110515   0.497   2.484   0.186
 3503TIP3    H210516   0.559   2.388   0.285
 3504TIP3   OH210517   5.117   4.568   3.378
 3504TIP3    H110518   5.100   4.487   3.328
 3504TIP3    H210519   5.212   4.574   3.382
 3505TIP3   OH210520   1.647   4.685   2.030
 3505TIP3    H110521   1.740   4.677   2.009
 3505TIP3    H210522   1.602   4.667   1.948
 3506TIP3   OH210523   0.330   5.964   0.507
 3506TIP3    H110524   0.328   6.027   0.434
 3506TIP3    H210525   0.340   5.879   0.465
 3507TIP3   OH210526   2.011   4.344   4.576
 3507TIP3    H110527   1.961   4.263   4.564
 3507TIP3    H210528   2.059   4.331   4.657
 3508TIP3   OH210529   4.440   0.282   1.583
 3508TIP3    H110530   4.522   0.246   1.549
 3508TIP3    H210531   4.374   0.216   1.561
 3509TIP3   OH210532   6.111   4.281   2.724
 3509TIP3    H110533   6.129   4.328   2.643
 3509TIP3    H210534   6.196   4.270   2.766
 3510TIP3   OH210535   4.647   4.388   2.719
 3510TIP3    H110536   4.722   4.401   2.778
 3510TIP3    H210537   4.619   4.298   2.738
 3511TIP3   OH210538   6.218   4.456   3.605
 3511TIP3    H110539   6.154   4.425   3.669
 3511TIP3    H210540   6.265   4.378   3.579
 3512TIP3   OH210541   5.648   0.353   3.009
 3512TIP3    H110542   5.733   0.325   3.044
 3512TIP3    H210543   5.671   0.409   2.935
 3513TIP3   OH210544   1.618   5.932   1.746
 3513TIP3    H110545   1.589   6.003   1.689
 3513TIP3    H210546   1.546   5.920   1.809
 3514TIP3   OH210547   2.071   0.353   2.706
 3514TIP3    H110548   2.165   0.347   2.722
 3514TIP3    H210549   2.031   0.308   2.781
 3515TIP3   OH210550   1.507   4.244   2.781
 3515TIP3    H110551   1.599   4.253   2.756
 3515TIP3    H210552   1.499   4.297   2.861
 3516TIP3   OH210553   3.339   5.449   2.821
 3516TIP3    H110554   3.319   5.536   2.856
 3516TIP3    H210555   3.424   5.460   2.777
 3517TIP3   OH210556   4.642   0.766   1.087
 3517TIP3    H110557   4.693   0.699   1.134
 3517TIP3    H210558   4.704   0.802   1.023
 3518TIP3   OH210559   6.213   1.224   4.245
 3518TIP3    H110560   6.203   1.189   4.333
 3518TIP3    H210561   6.306   1.214   4.226
 3519TIP3   OH210562   4.863   0.134   4.677
 3519TIP3    H110563   4.799   0.109   4.743
 3519TIP3    H210564   4.944   0.089   4.704
 3520TIP3   OH210565   2.183   2.812   0.923
 3520TIP3    H110566   2.153   2.902   0.916
 3520TIP3    H210567   2.248   2.803   0.853
 3521TIP3   OH210568   4.105   5.036   5.000
 3521TIP3    H110569   4.180   5.009   4.946
 3521TIP3    H210570   4.044   4.963   4.993
 3522TIP3   OH210571   6.117  -0.019   4.013
 3522TIP3    H110572   6.170   0.059   4.002
 3522TIP3    H210573   6.032   0.013   4.044
 3523TIP3   OH210574   2.188   4.924   4.524
 3523TIP3    H110575   2.267   4.869   4.520
 3523TIP3    H210576   2.154   4.923   4.435
 3524TIP3   OH210577   4.312   2.852   4.011
 3524TIP3    H110578   4.276   2.918   4.070
 3524TIP3    H210579   4.376   2.900   3.958
 3525TIP3   OH210580   3.577   2.615   4.410
 3525TIP3    H110581   3.501   2.595   4.465
 3525TIP3    H210582   3.645   2.640   4.472
 3526TIP3   OH210583   1.497   4.645   1.808
 3526TIP3    H110584   1.406   4.670   1.828
 3526TIP3    H210585   1.495   4.624   1.715
 3527TIP3   OH210586   1.459   5.356   3.131
 3527TIP3    H110587   1.482   5.436   3.177
 3527TIP3    H210588   1.407   5.306   3.195
 3528TIP3   OH210589   0.880   2.545   1.247
 3528TIP3    H110590   0.881   2.619   1.307
 3528TIP3    H210591   0.924   2.475   1.295
 3529TIP3   OH210592   3.300   5.958   1.498
 3529TIP3    H110593   3.212   5.952   1.534
 3529TIP3    H210594   3.339   5.872   1.516
 3530TIP3   OH210595   3.281   1.743   3.296
 3530TIP3    H110596   3.271   1.772   3.205
 3530TIP3    H210597   3.320   1.656   3.289
 3531TIP3   OH210598   1.727   3.453   2.343
 3531TIP3    H110599   1.664   3.381   2.348
 3531TIP3    H210600   1.729   3.478   2.251
 3532TIP3   OH210601   3.094   1.659   4.782
 3532TIP3    H110602   3.086   1.565   4.799
 3532TIP3    H210603   3.053   1.672   4.696
 3533TIP3   OH210604   1.475   0.364   1.640
 3533TIP3    H110605   1.391   0.376   1.686
 3533TIP3    H210606   1.473   0.274   1.608
 3534TIP3   OH210607   4.611   1.220   5.027
 3534TIP3    H110608   4.675   1.279   4.987
 3534TIP3    H210609   4.598   1.151   4.962
 3535TIP3   OH210610   1.756   1.478   4.858
 3535TIP3    H110611   1.746   1.573   4.845
 3535TIP3    H210612   1.688   1.456   4.922
 3536TIP3   OH210613   3.478   3.841   4.150
 3536TIP3    H110614   3.508   3.791   4.074
 3536TIP3    H210615   3.387   3.860   4.131
 3537TIP3   OH210616   1.716   5.635   3.412
 3537TIP3    H110617   1.709   5.731   3.410
 3537TIP3    H210618   1.704   5.612   3.503
 3538TIP3   OH210619   0.441   5.044   0.916
 3538TIP3    H110620   0.465   5.085   0.833
 3538TIP3    H210621   0.346   5.056   0.921
 3539TIP3   OH210622   3.439   5.764   1.234
 3539TIP3    H110623   3.378   5.827   1.272
 3539TIP3    H210624   3.509   5.757   1.299
 3540TIP3   OH210625   2.399   2.631   1.045
 3540TIP3    H110626   2.423   2.584   0.965
 3540TIP3    H210627   2.335   2.696   1.015
 3541TIP3   OH210628   4.316   5.232   0.226
 3541TIP3    H110629   4.366   5.314   0.217
 3541TIP3    H210630   4.367   5.168   0.178
 3542TIP3   OH210631   4.922   0.757   0.620
 3542TIP3    H110632   4.897   0.732   0.530
 3542TIP3    H210633   4.996   0.817   0.608
 3543TIP3   OH210634   5.914   6.002   3.552
 3543TIP3    H110635   5.966   6.022   3.630
 3543TIP3    H210636   5.863   5.925   3.577
 3544TIP3   OH210637   5.964   1.743   1.997
 3544TIP3    H110638   5.994   1.833   2.008
 3544TIP3    H210639   6.043   1.690   2.010
 3545TIP3   OH210640   4.765   4.144   3.176
 3545TIP3    H110641   4.679   4.185   3.165
 3545TIP3    H210642   4.827   4.217   3.168
 3546TIP3   OH210643   4.388   4.100   4.593
 3546TIP3    H110644   4.463   4.150   4.561
 3546TIP3    H210645   4.408   4.082   4.685
 3547TIP3   OH210646   4.393   3.131   1.602
 3547TIP3    H110647   4.486   3.110   1.614
 3547TIP3    H210648   4.364   3.159   1.689
 3548TIP3   OH210649   1.215   3.975   3.066
 3548TIP3    H110650   1.121   3.965   3.080
 3548TIP3    H210651   1.248   3.885   3.056
 3549TIP3   OH210652   2.757   4.581   0.727
 3549TIP3    H110653   2.742   4.561   0.635
 3549TIP3    H210654   2.722   4.669   0.739
 3550TIP3   OH210655   1.574   3.929   0.466
 3550TIP3    H110656   1.581   3.852   0.523
 3550TIP3    H210657   1.649   3.922   0.407
 3551TIP3   OH210658   3.113   0.276   4.052
 3551TIP3    H110659   3.166   0.344   4.094
 3551TIP3    H210660   3.116   0.298   3.959
 3552TIP3   OH210661   1.400   0.232   4.309
 3552TIP3    H110662   1.357   0.154   4.344
 3552TIP3    H210663   1.493   0.209   4.304
 3553TIP3   OH210664   3.888   0.445   1.539
 3553TIP3    H110665   3.859   0.448   1.630
 3553TIP3    H210666   3.966   0.500   1.537
 3554TIP3   OH210667   3.905   4.058   5.023
 3554TIP3    H110668   3.879   4.086   5.110
 3554TIP3    H210669   3.974   3.994   5.037
 3555TIP3   OH210670   1.339   2.372   0.433
 3555TIP3    H110671   1.335   2.463   0.463
 3555TIP3    H210672   1.393   2.375   0.354
 3556TIP3   OH210673   1.962   2.697   1.079
 3556TIP3    H110674   1.968   2.685   0.985
 3556TIP3    H210675   1.931   2.612   1.112
 3557TIP3   OH210676   2.257   5.269   3.162
 3557TIP3    H110677   2.208   5.336   3.115
 3557TIP3    H210678   2.223   5.186   3.127
 3558TIP3   OH210679   6.103   0.222   0.074
 3558TIP3    H110680   6.151   0.151   0.031
 3558TIP3    H210681   6.155   0.300   0.056
 3559TIP3   OH210682   3.333   1.646   1.835
 3559TIP3    H110683   3.414   1.597   1.815
 3559TIP3    H210684   3.288   1.591   1.898
 3560TIP3   OH210685   3.888   3.984   1.099
 3560TIP3    H110686   3.951   3.921   1.062
 3560TIP3    H210687   3.808   3.933   1.111
 3561TIP3   OH210688   5.359   3.352   2.750
 3561TIP3    H110689   5.444   3.377   2.786
 3561TIP3    H210690   5.329   3.281   2.807
 3562TIP3   OH210691   6.329   2.620   1.454
 3562TIP3    H110692   6.352   2.543   1.402
 3562TIP3    H210693   6.259   2.663   1.404
 3563TIP3   OH210694   3.603   0.818   4.413
 3563TIP3    H110695   3.668   0.792   4.478
 3563TIP3    H210696   3.521   0.781   4.444
 3564TIP3   OH210697   2.998   1.749   0.447
 3564TIP3    H110698   3.074   1.762   0.505
 3564TIP3    H210699   3.001   1.655   0.426
 3565TIP3   OH210700   5.589   1.377   4.385
 3565TIP3    H110701   5.619   1.450   4.439
 3565TIP3    H210702   5.552   1.419   4.307
 3566TIP3   OH210703   1.978   2.481   3.806
 3566TIP3    H110704   1.958   2.412   3.869
 3566TIP3    H210705   2.067   2.508   3.826
 3567TIP3   OH210706   4.248   1.555   0.892
 3567TIP3    H110707   4.235   1.602   0.810
 3567TIP3    H210708   4.342   1.563   0.909
 3568TIP3   OH210709   4.508   0.504   2.330
 3568TIP3    H110710   4.487   0.545   2.246
 3568TIP3    H210711   4.441   0.437   2.342
 3569TIP3   OH210712   0.486   1.263   0.417
 3569TIP3    H110713   0.513   1.253   0.509
 3569TIP3    H210714   0.564   1.294   0.372
 3570TIP3   OH210715   5.111   3.120   1.065
 3570TIP3    H110716   5.061   3.050   1.107
 3570TIP3    H210717   5.072   3.129   0.978
 3571TIP3   OH210718   1.769   4.014   1.457
 3571TIP3    H110719   1.780   3.920   1.439
 3571TIP3    H210720   1.674   4.025   1.466
 3572TIP3   OH210721   1.390   5.880   1.921
 3572TIP3    H110722   1.352   5.858   2.006
 3572TIP3    H210723   1.320   5.925   1.874
 3573TIP3   OH210724   2.367   3.724   2.653
 3573TIP3    H110725   2.273   3.706   2.644
 3573TIP3    H210726   2.402   3.646   2.696
 3574TIP3   OH210727   4.040   3.143   5.129
 3574TIP3    H110728   4.011   3.219   5.078
 3574TIP3    H210729   4.042   3.175   5.219
 3575TIP3   OH210730   0.775   2.816   0.054
 3575TIP3    H110731   0.843   2.757   0.086
 3575TIP3    H210732   0.703   2.806   0.115
 3576TIP3   OH210733   3.988   5.932   1.250
 3576TIP3    H110734   3.929   6.008   1.253
 3576TIP3    H210735   4.015   5.926   1.159
 3577TIP3   OH210736   1.947   1.345   4.987
 3577TIP3    H110737   1.889   1.418   4.968
 3577TIP3    H210738   2.030   1.369   4.945
 3578TIP3   OH210739   5.566   2.013   1.501
 3578TIP3    H110740   5.615   1.941   1.543
 3578TIP3    H210741   5.624   2.089   1.510
 3579TIP3   OH210742   2.086   2.666   4.586
 3579TIP3    H110743   2.146   2.675   4.512
 3579TIP3    H210744   2.141   2.639   4.659
 3580TIP3   OH210745   3.367   0.470   1.098
 3580TIP3    H110746   3.351   0.409   1.170
 3580TIP3    H210747   3.288   0.466   1.045
 3581TIP3   OH210748   3.604   5.459   2.736
 3581TIP3    H110749   3.643   5.383   2.780
 3581TIP3    H210750   3.674   5.523   2.730
 3582TIP3   OH210751   5.279   3.518   4.818
 3582TIP3    H110752   5.250   3.559   4.899
 3582TIP3    H210753   5.318   3.589   4.768
 3583TIP3   OH210754   1.180   1.862   1.639
 3583TIP3    H110755   1.151   1.806   1.711
 3583TIP3    H210756   1.126   1.835   1.565
 3584TIP3   OH210757   4.716   1.857   2.007
 3584TIP3    H110758   4.675   1.774   1.983
 3584TIP3    H210759   4.719   1.907   1.925
 3585TIP3   OH210760   0.927   0.210   2.051
 3585TIP3    H110761   0.920   0.304   2.035
 3585TIP3    H210762   0.850   0.188   2.103
 3586TIP3   OH210763   1.054   0.748   2.522
 3586TIP3    H110764   0.969   0.791   2.533
 3586TIP3    H210765   1.100   0.801   2.457
 3587TIP3   OH210766   0.671   0.777   0.338
 3587TIP3    H110767   0.630   0.695   0.313
 3587TIP3    H210768   0.741   0.752   0.398
 3588TIP3   OH210769   3.637   2.417   2.974
 3588TIP3    H110770   3.575   2.347   2.954
 3588TIP3    H210771   3.601   2.460   3.052
 3589TIP3   OH210772   5.670   3.866   1.691
 3589TIP3    H110773   5.692   3.837   1.603
 3589TIP3    H210774   5.700   3.796   1.748
 3590TIP3   OH210775   3.212   5.373   3.137
 3590TIP3    H110776   3.300   5.381   3.100
 3590TIP3    H210777   3.197   5.457   3.181
 3591TIP3   OH210778   2.005   4.012   1.562
 3591TIP3    H110779   1.978   3.961   1.638
 3591TIP3    H210780   1.929   4.012   1.504
 3592TIP3   OH210781   3.504   2.418   4.141
 3592TIP3    H110782   3.528   2.457   4.225
 3592TIP3    H210783   3.584   2.375   4.111
 3593TIP3   OH210784   5.961   3.217   3.998
 3593TIP3    H110785   5.967   3.157   3.923
 3593TIP3    H210786   5.872   3.205   4.030
 3594TIP3   OH210787   3.770   4.386   4.691
 3594TIP3    H110788   3.704   4.322   4.666
 3594TIP3    H210789   3.839   4.335   4.733
 3595TIP3   OH210790   1.800   5.533   5.084
 3595TIP3    H110791   1.869   5.551   5.147
 3595TIP3    H210792   1.838   5.469   5.024
 3596TIP3   OH210793   5.036   4.354   0.999
 3596TIP3    H110794   4.956   4.304   1.013
 3596TIP3    H210795   5.079   4.311   0.925
 3597TIP3   OH210796   4.763   2.366   3.803
 3597TIP3    H110797   4.806   2.450   3.817
 3597TIP3    H210798   4.689   2.367   3.864
 3598TIP3   OH210799   5.205   1.203   1.395
 3598TIP3    H110800   5.240   1.149   1.466
 3598TIP3    H210801   5.191   1.142   1.323
 3599TIP3   OH210802   0.018   4.503   4.467
 3599TIP3    H110803   0.106   4.536   4.483
 3599TIP3    H210804  -0.040   4.572   4.499
 3600TIP3   OH210805   4.025   0.455   0.129
 3600TIP3    H110806   4.000   0.527   0.071
 3600TIP3    H210807   4.084   0.400   0.076
 3601TIP3   OH210808   0.187   1.166   2.122
 3601TIP3    H110809   0.226   1.114   2.192
 3601TIP3    H210810   0.146   1.240   2.167
 3602TIP3   OH210811   5.404   5.837   4.560
 3602TIP3    H110812   5.452   5.765   4.602
 3602TIP3    H210813   5.365   5.885   4.633
 3603TIP3   OH210814   1.501   3.692   0.652
 3603TIP3    H110815   1.454   3.621   0.696
 3603TIP3    H210816   1.566   3.721   0.716
 3604TIP3   OH210817   6.189   2.351   1.887
 3604TIP3    H110818   6.126   2.405   1.934
 3604TIP3    H210819   6.245   2.414   1.842
 3605TIP3   OH210820   1.153   2.666   0.822
 3605TIP3    H110821   1.229   2.703   0.867
 3605TIP3    H210822   1.084   2.667   0.889
 3606TIP3   OH210823   6.244   0.458   2.306
 3606TIP3    H110824   6.157   0.494   2.288
 3606TIP3    H210825   6.303   0.532   2.295
 3607TIP3   OH210826   4.843   4.123   0.831
 3607TIP3    H110827   4.855   4.192   0.766
 3607TIP3    H210828   4.778   4.159   0.891
 3608TIP3   OH210829   6.345   0.812   4.055
 3608TIP3    H110830   6.423   0.807   4.110
 3608TIP3    H210831   6.274   0.777   4.110
 3609TIP3   OH210832   0.275   2.824   2.754
 3609TIP3    H110833   0.291   2.742   2.802
 3609TIP3    H210834   0.360   2.847   2.717
 3610TIP3   OH210835   4.690   0.114   1.537
 3610TIP3    H110836   4.717   0.163   1.614
 3610TIP3    H210837   4.736   0.030   1.544
 3611TIP3   OH210838   0.699   2.169   0.917
 3611TIP3    H110839   0.673   2.177   0.825
 3611TIP3    H210840   0.671   2.251   0.957
 3612TIP3   OH210841   4.474   4.855   3.934
 3612TIP3    H110842   4.429   4.908   4.000
 3612TIP3    H210843   4.475   4.912   3.856
 3613TIP3   OH210844   1.711   2.544   2.157
 3613TIP3    H110845   1.735   2.477   2.092
 3613TIP3    H210846   1.625   2.517   2.189
 3614TIP3   OH210847   4.547   0.611   4.453
 3614TIP3    H110848   4.584   0.660   4.379
 3614TIP3    H210849   4.453   0.611   4.438
 3615TIP3   OH210850   4.070   1.239   3.900
 3615TIP3    H110851   4.054   1.175   3.970
 3615TIP3    H210852   4.137   1.198   3.846
 3616TIP3   OH210853   1.675   5.144   3.274
 3616TIP3    H110854   1.714   5.232   3.273
 3616TIP3    H210855   1.591   5.156   3.318
 3617TIP3   OH210856   1.248   1.044   2.537
 3617TIP3    H110857   1.328   1.054   2.588
 3617TIP3    H210858   1.269   1.080   2.451
 3618TIP3   OH210859   5.132   5.700   0.434
 3618TIP3    H110860   5.149   5.776   0.490
 3618TIP3    H210861   5.134   5.626   0.494
 3619TIP3   OH210862   2.080   0.089   0.869
 3619TIP3    H110863   2.032   0.172   0.871
 3619TIP3    H210864   2.087   0.067   0.776
 3620TIP3   OH210865   4.188   4.245   4.476
 3620TIP3    H110866   4.258   4.189   4.508
 3620TIP3    H210867   4.164   4.299   4.551
 3621TIP3   OH210868   3.777   4.400   1.092
 3621TIP3    H110869   3.734   4.459   1.155
 3621TIP3    H210870   3.857   4.445   1.068
 3622TIP3   OH210871   1.605   3.483   1.875
 3622TIP3    H110872   1.604   3.417   1.806
 3622TIP3    H210873   1.534   3.544   1.852
 3623TIP3   OH210874   4.870   3.572   0.096
 3623TIP3    H110875   4.925   3.643   0.063
 3623TIP3    H210876   4.910   3.547   0.179
 3624TIP3   OH210877   2.548   5.077   2.337
 3624TIP3    H110878   2.462   5.095   2.374
 3624TIP3    H210879   2.531   5.019   2.263
 3625TIP3   OH210880   3.707   4.438   2.664
 3625TIP3    H110881   3.621   4.447   2.704
 3625TIP3    H210882   3.709   4.348   2.631
 3626TIP3   OH210883   3.941   0.532   1.159
 3626TIP3    H110884   3.889   0.560   1.084
 3626TIP3    H210885   4.010   0.598   1.167
 3627TIP3   OH210886   3.457   1.061   1.916
 3627TIP3    H110887   3.384   1.037   1.860
 3627TIP3    H210888   3.507   1.125   1.865
 3628TIP3   OH210889   3.701   1.200   1.056
 3628TIP3    H110890   3.794   1.207   1.035
 3628TIP3    H210891   3.690   1.108   1.082
 3629TIP3   OH210892   2.067   5.239   4.339
 3629TIP3    H110893   2.019   5.266   4.261
 3629TIP3    H210894   2.159   5.260   4.320
 3630TIP3   OH210895   0.598   5.333   3.309
 3630TIP3    H110896   0.692   5.334   3.330
 3630TIP3    H210897   0.557   5.385   3.378
 3631TIP3   OH210898   0.195   0.936   1.930
 3631TIP3    H110899   0.113   0.899   1.900
 3631TIP3    H210900   0.170   1.014   1.980
 3632TIP3   OH210901   4.092   4.287   5.136
 3632TIP3    H110902   4.015   4.263   5.188
 3632TIP3    H210903   4.166   4.256   5.188
 3633TIP3   OH210904   0.485   1.010   2.862
 3633TIP3    H110905   0.543   0.935   2.869
 3633TIP3    H210906   0.542   1.084   2.841
 3634TIP3   OH210907   3.521   5.905   2.129
 3634TIP3    H110908   3.480   5.974   2.077
 3634TIP3    H210909   3.448   5.863   2.175
 3635TIP3   OH210910   1.061   3.344   4.485
 3635TIP3    H110911   1.025   3.317   4.569
 3635TIP3    H210912   1.025   3.281   4.422
 3636TIP3   OH210913   2.384   0.834   2.219
 3636TIP3    H110914   2.355   0.782   2.294
 3636TIP3    H210915   2.323   0.812   2.149
 3637TIP3   OH210916   1.545   3.002   1.786
 3637TIP3    H110917   1.600   3.070   1.748
 3637TIP3    H210918   1.526   3.034   1.875
 3638TIP3   OH210919   2.911   0.406   0.929
 3638TIP3    H110920   2.925   0.325   0.977
 3638TIP3    H210921   2.818   0.425   0.939
 3639TIP3   OH210922   1.574   4.097   1.216
 3639TIP3    H110923   1.608   4.015   1.250
 3639TIP3    H210924   1.489   4.074   1.178
 3640TIP3   OH210925   0.186   0.755   4.475
 3640TIP3    H110926   0.154   0.678   4.427
 3640TIP3    H210927   0.236   0.718   4.548
 3641TIP3   OH210928   0.574   5.432   2.677
 3641TIP3    H110929   0.501   5.381   2.712
 3641TIP3    H210930   0.650   5.402   2.726
 3642TIP3   OH210931   0.791   2.429   0.813
 3642TIP3    H110932   0.746   2.358   0.768
 3642TIP3    H210933   0.884   2.416   0.792
 3643TIP3   OH210934   5.365   0.270   1.353
 3643TIP3    H110935   5.282   0.254   1.310
 3643TIP3    H210936   5.342   0.316   1.434
 3644TIP3   OH210937   3.074   3.366   3.012
 3644TIP3    H110938   3.015   3.360   3.087
 3644TIP3    H210939   3.154   3.322   3.042
 3645TIP3   OH210940   4.275   2.308   5.100
 3645TIP3    H110941   4.193   2.272   5.132
 3645TIP3    H210942   4.294   2.259   5.020
 3646TIP3   OH210943   5.428   5.806   4.162
 3646TIP3    H110944   5.409   5.730   4.107
 3646TIP3    H210945   5.345   5.824   4.207
 3647TIP3   OH210946   5.457   1.384   1.392
 3647TIP3    H110947   5.461   1.383   1.488
 3647TIP3    H210948   5.372   1.345   1.372
 3648TIP3   OH210949   1.847   0.635   4.466
 3648TIP3    H110950   1.917   0.669   4.410
 3648TIP3    H210951   1.887   0.563   4.514
 3649TIP3   OH210952   3.117   4.058   4.489
 3649TIP3    H110953   3.126   4.110   4.569
 3649TIP3    H210954   3.134   3.968   4.517
 3650TIP3   OH210955   3.933   4.470   0.172
 3650TIP3    H110956   3.886   4.530   0.231
 3650TIP3    H210957   3.916   4.383   0.208
 3651TIP3   OH210958   0.920   0.999   1.176
 3651TIP3    H110959   0.835   0.972   1.209
 3651TIP3    H210960   0.901   1.045   1.095
 3652TIP3   OH210961   5.153   2.450   2.237
 3652TIP3    H110962   5.186   2.538   2.256
 3652TIP3    H210963   5.128   2.454   2.145
 3653TIP3   OH210964   0.967   1.323   0.230
 3653TIP3    H110965   1.044   1.377   0.216
 3653TIP3    H210966   0.894   1.384   0.232
 3654TIP3   OH210967   5.049   0.062   2.594
 3654TIP3    H110968   5.089   0.145   2.569
 3654TIP3    H210969   5.017   0.025   2.512
 3655TIP3   OH210970   2.928   5.573   4.929
 3655TIP3    H110971   2.856   5.608   4.982
 3655TIP3    H210972   2.885   5.512   4.868
 3656TIP3   OH210973   1.303   0.316   3.103
 3656TIP3    H110974   1.297   0.338   3.010
 3656TIP3    H210975   1.359   0.238   3.105
 3657TIP3   OH210976   2.204   0.227   0.080
 3657TIP3    H110977   2.120   0.184   0.062
 3657TIP3    H210978   2.211   0.295   0.013
 3658TIP3   OH210979   3.055   5.631   1.911
 3658TIP3    H110980   2.960   5.628   1.901
 3658TIP3    H210981   3.069   5.648   2.004
 3659TIP3   OH210982   0.400   5.247   3.871
 3659TIP3    H110983   0.483   5.224   3.912
 3659TIP3    H210984   0.410   5.338   3.844
 3660TIP3   OH210985   4.163   5.900   1.982
 3660TIP3    H110986   4.222   5.828   2.002
 3660TIP3    H210987   4.214   5.960   1.927
 3661TIP3   OH210988   0.051   5.711   0.405
 3661TIP3    H110989   0.017   5.782   0.351
 3661TIP3    H210990   0.146   5.723   0.403
 3662TIP3   OH210991   5.859   2.372   2.926
 3662TIP3    H110992   5.767   2.396   2.916
 3662TIP3    H210993   5.907   2.451   2.904
 3663TIP3   OH210994   4.715   3.056   1.348
 3663TIP3    H110995   4.703   2.988   1.415
 3663TIP3    H210996   4.656   3.029   1.277
 3664TIP3   OH210997   3.650   0.245   2.277
 3664TIP3    H110998   3.626   0.300   2.202
 3664TIP3    H210999   3.641   0.302   2.353
 3665TIP3   OH211000   4.804   1.328   0.340
 3665TIP3    H111001   4.804   1.236   0.313
 3665TIP3    H211002   4.830   1.376   0.262
 3666TIP3   OH211003   1.196   5.662   2.951
 3666TIP3    H111004   1.191   5.756   2.937
 3666TIP3    H211005   1.285   5.647   2.984
 3667TIP3   OH211006   4.235   3.723   3.856
 3667TIP3    H111007   4.300   3.773   3.806
 3667TIP3    H211008   4.236   3.762   3.943
 3668TIP3   OH211009   6.123   2.377   1.496
 3668TIP3    H111010   6.194   2.327   1.456
 3668TIP3    H211011   6.044   2.344   1.453
 3669TIP3   OH211012   3.032   2.997   3.807
 3669TIP3    H111013   2.958   2.937   3.814
 3669TIP3    H211014   3.057   2.994   3.714
 3670TIP3   OH211015   0.830   1.650   2.380
 3670TIP3    H111016   0.788   1.581   2.432
 3670TIP3    H211017   0.816   1.730   2.430
 3671TIP3   OH211018   5.463   0.023   1.921
 3671TIP3    H111019   5.382   0.052   1.962
 3671TIP3    H211020   5.474   0.081   1.846
 3672TIP3   OH211021   0.208   1.367   5.051
 3672TIP3    H111022   0.170   1.369   4.963
 3672TIP3    H211023   0.244   1.279   5.059
 3673TIP3   OH211024   5.423   2.401   5.087
 3673TIP3    H111025   5.342   2.382   5.134
 3673TIP3    H211026   5.472   2.459   5.146
 3674TIP3   OH211027   5.002   0.408   3.855
 3674TIP3    H111028   4.911   0.383   3.873
 3674TIP3    H211029   4.996   0.467   3.780
 3675TIP3   OH211030   3.128   1.024   0.832
 3675TIP3    H111031   3.176   1.107   0.834
 3675TIP3    H211032   3.048   1.041   0.882
 3676TIP3   OH211033   5.940   4.526   4.400
 3676TIP3    H111034   6.027   4.564   4.413
 3676TIP3    H211035   5.947   4.438   4.437
 3677TIP3   OH211036   5.961   4.161   3.122
 3677TIP3    H111037   6.019   4.092   3.091
 3677TIP3    H211038   5.977   4.166   3.216
 3678TIP3   OH211039   5.841   4.049   1.825
 3678TIP3    H111040   5.850   4.113   1.754
 3678TIP3    H211041   5.778   3.986   1.792
 3679TIP3   OH211042   3.175   2.339   0.183
 3679TIP3    H111043   3.080   2.341   0.198
 3679TIP3    H211044   3.211   2.399   0.248
 3680TIP3   OH211045   4.125   4.621   0.675
 3680TIP3    H111046   4.063   4.692   0.688
 3680TIP3    H211047   4.211   4.661   0.691
 3681TIP3   OH211048   0.402   2.338   0.058
 3681TIP3    H111049   0.370   2.278  -0.010
 3681TIP3    H211050   0.357   2.421   0.039
 3682TIP3   OH211051   5.663   0.423   0.085
 3682TIP3    H111052   5.664   0.337   0.042
 3682TIP3    H211053   5.589   0.418   0.145
 3683TIP3   OH211054   1.329   3.537   0.797
 3683TIP3    H111055   1.333   3.539   0.892
 3683TIP3    H211056   1.252   3.588   0.774
 3684TIP3   OH211057   5.895   5.555   2.297
 3684TIP3    H111058   5.893   5.594   2.210
 3684TIP3    H211059   5.919   5.627   2.356
 3685TIP3   OH211060   5.370   4.495   0.767
 3685TIP3    H111061   5.363   4.588   0.742
 3685TIP3    H211062   5.362   4.496   0.863
 3686TIP3   OH211063   4.316   5.756   1.158
 3686TIP3    H111064   4.266   5.778   1.236
 3686TIP3    H211065   4.387   5.821   1.157
 3687TIP3   OH211066   1.342   5.594   4.100
 3687TIP3    H111067   1.306   5.628   4.018
 3687TIP3    H211068   1.288   5.634   4.168
 3688TIP3   OH211069   6.092   0.471   0.336
 3688TIP3    H111070   6.088   0.557   0.295
 3688TIP3    H211071   6.015   0.425   0.303
 3689TIP3   OH211072   0.873   1.142   0.946
 3689TIP3    H111073   0.855   1.108   0.858
 3689TIP3    H211074   0.941   1.208   0.933
 3690TIP3   OH211075   1.548   2.812   1.603
 3690TIP3    H111076   1.620   2.768   1.649
 3690TIP3    H211077   1.521   2.882   1.663
 3691TIP3   OH211078   0.357   3.240   3.342
 3691TIP3    H111079   0.438   3.246   3.291
 3691TIP3    H211080   0.339   3.329   3.371
 3692TIP3   OH211081   4.020   5.835   3.444
 3692TIP3    H111082   3.926   5.824   3.462
 3692TIP3    H211083   4.046   5.754   3.402
 3693TIP3   OH211084   4.849   1.165   0.598
 3693TIP3    H111085   4.803   1.221   0.536
 3693TIP3    H211086   4.779   1.125   0.651
 3694TIP3   OH211087   6.118   4.498   4.075
 3694TIP3    H111088   6.090   4.516   3.985
 3694TIP3    H211089   6.167   4.576   4.102
 3695TIP3   OH211090   2.419   2.431   4.453
 3695TIP3    H111091   2.495   2.387   4.414
 3695TIP3    H211092   2.366   2.359   4.490
 3696TIP3   OH211093   2.794   1.322   3.483
 3696TIP3    H111094   2.710   1.289   3.449
 3696TIP3    H211095   2.828   1.379   3.415
 3697TIP3   OH211096   2.686   2.148   2.102
 3697TIP3    H111097   2.674   2.205   2.178
 3697TIP3    H211098   2.619   2.080   2.112
 3698TIP3   OH211099   4.082   5.120   0.284
 3698TIP3    H111100   4.101   5.026   0.278
 3698TIP3    H211101   4.168   5.161   0.282
 3699TIP3   OH211102   2.460   2.162   3.491
 3699TIP3    H111103   2.519   2.217   3.543
 3699TIP3    H211104   2.398   2.223   3.452
 3700TIP3   OH211105   5.807   4.024   3.707
 3700TIP3    H111106   5.895   4.035   3.745
 3700TIP3    H211107   5.756   4.096   3.743
 3701TIP3   OH211108   0.295   5.203   0.348
 3701TIP3    H111109   0.275   5.262   0.276
 3701TIP3    H211110   0.217   5.149   0.358
 3702TIP3   OH211111   0.833   4.191   2.033
 3702TIP3    H111112   0.800   4.237   1.957
 3702TIP3    H211113   0.826   4.254   2.105
 3703TIP3   OH211114   1.263   5.210   3.246
 3703TIP3    H111115   1.232   5.144   3.184
 3703TIP3    H211116   1.202   5.283   3.235
 3704TIP3   OH211117   5.945   1.978   0.930
 3704TIP3    H111118   5.968   1.886   0.942
 3704TIP3    H211119   5.872   1.977   0.869
 3705TIP3   OH211120   4.665   4.408   1.454
 3705TIP3    H111121   4.712   4.343   1.401
 3705TIP3    H211122   4.613   4.457   1.390
 3706TIP3   OH211123   6.061   1.844   2.920
 3706TIP3    H111124   6.015   1.926   2.905
 3706TIP3    H211125   6.131   1.867   2.982
 3707TIP3   OH211126   5.864   5.907   3.276
 3707TIP3    H111127   5.898   5.922   3.364
 3707TIP3    H211128   5.939   5.918   3.218
 3708TIP3   OH211129   3.922   2.171   4.546
 3708TIP3    H111130   3.874   2.200   4.468
 3708TIP3    H211131   3.902   2.078   4.552
 3709TIP3   OH211132   1.669   3.237   1.674
 3709TIP3    H111133   1.671   3.238   1.578
 3709TIP3    H211134   1.761   3.240   1.700
 3710TIP3   OH211135   4.860   5.164   3.959
 3710TIP3    H111136   4.764   5.165   3.962
 3710TIP3    H211137   4.880   5.117   3.878
 3711TIP3   OH211138   2.171   1.353   1.347
 3711TIP3    H111139   2.193   1.296   1.420
 3711TIP3    H211140   2.251   1.359   1.295
 3712TIP3   OH211141   1.324   3.525   3.280
 3712TIP3    H111142   1.415   3.502   3.262
 3712TIP3    H211143   1.274   3.447   3.255
 3713TIP3   OH211144   2.238   3.166   3.626
 3713TIP3    H111145   2.301   3.222   3.580
 3713TIP3    H211146   2.190   3.122   3.556
 3714TIP3   OH211147   3.569   0.139   2.959
 3714TIP3    H111148   3.547   0.198   2.887
 3714TIP3    H211149   3.645   0.179   3.002
 3715TIP3   OH211150   1.128   2.280   3.114
 3715TIP3    H111151   1.146   2.188   3.133
 3715TIP3    H211152   1.106   2.281   3.021
 3716TIP3   OH211153   3.837   0.771   0.730
 3716TIP3    H111154   3.880   0.827   0.665
 3716TIP3    H211155   3.749   0.810   0.740
 3717TIP3   OH211156   3.317   3.866   3.887
 3717TIP3    H111157   3.348   3.956   3.874
 3717TIP3    H211158   3.319   3.827   3.800
 3718TIP3   OH211159   2.953   4.936   3.068
 3718TIP3    H111160   2.984   5.000   3.003
 3718TIP3    H211161   2.882   4.890   3.024
 3719TIP3   OH211162   0.565   1.997   1.108
 3719TIP3    H111163   0.599   2.059   1.043
 3719TIP3    H211164   0.553   1.916   1.059
 3720TIP3   OH211165   3.662   2.496   3.614
 3720TIP3    H111166   3.602   2.464   3.682
 3720TIP3    H211167   3.724   2.424   3.601
 3721TIP3   OH211168   4.384   5.329   4.071
 3721TIP3    H111169   4.430   5.370   3.997
 3721TIP3    H211170   4.301   5.376   4.077
 3722TIP3   OH211171   2.366   2.715   3.374
 3722TIP3    H111172   2.417   2.786   3.336
 3722TIP3    H211173   2.328   2.669   3.299
 3723TIP3   OH211174   2.259   3.581   1.826
 3723TIP3    H111175   2.169   3.573   1.796
 3723TIP3    H211176   2.306   3.620   1.753
 3724TIP3   OH211177   1.889   5.077   1.821
 3724TIP3    H111178   1.794   5.081   1.822
 3724TIP3    H211179   1.914   5.124   1.741
 3725TIP3   OH211180   0.531   4.700   1.712
 3725TIP3    H111181   0.456   4.684   1.655
 3725TIP3    H211182   0.506   4.775   1.766
 3726TIP3   OH211183   5.596   4.810   2.665
 3726TIP3    H111184   5.615   4.741   2.729
 3726TIP3    H211185   5.563   4.763   2.588
 3727TIP3   OH211186   0.706   5.313   0.187
 3727TIP3    H111187   0.638   5.351   0.131
 3727TIP3    H211188   0.672   5.228   0.212
 3728TIP3   OH211189   5.809   5.037   0.043
 3728TIP3    H111190   5.847   4.996  -0.035
 3728TIP3    H211191   5.778   4.965   0.097
 3729TIP3   OH211192   1.160   4.759   2.032
 3729TIP3    H111193   1.110   4.836   2.060
 3729TIP3    H211194   1.226   4.794   1.972
 3730TIP3   OH211195   5.942   5.645   2.049
 3730TIP3    H111196   5.957   5.715   1.985
 3730TIP3    H211197   6.029   5.609   2.066
 3731TIP3   OH211198   3.597   5.686   4.606
 3731TIP3    H111199   3.552   5.644   4.679
 3731TIP3    H211200   3.683   5.710   4.642
 3732TIP3   OH211201   1.426   3.140   3.867
 3732TIP3    H111202   1.488   3.111   3.800
 3732TIP3    H211203   1.470   3.122   3.950
 3733TIP3   OH211204   3.443   1.770   2.976
 3733TIP3    H111205   3.358   1.811   2.990
 3733TIP3    H211206   3.443   1.745   2.884
 3734TIP3   OH211207   5.352   5.952   1.982
 3734TIP3    H111208   5.371   6.036   1.940
 3734TIP3    H211209   5.286   5.912   1.925
 3735TIP3   OH211210   0.333   2.174   4.539
 3735TIP3    H111211   0.279   2.198   4.615
 3735TIP3    H211212   0.354   2.257   4.497
 3736TIP3   OH211213   4.279   2.900   1.851
 3736TIP3    H111214   4.297   2.978   1.903
 3736TIP3    H211215   4.341   2.835   1.882
 3737TIP3   OH211216   4.373   3.076   4.748
 3737TIP3    H111217   4.357   3.028   4.667
 3737TIP3    H211218   4.460   3.114   4.736
 3738TIP3   OH211219   5.260   1.063   0.735
 3738TIP3    H111220   5.253   0.992   0.799
 3738TIP3    H211221   5.224   1.025   0.654
 3739TIP3   OH211222   3.723   3.998   3.978
 3739TIP3    H111223   3.638   4.002   3.935
 3739TIP3    H211224   3.762   3.916   3.946
 3740TIP3   OH211225   2.715   2.706   2.804
 3740TIP3    H111226   2.759   2.765   2.865
 3740TIP3    H211227   2.624   2.705   2.833
 3741TIP3   OH211228   1.766   0.604   2.987
 3741TIP3    H111229   1.683   0.594   3.033
 3741TIP3    H211230   1.742   0.621   2.896
 3742TIP3   OH211231   6.200   0.040   1.561
 3742TIP3    H111232   6.185   0.101   1.489
 3742TIP3    H211233   6.176   0.089   1.640
 3743TIP3   OH211234   5.730   0.464   0.527
 3743TIP3    H111235   5.788   0.388   0.533
 3743TIP3    H211236   5.735   0.505   0.613
 3744TIP3   OH211237   5.245   2.647   2.880
 3744TIP3    H111238   5.276   2.707   2.812
 3744TIP3    H211239   5.183   2.698   2.931
 3745TIP3   OH211240   2.315   1.545   3.068
 3745TIP3    H111241   2.235   1.545   3.121
 3745TIP3    H211242   2.295   1.605   2.995
 3746TIP3   OH211243   4.193   2.143   0.097
 3746TIP3    H111244   4.186   2.048   0.093
 3746TIP3    H211245   4.103   2.174   0.104
 3747TIP3   OH211246   4.217   0.517   2.915
 3747TIP3    H111247   4.280   0.446   2.905
 3747TIP3    H211248   4.259   0.593   2.874
 3748TIP3   OH211249   2.669   5.548   0.359
 3748TIP3    H111250   2.602   5.616   0.348
 3748TIP3    H211251   2.620   5.467   0.365
 3749TIP3   OH211252   1.642   1.602   1.406
 3749TIP3    H111253   1.603   1.635   1.487
 3749TIP3    H211254   1.596   1.520   1.389
 3750TIP3   OH211255   4.089   3.900   5.133
 3750TIP3    H111256   4.113   3.816   5.094
 3750TIP3    H211257   4.118   3.893   5.224
 3751TIP3   OH211258   5.792   4.348   2.407
 3751TIP3    H111259   5.861   4.395   2.453
 3751TIP3    H211260   5.834   4.313   2.328
 3752TIP3   OH211261   5.295   0.255   4.495
 3752TIP3    H111262   5.368   0.194   4.504
 3752TIP3    H211263   5.275   0.256   4.401
 3753TIP3   OH211264   1.407   2.713   3.170
 3753TIP3    H111265   1.453   2.758   3.241
 3753TIP3    H211266   1.463   2.638   3.150
 3754TIP3   OH211267   4.481   2.767   2.014
 3754TIP3    H111268   4.449   2.793   2.100
 3754TIP3    H211269   4.574   2.791   2.015
 3755TIP3   OH211270   2.665   1.431   2.452
 3755TIP3    H111271   2.704   1.517   2.438
 3755TIP3    H211272   2.666   1.389   2.366
 3756TIP3   OH211273   4.404   4.250   2.956
 3756TIP3    H111274   4.457   4.192   2.901
 3756TIP3    H211275   4.420   4.220   3.046
 3757TIP3   OH211276   3.989   4.422   1.773
 3757TIP3    H111277   3.944   4.488   1.826
 3757TIP3    H211278   3.944   4.340   1.794
 3758TIP3   OH211279   5.410   5.480   2.066
 3758TIP3    H111280   5.356   5.405   2.092
 3758TIP3    H211281   5.457   5.504   2.145
 3759TIP3   OH211282   4.655   5.091   4.290
 3759TIP3    H111283   4.657   5.136   4.375
 3759TIP3    H211284   4.588   5.137   4.240
 3760TIP3   OH211285   4.302   1.697   4.818
 3760TIP3    H111286   4.376   1.687   4.878
 3760TIP3    H211287   4.313   1.626   4.755
 3761TIP3   OH211288   0.603   5.243   1.369
 3761TIP3    H111289   0.546   5.179   1.412
 3761TIP3    H211290   0.578   5.238   1.276
 3762TIP3   OH211291   0.659   5.222   4.495
 3762TIP3    H111292   0.720   5.164   4.449
 3762TIP3    H211293   0.582   5.225   4.438
 3763TIP3   OH211294   2.137   0.180   2.387
 3763TIP3    H111295   2.116   0.135   2.469
 3763TIP3    H211296   2.211   0.237   2.410
 3764TIP3   OH211297   2.077   1.825   3.713
 3764TIP3    H111298   1.993   1.833   3.667
 3764TIP3    H211299   2.071   1.741   3.758
 3765TIP3   OH211300   5.946   1.219   4.144
 3765TIP3    H111301   5.885   1.233   4.216
 3765TIP3    H211302   6.025   1.185   4.186
 3766TIP3   OH211303   6.146   2.471   3.868
 3766TIP3    H111304   6.053   2.493   3.876
 3766TIP3    H211305   6.156   2.443   3.777
 3767TIP3   OH211306   6.192   5.222   4.992
 3767TIP3    H111307   6.257   5.162   4.955
 3767TIP3    H211308   6.109   5.175   4.984
 3768TIP3   OH211309   2.615   1.257   0.173
 3768TIP3    H111310   2.594   1.269   0.080
 3768TIP3    H211311   2.532   1.231   0.213
 3769TIP3   OH211312   3.305   1.237   1.074
 3769TIP3    H111313   3.306   1.220   0.980
 3769TIP3    H211314   3.254   1.317   1.084
 3770TIP3   OH211315   5.942   4.827   2.074
 3770TIP3    H111316   5.879   4.894   2.046
 3770TIP3    H211317   5.903   4.788   2.151
 3771TIP3   OH211318   1.161   2.646   3.973
 3771TIP3    H111319   1.099   2.631   4.044
 3771TIP3    H211320   1.226   2.706   4.010
 3772TIP3   OH211321   5.766   5.020   2.649
 3772TIP3    H111322   5.819   4.990   2.575
 3772TIP3    H211323   5.708   4.947   2.669
 3773TIP3   OH211324   4.581   3.436   1.341
 3773TIP3    H111325   4.513   3.428   1.407
 3773TIP3    H211326   4.538   3.411   1.259
 3774TIP3   OH211327   0.061   1.478   3.363
 3774TIP3    H111328   0.018   1.502   3.445
 3774TIP3    H211329   0.048   1.553   3.306
 3775TIP3   OH211330   0.342   5.205   5.035
 3775TIP3    H111331   0.394   5.284   5.018
 3775TIP3    H211332   0.255   5.238   5.060
 3776TIP3   OH211333   1.098   2.137   2.196
 3776TIP3    H111334   1.111   2.116   2.289
 3776TIP3    H211335   1.101   2.233   2.193
 3777TIP3   OH211336   5.886   1.795   1.265
 3777TIP3    H111337   5.828   1.738   1.316
 3777TIP3    H211338   5.849   1.883   1.277
 3778TIP3   OH211339   3.511   1.143   0.753
 3778TIP3    H111340   3.555   1.167   0.671
 3778TIP3    H211341   3.579   1.152   0.820
 3779TIP3   OH211342   2.093   2.525   0.172
 3779TIP3    H111343   2.054   2.512   0.086
 3779TIP3    H211344   2.110   2.619   0.176
 3780TIP3   OH211345   1.107   2.402   4.591
 3780TIP3    H111346   1.106   2.402   4.687
 3780TIP3    H211347   1.196   2.375   4.568
 3781TIP3   OH211348   3.642   4.255   4.060
 3781TIP3    H111349   3.594   4.273   3.979
 3781TIP3    H211350   3.660   4.161   4.055
 3782TIP3   OH211351   4.363   4.497   2.327
 3782TIP3    H111352   4.410   4.473   2.247
 3782TIP3    H211353   4.430   4.495   2.396
 3783TIP3   OH211354   1.187   3.882   4.748
 3783TIP3    H111355   1.196   3.789   4.725
 3783TIP3    H211356   1.197   3.885   4.843
 3784TIP3   OH211357   4.673   4.502   0.735
 3784TIP3    H111358   4.620   4.537   0.663
 3784TIP3    H211359   4.637   4.542   0.813
 3785TIP3   OH211360   4.971   2.565   0.237
 3785TIP3    H111361   4.987   2.629   0.306
 3785TIP3    H211362   4.876   2.564   0.226
 3786TIP3   OH211363   4.465   3.947   0.961
 3786TIP3    H111364   4.477   4.028   1.010
 3786TIP3    H211365   4.521   3.883   1.006
 3787TIP3   OH211366   2.745   5.558   1.790
 3787TIP3    H111367   2.717   5.517   1.872
 3787TIP3    H211368   2.723   5.650   1.800
 3788TIP3   OH211369   2.640   5.679   4.360
 3788TIP3    H111370   2.560   5.693   4.409
 3788TIP3    H211371   2.689   5.615   4.411
 3789TIP3   OH211372   0.873   2.899   0.318
 3789TIP3    H111373   0.810   2.829   0.299
 3789TIP3    H211374   0.887   2.893   0.413
 3790TIP3   OH211375   1.475   5.139   2.681
 3790TIP3    H111376   1.554   5.129   2.734
 3790TIP3    H211377   1.415   5.189   2.736
 3791TIP3   OH211378   4.503   5.510   4.926
 3791TIP3    H111379   4.466   5.591   4.893
 3791TIP3    H211380   4.428   5.452   4.939
 3792TIP3   OH211381   5.300   0.515   4.596
 3792TIP3    H111382   5.395   0.521   4.598
 3792TIP3    H211383   5.283   0.429   4.556
 3793TIP3   OH211384   5.087   1.489   1.382
 3793TIP3    H111385   4.994   1.492   1.404
 3793TIP3    H211386   5.103   1.398   1.356
 3794TIP3   OH211387   0.656   5.580   3.739
 3794TIP3    H111388   0.718   5.651   3.720
 3794TIP3    H211389   0.696   5.533   3.813
 3795TIP3   OH211390   2.812   5.697   0.962
 3795TIP3    H111391   2.859   5.733   1.037
 3795TIP3    H211392   2.739   5.648   1.000
 3796TIP3   OH211393   1.127   2.994   3.101
 3796TIP3    H111394   1.133   2.921   3.163
 3796TIP3    H211395   1.131   3.073   3.155
 3797TIP3   OH211396   3.756   4.016   4.759
 3797TIP3    H111397   3.728   3.955   4.827
 3797TIP3    H211398   3.815   4.077   4.804
 3798TIP3   OH211399   1.893   5.154   3.969
 3798TIP3    H111400   1.926   5.222   4.028
 3798TIP3    H211401   1.887   5.197   3.884
 3799TIP3   OH211402   5.068   5.749   3.512
 3799TIP3    H111403   5.013   5.700   3.573
 3799TIP3    H211404   5.045   5.715   3.426
 3800TIP3   OH211405   4.961   4.382   5.025
 3800TIP3    H111406   4.976   4.350   5.114
 3800TIP3    H211407   5.046   4.373   4.982
 3801TIP3   OH211408   4.110   2.887   0.612
 3801TIP3    H111409   4.180   2.952   0.603
 3801TIP3    H211410   4.029   2.938   0.612
 3802TIP3   OH211411   0.485   2.147   0.250
 3802TIP3    H111412   0.485   2.216   0.184
 3802TIP3    H211413   0.408   2.094   0.228
 3803TIP3   OH211414   3.890   1.001   2.694
 3803TIP3    H111415   3.855   1.038   2.776
 3803TIP3    H211416   3.817   1.009   2.632
 3804TIP3   OH211417   1.816   4.011   4.168
 3804TIP3    H111418   1.910   3.995   4.160
 3804TIP3    H211419   1.784   4.010   4.078
 3805TIP3   OH211420   0.265   3.900   1.229
 3805TIP3    H111421   0.202   3.830   1.248
 3805TIP3    H211422   0.346   3.871   1.271
 3806TIP3   OH211423   2.034   2.160   2.637
 3806TIP3    H111424   1.972   2.199   2.576
 3806TIP3    H211425   2.004   2.070   2.648
 3807TIP3   OH211426   5.078   3.918   1.871
 3807TIP3    H111427   5.174   3.922   1.871
 3807TIP3    H211428   5.058   3.842   1.816
 3808TIP3   OH211429   5.619   5.215   4.902
 3808TIP3    H111430   5.684   5.276   4.938
 3808TIP3    H211431   5.597   5.157   4.975
 3809TIP3   OH211432   3.819   4.775   4.502
 3809TIP3    H111433   3.904   4.811   4.525
 3809TIP3    H211434   3.840   4.698   4.447
 3810TIP3   OH211435   5.870   0.800   2.694
 3810TIP3    H111436   5.866   0.791   2.789
 3810TIP3    H211437   5.947   0.749   2.668
 3811TIP3   OH211438   3.288   4.792   0.773
 3811TIP3    H111439   3.317   4.748   0.692
 3811TIP3    H211440   3.357   4.856   0.791
 3812TIP3   OH211441   4.028   1.509   1.321
 3812TIP3    H111442   4.075   1.577   1.274
 3812TIP3    H211443   3.939   1.542   1.331
 3813TIP3   OH211444   0.573   1.647   4.246
 3813TIP3    H111445   0.623   1.695   4.311
 3813TIP3    H211446   0.607   1.557   4.250
 3814TIP3   OH211447   5.240   1.291   3.693
 3814TIP3    H111448   5.297   1.296   3.770
 3814TIP3    H211449   5.159   1.252   3.725
 3815TIP3   OH211450   1.980   3.942   5.201
 3815TIP3    H111451   2.074   3.946   5.184
 3815TIP3    H211452   1.940   3.940   5.115
 3816TIP3   OH211453   0.554   5.657   4.215
 3816TIP3    H111454   0.629   5.712   4.192
 3816TIP3    H211455   0.518   5.696   4.294
 3817TIP3   OH211456   4.008   3.650   1.326
 3817TIP3    H111457   3.983   3.647   1.419
 3817TIP3    H211458   3.925   3.638   1.280
 3818TIP3   OH211459   1.381   5.638   1.585
 3818TIP3    H111460   1.426   5.582   1.649
 3818TIP3    H211461   1.447   5.703   1.559
 3819TIP3   OH211462   4.826   2.169   0.801
 3819TIP3    H111463   4.913   2.152   0.836
 3819TIP3    H211464   4.790   2.237   0.858
 3820TIP3   OH211465   3.083   0.667   1.927
 3820TIP3    H111466   3.170   0.677   1.890
 3820TIP3    H211467   3.086   0.717   2.010
 3821TIP3   OH211468   1.911   3.176   0.874
 3821TIP3    H111469   1.971   3.139   0.939
 3821TIP3    H211470   1.968   3.224   0.814
 3822TIP3   OH211471   5.734   1.798   0.818
 3822TIP3    H111472   5.713   1.750   0.899
 3822TIP3    H211473   5.649   1.816   0.778
 3823TIP3   OH211474   5.541   3.732   2.647
 3823TIP3    H111475   5.467   3.738   2.708
 3823TIP3    H211476   5.573   3.822   2.638
 3824TIP3   OH211477   0.118   4.584   1.397
 3824TIP3    H111478   0.116   4.585   1.493
 3824TIP3    H211479   0.135   4.493   1.374
 3825TIP3   OH211480   2.826   3.943   1.648
 3825TIP3    H111481   2.787   3.935   1.735
 3825TIP3    H211482   2.750   3.948   1.589
 3826TIP3   OH211483   3.959   0.108   0.501
 3826TIP3    H111484   3.960   0.180   0.438
 3826TIP3    H211485   4.040   0.059   0.482
 3827TIP3   OH211486   0.055   2.582   0.027
 3827TIP3    H111487   0.113   2.598   0.101
 3827TIP3    H211488  -0.033   2.595   0.062
 3828TIP3   OH211489   0.632   3.087   4.286
 3828TIP3    H111490   0.627   3.038   4.368
 3828TIP3    H211491   0.715   3.134   4.291
 3829TIP3   OH211492   3.112   3.759   2.545
 3829TIP3    H111493   3.145   3.670   2.531
 3829TIP3    H211494   3.122   3.773   2.639
 3830TIP3   OH211495   4.072   1.375   4.170
 3830TIP3    H111496   4.098   1.336   4.086
 3830TIP3    H211497   4.107   1.315   4.236
 3831TIP3   OH211498   2.657   5.909   2.964
 3831TIP3    H111499   2.713   5.976   3.002
 3831TIP3    H211500   2.614   5.867   3.039
 3832TIP3   OH211501   2.546   4.395   0.715
 3832TIP3    H111502   2.595   4.352   0.645
 3832TIP3    H211503   2.607   4.461   0.748
 3833TIP3   OH211504   2.810   2.856   3.823
 3833TIP3    H111505   2.773   2.777   3.862
 3833TIP3    H211506   2.760   2.928   3.863
 3834TIP3   OH211507   0.620   3.525   4.711
 3834TIP3    H111508   0.597   3.538   4.619
 3834TIP3    H211509   0.707   3.564   4.719
 3835TIP3   OH211510   3.101   1.482   0.683
 3835TIP3    H111511   3.110   1.576   0.666
 3835TIP3    H211512   3.017   1.459   0.643
 3836TIP3   OH211513   3.121   5.959   1.192
 3836TIP3    H111514   3.026   5.948   1.188
 3836TIP3    H211515   3.138   5.988   1.282
 3837TIP3   OH211516   6.073   0.904   4.811
 3837TIP3    H111517   6.012   0.934   4.879
 3837TIP3    H211518   6.024   0.914   4.729
 3838TIP3   OH211519   5.008   3.062   0.816
 3838TIP3    H111520   5.009   2.969   0.791
 3838TIP3    H211521   5.058   3.106   0.747
 3839TIP3   OH211522   0.046   1.446   0.033
 3839TIP3    H111523   0.130   1.490   0.047
 3839TIP3    H211524   0.053   1.363   0.082
 3840TIP3   OH211525   2.429   2.652   4.993
 3840TIP3    H111526   2.462   2.741   4.992
 3840TIP3    H211527   2.485   2.606   5.057
 3841TIP3   OH211528   0.412   3.499   2.126
 3841TIP3    H111529   0.507   3.485   2.122
 3841TIP3    H211530   0.386   3.514   2.035
 3842TIP3   OH211531   2.097   1.207   0.765
 3842TIP3    H111532   2.028   1.229   0.702
 3842TIP3    H211533   2.124   1.118   0.741
 3843TIP3   OH211534   3.490   2.672   1.208
 3843TIP3    H111535   3.407   2.686   1.162
 3843TIP3    H211536   3.479   2.589   1.254
 3844TIP3   OH211537   4.517   0.043   1.986
 3844TIP3    H111538   4.512   0.125   1.937
 3844TIP3    H211539   4.608   0.037   2.014
 3845TIP3   OH211540   1.307   3.245   4.582
 3845TIP3    H111541   1.300   3.169   4.525
 3845TIP3    H211542   1.232   3.300   4.559
 3846TIP3   OH211543   6.343   4.203   4.119
 3846TIP3    H111544   6.431   4.240   4.129
 3846TIP3    H211545   6.294   4.238   4.193
 3847TIP3   OH211546   0.723   2.190   3.956
 3847TIP3    H111547   0.764   2.105   3.971
 3847TIP3    H211548   0.682   2.212   4.040
 3848TIP3   OH211549   4.386   1.477   1.170
 3848TIP3    H111550   4.480   1.496   1.164
 3848TIP3    H211551   4.374   1.402   1.111
 3849TIP3   OH211552   4.499   2.730   0.571
 3849TIP3    H111553   4.569   2.665   0.571
 3849TIP3    H211554   4.418   2.679   0.576
 3850TIP3   OH211555   2.960   4.979   3.660
 3850TIP3    H111556   3.037   4.924   3.646
 3850TIP3    H211557   2.929   4.954   3.747
 3851TIP3   OH211558   5.663   1.123   0.963
 3851TIP3    H111559   5.691   1.106   1.053
 3851TIP3    H211560   5.632   1.038   0.931
 3852TIP3   OH211561   0.286   1.943   2.155
 3852TIP3    H111562   0.300   1.971   2.064
 3852TIP3    H211563   0.350   1.873   2.168
 3853TIP3   OH211564   0.216   1.970   3.246
 3853TIP3    H111565   0.280   1.984   3.316
 3853TIP3    H211566   0.196   2.058   3.214
 3854TIP3   OH211567   0.813   0.623   4.088
 3854TIP3    H111568   0.895   0.670   4.105
 3854TIP3    H211569   0.826   0.537   4.129
 3855TIP3   OH211570   4.363   1.506   0.359
 3855TIP3    H111571   4.371   1.429   0.302
 3855TIP3    H211572   4.440   1.502   0.416
 3856TIP3   OH211573   2.296   3.721   3.706
 3856TIP3    H111574   2.359   3.778   3.661
 3856TIP3    H211575   2.283   3.648   3.645
 3857TIP3   OH211576   4.672   1.421   3.978
 3857TIP3    H111577   4.659   1.332   3.946
 3857TIP3    H211578   4.760   1.421   4.015
 3858TIP3   OH211579   5.595   2.012   4.630
 3858TIP3    H111580   5.638   1.987   4.549
 3858TIP3    H211581   5.661   2.061   4.679
 3859TIP3   OH211582   6.003   4.529   2.466
 3859TIP3    H111583   6.092   4.499   2.483
 3859TIP3    H211584   5.997   4.536   2.371
 3860TIP3   OH211585   4.002   3.196   0.955
 3860TIP3    H111586   3.958   3.138   1.017
 3860TIP3    H211587   4.095   3.188   0.976
 3861TIP3   OH211588   2.186   3.878   4.881
 3861TIP3    H111589   2.093   3.873   4.900
 3861TIP3    H211590   2.202   3.971   4.864
 3862TIP3   OH211591   5.279   3.164   4.779
 3862TIP3    H111592   5.260   3.256   4.762
 3862TIP3    H211593   5.370   3.164   4.810
 3863TIP3   OH211594   4.761   1.517   3.246
 3863TIP3    H111595   4.849   1.552   3.235
 3863TIP3    H211596   4.762   1.475   3.332
 3864TIP3   OH211597   3.459   2.999   3.976
 3864TIP3    H111598   3.459   2.930   3.910
 3864TIP3    H211599   3.517   3.067   3.941
 3865TIP3   OH211600   1.581   0.487   1.897
 3865TIP3    H111601   1.532   0.448   1.824
 3865TIP3    H211602   1.632   0.414   1.932
 3866TIP3   OH211603   1.199   4.781   0.163
 3866TIP3    H111604   1.128   4.725   0.196
 3866TIP3    H211605   1.274   4.723   0.155
 3867TIP3   OH211606   1.577   5.116   1.810
 3867TIP3    H111607   1.521   5.171   1.864
 3867TIP3    H211608   1.548   5.133   1.720
 3868TIP3   OH211609   0.716   3.051   1.819
 3868TIP3    H111610   0.696   3.032   1.727
 3868TIP3    H211611   0.663   3.128   1.839
 3869TIP3   OH211612   6.338   1.978   2.689
 3869TIP3    H111613   6.394   1.938   2.756
 3869TIP3    H211614   6.282   2.038   2.737
 3870TIP3   OH211615   1.788   2.941   2.725
 3870TIP3    H111616   1.720   2.986   2.775
 3870TIP3    H211617   1.864   2.940   2.784
 3871TIP3   OH211618   2.206   3.282   3.212
 3871TIP3    H111619   2.196   3.211   3.275
 3871TIP3    H211620   2.123   3.283   3.164
 3872TIP3   OH211621   2.838   3.295   2.451
 3872TIP3    H111622   2.932   3.299   2.469
 3872TIP3    H211623   2.832   3.273   2.358
 3873TIP3   OH211624   2.649   1.328   2.206
 3873TIP3    H111625   2.696   1.308   2.125
 3873TIP3    H211626   2.556   1.318   2.182
 3874TIP3   OH211627   0.034   4.291   2.828
 3874TIP3    H111628   0.086   4.369   2.811
 3874TIP3    H211629   0.087   4.239   2.888
 3875TIP3   OH211630   6.193   1.188   4.534
 3875TIP3    H111631   6.172   1.097   4.511
 3875TIP3    H211632   6.126   1.212   4.598
 3876TIP3   OH211633   1.474   2.974   1.322
 3876TIP3    H111634   1.482   2.913   1.395
 3876TIP3    H211635   1.523   3.052   1.349
 3877TIP3   OH211636   3.713   5.273   4.534
 3877TIP3    H111637   3.732   5.209   4.466
 3877TIP3    H211638   3.663   5.225   4.600
 3878TIP3   OH211639   5.875   2.571   2.349
 3878TIP3    H111640   5.851   2.545   2.438
 3878TIP3    H211641   5.815   2.523   2.292
 3879TIP3   OH211642   2.521   2.968   3.372
 3879TIP3    H111643   2.489   2.999   3.287
 3879TIP3    H211644   2.587   3.032   3.398
 3880TIP3   OH211645   5.100   2.570   4.129
 3880TIP3    H111646   5.118   2.490   4.178
 3880TIP3    H211647   5.010   2.558   4.098
 3881TIP3   OH211648   1.421   1.433   1.570
 3881TIP3    H111649   1.454   1.509   1.617
 3881TIP3    H211650   1.373   1.469   1.496
 3882TIP3   OH211651   1.261   0.368   5.091
 3882TIP3    H111652   1.305   0.432   5.146
 3882TIP3    H211653   1.218   0.420   5.023
 3883TIP3   OH211654   5.935   2.667   4.587
 3883TIP3    H111655   6.000   2.604   4.618
 3883TIP3    H211656   5.950   2.671   4.492
 3884TIP3   OH211657   0.444   3.040   1.443
 3884TIP3    H111658   0.465   3.131   1.465
 3884TIP3    H211659   0.528   2.995   1.445
 3885TIP3   OH211660   5.118   1.117   4.906
 3885TIP3    H111661   5.038   1.103   4.958
 3885TIP3    H211662   5.165   1.034   4.911
 3886TIP3   OH211663   3.410   4.222   2.549
 3886TIP3    H111664   3.388   4.314   2.537
 3886TIP3    H211665   3.473   4.203   2.479
 3887TIP3   OH211666   4.368   4.705   0.745
 3887TIP3    H111667   4.394   4.795   0.729
 3887TIP3    H211668   4.436   4.652   0.702
 3888TIP3   OH211669   4.252   2.903   1.572
 3888TIP3    H111670   4.275   2.996   1.576
 3888TIP3    H211671   4.257   2.873   1.663
 3889TIP3   OH211672   3.793   1.682   4.855
 3889TIP3    H111673   3.761   1.772   4.865
 3889TIP3    H211674   3.720   1.628   4.884
 3890TIP3   OH211675   0.479   3.674   4.289
 3890TIP3    H111676   0.471   3.693   4.195
 3890TIP3    H211677   0.572   3.656   4.302
 3891TIP3   OH211678   5.580   3.359   0.104
 3891TIP3    H111679   5.653   3.347   0.164
 3891TIP3    H211680   5.595   3.295   0.035
 3892TIP3   OH211681   5.486   1.890   0.809
 3892TIP3    H111682   5.455   1.917   0.896
 3892TIP3    H211683   5.414   1.911   0.750
 3893TIP3   OH211684   2.464   5.209   0.173
 3893TIP3    H111685   2.528   5.199   0.243
 3893TIP3    H211686   2.384   5.236   0.217
 3894TIP3   OH211687   1.704   2.479   2.957
 3894TIP3    H111688   1.731   2.387   2.948
 3894TIP3    H211689   1.610   2.478   2.939
 3895TIP3   OH211690   0.115   2.195   3.133
 3895TIP3    H111691   0.131   2.202   3.039
 3895TIP3    H211692   0.072   2.278   3.156
 3896TIP3   OH211693   4.467   4.193   3.212
 3896TIP3    H111694   4.502   4.234   3.291
 3896TIP3    H211695   4.390   4.145   3.241
 3897TIP3   OH211696   2.753   4.537   4.209
 3897TIP3    H111697   2.830   4.480   4.200
 3897TIP3    H211698   2.680   4.476   4.219
 3898TIP3   OH211699   3.045   0.546   2.664
 3898TIP3    H111700   3.124   0.556   2.611
 3898TIP3    H211701   2.979   0.515   2.602
 3899TIP3   OH211702   5.542   4.826   4.810
 3899TIP3    H111703   5.488   4.852   4.885
 3899TIP3    H211704   5.516   4.886   4.740
 3900TIP3   OH211705   4.045   5.064   1.004
 3900TIP3    H111706   3.999   5.106   1.077
 3900TIP3    H211707   4.010   5.107   0.926
 3901TIP3   OH211708   4.906   2.538   1.556
 3901TIP3    H111709   4.950   2.464   1.597
 3901TIP3    H211710   4.862   2.501   1.480
 3902TIP3   OH211711   5.670   4.712   3.328
 3902TIP3    H111712   5.755   4.702   3.284
 3902TIP3    H211713   5.688   4.699   3.421
 3903TIP3   OH211714   2.788   1.007   4.670
 3903TIP3    H111715   2.867   0.968   4.632
 3903TIP3    H211716   2.758   0.942   4.733
 3904TIP3   OH211717   1.832   0.784   1.477
 3904TIP3    H111718   1.895   0.831   1.531
 3904TIP3    H211719   1.748   0.797   1.520
 3905TIP3   OH211720   0.560   5.215   1.099
 3905TIP3    H111721   0.484   5.273   1.096
 3905TIP3    H211722   0.537   5.141   1.043
 3906TIP3   OH211723   5.930   1.275   2.069
 3906TIP3    H111724   5.836   1.259   2.064
 3906TIP3    H211725   5.963   1.249   1.983
 3907TIP3   OH211726   1.021   4.742   3.356
 3907TIP3    H111727   1.000   4.652   3.333
 3907TIP3    H211728   1.081   4.735   3.429
 3908TIP3   OH211729   3.221   0.068   0.910
 3908TIP3    H111730   3.235   0.123   0.833
 3908TIP3    H211731   3.306   0.027   0.926
 3909TIP3   OH211732   2.841   5.494   0.776
 3909TIP3    H111733   2.760   5.447   0.793
 3909TIP3    H211734   2.820   5.585   0.797
 3910TIP3   OH211735   2.371   2.116   4.684
 3910TIP3    H111736   2.465   2.102   4.684
 3910TIP3    H211737   2.338   2.059   4.614
 3911TIP3   OH211738   5.656   5.316   0.091
 3911TIP3    H111739   5.710   5.264   0.032
 3911TIP3    H211740   5.706   5.320   0.173
 3912TIP3   OH211741   0.223   2.612   1.069
 3912TIP3    H111742   0.231   2.581   0.979
 3912TIP3    H211743   0.310   2.599   1.107
 3913TIP3   OH211744   3.889   1.770   1.643
 3913TIP3    H111745   3.960   1.741   1.701
 3913TIP3    H211746   3.819   1.796   1.702
 3914TIP3   OH211747   0.359   0.502   4.556
 3914TIP3    H111748   0.425   0.549   4.506
 3914TIP3    H211749   0.397   0.415   4.570
 3915TIP3   OH211750   2.943   0.546   2.240
 3915TIP3    H111751   2.925   0.512   2.328
 3915TIP3    H211752   2.888   0.492   2.183
 3916TIP3   OH211753   4.180   3.747   2.766
 3916TIP3    H111754   4.229   3.702   2.835
 3916TIP3    H211755   4.201   3.698   2.686
 3917TIP3   OH211756   0.626   4.159   3.414
 3917TIP3    H111757   0.691   4.162   3.343
 3917TIP3    H211758   0.579   4.242   3.408
 3918TIP3   OH211759   2.295   0.762   1.404
 3918TIP3    H111760   2.303   0.684   1.350
 3918TIP3    H211761   2.303   0.731   1.494
 3919TIP3   OH211762   5.446   1.399   5.060
 3919TIP3    H111763   5.380   1.380   4.994
 3919TIP3    H211764   5.397   1.408   5.142
 3920TIP3   OH211765   2.347   3.918   1.835
 3920TIP3    H111766   2.423   3.914   1.893
 3920TIP3    H211767   2.367   3.988   1.774
 3921TIP3   OH211768   1.784   3.435   0.466
 3921TIP3    H111769   1.769   3.379   0.542
 3921TIP3    H211770   1.709   3.495   0.465
 3922TIP3   OH211771   5.047   2.424   3.297
 3922TIP3    H111772   4.957   2.403   3.318
 3922TIP3    H211773   5.050   2.429   3.202
 3923TIP3   OH211774   1.630   4.794   0.972
 3923TIP3    H111775   1.564   4.725   0.975
 3923TIP3    H211776   1.713   4.748   0.963
 3924TIP3   OH211777   3.814   4.794   2.215
 3924TIP3    H111778   3.832   4.742   2.137
 3924TIP3    H211779   3.815   4.884   2.185
 3925TIP3   OH211780   3.798   0.748   3.562
 3925TIP3    H111781   3.728   0.813   3.552
 3925TIP3    H211782   3.833   0.764   3.649
 3926TIP3   OH211783   5.333   4.121   2.131
 3926TIP3    H111784   5.418   4.116   2.174
 3926TIP3    H211785   5.276   4.162   2.195
 3927TIP3   OH211786   5.393   3.959   1.915
 3927TIP3    H111787   5.436   3.893   1.969
 3927TIP3    H211788   5.376   4.032   1.975
 3928TIP3   OH211789   4.287   3.951   0.748
 3928TIP3    H111790   4.363   3.921   0.798
 3928TIP3    H211791   4.310   4.040   0.720
 3929TIP3   OH211792   2.422   3.782   4.496
 3929TIP3    H111793   2.511   3.751   4.482
 3929TIP3    H211794   2.398   3.749   4.582
 3930TIP3   OH211795   3.343   4.237   1.896
 3930TIP3    H111796   3.305   4.153   1.921
 3930TIP3    H211797   3.360   4.228   1.802
 3931TIP3   OH211798   3.600   0.694   1.644
 3931TIP3    H111799   3.632   0.679   1.734
 3931TIP3    H211800   3.673   0.740   1.601
 3932TIP3   OH211801   5.447   5.855   5.128
 3932TIP3    H111802   5.357   5.825   5.120
 3932TIP3    H211803   5.455   5.883   5.219
 3933TIP3   OH211804   1.518   2.798   4.964
 3933TIP3    H111805   1.561   2.794   4.879
 3933TIP3    H211806   1.583   2.766   5.026
 3934TIP3   OH211807   4.262   2.078   4.544
 3934TIP3    H111808   4.266   2.055   4.637
 3934TIP3    H211809   4.172   2.059   4.519
 3935TIP3   OH211810   0.672   2.167  -0.023
 3935TIP3    H111811   0.600   2.116  -0.060
 3935TIP3    H211812   0.641   2.258  -0.029
 3936TIP3   OH211813   1.545   0.101   1.568
 3936TIP3    H111814   1.521   0.048   1.645
 3936TIP3    H211815   1.501   0.057   1.495
 3937TIP3   OH211816   5.223   2.239   2.381
 3937TIP3    H111817   5.197   2.311   2.323
 3937TIP3    H211818   5.314   2.259   2.405
 3938TIP3   OH211819   3.904   1.235   3.091
 3938TIP3    H111820   3.939   1.324   3.091
 3938TIP3    H211821   3.981   1.179   3.085
 3939TIP3   OH211822   0.489   2.918   3.918
 3939TIP3    H111823   0.533   2.834   3.927
 3939TIP3    H211824   0.552   2.973   3.872
 3940TIP3   OH211825   0.979   5.065   0.143
 3940TIP3    H111826   1.014   4.976   0.145
 3940TIP3    H211827   0.925   5.071   0.222
 3941TIP3   OH211828   1.744   1.729   4.718
 3941TIP3    H111829   1.672   1.793   4.721
 3941TIP3    H211830   1.815   1.772   4.765
 3942TIP3   OH211831   5.370   1.912   2.139
 3942TIP3    H111832   5.309   1.944   2.073
 3942TIP3    H211833   5.362   1.816   2.135
 3943TIP3   OH211834   4.860   3.235   1.218
 3943TIP3    H111835   4.832   3.186   1.141
 3943TIP3    H211836   4.821   3.188   1.292
 3944TIP3   OH211837   0.960   5.908   3.118
 3944TIP3    H111838   1.048   5.943   3.111
 3944TIP3    H211839   0.904   5.986   3.126
 3945TIP3   OH211840   3.704   5.495   4.345
 3945TIP3    H111841   3.608   5.492   4.348
 3945TIP3    H211842   3.732   5.433   4.412
 3946TIP3   OH211843   4.325   0.959   3.896
 3946TIP3    H111844   4.388   0.909   3.948
 3946TIP3    H211845   4.241   0.943   3.939
 3947TIP3   OH211846   1.075   2.180   4.245
 3947TIP3    H111847   1.151   2.165   4.188
 3947TIP3    H211848   1.107   2.164   4.333
 3948TIP3   OH211849   2.088   3.169   4.590
 3948TIP3    H111850   2.150   3.153   4.661
 3948TIP3    H211851   2.114   3.107   4.522
 3949TIP3   OH211852   4.583   4.811   0.148
 3949TIP3    H111853   4.661   4.758   0.131
 3949TIP3    H211854   4.527   4.796   0.071
 3950TIP3   OH211855   5.165   3.156   5.027
 3950TIP3    H111856   5.210   3.099   5.089
 3950TIP3    H211857   5.186   3.119   4.941
 3951TIP3   OH211858   2.420   2.875   2.277
 3951TIP3    H111859   2.487   2.891   2.344
 3951TIP3    H211860   2.423   2.781   2.261
 3952TIP3   OH211861   6.071   2.861   2.516
 3952TIP3    H111862   6.108   2.779   2.550
 3952TIP3    H211863   6.098   2.927   2.579
 3953TIP3   OH211864   2.276   2.642   4.358
 3953TIP3    H111865   2.324   2.562   4.379
 3953TIP3    H211866   2.341   2.699   4.318
 3954TIP3   OH211867   1.016   2.293   2.809
 3954TIP3    H111868   0.931   2.251   2.800
 3954TIP3    H211869   1.009   2.372   2.756
 3955TIP3   OH211870   3.858   3.556   2.575
 3955TIP3    H111871   3.940   3.511   2.555
 3955TIP3    H211872   3.793   3.486   2.583
 3956TIP3   OH211873   5.982   2.596   2.813
 3956TIP3    H111874   6.038   2.642   2.751
 3956TIP3    H211875   5.992   2.645   2.895
 3957TIP3   OH211876   4.700   0.344   3.081
 3957TIP3    H111877   4.766   0.339   3.150
 3957TIP3    H211878   4.617   0.344   3.128
 3958TIP3   OH211879   3.256   2.333   4.752
 3958TIP3    H111880   3.347   2.363   4.749
 3958TIP3    H211881   3.261   2.240   4.727
 3959TIP3   OH211882   4.329   0.959   4.565
 3959TIP3    H111883   4.399   1.002   4.516
 3959TIP3    H211884   4.374   0.909   4.633
 3960TIP3   OH211885   0.366   5.616   1.096
 3960TIP3    H111886   0.364   5.524   1.124
 3960TIP3    H211887   0.325   5.616   1.010
 3961TIP3   OH211888   4.933   1.069   1.626
 3961TIP3    H111889   4.905   1.005   1.560
 3961TIP3    H211890   4.924   1.154   1.583
 3962TIP3   OH211891   1.105   1.758   0.585
 3962TIP3    H111892   1.181   1.705   0.558
 3962TIP3    H211893   1.033   1.695   0.587
 3963TIP3   OH211894   2.747   4.605   0.064
 3963TIP3    H111895   2.684   4.557   0.118
 3963TIP3    H211896   2.742   4.563  -0.022
 3964TIP3   OH211897   2.275   3.503   2.913
 3964TIP3    H111898   2.290   3.563   2.986
 3964TIP3    H211899   2.183   3.514   2.891
 3965TIP3   OH211900   1.837   3.168   4.540
 3965TIP3    H111901   1.819   3.090   4.487
 3965TIP3    H211902   1.924   3.153   4.576
 3966TIP3   OH211903  -0.016   3.148   4.065
 3966TIP3    H111904  -0.014   3.144   3.970
 3966TIP3    H211905  -0.022   3.057   4.094
 3967TIP3   OH211906   6.072   3.950   0.286
 3967TIP3    H111907   6.014   3.874   0.289
 3967TIP3    H211908   6.042   4.006   0.357
 3968TIP3   OH211909   1.988   1.690   0.370
 3968TIP3    H111910   2.007   1.752   0.441
 3968TIP3    H211911   2.074   1.665   0.337
 3969TIP3   OH211912   5.945   2.582   4.298
 3969TIP3    H111913   5.920   2.513   4.237
 3969TIP3    H211914   5.871   2.643   4.297
 3970TIP3   OH211915   0.504   5.815   4.428
 3970TIP3    H111916   0.568   5.833   4.496
 3970TIP3    H211917   0.420   5.838   4.466
 3971TIP3   OH211918   3.283   1.814   3.562
 3971TIP3    H111919   3.269   1.790   3.470
 3971TIP3    H211920   3.370   1.853   3.563
 3972TIP3   OH211921   3.721   5.419   3.100
 3972TIP3    H111922   3.733   5.355   3.170
 3972TIP3    H211923   3.724   5.366   3.020
 3973TIP3   OH211924   4.616   5.158   3.561
 3973TIP3    H111925   4.577   5.175   3.475
 3973TIP3    H211926   4.644   5.244   3.592
 3974TIP3   OH211927   4.094   4.820   4.568
 3974TIP3    H111928   4.132   4.892   4.517
 3974TIP3    H211929   4.153   4.746   4.552
 3975TIP3   OH211930   4.007   1.025   4.058
 3975TIP3    H111931   3.931   0.967   4.055
 3975TIP3    H211932   4.044   1.012   4.145
 3976TIP3   OH211933   2.163   1.536   1.953
 3976TIP3    H111934   2.117   1.606   2.000
 3976TIP3    H211935   2.184   1.472   2.021
 3977TIP3   OH211936   5.887   3.418   0.631
 3977TIP3    H111937   5.847   3.391   0.714
 3977TIP3    H211938   5.868   3.511   0.625
 3978TIP3   OH211939   5.354   3.860   0.568
 3978TIP3    H111940   5.430   3.861   0.627
 3978TIP3    H211941   5.310   3.778   0.588
 3979TIP3   OH211942   3.304   1.151   2.226
 3979TIP3    H111943   3.217   1.148   2.264
 3979TIP3    H211944   3.292   1.194   2.141
 3980TIP3   OH211945   4.919   3.216   4.878
 3980TIP3    H111946   4.906   3.134   4.831
 3980TIP3    H211947   4.978   3.194   4.950
 3981TIP3   OH211948   2.721   3.699   3.992
 3981TIP3    H111949   2.696   3.773   3.937
 3981TIP3    H211950   2.681   3.717   4.077
 3982TIP3   OH211951   2.186   0.308   2.057
 3982TIP3    H111952   2.117   0.292   1.992
 3982TIP3    H211953   2.195   0.404   2.057
 3983TIP3   OH211954   1.393   5.122   3.851
 3983TIP3    H111955   1.301   5.144   3.835
 3983TIP3    H211956   1.411   5.049   3.792
 3984TIP3   OH211957   3.154   2.586   0.647
 3984TIP3    H111958   3.228   2.530   0.624
 3984TIP3    H211959   3.107   2.536   0.714
 3985TIP3   OH211960   6.166   0.182   2.300
 3985TIP3    H111961   6.230   0.155   2.366
 3985TIP3    H211962   6.172   0.278   2.298
 3986TIP3   OH211963   5.553   3.799   0.751
 3986TIP3    H111964   5.547   3.711   0.789
 3986TIP3    H211965   5.599   3.850   0.817
 3987TIP3   OH211966   1.153   5.429   0.712
 3987TIP3    H111967   1.113   5.440   0.799
 3987TIP3    H211968   1.227   5.371   0.728
 3988TIP3   OH211969   4.058   0.048   1.266
 3988TIP3    H111970   4.060   0.104   1.189
 3988TIP3    H211971   3.971   0.061   1.303
 3989TIP3   OH211972   2.240   5.227   0.594
 3989TIP3    H111973   2.168   5.280   0.559
 3989TIP3    H211974   2.274   5.279   0.668
 3990TIP3   OH211975   6.316   2.409   4.067
 3990TIP3    H111976   6.253   2.398   3.995
 3990TIP3    H211977   6.325   2.504   4.077
 3991TIP3   OH211978   4.338   5.637   0.885
 3991TIP3    H111979   4.299   5.679   0.961
 3991TIP3    H211980   4.283   5.560   0.869
 3992TIP3   OH211981   0.008   2.869   2.881
 3992TIP3    H111982   0.012   2.931   2.953
 3992TIP3    H211983   0.089   2.882   2.833
 3993TIP3   OH211984   4.879   0.312   4.240
 3993TIP3    H111985   4.797   0.331   4.287
 3993TIP3    H211986   4.919   0.240   4.289
 3994TIP3   OH211987   2.126   2.814   3.681
 3994TIP3    H111988   2.129   2.772   3.766
 3994TIP3    H211989   2.215   2.845   3.666
 3995TIP3   OH211990   0.874   5.725   3.673
 3995TIP3    H111991   0.929   5.683   3.739
 3995TIP3    H211992   0.935   5.771   3.616
 3996TIP3   OH211993   3.266   5.790   0.203
 3996TIP3    H111994   3.219   5.855   0.256
 3996TIP3    H211995   3.270   5.830   0.116
 3997TIP3   OH211996   5.015   4.695   2.121
 3997TIP3    H111997   4.920   4.698   2.131
 3997TIP3    H211998   5.038   4.604   2.139
 3998TIP3   OH211999   2.616   3.441   4.241
 3998TIP3    H112000   2.522   3.441   4.222
 3998TIP3    H212001   2.630   3.363   4.294
 3999TIP3   OH212002   2.027   5.871   2.897
 3999TIP3    H112003   1.979   5.807   2.949
 3999TIP3    H212004   2.045   5.826   2.814
 4000TIP3   OH212005   4.065   4.959   3.053
 4000TIP3    H112006   4.071   4.969   2.958
 4000TIP3    H212007   4.023   5.040   3.082
 4001TIP3   OH212008   6.139   4.971   4.397
 4001TIP3    H112009   6.231   4.962   4.371
 4001TIP3    H212010   6.121   5.064   4.388
 4002TIP3   OH212011   4.965   1.543   3.869
 4002TIP3    H112012   4.972   1.476   3.937
 4002TIP3    H212013   5.040   1.600   3.884
 4003TIP3   OH212014   2.279   5.685   4.422
 4003TIP3    H112015   2.290   5.736   4.342
 4003TIP3    H212016   2.331   5.732   4.487
 4004TIP3   OH212017   6.234   2.103   4.921
 4004TIP3    H112018   6.254   2.158   4.845
 4004TIP3    H212019   6.320   2.078   4.955
 4005TIP3   OH212020   4.846   5.031   0.650
 4005TIP3    H112021   4.859   4.998   0.739
 4005TIP3    H212022   4.905   5.106   0.644
 4006TIP3   OH212023   1.890   0.431   2.528
 4006TIP3    H112024   1.812   0.412   2.580
 4006TIP3    H212025   1.963   0.401   2.582
 4007TIP3   OH212026   5.043   0.832   3.528
 4007TIP3    H112027   5.102   0.907   3.537
 4007TIP3    H212028   4.958   0.871   3.509
 4008TIP3   OH212029   5.224   0.566   2.218
 4008TIP3    H112030   5.198   0.553   2.309
 4008TIP3    H212031   5.144   0.590   2.173
 4009TIP3   OH212032   2.785   0.078   4.922
 4009TIP3    H112033   2.824   0.155   4.880
 4009TIP3    H212034   2.734   0.114   4.995
 4010TIP3   OH212035   5.735   2.168   1.149
 4010TIP3    H112036   5.721   2.257   1.116
 4010TIP3    H212037   5.770   2.120   1.074
 4011TIP3   OH212038   4.626   4.129   2.845
 4011TIP3    H112039   4.570   4.052   2.846
 4011TIP3    H212040   4.713   4.097   2.871
 4012TIP3   OH212041   5.080   4.707   4.870
 4012TIP3    H112042   5.121   4.756   4.942
 4012TIP3    H212043   5.001   4.668   4.909
 4013TIP3   OH212044   0.885   1.597   0.539
 4013TIP3    H112045   0.930   1.530   0.590
 4013TIP3    H212046   0.795   1.566   0.530
 4014TIP3   OH212047   2.502   0.107   3.457
 4014TIP3    H112048   2.462   0.043   3.517
 4014TIP3    H212049   2.457   0.189   3.477
 4015TIP3   OH212050   6.181   4.877   1.959
 4015TIP3    H112051   6.106   4.850   2.013
 4015TIP3    H212052   6.247   4.810   1.975
 4016TIP3   OH212053   1.755   1.893   3.171
 4016TIP3    H112054   1.695   1.870   3.100
 4016TIP3    H212055   1.758   1.815   3.226
 4017TIP3   OH212056   3.604   3.375   2.431
 4017TIP3    H112057   3.580   3.456   2.478
 4017TIP3    H212058   3.574   3.390   2.341
 4018TIP3   OH212059   3.783   0.712   4.631
 4018TIP3    H112060   3.758   0.660   4.707
 4018TIP3    H212061   3.770   0.803   4.658
 4019TIP3   OH212062   3.744   3.209   1.806
 4019TIP3    H112063   3.683   3.209   1.880
 4019TIP3    H212064   3.797   3.131   1.818
 4020TIP3   OH212065   0.564   1.272   2.787
 4020TIP3    H112066   0.659   1.264   2.780
 4020TIP3    H212067   0.550   1.352   2.838
 4021TIP3   OH212068   4.370   2.712   1.384
 4021TIP3    H112069   4.388   2.620   1.403
 4021TIP3    H212070   4.313   2.741   1.456
 4022TIP3   OH212071   5.207   4.504   4.219
 4022TIP3    H112072   5.235   4.567   4.286
 4022TIP3    H212073   5.288   4.477   4.177
 4023TIP3   OH212074   4.838   4.931   2.617
 4023TIP3    H112075   4.773   4.994   2.648
 4023TIP3    H212076   4.898   4.920   2.690
 4024TIP3   OH212077   0.923   0.372   4.165
 4024TIP3    H112078   0.988   0.366   4.235
 4024TIP3    H212079   0.975   0.393   4.087
 4025TIP3   OH212080   5.835   4.264   1.644
 4025TIP3    H112081   5.779   4.341   1.652
 4025TIP3    H212082   5.878   4.274   1.559
 4026TIP3   OH212083   0.158   4.554   3.132
 4026TIP3    H112084   0.121   4.475   3.170
 4026TIP3    H212085   0.230   4.578   3.190
 4027TIP3   OH212086   2.283   5.235   5.118
 4027TIP3    H112087   2.238   5.176   5.057
 4027TIP3    H212088   2.230   5.315   5.118
 4028TIP3   OH212089   6.142   2.330   0.771
 4028TIP3    H112090   6.101   2.256   0.817
 4028TIP3    H212091   6.152   2.299   0.681
 4029TIP3   OH212092   1.937   3.878   3.512
 4029TIP3    H112093   1.895   3.928   3.442
 4029TIP3    H212094   1.864   3.840   3.561
 4030TIP3   OH212095   4.327   3.317   1.182
 4030TIP3    H112096   4.328   3.228   1.147
 4030TIP3    H212097   4.288   3.308   1.269
 4031TIP3   OH212098   6.135   5.831   3.226
 4031TIP3    H112099   6.117   5.756   3.283
 4031TIP3    H212100   6.154   5.792   3.140
 4032TIP3   OH212101   5.713   4.283   0.581
 4032TIP3    H112102   5.691   4.311   0.670
 4032TIP3    H212103   5.633   4.244   0.547
 4033TIP3   OH212104   3.272   0.828   4.968
 4033TIP3    H112105   3.183   0.809   4.939
 4033TIP3    H212106   3.270   0.811   5.063
 4034TIP3   OH212107   5.774   0.497   5.112
 4034TIP3    H112108   5.866   0.507   5.138
 4034TIP3    H212109   5.745   0.417   5.157
 4035TIP3   OH212110   4.804   5.481   2.110
 4035TIP3    H112111   4.739   5.435   2.056
 4035TIP3    H212112   4.848   5.412   2.159
 4036TIP3   OH212113   1.025   0.375   5.215
 4036TIP3    H112114   1.109   0.353   5.175
 4036TIP3    H212115   0.999   0.457   5.174
 4037TIP3   OH212116   6.316   4.076   3.144
 4037TIP3    H112117   6.400   4.099   3.103
 4037TIP3    H212118   6.261   4.048   3.071
 4038TIP3   OH212119   4.185   2.236   0.711
 4038TIP3    H112120   4.206   2.178   0.784
 4038TIP3    H212121   4.194   2.324   0.747
 4039TIP3   OH212122   5.571   3.333   1.348
 4039TIP3    H112123   5.574   3.291   1.262
 4039TIP3    H212124   5.660   3.322   1.383
 4040TIP3   OH212125   1.687   0.537   1.558
 4040TIP3    H112126   1.649   0.624   1.555
 4040TIP3    H212127   1.618   0.482   1.595
 4041TIP3   OH212128   0.958   4.265   1.372
 4041TIP3    H112129   0.896   4.264   1.445
 4041TIP3    H212130   0.932   4.342   1.320
 4042TIP3   OH212131   0.885   2.873   0.876
 4042TIP3    H112132   0.919   2.789   0.908
 4042TIP3    H212133   0.928   2.939   0.930
 4043TIP3   OH212134   2.575   1.752   3.989
 4043TIP3    H112135   2.637   1.776   3.920
 4043TIP3    H212136   2.491   1.784   3.958
 4044TIP3   OH212137   3.076   3.434   3.766
 4044TIP3    H112138   3.144   3.448   3.700
 4044TIP3    H212139   3.061   3.339   3.765
 4045TIP3   OH212140   4.033   3.907   0.702
 4045TIP3    H112141   4.112   3.895   0.754
 4045TIP3    H212142   4.064   3.948   0.621
 4046TIP3   OH212143   2.622   5.302   0.872
 4046TIP3    H112144   2.603   5.252   0.951
 4046TIP3    H212145   2.669   5.240   0.815
 4047TIP3   OH212146   3.228   0.292   2.373
 4047TIP3    H112147   3.289   0.342   2.428
 4047TIP3    H212148   3.224   0.342   2.291
 4048TIP3   OH212149   5.950   1.967   1.717
 4048TIP3    H112150   5.966   2.062   1.714
 4048TIP3    H212151   6.037   1.928   1.720
 4049TIP3   OH212152   2.956   5.570   0.343
 4049TIP3    H112153   2.976   5.614   0.260
 4049TIP3    H212154   2.860   5.574   0.349
 4050TIP3   OH212155   4.006   0.770   4.886
 4050TIP3    H112156   3.911   0.754   4.890
 4050TIP3    H212157   4.025   0.822   4.964
 4051TIP3   OH212158   2.425   2.376   0.401
 4051TIP3    H112159   2.334   2.404   0.410
 4051TIP3    H212160   2.463   2.388   0.489
 4052TIP3   OH212161   3.112   3.969   0.747
 4052TIP3    H112162   3.028   3.940   0.783
 4052TIP3    H212163   3.098   4.061   0.724
 4053TIP3   OH212164   2.964   0.117   3.793
 4053TIP3    H112165   2.935   0.202   3.826
 4053TIP3    H212166   2.953   0.124   3.698
 4054TIP3   OH212167   3.731   5.731   2.118
 4054TIP3    H112168   3.783   5.713   2.039
 4054TIP3    H212169   3.656   5.782   2.085
 4055TIP3   OH212170   4.637   2.823   2.485
 4055TIP3    H112171   4.708   2.775   2.443
 4055TIP3    H212172   4.574   2.755   2.509
 4056TIP3   OH212173   3.962   4.254   4.842
 4056TIP3    H112174   3.978   4.189   4.911
 4056TIP3    H212175   4.046   4.297   4.829
 4057TIP3   OH212176   0.721   4.996   3.760
 4057TIP3    H112177   0.710   5.064   3.825
 4057TIP3    H212178   0.650   5.010   3.697
 4058TIP3   OH212179   3.938   4.898   4.083
 4058TIP3    H112180   3.939   4.811   4.042
 4058TIP3    H212181   3.848   4.911   4.111
 4059TIP3   OH212182   5.574   2.701   3.879
 4059TIP3    H112183   5.520   2.641   3.930
 4059TIP3    H212184   5.516   2.732   3.809
 4060TIP3   OH212185   3.929   2.692   3.195
 4060TIP3    H112186   3.867   2.641   3.247
 4060TIP3    H212187   3.874   2.746   3.138
 4061TIP3   OH212188   0.894   4.006   2.260
 4061TIP3    H112189   0.985   3.995   2.288
 4061TIP3    H212190   0.900   4.053   2.177
 4062TIP3   OH212191   4.478   2.222   3.612
 4062TIP3    H112192   4.521   2.224   3.526
 4062TIP3    H212193   4.458   2.314   3.630
 4063TIP3   OH212194   2.440   0.189   2.034
 4063TIP3    H112195   2.474   0.218   2.119
 4063TIP3    H212196   2.354   0.230   2.028
 4064TIP3   OH212197   1.590   5.082   3.016
 4064TIP3    H112198   1.609   5.054   3.105
 4064TIP3    H212199   1.563   5.174   3.025
 4065TIP3   OH212200   3.676   5.165   3.341
 4065TIP3    H112201   3.668   5.077   3.379
 4065TIP3    H212202   3.738   5.210   3.398
 4066TIP3   OH212203   3.854   2.797   2.509
 4066TIP3    H112204   3.774   2.849   2.503
 4066TIP3    H212205   3.908   2.843   2.573
 4067TIP3   OH212206   3.370   4.017   3.010
 4067TIP3    H112207   3.296   4.059   2.967
 4067TIP3    H212208   3.435   4.087   3.020
 4068TIP3   OH212209   0.276   2.368   1.957
 4068TIP3    H112210   0.371   2.358   1.949
 4068TIP3    H212211   0.265   2.454   1.998
 4069TIP3   OH212212   3.630   3.092   3.146
 4069TIP3    H112213   3.657   3.180   3.171
 4069TIP3    H212214   3.581   3.059   3.221
 4070TIP3   OH212215   5.570   5.555   1.408
 4070TIP3    H112216   5.484   5.583   1.439
 4070TIP3    H212217   5.620   5.636   1.397
 4071TIP3   OH212218   2.493   0.329   0.167
 4071TIP3    H112219   2.582   0.311   0.199
 4071TIP3    H212220   2.471   0.252   0.114
 4072TIP3   OH212221   2.560   3.729   4.223
 4072TIP3    H112222   2.616   3.778   4.283
 4072TIP3    H212223   2.556   3.641   4.261
 4073TIP3   OH212224   2.039   1.961   4.274
 4073TIP3    H112225   1.987   1.926   4.346
 4073TIP3    H212226   2.129   1.962   4.308
 4074TIP3   OH212227   1.821   2.517   0.843
 4074TIP3    H112228   1.808   2.486   0.754
 4074TIP3    H212229   1.763   2.463   0.896
 4075TIP3   OH212230   4.673   0.766   4.803
 4075TIP3    H112231   4.691   0.678   4.771
 4075TIP3    H212232   4.654   0.754   4.896
 4076TIP3   OH212233   2.772   5.788   1.325
 4076TIP3    H112234   2.816   5.708   1.297
 4076TIP3    H212235   2.815   5.858   1.276
 4077TIP3   OH212236   3.906   3.738   2.793
 4077TIP3    H112237   3.999   3.716   2.796
 4077TIP3    H212238   3.871   3.684   2.721
 4078TIP3   OH212239   3.153   1.239   1.778
 4078TIP3    H112240   3.155   1.149   1.810
 4078TIP3    H212241   3.154   1.231   1.683
 4079TIP3   OH212242   4.211   1.875   5.078
 4079TIP3    H112243   4.304   1.865   5.101
 4079TIP3    H212244   4.175   1.787   5.086
 4080TIP3   OH212245   3.370   1.543   2.172
 4080TIP3    H112246   3.343   1.484   2.102
 4080TIP3    H212247   3.289   1.566   2.217
 4081TIP3   OH212248   4.777   0.241   4.013
 4081TIP3    H112249   4.684   0.242   4.034
 4081TIP3    H212250   4.820   0.272   4.093
 4082TIP3   OH212251   2.651   1.609   3.126
 4082TIP3    H112252   2.708   1.672   3.081
 4082TIP3    H212253   2.566   1.654   3.131
 4083TIP3   OH212254   0.609   3.567   2.622
 4083TIP3    H112255   0.558   3.502   2.573
 4083TIP3    H212256   0.677   3.596   2.561
 4084TIP3   OH212257   4.609   2.085   0.391
 4084TIP3    H112258   4.534   2.126   0.434
 4084TIP3    H212259   4.679   2.090   0.456
 4085TIP3   OH212260   5.523   3.501   0.632
 4085TIP3    H112261   5.469   3.467   0.561
 4085TIP3    H212262   5.557   3.584   0.599
 4086TIP3   OH212263   2.217   3.002   3.391
 4086TIP3    H112264   2.289   2.967   3.444
 4086TIP3    H212265   2.224   2.956   3.308
 4087TIP3   OH212266   6.357   1.606   4.032
 4087TIP3    H112267   6.429   1.644   4.080
 4087TIP3    H212268   6.382   1.616   3.940
 4088TIP3   OH212269   3.675   4.875   4.054
 4088TIP3    H112270   3.700   4.816   3.983
 4088TIP3    H212271   3.593   4.914   4.025
 4089TIP3   OH212272   5.743   1.516   2.170
 4089TIP3    H112273   5.720   1.502   2.078
 4089TIP3    H212274   5.768   1.608   2.175
 4090TIP3   OH212275   5.390   2.439   4.787
 4090TIP3    H112276   5.397   2.449   4.882
 4090TIP3    H212277   5.480   2.434   4.756
 4091TIP3   OH212278   4.738   1.257   2.871
 4091TIP3    H112279   4.824   1.294   2.854
 4091TIP3    H212280   4.734   1.179   2.815
 4092TIP3   OH212281   6.269   2.979   3.647
 4092TIP3    H112282   6.242   2.928   3.722
 4092TIP3    H212283   6.309   2.916   3.587
 4093TIP3   OH212284   4.006   0.618   2.125
 4093TIP3    H112285   3.962   0.568   2.057
 4093TIP3    H212286   3.967   0.705   2.119
 4094TIP3   OH212287   0.207   5.786   1.258
 4094TIP3    H112288   0.151   5.848   1.211
 4094TIP3    H212289   0.250   5.735   1.190
 4095TIP3   OH212290   0.885   5.510   0.239
 4095TIP3    H112291   0.977   5.489   0.221
 4095TIP3    H212292   0.837   5.430   0.216
 4096TIP3   OH212293   4.629   3.284   2.777
 4096TIP3    H112294   4.713   3.289   2.732
 4096TIP3    H212295   4.623   3.193   2.807
 4097TIP3   OH212296   6.131   2.477   2.263
 4097TIP3    H112297   6.091   2.475   2.176
 4097TIP3    H212298   6.057   2.484   2.323
 4098TIP3   OH212299   4.195   4.202   3.317
 4098TIP3    H112300   4.215   4.291   3.288
 4098TIP3    H212301   4.172   4.155   3.238
 4099TIP3   OH212302   1.168   4.920   2.759
 4099TIP3    H112303   1.180   4.962   2.674
 4099TIP3    H212304   1.149   4.829   2.739
 4100TIP3   OH212305   4.628   3.126   3.216
 4100TIP3    H112306   4.705   3.145   3.163
 4100TIP3    H212307   4.609   3.208   3.261
 4101TIP3   OH212308   6.254   1.935   0.761
 4101TIP3    H112309   6.296   1.962   0.842
 4101TIP3    H212310   6.173   1.892   0.789
 4102TIP3   OH212311   0.257   1.941   0.802
 4102TIP3    H112312   0.182   1.887   0.828
 4102TIP3    H212313   0.277   1.992   0.880
 4103TIP3   OH212314   4.397   3.553   0.068
 4103TIP3    H112315   4.314   3.586   0.034
 4103TIP3    H212316   4.455   3.629   0.065
 4104TIP3   OH212317   3.824   0.061   3.663
 4104TIP3    H112318   3.825   0.050   3.758
 4104TIP3    H212319   3.917   0.059   3.638
 4105TIP3   OH212320   1.653   4.381   0.511
 4105TIP3    H112321   1.743   4.378   0.542
 4105TIP3    H212322   1.646   4.465   0.466
 4106TIP3   OH212323   0.368   3.216   5.018
 4106TIP3    H112324   0.343   3.301   5.054
 4106TIP3    H212325   0.435   3.235   4.952
 4107TIP3   OH212326   2.711   1.562   1.600
 4107TIP3    H112327   2.775   1.582   1.669
 4107TIP3    H212328   2.739   1.477   1.566
 4108TIP3   OH212329   0.905   1.669   1.726
 4108TIP3    H112330   0.910   1.761   1.752
 4108TIP3    H212331   0.851   1.628   1.793
 4109TIP3   OH212332   1.855   1.685   3.677
 4109TIP3    H112333   1.794   1.614   3.657
 4109TIP3    H212334   1.804   1.746   3.730
 4110TIP3   OH212335   1.247   0.897   3.408
 4110TIP3    H112336   1.260   0.991   3.397
 4110TIP3    H212337   1.330   0.865   3.444
 4111TIP3   OH212338   2.544   0.290   3.840
 4111TIP3    H112339   2.497   0.218   3.797
 4111TIP3    H212340   2.476   0.337   3.888
 4112TIP3   OH212341   1.416   0.598   2.089
 4112TIP3    H112342   1.376   0.672   2.043
 4112TIP3    H212343   1.464   0.551   2.021
 4113TIP3   OH212344   5.720   5.522   3.038
 4113TIP3    H112345   5.714   5.544   3.131
 4113TIP3    H212346   5.814   5.522   3.020
 4114TIP3   OH212347   0.726   2.877   3.246
 4114TIP3    H112348   0.821   2.876   3.258
 4114TIP3    H212349   0.713   2.876   3.152
 4115TIP3   OH212350   2.546   5.924   3.960
 4115TIP3    H112351   2.592   5.956   4.038
 4115TIP3    H212352   2.593   5.844   3.936
 4116TIP3   OH212353   5.708   4.132   1.234
 4116TIP3    H112354   5.782   4.120   1.294
 4116TIP3    H212355   5.632   4.140   1.291
 4117TIP3   OH212356   5.882   3.712   0.902
 4117TIP3    H112357   5.844   3.715   0.814
 4117TIP3    H212358   5.873   3.621   0.928
 4118TIP3   OH212359   1.095   3.720   2.486
 4118TIP3    H112360   1.172   3.757   2.443
 4118TIP3    H212361   1.118   3.721   2.579
 4119TIP3   OH212362   0.840   2.315   3.733
 4119TIP3    H112363   0.919   2.265   3.754
 4119TIP3    H212364   0.780   2.298   3.807
 4120TIP3   OH212365   1.407   4.115   2.425
 4120TIP3    H112366   1.351   4.158   2.360
 4120TIP3    H212367   1.430   4.184   2.487
 4121TIP3   OH212368   3.300   3.188   5.076
 4121TIP3    H112369   3.258   3.163   5.159
 4121TIP3    H212370   3.393   3.172   5.091
 4122TIP3   OH212371   3.289   1.270   4.668
 4122TIP3    H112372   3.339   1.191   4.649
 4122TIP3    H212373   3.262   1.303   4.582
 4123TIP3   OH212374   5.770   3.372   2.229
 4123TIP3    H112375   5.740   3.284   2.208
 4123TIP3    H212376   5.803   3.366   2.318
 4124TIP3   OH212377   0.917   0.556   1.095
 4124TIP3    H112378   0.928   0.470   1.053
 4124TIP3    H212379   0.908   0.536   1.188
 4125TIP3   OH212380   4.648   4.254   3.440
 4125TIP3    H112381   4.702   4.176   3.456
 4125TIP3    H212382   4.711   4.325   3.426
 4126TIP3   OH212383   5.090   0.150   3.537
 4126TIP3    H112384   5.029   0.077   3.537
 4126TIP3    H212385   5.174   0.111   3.562
 4127TIP3   OH212386   3.943   5.605   0.977
 4127TIP3    H112387   3.883   5.587   0.905
 4127TIP3    H212388   4.007   5.535   0.975
 4128TIP3   OH212389   3.545   1.997   1.882
 4128TIP3    H112390   3.632   1.968   1.911
 4128TIP3    H212391   3.491   1.996   1.961
 4129TIP3   OH212392   5.047   4.037   2.764
 4129TIP3    H112393   4.981   4.041   2.834
 4129TIP3    H212394   5.128   4.016   2.809
 4130TIP3   OH212395   5.321   3.787   2.845
 4130TIP3    H112396   5.243   3.741   2.876
 4130TIP3    H212397   5.326   3.866   2.900
 4131TIP3   OH212398   2.113   0.800   2.202
 4131TIP3    H112399   2.052   0.866   2.170
 4131TIP3    H212400   2.071   0.763   2.279
 4132TIP3   OH212401   5.252   0.608   0.438
 4132TIP3    H112402   5.273   0.651   0.521
 4132TIP3    H212403   5.336   0.602   0.392
 4133TIP3   OH212404   3.350   2.356   0.695
 4133TIP3    H112405   3.432   2.312   0.673
 4133TIP3    H212406   3.283   2.307   0.645
 4134TIP3   OH212407   3.818   1.646   2.204
 4134TIP3    H112408   3.758   1.689   2.143
 4134TIP3    H212409   3.779   1.660   2.290
 4135TIP3   OH212410   1.817   4.173   0.358
 4135TIP3    H112411   1.758   4.245   0.381
 4135TIP3    H212412   1.901   4.215   0.342
 4136TIP3   OH212413   1.804   3.824   4.366
 4136TIP3    H112414   1.780   3.895   4.306
 4136TIP3    H212415   1.891   3.848   4.398
 4137TIP3   OH212416   1.566   0.640   2.507
 4137TIP3    H112417   1.481   0.627   2.465
 4137TIP3    H212418   1.626   0.656   2.434
 4138TIP3   OH212419   3.290   3.735   2.789
 4138TIP3    H112420   3.365   3.705   2.841
 4138TIP3    H212421   3.325   3.808   2.738
 4139TIP3   OH212422   3.397   2.226   2.411
 4139TIP3    H112423   3.463   2.171   2.369
 4139TIP3    H212424   3.380   2.297   2.349
 4140TIP3   OH212425   4.960   0.669   2.092
 4140TIP3    H112426   4.893   0.689   2.157
 4140TIP3    H212427   4.952   0.739   2.027
 4141TIP3   OH212428   3.349   5.272   1.352
 4141TIP3    H112429   3.298   5.222   1.289
 4141TIP3    H212430   3.307   5.256   1.436
 4142TIP3   OH212431   2.621   4.661   1.200
 4142TIP3    H112432   2.713   4.646   1.218
 4142TIP3    H212433   2.584   4.573   1.191
 4143TIP3   OH212434   6.379   5.127   0.617
 4143TIP3    H112435   6.284   5.135   0.624
 4143TIP3    H212436   6.414   5.184   0.686
 4144TIP3   OH212437   2.789   2.634   0.261
 4144TIP3    H112438   2.712   2.643   0.205
 4144TIP3    H212439   2.855   2.593   0.205
 4145TIP3   OH212440   1.288   3.664   3.540
 4145TIP3    H112441   1.325   3.592   3.489
 4145TIP3    H212442   1.226   3.707   3.481
 4146TIP3   OH212443   3.164   0.510   0.920
 4146TIP3    H112444   3.137   0.584   0.865
 4146TIP3    H212445   3.082   0.464   0.941
 4147TIP3   OH212446   2.748   1.236   3.755
 4147TIP3    H112447   2.784   1.256   3.668
 4147TIP3    H212448   2.684   1.166   3.738
 4148TIP3   OH212449   4.608   5.718   4.200
 4148TIP3    H112450   4.515   5.699   4.186
 4148TIP3    H212451   4.620   5.806   4.164
 4149TIP3   OH212452   4.764   1.146   4.518
 4149TIP3    H112453   4.712   1.214   4.561
 4149TIP3    H212454   4.714   1.124   4.439
 4150TIP3   OH212455   0.973   5.500   1.245
 4150TIP3    H112456   1.059   5.522   1.282
 4150TIP3    H212457   0.954   5.413   1.280
 4151TIP3   OH212458   0.017   2.056   0.990
 4151TIP3    H112459   0.105   2.078   0.960
 4151TIP3    H212460   0.029   2.027   1.080
 4152TIP3   OH212461   5.277   4.103   4.056
 4152TIP3    H112462   5.331   4.123   3.979
 4152TIP3    H212463   5.188   4.125   4.029
 4153TIP3   OH212464   2.324   0.909   0.561
 4153TIP3    H112465   2.230   0.907   0.577
 4153TIP3    H212466   2.333   0.922   0.467
 4154TIP3   OH212467   2.826   3.282   2.863
 4154TIP3    H112468   2.885   3.322   2.926
 4154TIP3    H212469   2.745   3.333   2.869
 4155TIP3   OH212470   3.204   2.772   0.308
 4155TIP3    H112471   3.112   2.798   0.307
 4155TIP3    H212472   3.253   2.852   0.290
 4156TIP3   OH212473   2.555   1.989   1.201
 4156TIP3    H112474   2.573   2.070   1.153
 4156TIP3    H212475   2.556   2.016   1.293
 4157TIP3   OH212476   4.142   2.799   0.170
 4157TIP3    H112477   4.179   2.866   0.228
 4157TIP3    H212478   4.173   2.716   0.205
 4158TIP3   OH212479   5.677   1.279   0.372
 4158TIP3    H112480   5.765   1.263   0.338
 4158TIP3    H212481   5.676   1.235   0.457
 4159TIP3   OH212482   3.954   1.059   0.161
 4159TIP3    H112483   3.923   1.126   0.221
 4159TIP3    H212484   3.898   0.983   0.178
 4160TIP3   OH212485   0.283   4.745   2.619
 4160TIP3    H112486   0.278   4.814   2.686
 4160TIP3    H212487   0.224   4.775   2.550
 4161TIP3   OH212488   5.365   2.170   4.495
 4161TIP3    H112489   5.370   2.150   4.589
 4161TIP3    H212490   5.271   2.174   4.477
 4162TIP3   OH212491   1.337   4.804   5.174
 4162TIP3    H112492   1.343   4.811   5.078
 4162TIP3    H212493   1.373   4.886   5.206
 4163TIP3   OH212494   0.705   4.338   1.784
 4163TIP3    H112495   0.702   4.415   1.727
 4163TIP3    H212496   0.701   4.264   1.723
 4164TIP3   OH212497   3.301   4.514   0.593
 4164TIP3    H112498   3.319   4.554   0.507
 4164TIP3    H212499   3.205   4.512   0.598
 4165TIP3   OH212500   5.508   3.743   2.016
 4165TIP3    H112501   5.514   3.739   2.112
 4165TIP3    H212502   5.593   3.711   1.985
 4166TIP3   OH212503   1.286   2.399   2.635
 4166TIP3    H112504   1.372   2.415   2.674
 4166TIP3    H212505   1.264   2.309   2.661
 4167TIP3   OH212506   6.043   5.900   2.927
 4167TIP3    H112507   6.114   5.957   2.958
 4167TIP3    H212508   5.963   5.944   2.955
 4168TIP3   OH212509   3.789   3.586   4.831
 4168TIP3    H112510   3.762   3.566   4.921
 4168TIP3    H212511   3.710   3.573   4.779
 4169TIP3   OH212512   5.633   4.773   4.524
 4169TIP3    H112513   5.660   4.734   4.607
 4169TIP3    H212514   5.596   4.858   4.548
 4170TIP3   OH212515   1.490   4.558   0.925
 4170TIP3    H112516   1.529   4.471   0.934
 4170TIP3    H212517   1.398   4.540   0.903
 4171TIP3   OH212518   0.423   1.244   3.153
 4171TIP3    H112519   0.335   1.252   3.189
 4171TIP3    H212520   0.448   1.153   3.171
 4172TIP3   OH212521   0.057   4.887   3.929
 4172TIP3    H112522  -0.011   4.837   3.882
 4172TIP3    H212523   0.074   4.836   4.008
 4173TIP3   OH212524   3.525   1.505   0.676
 4173TIP3    H112525   3.555   1.438   0.615
 4173TIP3    H212526   3.558   1.476   0.761
 4174TIP3   OH212527   2.066   2.674   2.320
 4174TIP3    H112528   1.985   2.722   2.340
 4174TIP3    H212529   2.044   2.583   2.340
 4175TIP3   OH212530   3.635   5.290   1.338
 4175TIP3    H112531   3.540   5.283   1.331
 4175TIP3    H212532   3.657   5.240   1.416
 4176TIP3   OH212533   3.351   2.049   0.288
 4176TIP3    H112534   3.377   2.124   0.235
 4176TIP3    H212535   3.422   1.986   0.277
 4177TIP3   OH212536   2.507   4.452   2.953
 4177TIP3    H112537   2.520   4.359   2.973
 4177TIP3    H212538   2.430   4.453   2.896
 4178TIP3   OH212539   0.453   0.658   0.852
 4178TIP3    H112540   0.495   0.643   0.937
 4178TIP3    H212541   0.437   0.570   0.818
 4179TIP3   OH212542   5.602   1.019   1.527
 4179TIP3    H112543   5.689   0.995   1.560
 4179TIP3    H212544   5.610   1.013   1.432
 4180TIP3   OH212545   4.302   2.662   3.110
 4180TIP3    H112546   4.209   2.640   3.105
 4180TIP3    H212547   4.335   2.609   3.183
 4181TIP3   OH212548   2.561   3.921   1.989
 4181TIP3    H112549   2.564   3.993   2.052
 4181TIP3    H212550   2.646   3.878   1.999
 4182TIP3   OH212551   3.248   0.332   3.087
 4182TIP3    H112552   3.159   0.359   3.111
 4182TIP3    H212553   3.294   0.414   3.069
 4183TIP3   OH212554   4.787   2.578   4.106
 4183TIP3    H112555   4.709   2.529   4.080
 4183TIP3    H212556   4.783   2.659   4.055
 4184TIP3   OH212557   2.587   2.306   2.346
 4184TIP3    H112558   2.573   2.349   2.430
 4184TIP3    H212559   2.636   2.371   2.295
 4185TIP3   OH212560   4.528   4.987   1.555
 4185TIP3    H112561   4.493   4.966   1.642
 4185TIP3    H212562   4.460   5.040   1.514
 4186TIP3   OH212563   2.528   2.535   1.633
 4186TIP3    H112564   2.503   2.516   1.543
 4186TIP3    H212565   2.623   2.549   1.629
 4187TIP3   OH212566   2.887   1.919   2.694
 4187TIP3    H112567   2.946   1.846   2.674
 4187TIP3    H212568   2.832   1.887   2.766
 4188TIP3   OH212569   4.006   0.149   0.194
 4188TIP3    H112570   4.015   0.241   0.219
 4188TIP3    H212571   4.092   0.125   0.159
 4189TIP3   OH212572   3.405   0.830   3.813
 4189TIP3    H112573   3.405   0.746   3.858
 4189TIP3    H212574   3.408   0.895   3.884
 4190TIP3   OH212575   0.639   0.368   3.926
 4190TIP3    H112576   0.649   0.349   3.833
 4190TIP3    H212577   0.726   0.355   3.963
 4191TIP3   OH212578   0.413   2.099   2.629
 4191TIP3    H112579   0.423   2.125   2.538
 4191TIP3    H212580   0.424   2.004   2.629
 4192TIP3   OH212581   1.566   5.788   1.142
 4192TIP3    H112582   1.652   5.753   1.166
 4192TIP3    H212583   1.584   5.876   1.110
 4193TIP3   OH212584   4.850   2.237   0.129
 4193TIP3    H112585   4.827   2.330   0.131
 4193TIP3    H212586   4.872   2.220   0.037
 4194TIP3   OH212587   3.545   2.559   2.494
 4194TIP3    H112588   3.563   2.550   2.401
 4194TIP3    H212589   3.512   2.472   2.521
 4195TIP3   OH212590   2.970   0.964   1.640
 4195TIP3    H112591   3.015   1.006   1.566
 4195TIP3    H212592   3.041   0.931   1.695
 4196TIP3   OH212593   3.736   3.604   1.105
 4196TIP3    H112594   3.703   3.610   1.015
 4196TIP3    H212595   3.668   3.643   1.159
 4197TIP3   OH212596   5.583   4.938   2.205
 4197TIP3    H112597   5.655   4.894   2.250
 4197TIP3    H212598   5.584   5.027   2.240
 4198TIP3   OH212599   3.607   1.256   4.052
 4198TIP3    H112600   3.597   1.166   4.084
 4198TIP3    H212601   3.689   1.286   4.091
 4199TIP3   OH212602   2.961   5.779   4.060
 4199TIP3    H112603   2.997   5.835   4.129
 4199TIP3    H212604   2.910   5.713   4.107
 4200TIP3   OH212605   3.828   5.435   1.550
 4200TIP3    H112606   3.778   5.355   1.567
 4200TIP3    H212607   3.780   5.503   1.597
 4201TIP3   OH212608   3.224   0.664   3.573
 4201TIP3    H112609   3.313   0.676   3.541
 4201TIP3    H212610   3.208   0.739   3.629
 4202TIP3   OH212611   5.625   3.396   3.236
 4202TIP3    H112612   5.626   3.356   3.149
 4202TIP3    H212613   5.542   3.444   3.240
 4203TIP3   OH212614   5.843   2.871   4.066
 4203TIP3    H112615   5.783   2.807   4.104
 4203TIP3    H212616   5.926   2.824   4.058
 4204TIP3   OH212617   4.825   0.068   2.032
 4204TIP3    H112618   4.821   0.156   2.067
 4204TIP3    H212619   4.906   0.031   2.066
 4205TIP3   OH212620   4.927   4.821   0.134
 4205TIP3    H112621   4.931   4.842   0.228
 4205TIP3    H212622   4.864   4.883   0.098
 4206TIP3   OH212623   6.172   5.453   0.949
 4206TIP3    H112624   6.200   5.531   0.902
 4206TIP3    H212625   6.220   5.456   1.032
 4207TIP3   OH212626   0.210   1.322   2.410
 4207TIP3    H112627   0.204   1.416   2.399
 4207TIP3    H212628   0.303   1.305   2.423
 4208TIP3   OH212629   1.971   3.665   4.143
 4208TIP3    H112630   1.983   3.616   4.061
 4208TIP3    H212631   1.917   3.608   4.197
 4209TIP3   OH212632   2.087   0.346   3.293
 4209TIP3    H112633   2.163   0.290   3.277
 4209TIP3    H212634   2.019   0.285   3.323
 4210TIP3   OH212635   2.545   4.656   3.125
 4210TIP3    H112636   2.533   4.606   3.044
 4210TIP3    H212637   2.460   4.698   3.139
 4211TIP3   OH212638   1.976   3.724   2.096
 4211TIP3    H112639   2.053   3.780   2.098
 4211TIP3    H212640   2.011   3.635   2.102
 4212TIP3   OH212641   1.645   0.452   2.699
 4212TIP3    H112642   1.632   0.516   2.630
 4212TIP3    H212643   1.567   0.397   2.698
 4213TIP3   OH212644   2.951   0.521   3.880
 4213TIP3    H112645   3.016   0.465   3.835
 4213TIP3    H212646   2.895   0.459   3.927
 4214TIP3   OH212647   4.257   5.278   4.661
 4214TIP3    H112648   4.292   5.239   4.581
 4214TIP3    H212649   4.163   5.278   4.649
 4215TIP3   OH212650   4.726   2.888   4.183
 4215TIP3    H112651   4.724   2.858   4.092
 4215TIP3    H212652   4.817   2.876   4.211
 4216TIP3   OH212653   4.920   4.223   1.722
 4216TIP3    H112654   4.859   4.245   1.793
 4216TIP3    H212655   4.988   4.290   1.728
 4217TIP3   OH212656   5.024   0.230   1.052
 4217TIP3    H112657   5.049   0.237   0.959
 4217TIP3    H212658   4.929   0.232   1.051
 4218TIP3   OH212659   0.563   1.870   2.032
 4218TIP3    H112660   0.634   1.817   2.069
 4218TIP3    H212661   0.501   1.807   1.997
 4219TIP3   OH212662   4.737   5.516  -0.040
 4219TIP3    H112663   4.700   5.493   0.046
 4219TIP3    H212664   4.810   5.574  -0.020
 4220TIP3   OH212665   1.123   4.238   1.050
 4220TIP3    H112666   1.080   4.179   0.987
 4220TIP3    H212667   1.184   4.182   1.098
 4221TIP3   OH212668   3.565   1.317   1.541
 4221TIP3    H112669   3.538   1.227   1.520
 4221TIP3    H212670   3.534   1.368   1.466
 4222TIP3   OH212671   0.503   3.926   4.825
 4222TIP3    H112672   0.542   3.936   4.738
 4222TIP3    H212673   0.411   3.950   4.813
 4223TIP3   OH212674   5.928   0.638   1.950
 4223TIP3    H112675   6.017   0.657   1.981
 4223TIP3    H212676   5.887   0.724   1.939
 4224TIP3   OH212677   1.040   0.081   0.122
 4224TIP3    H112678   0.981   0.119   0.187
 4224TIP3    H212679   1.040  -0.013   0.142
 4225TIP3   OH212680   0.471   4.302   3.175
 4225TIP3    H112681   0.447   4.223   3.126
 4225TIP3    H212682   0.433   4.374   3.125
 4226TIP3   OH212683   2.700   2.088   0.133
 4226TIP3    H112684   2.738   2.031   0.200
 4226TIP3    H212685   2.605   2.072   0.140
 4227TIP3   OH212686   4.590   2.422   4.634
 4227TIP3    H112687   4.559   2.392   4.548
 4227TIP3    H212688   4.653   2.491   4.615
 4228TIP3   OH212689   4.981   1.023   4.623
 4228TIP3    H112690   5.020   1.092   4.678
 4228TIP3    H212691   4.914   1.068   4.573
 4229TIP3   OH212692   2.927   1.013   0.151
 4229TIP3    H112693   2.856   1.011   0.215
 4229TIP3    H212694   2.904   0.944   0.088
 4230TIP3   OH212695   5.961   4.187   1.379
 4230TIP3    H112696   6.009   4.269   1.389
 4230TIP3    H212697   6.023   4.120   1.408
 4231TIP3   OH212698   2.153   1.438   1.684
 4231TIP3    H112699   2.169   1.465   1.775
 4231TIP3    H212700   2.063   1.467   1.666
 4232TIP3   OH212701   4.445   3.408   2.549
 4232TIP3    H112702   4.489   3.367   2.475
 4232TIP3    H212703   4.485   3.369   2.626
 4233TIP3   OH212704   0.897   0.176   0.527
 4233TIP3    H112705   0.910   0.251   0.469
 4233TIP3    H212706   0.802   0.161   0.526
 4234TIP3   OH212707   0.614   1.576   0.545
 4234TIP3    H112708   0.520   1.591   0.557
 4234TIP3    H212709   0.656   1.635   0.608
 4235TIP3   OH212710   3.279   5.741   2.962
 4235TIP3    H112711   3.351   5.771   3.018
 4235TIP3    H212712   3.208   5.721   3.023
 4236TIP3   OH212713   3.965   1.624   4.041
 4236TIP3    H112714   3.997   1.545   4.084
 4236TIP3    H212715   4.032   1.646   3.977
 4237TIP3   OH212716   4.386   1.160   4.111
 4237TIP3    H112717   4.468   1.200   4.142
 4237TIP3    H212718   4.413   1.105   4.037
 4238TIP3   OH212719   3.791   2.046   3.660
 4238TIP3    H112720   3.852   2.023   3.590
 4238TIP3    H212721   3.716   1.987   3.647
 4239TIP3   OH212722   6.288   1.572   2.931
 4239TIP3    H112723   6.365   1.567   2.988
 4239TIP3    H212724   6.220   1.612   2.986
 4240TIP3   OH212725   2.316   1.716   2.402
 4240TIP3    H112726   2.362   1.698   2.320
 4240TIP3    H212727   2.262   1.638   2.417
 4241TIP3   OH212728   0.659   3.351   2.926
 4241TIP3    H112729   0.646   3.446   2.918
 4241TIP3    H212730   0.691   3.325   2.840
 4242TIP3   OH212731   1.724   3.372   5.019
 4242TIP3    H112732   1.728   3.296   4.961
 4242TIP3    H212733   1.803   3.365   5.073
 4243TIP3   OH212734   4.208   4.418   1.437
 4243TIP3    H112735   4.196   4.505   1.475
 4243TIP3    H212736   4.237   4.436   1.347
 4244TIP3   OH212737   6.263   0.212   3.949
 4244TIP3    H112738   6.250   0.267   3.872
 4244TIP3    H212739   6.256   0.272   4.023
 4245TIP3   OH212740   3.592   1.714   2.073
 4245TIP3    H112741   3.534   1.643   2.100
 4245TIP3    H212742   3.537   1.792   2.075
 4246TIP3   OH212743   1.339   5.175   4.727
 4246TIP3    H112744   1.419   5.226   4.713
 4246TIP3    H212745   1.268   5.232   4.698
 4247TIP3   OH212746   1.260   5.846   1.445
 4247TIP3    H112747   1.202   5.815   1.376
 4247TIP3    H212748   1.271   5.772   1.504
 4248TIP3   OH212749   5.529   4.915   1.917
 4248TIP3    H112750   5.550   4.931   2.009
 4248TIP3    H212751   5.446   4.961   1.904
 4249TIP3   OH212752   0.318   1.313   2.916
 4249TIP3    H112753   0.378   1.247   2.950
 4249TIP3    H212754   0.246   1.263   2.878
 4250TIP3   OH212755   2.465   3.858   0.963
 4250TIP3    H112756   2.374   3.873   0.988
 4250TIP3    H212757   2.508   3.833   1.045
 4251TIP3   OH212758   5.512   4.616   2.483
 4251TIP3    H112759   5.545   4.538   2.527
 4251TIP3    H212760   5.460   4.583   2.410
 4252TIP3   OH212761   5.462   0.580   1.676
 4252TIP3    H112762   5.366   0.585   1.679
 4252TIP3    H212763   5.490   0.671   1.662
 4253TIP3   OH212764  -0.013   3.159   4.572
 4253TIP3    H112765   0.067   3.170   4.521
 4253TIP3    H212766  -0.045   3.072   4.548
 4254TIP3   OH212767   6.256   2.561   4.709
 4254TIP3    H112768   6.317   2.630   4.735
 4254TIP3    H212769   6.254   2.566   4.613
 4255TIP3   OH212770   6.285   2.933  -0.014
 4255TIP3    H112771   6.342   2.900   0.055
 4255TIP3    H212772   6.205   2.881  -0.007
 4256TIP3   OH212773   5.883   0.164   0.407
 4256TIP3    H112774   5.858   0.211   0.328
 4256TIP3    H212775   5.976   0.146   0.396
 4257TIP3   OH212776   5.303   5.795   0.249
 4257TIP3    H112777   5.374   5.732   0.237
 4257TIP3    H212778   5.236   5.747   0.299
 4258TIP3   OH212779   1.521   2.423   0.907
 4258TIP3    H112780   1.565   2.398   0.826
 4258TIP3    H212781   1.503   2.517   0.897
 4259TIP3   OH212782   2.712   0.113   1.229
 4259TIP3    H112783   2.703   0.153   1.143
 4259TIP3    H212784   2.673   0.026   1.219
 4260TIP3   OH212785   3.763   5.550   0.763
 4260TIP3    H112786   3.735   5.591   0.681
 4260TIP3    H212787   3.681   5.536   0.811
 4261TIP3   OH212788   6.232   5.036   3.402
 4261TIP3    H112789   6.266   4.976   3.469
 4261TIP3    H212790   6.265   5.001   3.320
 4262TIP3   OH212791   0.753   1.607   1.489
 4262TIP3    H112792   0.803   1.609   1.407
 4262TIP3    H212793   0.814   1.639   1.555
 4263TIP3   OH212794   3.956   3.095   4.771
 4263TIP3    H112795   3.970   3.164   4.835
 4263TIP3    H212796   3.861   3.088   4.763
 4264TIP3   OH212797   3.760   2.330   0.866
 4264TIP3    H112798   3.817   2.282   0.805
 4264TIP3    H212799   3.803   2.416   0.875
 4265TIP3   OH212800   5.227   4.264   2.384
 4265TIP3    H112801   5.311   4.265   2.429
 4265TIP3    H212802   5.200   4.356   2.380
 4266TIP3   OH212803   5.595   5.607  -0.034
 4266TIP3    H112804   5.584   5.512  -0.037
 4266TIP3    H212805   5.519   5.639   0.014
 4267TIP3   OH212806   3.959   2.736   1.760
 4267TIP3    H112807   4.022   2.701   1.823
 4267TIP3    H212808   3.968   2.831   1.767
 4268TIP3   OH212809   6.289   1.494   4.322
 4268TIP3    H112810   6.322   1.541   4.246
 4268TIP3    H212811   6.292   1.402   4.297
 4269TIP3   OH212812   2.902   1.930   4.266
 4269TIP3    H112813   2.827   1.886   4.227
 4269TIP3    H212814   2.967   1.860   4.278
 4270TIP3   OH212815   0.391   2.232   2.943
 4270TIP3    H112816   0.466   2.266   2.894
 4270TIP3    H212817   0.320   2.292   2.920
 4271TIP3   OH212818   5.335   0.294   4.922
 4271TIP3    H112819   5.268   0.265   4.860
 4271TIP3    H212820   5.415   0.301   4.870
 4272TIP3   OH212821   3.936   3.078   0.716
 4272TIP3    H112822   3.977   3.131   0.785
 4272TIP3    H212823   3.847   3.063   0.749
 4273TIP3   OH212824   0.486   3.942   3.379
 4273TIP3    H112825   0.398   3.976   3.399
 4273TIP3    H212826   0.543   4.018   3.385
 4274TIP3   OH212827   5.305   3.847   1.676
 4274TIP3    H112828   5.336   3.865   1.765
 4274TIP3    H212829   5.337   3.759   1.657
 4275TIP3   OH212830   3.424   3.965   0.398
 4275TIP3    H112831   3.342   3.997   0.436
 4275TIP3    H212832   3.472   3.928   0.472
 4276TIP3   OH212833   0.396   5.743   3.563
 4276TIP3    H112834   0.459   5.800   3.605
 4276TIP3    H212835   0.318   5.748   3.619
 4277TIP3   OH212836   4.746   2.031   4.126
 4277TIP3    H112837   4.744   1.955   4.183
 4277TIP3    H212838   4.804   2.093   4.170
 4278TIP3   OH212839   3.551   0.171   0.712
 4278TIP3    H112840   3.613   0.221   0.659
 4278TIP3    H212841   3.484   0.235   0.737
 4279TIP3   OH212842   0.979   0.325   1.703
 4279TIP3    H112843   1.038   0.397   1.724
 4279TIP3    H212844   0.893   0.366   1.696
 4280TIP3   OH212845   5.721   0.458   1.662
 4280TIP3    H112846   5.753   0.466   1.752
 4280TIP3    H212847   5.628   0.482   1.667
 4281TIP3   OH212848   3.790   1.453   1.849
 4281TIP3    H112849   3.779   1.411   1.934
 4281TIP3    H212850   3.885   1.465   1.840
 4282TIP3   OH212851   2.252   3.739   2.319
 4282TIP3    H112852   2.238   3.684   2.397
 4282TIP3    H212853   2.167   3.780   2.303
 4283TIP3   OH212854   3.419   3.565   3.467
 4283TIP3    H112855   3.375   3.485   3.495
 4283TIP3    H212856   3.388   3.580   3.378
 4284TIP3   OH212857   2.328   0.166   3.218
 4284TIP3    H112858   2.254   0.106   3.211
 4284TIP3    H212859   2.395   0.129   3.161
 4285TIP3   OH212860   5.000   5.857   1.357
 4285TIP3    H112861   5.037   5.773   1.329
 4285TIP3    H212862   4.951   5.835   1.437
 4286TIP3   OH212863   0.422   0.211   2.295
 4286TIP3    H112864   0.332   0.180   2.293
 4286TIP3    H212865   0.441   0.225   2.388
 4287TIP3   OH212866   1.223   0.952   4.381
 4287TIP3    H112867   1.176   0.999   4.312
 4287TIP3    H212868   1.189   0.987   4.463
 4288TIP3   OH212869   2.163   1.071   3.165
 4288TIP3    H112870   2.259   1.068   3.158
 4288TIP3    H212871   2.132   1.022   3.089
 4289TIP3   OH212872   0.385   5.763   1.882
 4289TIP3    H112873   0.319   5.803   1.825
 4289TIP3    H212874   0.429   5.698   1.828
 4290TIP3   OH212875   1.928   5.281   2.444
 4290TIP3    H112876   1.947   5.359   2.392
 4290TIP3    H212877   1.968   5.299   2.530
 4291TIP3   OH212878   3.870   1.885   4.585
 4291TIP3    H112879   3.792   1.844   4.622
 4291TIP3    H212880   3.943   1.833   4.618
 4292TIP3   OH212881   5.423   1.924   1.764
 4292TIP3    H112882   5.356   1.913   1.831
 4292TIP3    H212883   5.470   1.841   1.762
 4293TIP3   OH212884   1.876   2.254   0.743
 4293TIP3    H112885   1.896   2.201   0.666
 4293TIP3    H212886   1.839   2.192   0.806
 4294TIP3   OH212887   1.376   4.261   4.190
 4294TIP3    H112888   1.281   4.273   4.193
 4294TIP3    H212889   1.411   4.350   4.190
 4295TIP3   OH212890   0.937   0.244   1.100
 4295TIP3    H112891   0.946   0.154   1.132
 4295TIP3    H212892   0.905   0.292   1.176
 4296TIP3   OH212893   1.505   5.160   1.034
 4296TIP3    H112894   1.447   5.109   0.978
 4296TIP3    H212895   1.452   5.234   1.063
 4297TIP3   OH212896   3.454   1.752   2.705
 4297TIP3    H112897   3.405   1.746   2.623
 4297TIP3    H212898   3.543   1.777   2.679
 4298TIP3   OH212899   5.444   0.633   3.949
 4298TIP3    H112900   5.460   0.539   3.945
 4298TIP3    H212901   5.531   0.672   3.946
 4299TIP3   OH212902   4.829   4.484   3.690
 4299TIP3    H112903   4.801   4.518   3.605
 4299TIP3    H212904   4.772   4.527   3.753
 4300TIP3   OH212905   3.667   3.531   3.382
 4300TIP3    H112906   3.589   3.586   3.387
 4300TIP3    H212907   3.653   3.477   3.304
 4301TIP3   OH212908   5.089   0.196   1.332
 4301TIP3    H112909   5.040   0.265   1.376
 4301TIP3    H212910   5.068   0.207   1.239
 4302TIP3   OH212911   0.577   3.079   0.784
 4302TIP3    H112912   0.590   2.987   0.760
 4302TIP3    H212913   0.663   3.109   0.815
 4303TIP3   OH212914   1.938   5.166   2.082
 4303TIP3    H112915   1.951   5.256   2.115
 4303TIP3    H212916   1.882   5.176   2.006
 4304TIP3   OH212917   1.123   2.402   4.905
 4304TIP3    H112918   1.050   2.454   4.872
 4304TIP3    H212919   1.162   2.456   4.974
 4305TIP3   OH212920   4.479   5.531   1.202
 4305TIP3    H112921   4.415   5.595   1.173
 4305TIP3    H212922   4.511   5.491   1.121
 4306TIP3   OH212923   5.962   5.789   2.711
 4306TIP3    H112924   6.016   5.828   2.780
 4306TIP3    H212925   5.886   5.754   2.757
 4307TIP3   OH212926   5.691   5.070   3.316
 4307TIP3    H112927   5.785   5.069   3.296
 4307TIP3    H212928   5.683   5.017   3.396
 4308TIP3   OH212929   4.015   3.688   3.646
 4308TIP3    H112930   4.091   3.641   3.681
 4308TIP3    H212931   4.002   3.652   3.559
 4309TIP3   OH212932   3.554   3.331   1.256
 4309TIP3    H112933   3.633   3.283   1.281
 4309TIP3    H212934   3.549   3.402   1.319
 4310TIP3   OH212935   6.286   2.281   4.722
 4310TIP3    H112936   6.295   2.374   4.740
 4310TIP3    H212937   6.329   2.268   4.637
 4311TIP3   OH212938   6.318   5.445   0.230
 4311TIP3    H112939   6.251   5.444   0.162
 4311TIP3    H212940   6.328   5.537   0.254
 4312TIP3   OH212941   5.504   4.269   0.292
 4312TIP3    H112942   5.482   4.176   0.287
 4312TIP3    H212943   5.489   4.302   0.204
 4313TIP3   OH212944   3.324   4.526   1.670
 4313TIP3    H112945   3.238   4.529   1.628
 4313TIP3    H212946   3.345   4.433   1.676
 4314TIP3   OH212947   5.894   1.772   3.929
 4314TIP3    H112948   5.959   1.778   3.858
 4314TIP3    H212949   5.850   1.689   3.914
 4315TIP3   OH212950   4.224   4.629   0.271
 4315TIP3    H112951   4.224   4.578   0.190
 4315TIP3    H212952   4.174   4.708   0.249
 4316TIP3   OH212953   3.427   0.370   0.423
 4316TIP3    H112954   3.347   0.338   0.465
 4316TIP3    H212955   3.460   0.438   0.482
 4317TIP3   OH212956   3.951   1.635   0.711
 4317TIP3    H112957   4.037   1.655   0.674
 4317TIP3    H212958   3.971   1.582   0.789
 4318TIP3   OH212959   6.037   2.014   2.109
 4318TIP3    H112960   5.963   2.072   2.130
 4318TIP3    H212961   6.091   2.014   2.188
 4319TIP3   OH212962   2.218   5.064   2.993
 4319TIP3    H112963   2.262   5.124   2.933
 4319TIP3    H212964   2.147   5.025   2.942
 4320TIP3   OH212965   3.318   0.068   3.135
 4320TIP3    H112966   3.412   0.059   3.119
 4320TIP3    H212967   3.300   0.161   3.124
 4321TIP3   OH212968   5.209   4.920   4.559
 4321TIP3    H112969   5.190   4.869   4.638
 4321TIP3    H212970   5.148   4.885   4.494
 4322TIP3   OH212971   5.287   4.262   2.798
 4322TIP3    H112972   5.238   4.323   2.743
 4322TIP3    H212973   5.379   4.285   2.783
 4323TIP3   OH212974   3.313   5.623   5.116
 4323TIP3    H112975   3.390   5.576   5.148
 4323TIP3    H212976   3.337   5.715   5.124
 4324TIP3   OH212977   2.467   3.394   4.540
 4324TIP3    H112978   2.540   3.347   4.500
 4324TIP3    H212979   2.390   3.366   4.490
 4325TIP3   OH212980   4.975   0.049   0.665
 4325TIP3    H112981   4.976  -0.047   0.668
 4325TIP3    H212982   4.882   0.072   0.660
 4326TIP3   OH212983   0.026   3.329   0.633
 4326TIP3    H112984  -0.061   3.323   0.674
 4326TIP3    H212985   0.012   3.299   0.544
 4327TIP3   OH212986   2.394   3.408   2.511
 4327TIP3    H112987   2.420   3.316   2.511
 4327TIP3    H212988   2.305   3.408   2.547
 4328TIP3   OH212989   0.661   0.757   0.730
 4328TIP3    H112990   0.588   0.731   0.786
 4328TIP3    H212991   0.624   0.822   0.671
 4329TIP3   OH212992   2.191   4.643   1.988
 4329TIP3    H112993   2.197   4.719   1.931
 4329TIP3    H212994   2.281   4.611   1.995
 4330TIP3   OH212995   3.679   2.135   0.417
 4330TIP3    H112996   3.683   2.222   0.377
 4330TIP3    H212997   3.770   2.104   0.415
 4331TIP3   OH212998   5.236   0.079   0.643
 4331TIP3    H112999   5.142   0.074   0.662
 4331TIP3    H213000   5.258   0.171   0.659
 4332TIP3   OH213001   1.385   0.189   3.505
 4332TIP3    H113002   1.403   0.106   3.547
 4332TIP3    H213003   1.291   0.201   3.513
 4333TIP3   OH213004   2.809   0.852   1.370
 4333TIP3    H113005   2.768   0.884   1.290
 4333TIP3    H213006   2.767   0.901   1.441
 4334TIP3   OH213007   3.224   4.538   5.032
 4334TIP3    H113008   3.308   4.542   5.079
 4334TIP3    H213009   3.166   4.596   5.081
 4335TIP3   OH213010   6.027   5.752   0.092
 4335TIP3    H113011   6.094   5.714   0.035
 4335TIP3    H213012   5.960   5.786   0.032
 4336TIP3   OH213013   5.688   1.995   0.341
 4336TIP3    H113014   5.675   2.061   0.408
 4336TIP3    H213015   5.600   1.967   0.316
 4337TIP3   OH213016   5.794   4.883   4.972
 4337TIP3    H113017   5.738   4.869   5.048
 4337TIP3    H213018   5.747   4.841   4.900
 4338TIP3   OH213019   5.901   3.676   4.155
 4338TIP3    H113020   5.961   3.718   4.217
 4338TIP3    H213021   5.816   3.717   4.172
 4339TIP3   OH213022   3.995   0.147   4.160
 4339TIP3    H113023   3.943   0.116   4.234
 4339TIP3    H213024   3.937   0.206   4.113
 4340TIP3   OH213025   4.841   5.640   5.083
 4340TIP3    H113026   4.882   5.554   5.091
 4340TIP3    H213027   4.800   5.655   5.169
 4341TIP3   OH213028   5.793   5.163   0.910
 4341TIP3    H113029   5.758   5.252   0.907
 4341TIP3    H213030   5.887   5.173   0.895
 4342TIP3   OH213031   2.162   1.911   3.089
 4342TIP3    H113032   2.222   1.950   3.027
 4342TIP3    H213033   2.087   1.883   3.036
 4343TIP3   OH213034   5.254   3.724   3.837
 4343TIP3    H113035   5.334   3.775   3.820
 4343TIP3    H213036   5.215   3.713   3.750
 4344TIP3   OH213037   3.861   1.264   1.604
 4344TIP3    H113038   3.909   1.319   1.664
 4344TIP3    H213039   3.773   1.301   1.602
 4345TIP3   OH213040   1.344   2.879   4.051
 4345TIP3    H113041   1.375   2.965   4.082
 4345TIP3    H213042   1.295   2.899   3.971
 4346TIP3   OH213043   0.242   2.620   0.243
 4346TIP3    H113044   0.221   2.540   0.290
 4346TIP3    H213045   0.315   2.596   0.185
 4347TIP3   OH213046   4.568   1.506   4.223
 4347TIP3    H113047   4.611   1.470   4.145
 4347TIP3    H213048   4.477   1.517   4.196
 4348TIP3   OH213049   5.989   1.273   3.332
 4348TIP3    H113050   5.997   1.286   3.238
 4348TIP3    H213051   6.079   1.280   3.365
 4349TIP3   OH213052   0.339   2.985   4.565
 4349TIP3    H113053   0.429   2.967   4.539
 4349TIP3    H213054   0.292   2.995   4.482
 4350TIP3   OH213055   0.174   5.530   1.562
 4350TIP3    H113056   0.233   5.604   1.571
 4350TIP3    H213057   0.102   5.562   1.508
 4351TIP3   OH213058   5.951   3.693   0.337
 4351TIP3    H113059   5.870   3.645   0.323
 4351TIP3    H213060   5.963   3.693   0.432
 4352TIP3   OH213061   2.378   2.004   0.346
 4352TIP3    H113062   2.346   2.093   0.336
 4352TIP3    H213063   2.324   1.967   0.416
 4353TIP3   OH213064   5.515   1.503   3.454
 4353TIP3    H113065   5.607   1.508   3.429
 4353TIP3    H213066   5.470   1.561   3.393
 4354TIP3   OH213067   3.594   0.676   0.250
 4354TIP3    H113068   3.652   0.601   0.237
 4354TIP3    H213069   3.522   0.641   0.303
 4355TIP3   OH213070   5.762   2.393   4.168
 4355TIP3    H113071   5.721   2.363   4.250
 4355TIP3    H213072   5.697   2.373   4.100
 4356TIP3   OH213073   4.715   2.776   3.926
 4356TIP3    H113074   4.675   2.846   3.875
 4356TIP3    H213075   4.773   2.732   3.864
 4357TIP3   OH213076   1.365   0.804   1.049
 4357TIP3    H113077   1.367   0.804   0.954
 4357TIP3    H213078   1.272   0.797   1.072
 4358TIP3   OH213079   1.481   5.153   1.546
 4358TIP3    H113080   1.567   5.152   1.505
 4358TIP3    H213081   1.447   5.064   1.533
 4359TIP3   OH213082   3.120   2.034   5.190
 4359TIP3    H113083   3.045   2.093   5.199
 4359TIP3    H213084   3.184   2.085   5.141
 4360TIP3   OH213085   0.411   4.746   3.969
 4360TIP3    H113086   0.503   4.761   3.950
 4360TIP3    H213087   0.388   4.670   3.914
 4361TIP3   OH213088   0.585   4.684   0.712
 4361TIP3    H113089   0.542   4.630   0.646
 4361TIP3    H213090   0.551   4.772   0.698
 4362TIP3   OH213091   2.323   2.534   2.691
 4362TIP3    H113092   2.238   2.525   2.647
 4362TIP3    H213093   2.336   2.629   2.698
 4363TIP3   OH213094   5.642   2.594   4.919
 4363TIP3    H113095   5.722   2.632   4.883
 4363TIP3    H213096   5.670   2.551   5.000
 4364TIP3   OH213097   5.909   1.828   0.276
 4364TIP3    H113098   5.872   1.744   0.305
 4364TIP3    H213099   5.841   1.892   0.297
 4365TIP3   OH213100   0.841   2.344   4.504
 4365TIP3    H113101   0.909   2.374   4.563
 4365TIP3    H213102   0.825   2.417   4.445
 4366TIP3   OH213103   1.380   0.305   0.678
 4366TIP3    H113104   1.391   0.371   0.609
 4366TIP3    H213105   1.346   0.353   0.753
 4367TIP3   OH213106   5.587   0.738   1.287
 4367TIP3    H113107   5.503   0.770   1.320
 4367TIP3    H213108   5.633   0.816   1.257
 4368TIP3   OH213109   0.942   3.964   4.937
 4368TIP3    H113110   0.872   3.904   4.960
 4368TIP3    H213111   1.015   3.938   4.994
 4369TIP3   OH213112   5.031   3.734   4.806
 4369TIP3    H113113   5.090   3.735   4.730
 4369TIP3    H213114   4.982   3.652   4.796
 4370TIP3   OH213115   5.674   3.487   4.765
 4370TIP3    H113116   5.733   3.461   4.694
 4370TIP3    H213117   5.610   3.545   4.723
 4371TIP3   OH213118   5.861   0.903   1.938
 4371TIP3    H113119   5.831   0.994   1.933
 4371TIP3    H213120   5.892   0.892   2.028
 4372TIP3   OH213121   3.764   3.104   1.537
 4372TIP3    H113122   3.835   3.106   1.601
 4372TIP3    H213123   3.730   3.014   1.541
 4373TIP3   OH213124   2.830   3.884   2.005
 4373TIP3    H113125   2.841   3.896   2.099
 4373TIP3    H213126   2.834   3.973   1.969
 4374TIP3   OH213127   5.421   1.826   2.672
 4374TIP3    H113128   5.477   1.790   2.602
 4374TIP3    H213129   5.389   1.909   2.636
 4375TIP3   OH213130   6.114   2.204   3.192
 4375TIP3    H113131   6.102   2.177   3.101
 4375TIP3    H213132   6.065   2.286   3.200
 4376TIP3   OH213133   4.788   3.692   4.989
 4376TIP3    H113134   4.736   3.677   5.068
 4376TIP3    H213135   4.790   3.607   4.946
 4377TIP3   OH213136   0.616   2.445   2.496
 4377TIP3    H113137   0.706   2.453   2.529
 4377TIP3    H213138   0.567   2.511   2.545
 4378TIP3   OH213139   3.783   2.299   4.314
 4378TIP3    H113140   3.751   2.259   4.233
 4378TIP3    H213141   3.855   2.356   4.286
 4379TIP3   OH213142   1.117   1.419   5.126
 4379TIP3    H113143   1.158   1.347   5.078
 4379TIP3    H213144   1.162   1.498   5.094
 4380TIP3   OH213145   3.180   0.383   1.833
 4380TIP3    H113146   3.193   0.449   1.764
 4380TIP3    H213147   3.145   0.307   1.787
 4381TIP3   OH213148   0.450   1.940   3.454
 4381TIP3    H113149   0.457   1.993   3.534
 4381TIP3    H213150   0.485   1.854   3.479
 4382TIP3   OH213151   5.080   5.340   3.528
 4382TIP3    H113152   5.057   5.299   3.611
 4382TIP3    H213153   5.035   5.424   3.528
 4383TIP3   OH213154   3.814   2.361   5.076
 4383TIP3    H113155   3.811   2.288   5.014
 4383TIP3    H213156   3.860   2.327   5.152
 4384TIP3   OH213157   4.344   1.367   4.976
 4384TIP3    H113158   4.414   1.425   4.946
 4384TIP3    H213159   4.373   1.279   4.951
 4385TIP3   OH213160   4.928   1.440   2.774
 4385TIP3    H113161   4.873   1.484   2.709
 4385TIP3    H213162   5.017   1.462   2.748
 4386TIP3   OH213163   1.315   3.040   4.359
 4386TIP3    H113164   1.321   3.097   4.283
 4386TIP3    H213165   1.227   3.004   4.355
 4387TIP3   OH213166   3.607   0.932   1.074
 4387TIP3    H113167   3.588   0.850   1.119
 4387TIP3    H213168   3.528   0.951   1.024
 4388TIP3   OH213169   4.964   3.494   2.294
 4388TIP3    H113170   5.054   3.520   2.274
 4388TIP3    H213171   4.971   3.400   2.315
 4389TIP3   OH213172   1.992   5.118   1.562
 4389TIP3    H113173   2.076   5.071   1.565
 4389TIP3    H213174   2.010   5.196   1.508
 4390TIP3   OH213175   1.694   4.269   3.668
 4390TIP3    H113176   1.632   4.205   3.633
 4390TIP3    H213177   1.770   4.263   3.611
 4391TIP3   OH213178   1.207   1.470   0.192
 4391TIP3    H113179   1.261   1.510   0.125
 4391TIP3    H213180   1.145   1.538   0.219
 4392TIP3   OH213181   3.102   0.116   2.561
 4392TIP3    H113182   3.039   0.059   2.518
 4392TIP3    H213183   3.129   0.178   2.494
 4393TIP3   OH213184   0.533   0.702   4.852
 4393TIP3    H113185   0.568   0.733   4.936
 4393TIP3    H213186   0.610   0.677   4.801
 4394TIP3   OH213187   0.662   4.588   2.100
 4394TIP3    H113188   0.743   4.538   2.107
 4394TIP3    H213189   0.689   4.671   2.061
 4395TIP3   OH213190   1.370   3.586   1.121
 4395TIP3    H113191   1.403   3.660   1.172
 4395TIP3    H213192   1.291   3.558   1.169
 4396TIP3   OH213193   0.500   4.804   2.935
 4396TIP3    H113194   0.592   4.826   2.949
 4396TIP3    H213195   0.453   4.885   2.958
 4397TIP3   OH213196   2.225   0.994   1.080
 4397TIP3    H113197   2.311   0.953   1.086
 4397TIP3    H213198   2.192   0.993   1.170
 4398TIP3   OH213199   4.491   0.960   2.696
 4398TIP3    H113200   4.523   0.950   2.607
 4398TIP3    H213201   4.447   1.046   2.696
 4399TIP3   OH213202   3.216   3.596   1.276
 4399TIP3    H113203   3.288   3.613   1.336
 4399TIP3    H213204   3.170   3.520   1.314
 4400TIP3   OH213205   6.355   0.326   0.265
 4400TIP3    H113206   6.365   0.348   0.358
 4400TIP3    H213207   6.261   0.331   0.249
 4401TIP3   OH213208   3.603   2.731   3.487
 4401TIP3    H113209   3.625   2.643   3.516
 4401TIP3    H213210   3.619   2.786   3.564
 4402TIP3   OH213211   3.055   0.932   1.300
 4402TIP3    H113212   2.976   0.900   1.343
 4402TIP3    H213213   3.088   0.857   1.251
 4403TIP3   OH213214   2.734   3.345   0.188
 4403TIP3    H113215   2.663   3.328   0.126
 4403TIP3    H213216   2.701   3.417   0.243
 4404TIP3   OH213217   1.705   3.299   0.204
 4404TIP3    H113218   1.715   3.226   0.143
 4404TIP3    H213219   1.721   3.260   0.290
 4405TIP3   OH213220   4.004   4.006   4.511
 4405TIP3    H113221   4.053   4.088   4.520
 4405TIP3    H213222   3.912   4.032   4.515
 4406TIP3   OH213223   1.268   2.751   4.278
 4406TIP3    H113224   1.310   2.665   4.279
 4406TIP3    H213225   1.323   2.805   4.221
 4407TIP3   OH213226   5.470   4.541   1.951
 4407TIP3    H113227   5.533   4.471   1.965
 4407TIP3    H213228   5.478   4.597   2.028
 4408TIP3   OH213229   3.733   2.739   4.625
 4408TIP3    H113230   3.815   2.786   4.612
 4408TIP3    H213231   3.755   2.647   4.613
 4409TIP3   OH213232   0.749   5.910   1.087
 4409TIP3    H113233   0.737   5.816   1.076
 4409TIP3    H213234   0.711   5.930   1.173
 4410TIP3   OH213235   3.050   2.452   1.729
 4410TIP3    H113236   3.105   2.383   1.691
 4410TIP3    H213237   2.979   2.464   1.666
 4411TIP3   OH213238   1.213   4.709   1.158
 4411TIP3    H113239   1.242   4.618   1.147
 4411TIP3    H213240   1.130   4.713   1.111
 4412TIP3   OH213241   4.221   1.104   3.463
 4412TIP3    H113242   4.207   1.189   3.421
 4412TIP3    H213243   4.271   1.054   3.399
 4413TIP3   OH213244   2.985   2.777   3.418
 4413TIP3    H113245   2.979   2.724   3.497
 4413TIP3    H213246   3.009   2.715   3.349
 4414TIP3   OH213247   4.233   4.674   2.133
 4414TIP3    H113248   4.308   4.643   2.184
 4414TIP3    H213249   4.175   4.714   2.197
 4415TIP3   OH213250   2.710   3.923   3.833
 4415TIP3    H113251   2.804   3.928   3.821
 4415TIP3    H213252   2.675   3.990   3.773
 4416TIP3   OH213253   1.236   3.223   0.373
 4416TIP3    H113254   1.163   3.191   0.320
 4416TIP3    H213255   1.254   3.153   0.435
 4417TIP3   OH213256   4.767   2.872   3.259
 4417TIP3    H113257   4.702   2.845   3.323
 4417TIP3    H213258   4.742   2.962   3.235
 4418TIP3   OH213259   2.281   0.605   3.452
 4418TIP3    H113260   2.311   0.516   3.431
 4418TIP3    H213261   2.264   0.645   3.367
 4419TIP3   OH213262   2.769   0.507   4.781
 4419TIP3    H113263   2.795   0.557   4.858
 4419TIP3    H213264   2.674   0.508   4.783
 4420TIP3   OH213265   4.817   4.329   4.019
 4420TIP3    H113266   4.865   4.303   4.098
 4420TIP3    H213267   4.862   4.407   3.988
 4421TIP3   OH213268   5.546   5.297   1.375
 4421TIP3    H113269   5.528   5.388   1.398
 4421TIP3    H213270   5.469   5.249   1.404
 4422TIP3   OH213271   2.782   0.958   2.265
 4422TIP3    H113272   2.862   0.932   2.219
 4422TIP3    H213273   2.809   1.031   2.321
 4423TIP3   OH213274   1.547   1.843   2.991
 4423TIP3    H113275   1.531   1.896   2.912
 4423TIP3    H213276   1.569   1.756   2.957
 4424TIP3   OH213277   3.148   1.627   2.700
 4424TIP3    H113278   3.119   1.641   2.790
 4424TIP3    H213279   3.220   1.565   2.708
 4425TIP3   OH213280   5.191   2.020   1.970
 4425TIP3    H113281   5.178   2.088   1.904
 4425TIP3    H213282   5.112   1.967   1.966
 4426TIP3   OH213283   0.179   1.635   4.457
 4426TIP3    H113284   0.113   1.626   4.526
 4426TIP3    H213285   0.216   1.723   4.470
 4427TIP3   OH213286   1.113   5.142   3.821
 4427TIP3    H113287   1.066   5.165   3.741
 4427TIP3    H213288   1.102   5.048   3.830
 4428TIP3   OH213289   5.075   1.332   0.462
 4428TIP3    H113290   5.141   1.295   0.402
 4428TIP3    H213291   4.991   1.303   0.426
 4429TIP3   OH213292   4.180   5.669   0.644
 4429TIP3    H113293   4.246   5.708   0.701
 4429TIP3    H213294   4.097   5.708   0.675
 4430TIP3   OH213295   2.298   2.217   2.619
 4430TIP3    H113296   2.314   2.311   2.627
 4430TIP3    H213297   2.203   2.208   2.626
 4431TIP3   OH213298   0.670   0.083   4.914
 4431TIP3    H113299   0.650   0.151   4.979
 4431TIP3    H213300   0.598   0.020   4.922
 4432TIP3   OH213301   3.799   3.496   0.309
 4432TIP3    H113302   3.728   3.558   0.292
 4432TIP3    H213303   3.757   3.410   0.305
 4433TIP3   OH213304   5.974   1.023   1.384
 4433TIP3    H113305   6.068   1.008   1.393
 4433TIP3    H213306   5.937   0.994   1.468
 4434TIP3   OH213307   2.946   2.876   0.361
 4434TIP3    H113308   2.919   2.960   0.325
 4434TIP3    H213309   2.869   2.821   0.354
 4435TIP3   OH213310   2.397   1.758   0.521
 4435TIP3    H113311   2.486   1.727   0.537
 4435TIP3    H213312   2.349   1.680   0.492
 4436TIP3   OH213313   5.889   4.215   0.988
 4436TIP3    H113314   5.827   4.245   1.054
 4436TIP3    H213315   5.960   4.174   1.039
 4437TIP3   OH213316   1.548   3.251   3.421
 4437TIP3    H113317   1.595   3.177   3.459
 4437TIP3    H213318   1.589   3.328   3.460
 4438TIP3   OH213319   3.195   3.050   4.031
 4438TIP3    H113320   3.290   3.044   4.016
 4438TIP3    H213321   3.156   3.025   3.947
 4439TIP3   OH213322   4.041   0.145   2.801
 4439TIP3    H113323   3.996   0.115   2.722
 4439TIP3    H213324   4.077   0.065   2.840
 4440TIP3   OH213325   2.474   0.527   2.015
 4440TIP3    H113326   2.523   0.466   2.071
 4440TIP3    H213327   2.388   0.535   2.058
 4441TIP3   OH213328   5.072   3.136   4.371
 4441TIP3    H113329   4.994   3.104   4.325
 4441TIP3    H213330   5.041   3.161   4.458
 4442TIP3   OH213331   5.818   4.573   0.977
 4442TIP3    H113332   5.913   4.578   0.976
 4442TIP3    H213333   5.792   4.631   1.049
 4443TIP3   OH213334   2.529   4.727   4.131
 4443TIP3    H113335   2.478   4.720   4.211
 4443TIP3    H213336   2.610   4.679   4.149
 4444TIP3   OH213337   4.419   0.140   4.937
 4444TIP3    H113338   4.403   0.062   4.990
 4444TIP3    H213339   4.332   0.168   4.908
 4445TIP3   OH213340   5.219   2.273   3.911
 4445TIP3    H113341   5.252   2.248   3.998
 4445TIP3    H213342   5.131   2.237   3.909
 4446TIP3   OH213343   0.346   5.689   0.419
 4446TIP3    H113344   0.379   5.639   0.345
 4446TIP3    H213345   0.401   5.664   0.492
 4447TIP3   OH213346   2.909   2.397   3.399
 4447TIP3    H113347   2.864   2.412   3.483
 4447TIP3    H213348   2.839   2.403   3.334
 4448TIP3   OH213349   2.581   5.225   3.537
 4448TIP3    H113350   2.519   5.215   3.465
 4448TIP3    H213351   2.667   5.216   3.497
 4449TIP3   OH213352   0.455   1.796   2.694
 4449TIP3    H113353   0.422   1.706   2.687
 4449TIP3    H213354   0.418   1.828   2.776
 4450TIP3   OH213355   2.200   1.105   2.568
 4450TIP3    H113356   2.175   1.133   2.656
 4450TIP3    H213357   2.121   1.119   2.516
 4451TIP3   OH213358   5.700   4.145   4.083
 4451TIP3    H113359   5.653   4.156   4.000
 4451TIP3    H213360   5.722   4.234   4.110
 4452TIP3   OH213361   5.241   1.955   0.700
 4452TIP3    H113362   5.211   2.012   0.629
 4452TIP3    H213363   5.213   1.867   0.674
 4453TIP3   OH213364   2.336   4.352   1.973
 4453TIP3    H113365   2.296   4.292   1.910
 4453TIP3    H213366   2.330   4.438   1.931
 4454TIP3   OH213367   4.194   1.628   3.882
 4454TIP3    H113368   4.254   1.553   3.883
 4454TIP3    H213369   4.234   1.689   3.819
 4455TIP3   OH213370   4.079   2.603   4.596
 4455TIP3    H113371   4.170   2.602   4.567
 4455TIP3    H213372   4.061   2.694   4.618
 4456TIP3   OH213373   5.399   4.910   2.819
 4456TIP3    H113374   5.466   4.867   2.765
 4456TIP3    H213375   5.446   4.977   2.867
 4457TIP3   OH213376   4.903   3.208   2.745
 4457TIP3    H113377   4.957   3.152   2.689
 4457TIP3    H213378   4.962   3.279   2.771
 4458TIP3   OH213379   5.729   3.331   5.143
 4458TIP3    H113380   5.789   3.283   5.086
 4458TIP3    H213381   5.674   3.381   5.083
 4459TIP3   OH213382   0.964   1.953   2.034
 4459TIP3    H113383   1.037   2.015   2.042
 4459TIP3    H213384   0.996   1.884   1.976
 4460TIP3   OH213385   1.062   0.713   5.109
 4460TIP3    H113386   1.106   0.745   5.030
 4460TIP3    H213387   0.972   0.695   5.080
 4461TIP3   OH213388   3.708   2.995   3.721
 4461TIP3    H113389   3.702   2.918   3.778
 4461TIP3    H213390   3.652   3.060   3.764
 4462TIP3   OH213391   3.220   2.857   2.184
 4462TIP3    H113392   3.276   2.917   2.233
 4462TIP3    H213393   3.207   2.900   2.099
 4463TIP3   OH213394   3.540   0.875   2.916
 4463TIP3    H113395   3.622   0.922   2.931
 4463TIP3    H213396   3.562   0.811   2.847
 4464TIP3   OH213397   3.358   0.590   3.055
 4464TIP3    H113398   3.304   0.628   3.125
 4464TIP3    H213399   3.441   0.570   3.097
 4465TIP3   OH213400   5.782   2.702   1.041
 4465TIP3    H113401   5.873   2.674   1.030
 4465TIP3    H213402   5.731   2.629   1.006
 4466TIP3   OH213403   5.177   1.668   3.062
 4466TIP3    H113404   5.176   1.706   2.974
 4466TIP3    H213405   5.244   1.718   3.109
 4467TIP3   OH213406   1.586   2.022   4.103
 4467TIP3    H113407   1.547   1.976   4.029
 4467TIP3    H213408   1.643   2.087   4.064
 4468TIP3   OH213409   5.169   4.748   0.694
 4468TIP3    H113410   5.167   4.758   0.789
 4468TIP3    H213411   5.079   4.727   0.670
 4469TIP3   OH213412   5.046   5.122   0.279
 4469TIP3    H113413   5.007   5.038   0.302
 4469TIP3    H213414   5.029   5.178   0.355
 4470TIP3   OH213415   1.894   2.101   0.534
 4470TIP3    H113416   1.962   2.097   0.466
 4470TIP3    H213417   1.828   2.038   0.505
 4471TIP3   OH213418   2.464   3.899   3.611
 4471TIP3    H113419   2.436   3.986   3.580
 4471TIP3    H213420   2.557   3.895   3.590
 4472TIP3   OH213421   0.799   3.385   4.193
 4472TIP3    H113422   0.719   3.373   4.141
 4472TIP3    H213423   0.773   3.447   4.261
 4473TIP3   OH213424   4.864   2.609   3.486
 4473TIP3    H113425   4.793   2.545   3.493
 4473TIP3    H213426   4.819   2.694   3.484
 4474TIP3   OH213427   0.670   5.684   3.097
 4474TIP3    H113428   0.647   5.601   3.055
 4474TIP3    H213429   0.742   5.718   3.044
 4475TIP3   OH213430   0.934   3.895   0.840
 4475TIP3    H113431   0.863   3.834   0.818
 4475TIP3    H213432   0.956   3.937   0.757
 4476TIP3   OH213433   3.931   5.905   4.296
 4476TIP3    H113434   4.022   5.878   4.312
 4476TIP3    H213435   3.895   5.834   4.243
 4477TIP3   OH213436   4.675   0.352   3.466
 4477TIP3    H113437   4.593   0.315   3.434
 4477TIP3    H213438   4.721   0.278   3.505
 4478TIP3   OH213439   1.462   1.072   5.026
 4478TIP3    H113440   1.503   1.014   4.962
 4478TIP3    H213441   1.428   1.013   5.093
 4479TIP3   OH213442   4.975   2.653   4.981
 4479TIP3    H113443   4.989   2.597   4.905
 4479TIP3    H213444   5.056   2.704   4.989
 4480TIP3   OH213445   1.900   0.192   4.974
 4480TIP3    H113446   1.844   0.117   4.996
 4480TIP3    H213447   1.847   0.268   4.999
 4481TIP3   OH213448   0.197   4.176   3.035
 4481TIP3    H113449   0.283   4.139   3.017
 4481TIP3    H213450   0.205   4.214   3.123
 4482TIP3   OH213451   1.746   0.045   4.105
 4482TIP3    H113452   1.681  -0.019   4.134
 4482TIP3    H213453   1.830   0.008   4.130
 4483TIP3   OH213454   4.901   5.641   4.182
 4483TIP3    H113455   4.806   5.642   4.172
 4483TIP3    H213456   4.921   5.720   4.232
 4484TIP3   OH213457   4.633   5.310   5.084
 4484TIP3    H113458   4.613   5.400   5.059
 4484TIP3    H213459   4.625   5.310   5.180
 4485TIP3   OH213460   3.948   3.649   3.395
 4485TIP3    H113461   3.872   3.592   3.382
 4485TIP3    H213462   4.016   3.611   3.339
 4486TIP3   OH213463   6.319   3.089   4.960
 4486TIP3    H113464   6.303   3.012   4.905
 4486TIP3    H213465   6.346   3.157   4.898
 4487TIP3   OH213466   5.571   0.207   4.480
 4487TIP3    H113467   5.553   0.213   4.386
 4487TIP3    H213468   5.623   0.285   4.499
 4488TIP3   OH213469   0.016   4.512   0.257
 4488TIP3    H113470   0.107   4.493   0.235
 4488TIP3    H213471   0.013   4.511   0.353
 4489TIP3   OH213472   1.506   5.836   2.674
 4489TIP3    H113473   1.456   5.883   2.741
 4489TIP3    H213474   1.441   5.808   2.610
 4490TIP3   OH213475   5.704   3.696   1.481
 4490TIP3    H113476   5.624   3.652   1.451
 4490TIP3    H213477   5.750   3.719   1.401
 4491TIP3   OH213478   6.059   3.141   3.650
 4491TIP3    H113479   6.152   3.137   3.626
 4491TIP3    H213480   6.027   3.052   3.636
 4492TIP3   OH213481   0.030   4.709   2.004
 4492TIP3    H113482   0.085   4.634   2.027
 4492TIP3    H213483   0.057   4.778   2.065
 4493TIP3   OH213484   4.973   0.770   2.962
 4493TIP3    H113485   4.937   0.855   2.989
 4493TIP3    H213486   4.928   0.749   2.881
 4494TIP3   OH213487   1.269   1.255   0.629
 4494TIP3    H113488   1.343   1.195   0.638
 4494TIP3    H213489   1.284   1.298   0.545
 4495TIP3   OH213490   4.227   3.401   4.193
 4495TIP3    H113491   4.163   3.420   4.125
 4495TIP3    H213492   4.175   3.377   4.269
 4496TIP3   OH213493   4.904   1.120   0.925
 4496TIP3    H113494   4.961   1.128   0.848
 4496TIP3    H213495   4.912   1.204   0.970
 4497TIP3   OH213496   0.978   5.419   0.926
 4497TIP3    H113497   0.963   5.353   0.858
 4497TIP3    H213498   0.926   5.390   1.001
 4498TIP3   OH213499   5.292   5.072   1.247
 4498TIP3    H113500   5.275   4.998   1.305
 4498TIP3    H213501   5.228   5.138   1.272
 4499TIP3   OH213502   4.007   3.866   3.007
 4499TIP3    H113503   4.017   3.773   3.028
 4499TIP3    H213504   3.954   3.867   2.927
 4500TIP3   OH213505   4.908   4.952   2.885
 4500TIP3    H113506   4.915   4.878   2.945
 4500TIP3    H213507   4.987   5.004   2.901
 4501TIP3   OH213508   1.771   1.019   0.828
 4501TIP3    H113509   1.778   0.925   0.840
 4501TIP3    H213510   1.744   1.053   0.913
 4502TIP3   OH213511   4.824   3.145   4.216
 4502TIP3    H113512   4.792   3.055   4.209
 4502TIP3    H213513   4.763   3.197   4.163
 4503TIP3   OH213514   6.076   1.831   0.058
 4503TIP3    H113515   6.085   1.925   0.040
 4503TIP3    H213516   6.022   1.827   0.137
 4504TIP3   OH213517   2.689   5.038   4.031
 4504TIP3    H113518   2.742   4.970   3.989
 4504TIP3    H213519   2.634   5.072   3.961
 4505TIP3   OH213520   1.360   4.009   3.343
 4505TIP3    H113521   1.427   4.039   3.282
 4505TIP3    H213522   1.303   3.952   3.291
 4506TIP3   OH213523   0.417   5.763   5.172
 4506TIP3    H113524   0.507   5.729   5.179
 4506TIP3    H213525   0.364   5.686   5.152
 4507TIP3   OH213526   6.289   2.869   4.531
 4507TIP3    H113527   6.288   2.858   4.627
 4507TIP3    H213528   6.256   2.787   4.497
 4508TIP3   OH213529   5.070   3.395   2.842
 4508TIP3    H113530   5.065   3.394   2.937
 4508TIP3    H213531   5.147   3.343   2.821
 4509TIP3   OH213532   4.482   3.321   2.288
 4509TIP3    H113533   4.533   3.250   2.325
 4509TIP3    H213534   4.404   3.278   2.251
 4510TIP3   OH213535   2.337   1.666   1.762
 4510TIP3    H113536   2.304   1.601   1.825
 4510TIP3    H213537   2.258   1.703   1.722
 4511TIP3   OH213538   3.906   0.181   0.811
 4511TIP3    H113539   3.867   0.265   0.787
 4511TIP3    H213540   3.876   0.120   0.742
 4512TIP3   OH213541  -0.020   3.655   4.215
 4512TIP3    H113542   0.069   3.622   4.225
 4512TIP3    H213543  -0.018   3.741   4.257
 4513TIP3   OH213544   3.505   4.360   3.841
 4513TIP3    H113545   3.518   4.366   3.746
 4513TIP3    H213546   3.453   4.438   3.863
 4514TIP3   OH213547   4.621   1.170   3.613
 4514TIP3    H113548   4.566   1.117   3.556
 4514TIP3    H213549   4.697   1.114   3.632
 4515TIP3   OH213550   4.621   4.236   2.094
 4515TIP3    H113551   4.561   4.309   2.111
 4515TIP3    H213552   4.673   4.266   2.018
 4516TIP3   OH213553   3.312   2.517   0.325
 4516TIP3    H113554   3.367   2.537   0.401
 4516TIP3    H213555   3.289   2.603   0.290
 4517TIP3   OH213556   2.983   1.734   1.601
 4517TIP3    H113557   3.076   1.715   1.606
 4517TIP3    H213558   2.961   1.773   1.686
 4518TIP3   OH213559   0.158   4.886   2.133
 4518TIP3    H113560   0.135   4.972   2.168
 4518TIP3    H213561   0.253   4.887   2.128
 4519TIP3   OH213562   6.127   0.660   3.290
 4519TIP3    H113563   6.072   0.606   3.348
 4519TIP3    H213564   6.212   0.662   3.333
 4520TIP3   OH213565   4.393   4.861   0.348
 4520TIP3    H113566   4.365   4.769   0.348
 4520TIP3    H213567   4.453   4.869   0.274
 4521TIP3   OH213568   1.956   3.478   3.922
 4521TIP3    H113569   1.889   3.510   3.862
 4521TIP3    H213570   1.982   3.393   3.885
 4522TIP3   OH213571   0.895   3.354   4.751
 4522TIP3    H113572   0.913   3.443   4.721
 4522TIP3    H213573   0.925   3.352   4.841
 4523TIP3   OH213574   5.270   2.675   2.325
 4523TIP3    H113575   5.302   2.621   2.397
 4523TIP3    H213576   5.187   2.711   2.357
 4524TIP3   OH213577   4.435   5.264   1.825
 4524TIP3    H113578   4.397   5.332   1.769
 4524TIP3    H213579   4.384   5.186   1.808
 4525TIP3   OH213580   6.337   5.244   1.658
 4525TIP3    H113581   6.345   5.187   1.734
 4525TIP3    H213582   6.295   5.323   1.691
 4526TIP3   OH213583   5.390   4.047   3.276
 4526TIP3    H113584   5.371   4.141   3.281
 4526TIP3    H213585   5.484   4.041   3.294
 4527TIP3   OH213586   5.829   5.020   0.615
 4527TIP3    H113587   5.754   4.972   0.652
 4527TIP3    H213588   5.789   5.088   0.560
 4528TIP3   OH213589   3.174   1.356   0.083
 4528TIP3    H113590   3.160   1.272   0.038
 4528TIP3    H213591   3.139   1.341   0.171
 4529TIP3   OH213592   2.561   4.268   5.194
 4529TIP3    H113593   2.557   4.177   5.166
 4529TIP3    H213594   2.654   4.289   5.196
 4530TIP3   OH213595   1.947   3.428   1.401
 4530TIP3    H113596   1.968   3.514   1.437
 4530TIP3    H213597   1.857   3.412   1.427
 4531TIP3   OH213598   1.993   1.266   2.723
 4531TIP3    H113599   2.044   1.346   2.735
 4531TIP3    H213600   2.033   1.202   2.782
 4532TIP3   OH213601   3.580   5.374   1.868
 4532TIP3    H113602   3.527   5.297   1.845
 4532TIP3    H213603   3.559   5.391   1.960
 4533TIP3   OH213604   1.153   5.730   5.215
 4533TIP3    H113605   1.201   5.730   5.132
 4533TIP3    H213606   1.061   5.736   5.189
 4534TIP3   OH213607   3.982   2.891   4.599
 4534TIP3    H113608   4.019   2.936   4.523
 4534TIP3    H213609   3.975   2.959   4.666
 4535TIP3   OH213610   2.650   2.938   0.115
 4535TIP3    H113611   2.629   2.904   0.029
 4535TIP3    H213612   2.582   2.903   0.172
 4536TIP3   OH213613   4.118   3.453   3.256
 4536TIP3    H113614   4.159   3.380   3.210
 4536TIP3    H213615   4.141   3.440   3.348
 4537TIP3   OH213616   4.792   3.237   4.471
 4537TIP3    H113617   4.801   3.332   4.480
 4537TIP3    H213618   4.838   3.216   4.389
 4538TIP3   OH213619   0.409   5.144   2.297
 4538TIP3    H113620   0.322   5.178   2.317
 4538TIP3    H213621   0.398   5.096   2.215
 4539TIP3   OH213622   2.491   2.884   1.813
 4539TIP3    H113623   2.480   2.917   1.902
 4539TIP3    H213624   2.436   2.806   1.809
 4540TIP3   OH213625   2.885   2.964   1.527
 4540TIP3    H113626   2.860   3.056   1.517
 4540TIP3    H213627   2.849   2.938   1.612
 4541TIP3   OH213628   6.293   3.297   5.130
 4541TIP3    H113629   6.301   3.361   5.059
 4541TIP3    H213630   6.302   3.212   5.086
 4542TIP3   OH213631   5.165   5.424   3.267
 4542TIP3    H113632   5.192   5.416   3.358
 4542TIP3    H213633   5.246   5.416   3.217
 4543TIP3   OH213634   5.750   5.151   1.264
 4543TIP3    H113635   5.695   5.208   1.317
 4543TIP3    H213636   5.700   5.136   1.184
 4544TIP3   OH213637   4.215   5.222   3.473
 4544TIP3    H113638   4.143   5.274   3.508
 4544TIP3    H213639   4.268   5.284   3.424
 4545TIP3   OH213640   0.832   3.189   0.909
 4545TIP3    H113641   0.858   3.214   0.820
 4545TIP3    H213642   0.914   3.160   0.950
 4546TIP3   OH213643   0.273   5.011   0.017
 4546TIP3    H113644   0.215   5.080   0.047
 4546TIP3    H213645   0.283   5.026  -0.077
 4547TIP3   OH213646   0.413   2.950   3.103
 4547TIP3    H113647   0.471   3.026   3.098
 4547TIP3    H213648   0.471   2.874   3.095
 4548TIP3   OH213649   1.910   4.457   0.617
 4548TIP3    H113650   1.898   4.528   0.681
 4548TIP3    H213651   1.962   4.497   0.547
 4549TIP3   OH213652   5.330   5.097   3.186
 4549TIP3    H113653   5.355   5.019   3.237
 4549TIP3    H213654   5.275   5.148   3.246
 4550TIP3   OH213655   3.937   3.285   3.794
 4550TIP3    H113656   3.845   3.292   3.769
 4550TIP3    H213657   3.976   3.231   3.726
 4551TIP3   OH213658   5.251   0.100   2.158
 4551TIP3    H113659   5.159   0.084   2.141
 4551TIP3    H213660   5.267   0.060   2.244
 4552TIP3   OH213661   3.930   4.918   0.573
 4552TIP3    H113662   3.890   4.980   0.512
 4552TIP3    H213663   4.022   4.913   0.546
 4553TIP3   OH213664   6.105   1.726   1.519
 4553TIP3    H113665   6.055   1.696   1.443
 4553TIP3    H213666   6.067   1.680   1.593
 4554TIP3   OH213667   4.196   4.192   0.427
 4554TIP3    H113668   4.172   4.279   0.460
 4554TIP3    H213669   4.115   4.157   0.391
 4555TIP3   OH213670   4.217   3.202   2.444
 4555TIP3    H113671   4.173   3.121   2.420
 4555TIP3    H213672   4.292   3.175   2.497
 4556TIP3   OH213673   2.245   0.394   0.307
 4556TIP3    H113674   2.340   0.393   0.290
 4556TIP3    H213675   2.206   0.354   0.230
 4557TIP3   OH213676   4.729   3.486   3.886
 4557TIP3    H113677   4.820   3.514   3.880
 4557TIP3    H213678   4.701   3.515   3.973
 4558TIP3   OH213679   1.120   2.842   4.769
 4558TIP3    H113680   1.196   2.880   4.812
 4558TIP3    H213681   1.156   2.773   4.714
 4559TIP3   OH213682   3.526   3.797   1.236
 4559TIP3    H113683   3.546   3.823   1.146
 4559TIP3    H213684   3.604   3.819   1.286
 4560TIP3   OH213685   0.563   4.749   4.197
 4560TIP3    H113686   0.500   4.749   4.125
 4560TIP3    H213687   0.565   4.658   4.227
 4561TIP3   OH213688   0.217   5.875   2.509
 4561TIP3    H113689   0.228   5.851   2.601
 4561TIP3    H213690   0.188   5.795   2.466
 4562TIP3   OH213691   3.205   1.866   3.002
 4562TIP3    H113692   3.143   1.795   3.018
 4562TIP3    H213693   3.150   1.940   2.976
 4563TIP3   OH213694   3.037   5.150   2.912
 4563TIP3    H113695   3.070   5.126   2.825
 4563TIP3    H213696   2.968   5.214   2.894
 4564TIP3   OH213697   2.219   3.668   4.323
 4564TIP3    H113698   2.290   3.723   4.355
 4564TIP3    H213699   2.155   3.730   4.288
 4565TIP3   OH213700   2.042   4.999   0.632
 4565TIP3    H113701   2.136   4.991   0.649
 4565TIP3    H213702   2.007   4.912   0.650
 4566TIP3   OH213703   4.184   5.807   2.623
 4566TIP3    H113704   4.244   5.757   2.678
 4566TIP3    H213705   4.150   5.743   2.560
 4567TIP3   OH213706   0.320   0.082   3.551
 4567TIP3    H113707   0.383   0.150   3.529
 4567TIP3    H213708   0.338   0.061   3.643
 4568TIP3   OH213709   4.986   2.777   0.834
 4568TIP3    H113710   5.053   2.758   0.900
 4568TIP3    H213711   4.908   2.731   0.864
 4569TIP3   OH213712   3.724   3.049   0.932
 4569TIP3    H113713   3.683   3.015   1.012
 4569TIP3    H213714   3.736   3.142   0.949
 4570TIP3   OH213715   2.901   3.673   4.781
 4570TIP3    H113716   2.907   3.630   4.866
 4570TIP3    H213717   2.835   3.740   4.793
 4571TIP3   OH213718   2.585   5.498   2.041
 4571TIP3    H113719   2.553   5.587   2.026
 4571TIP3    H213720   2.532   5.443   1.983
 4572TIP3   OH213721   1.127   0.683   3.203
 4572TIP3    H113722   1.161   0.627   3.274
 4572TIP3    H213723   1.157   0.771   3.226
 4573TIP3   OH213724   1.885   2.194   1.101
 4573TIP3    H113725   1.908   2.109   1.139
 4573TIP3    H213726   1.839   2.172   1.020
 4574TIP3   OH213727   2.768   1.124   2.732
 4574TIP3    H113728   2.820   1.044   2.743
 4574TIP3    H213729   2.679   1.093   2.714
 4575TIP3   OH213730   2.411   4.953   3.586
 4575TIP3    H113731   2.425   5.010   3.511
 4575TIP3    H213732   2.401   4.866   3.549
 4576TIP3   OH213733   4.387   2.136   4.901
 4576TIP3    H113734   4.479   2.124   4.875
 4576TIP3    H213735   4.338   2.080   4.840
 4577TIP3   OH213736   6.363   2.654   1.853
 4577TIP3    H113737   6.281   2.682   1.813
 4577TIP3    H213738   6.344   2.650   1.946
 4578TIP3   OH213739   5.029   0.805   4.298
 4578TIP3    H113740   5.119   0.836   4.290
 4578TIP3    H213741   5.033   0.735   4.364
 4579TIP3   OH213742   4.672   4.459   4.420
 4579TIP3    H113743   4.702   4.484   4.332
 4579TIP3    H213744   4.703   4.529   4.477
 4580TIP3   OH213745   3.419   4.639   3.599
 4580TIP3    H113746   3.358   4.615   3.669
 4580TIP3    H213747   3.481   4.565   3.596
 4581TIP3   OH213748   0.219   1.450   4.767
 4581TIP3    H113749   0.208   1.390   4.692
 4581TIP3    H213750   0.314   1.451   4.782
 4582TIP3   OH213751   3.688   3.942   2.730
 4582TIP3    H113752   3.734   3.859   2.740
 4582TIP3    H213753   3.595   3.917   2.723
 4583TIP3   OH213754   5.114   5.733   2.911
 4583TIP3    H113755   5.207   5.718   2.895
 4583TIP3    H213756   5.096   5.819   2.873
 4584TIP3   OH213757   4.646   5.124   0.296
 4584TIP3    H113758   4.681   5.068   0.227
 4584TIP3    H213759   4.697   5.205   0.290
 4585TIP3   OH213760   3.209   1.890   4.894
 4585TIP3    H113761   3.175   1.804   4.867
 4585TIP3    H213762   3.214   1.884   4.989
 4586TIP3   OH213763   5.802   4.165   4.702
 4586TIP3    H113764   5.776   4.153   4.794
 4586TIP3    H213765   5.720   4.183   4.656
 4587TIP3   OH213766   2.252   5.441   1.079
 4587TIP3    H113767   2.273   5.443   1.172
 4587TIP3    H213768   2.156   5.430   1.077
 4588TIP3   OH213769   0.483   4.279   3.791
 4588TIP3    H113770   0.566   4.273   3.745
 4588TIP3    H213771   0.507   4.293   3.883
 4589TIP3   OH213772   2.203   0.671   3.957
 4589TIP3    H113773   2.118   0.658   3.915
 4589TIP3    H213774   2.191   0.746   4.015
 4590TIP3   OH213775   4.127   2.194   3.527
 4590TIP3    H113776   4.211   2.211   3.568
 4590TIP3    H213777   4.099   2.110   3.565
 4591TIP3   OH213778   4.407   0.813   0.270
 4591TIP3    H113779   4.311   0.822   0.265
 4591TIP3    H213780   4.423   0.720   0.261
 4592TIP3   OH213781   3.429   3.951   1.810
 4592TIP3    H113782   3.426   4.005   1.731
 4592TIP3    H213783   3.403   3.863   1.780
 4593TIP3   OH213784   0.967   4.610   0.213
 4593TIP3    H113785   0.932   4.661   0.285
 4593TIP3    H213786   0.901   4.618   0.143
 4594TIP3   OH213787   5.598   3.686   3.334
 4594TIP3    H113788   5.679   3.737   3.330
 4594TIP3    H213789   5.562   3.689   3.246
 4595TIP3   OH213790   2.860   1.861   1.832
 4595TIP3    H113791   2.861   1.943   1.882
 4595TIP3    H213792   2.808   1.881   1.754
 4596TIP3   OH213793   5.410   2.806   3.677
 4596TIP3    H113794   5.355   2.883   3.661
 4596TIP3    H213795   5.429   2.771   3.590
 4597TIP3   OH213796   1.077   5.024   1.727
 4597TIP3    H113797   1.144   5.072   1.777
 4597TIP3    H213798   1.088   5.054   1.637
 4598TIP3   OH213799   0.802   2.310   4.222
 4598TIP3    H113800   0.896   2.300   4.237
 4598TIP3    H213801   0.765   2.226   4.249
 4599TIP3   OH213802   1.822   4.824   1.204
 4599TIP3    H113803   1.889   4.859   1.264
 4599TIP3    H213804   1.828   4.729   1.216
 4600TIP3   OH213805   3.037   2.638   3.159
 4600TIP3    H113806   3.041   2.662   3.066
 4600TIP3    H213807   3.114   2.584   3.173
 4601TIP3   OH213808   0.168   3.542   3.708
 4601TIP3    H113809   0.110   3.604   3.752
 4601TIP3    H213810   0.243   3.595   3.681
 4602TIP3   OH213811   5.691   2.929   3.711
 4602TIP3    H113812   5.648   2.851   3.746
 4602TIP3    H213813   5.624   2.971   3.657
 4603TIP3   OH213814   0.146   4.746   4.128
 4603TIP3    H113815   0.219   4.694   4.095
 4603TIP3    H213816   0.114   4.696   4.203
 4604TIP3   OH213817   4.749   2.637   0.866
 4604TIP3    H113818   4.667   2.679   0.894
 4604TIP3    H213819   4.757   2.560   0.922
 4605TIP3   OH213820   0.497   1.870   3.185
 4605TIP3    H113821   0.467   1.892   3.273
 4605TIP3    H213822   0.593   1.875   3.190
 4606TIP3   OH213823   1.425   1.094   1.833
 4606TIP3    H113824   1.469   1.020   1.792
 4606TIP3    H213825   1.368   1.129   1.765
 4607TIP3   OH213826   3.323   4.448   4.614
 4607TIP3    H113827   3.262   4.407   4.675
 4607TIP3    H213828   3.287   4.535   4.599
 4608TIP3   OH213829   3.696   2.201   4.084
 4608TIP3    H113830   3.669   2.110   4.067
 4608TIP3    H213831   3.745   2.227   4.006
 4609TIP3   OH213832   4.955   1.476   0.100
 4609TIP3    H113833   4.916   1.540   0.040
 4609TIP3    H213834   5.049   1.493   0.096
 4610TIP3   OH213835   2.571   0.823   3.081
 4610TIP3    H113836   2.646   0.876   3.107
 4610TIP3    H213837   2.565   0.755   3.149
 4611TIP3   OH213838   0.827   0.580   5.038
 4611TIP3    H113839   0.822   0.510   4.973
 4611TIP3    H213840   0.742   0.624   5.032
 4612TIP3   OH213841   1.422   0.793   3.598
 4612TIP3    H113842   1.384   0.868   3.645
 4612TIP3    H213843   1.433   0.726   3.665
 4613TIP3   OH213844   6.235   3.994   3.401
 4613TIP3    H113845   6.269   3.910   3.429
 4613TIP3    H213846   6.219   3.984   3.307
 4614TIP3   OH213847   3.715   3.986   3.664
 4614TIP3    H113848   3.706   3.892   3.647
 4614TIP3    H213849   3.803   3.995   3.701
 4615TIP3   OH213850   3.218   4.509   2.554
 4615TIP3    H113851   3.197   4.602   2.559
 4615TIP3    H213852   3.189   4.473   2.638
 4616TIP3   OH213853   1.198   1.815   1.177
 4616TIP3    H113854   1.226   1.759   1.104
 4616TIP3    H213855   1.223   1.903   1.150
 4617TIP3   OH213856   4.626   5.265   2.029
 4617TIP3    H113857   4.564   5.296   1.963
 4617TIP3    H213858   4.699   5.230   1.978
 4618TIP3   OH213859   3.189   3.831   4.118
 4618TIP3    H113860   3.116   3.770   4.108
 4618TIP3    H213861   3.232   3.831   4.032
 4619TIP3   OH213862   3.772   3.859   1.358
 4619TIP3    H113863   3.729   3.902   1.432
 4619TIP3    H213864   3.857   3.902   1.351
 4620TIP3   OH213865   1.648   3.726   0.244
 4620TIP3    H113866   1.560   3.725   0.208
 4620TIP3    H213867   1.682   3.813   0.222
 4621TIP3   OH213868   4.692   5.484   0.721
 4621TIP3    H113869   4.693   5.545   0.647
 4621TIP3    H213870   4.663   5.401   0.683
 4622TIP3   OH213871   2.096   5.458   0.544
 4622TIP3    H113872   2.139   5.538   0.576
 4622TIP3    H213873   2.020   5.490   0.495
 4623TIP3   OH213874   3.558   2.897   2.023
 4623TIP3    H113875   3.628   2.870   1.964
 4623TIP3    H213876   3.481   2.849   1.993
 4624TIP3   OH213877   4.172   5.405   0.920
 4624TIP3    H113878   4.226   5.375   0.993
 4624TIP3    H213879   4.186   5.339   0.851
 4625TIP3   OH213880   6.201   5.372   2.856
 4625TIP3    H113881   6.135   5.395   2.921
 4625TIP3    H213882   6.282   5.366   2.906
 4626TIP3   OH213883   2.644   4.199   3.234
 4626TIP3    H113884   2.626   4.112   3.268
 4626TIP3    H213885   2.586   4.257   3.282
 4627TIP3   OH213886   0.177   0.884   3.850
 4627TIP3    H113887   0.263   0.886   3.892
 4627TIP3    H213888   0.125   0.826   3.905
 4628TIP3   OH213889   1.929   4.993   1.014
 4628TIP3    H113890   1.883   4.944   1.082
 4628TIP3    H213891   1.993   4.931   0.979
 4629TIP3   OH213892   0.982   3.961   1.640
 4629TIP3    H113893   0.967   3.977   1.547
 4629TIP3    H213894   0.905   3.911   1.668
 4630TIP3   OH213895   3.627   4.211   0.093
 4630TIP3    H113896   3.647   4.152   0.165
 4630TIP3    H213897   3.629   4.155   0.015
 4631TIP3   OH213898   5.332   5.621   1.524
 4631TIP3    H113899   5.341   5.571   1.605
 4631TIP3    H213900   5.242   5.604   1.496
 4632TIP3   OH213901   3.758   2.259   2.308
 4632TIP3    H113902   3.795   2.303   2.384
 4632TIP3    H213903   3.688   2.204   2.344
 4633TIP3   OH213904   6.077   5.424   1.575
 4633TIP3    H113905   5.986   5.417   1.548
 4633TIP3    H213906   6.112   5.336   1.566
 4634TIP3   OH213907   2.260   4.133   0.286
 4634TIP3    H113908   2.319   4.206   0.265
 4634TIP3    H213909   2.264   4.076   0.209
 4635TIP3   OH213910   2.618   5.012   4.317
 4635TIP3    H113911   2.625   4.985   4.226
 4635TIP3    H213912   2.535   5.059   4.322
 4636TIP3   OH213913   3.440   3.915  -0.004
 4636TIP3    H113914   3.389   3.909   0.076
 4636TIP3    H213915   3.376   3.906  -0.074
 4637TIP3   OH213916   5.541   1.319   4.730
 4637TIP3    H113917   5.569   1.403   4.766
 4637TIP3    H213918   5.617   1.286   4.683
 4638TIP3   OH213919   2.207   5.639   3.130
 4638TIP3    H113920   2.130   5.595   3.093
 4638TIP3    H213921   2.242   5.691   3.057
 4639TIP3   OH213922   1.097   1.359   4.477
 4639TIP3    H113923   1.061   1.272   4.491
 4639TIP3    H213924   1.107   1.396   4.564
 4640TIP3   OH213925   0.826   5.586   0.751
 4640TIP3    H113926   0.885   5.525   0.707
 4640TIP3    H213927   0.757   5.603   0.687
 4641TIP3   OH213928   2.391   1.379   3.296
 4641TIP3    H113929   2.343   1.436   3.355
 4641TIP3    H213930   2.403   1.431   3.217
 4642TIP3   OH213931   0.038   3.926   4.303
 4642TIP3    H113932  -0.019   3.989   4.349
 4642TIP3    H213933   0.102   3.981   4.258
 4643TIP3   OH213934   1.318   0.577   4.007
 4643TIP3    H113935   1.328   0.671   3.991
 4643TIP3    H213936   1.406   0.547   4.029
 4644TIP3   OH213937   2.550   4.996   5.002
 4644TIP3    H113938   2.481   4.949   5.048
 4644TIP3    H213939   2.518   5.004   4.912
 4645TIP3   OH213940   3.590   5.051   2.428
 4645TIP3    H113941   3.680   5.041   2.399
 4645TIP3    H213942   3.587   5.136   2.471
 4646TIP3   OH213943   2.886   4.249   4.360
 4646TIP3    H113944   2.865   4.174   4.304
 4646TIP3    H213945   2.981   4.257   4.355
 4647TIP3   OH213946   4.970   4.836   1.182
 4647TIP3    H113947   4.913   4.764   1.155
 4647TIP3    H213948   4.925   4.878   1.255
 4648TIP3   OH213949   6.244   3.976   4.943
 4648TIP3    H113950   6.168   3.931   4.906
 4648TIP3    H213951   6.214   4.008   5.028
 4649TIP3   OH213952   6.232   0.242   1.163
 4649TIP3    H113953   6.239   0.337   1.156
 4649TIP3    H213954   6.254   0.210   1.076
 4650TIP3   OH213955   5.794   5.584   0.999
 4650TIP3    H113956   5.717   5.528   1.011
 4650TIP3    H213957   5.849   5.567   1.076
 4651TIP3   OH213958   2.423   5.377   3.697
 4651TIP3    H113959   2.449   5.468   3.711
 4651TIP3    H213960   2.491   5.341   3.641
 4652TIP3   OH213961   3.099   5.416   1.709
 4652TIP3    H113962   3.097   5.487   1.773
 4652TIP3    H213963   3.108   5.459   1.625
 4653TIP3   OH213964   5.520   4.513   3.594
 4653TIP3    H113965   5.584   4.493   3.663
 4653TIP3    H213966   5.471   4.588   3.628
 4654TIP3   OH213967   4.985   2.811   4.251
 4654TIP3    H113968   5.016   2.786   4.338
 4654TIP3    H213969   5.041   2.762   4.191
 4655TIP3   OH213970   5.482   4.943   3.849
 4655TIP3    H113971   5.508   4.855   3.876
 4655TIP3    H213972   5.531   5.001   3.908
 4656TIP3   OH213973   4.397   0.245   2.343
 4656TIP3    H113974   4.302   0.235   2.333
 4656TIP3    H213975   4.424   0.167   2.390
 4657TIP3   OH213976   1.256   5.836   4.430
 4657TIP3    H113977   1.305   5.848   4.348
 4657TIP3    H213978   1.164   5.835   4.403
 4658TIP3   OH213979   0.345   1.539   2.737
 4658TIP3    H113980   0.330   1.474   2.668
 4658TIP3    H213981   0.322   1.493   2.818
 4659TIP3   OH213982   2.536   1.832   1.775
 4659TIP3    H113983   2.461   1.773   1.774
 4659TIP3    H213984   2.528   1.883   1.695
 4660TIP3   OH213985   4.150   4.966   1.818
 4660TIP3    H113986   4.128   5.059   1.814
 4660TIP3    H213987   4.104   4.927   1.743
 4661TIP3   OH213988   4.820   3.082   3.028
 4661TIP3    H113989   4.851   3.134   2.954
 4661TIP3    H213990   4.868   3.000   3.021
 4662TIP3   OH213991   0.325   2.910   1.218
 4662TIP3    H113992   0.348   2.932   1.308
 4662TIP3    H213993   0.310   2.994   1.175
 4663TIP3   OH213994   4.612   4.871   4.592
 4663TIP3    H113995   4.674   4.926   4.544
 4663TIP3    H213996   4.545   4.849   4.527
 4664TIP3   OH213997   5.605   5.579   4.461
 4664TIP3    H113998   5.521   5.603   4.422
 4664TIP3    H213999   5.608   5.626   4.544
 4665TIP3   OH214000   1.071   4.893   5.016
 4665TIP3    H114001   1.145   4.866   4.962
 4665TIP3    H214002   1.010   4.933   4.955
 4666TIP3   OH214003   3.554   1.839   0.883
 4666TIP3    H114004   3.640   1.851   0.842
 4666TIP3    H214005   3.500   1.910   0.847
 4667TIP3   OH214006   3.597   4.548   4.541
 4667TIP3    H114007   3.535   4.519   4.607
 4667TIP3    H214008   3.682   4.515   4.571
 4668TIP3   OH214009   3.063   3.851   1.722
 4668TIP3    H114010   2.983   3.896   1.695
 4668TIP3    H214011   3.048   3.759   1.699
 4669TIP3   OH214012   3.794   2.473   2.724
 4669TIP3    H114013   3.729   2.416   2.766
 4669TIP3    H214014   3.745   2.551   2.700
 4670TIP3   OH214015   1.280   0.466   4.256
 4670TIP3    H114016   1.355   0.407   4.266
 4670TIP3    H214017   1.314   0.539   4.203
 4671TIP3   OH214018   5.103   3.303   1.509
 4671TIP3    H114019   5.116   3.316   1.415
 4671TIP3    H214020   5.184   3.260   1.538
 4672TIP3   OH214021   1.021   2.738   2.816
 4672TIP3    H114022   0.982   2.687   2.886
 4672TIP3    H214023   1.071   2.807   2.861
 4673TIP3   OH214024   0.915   4.449   2.160
 4673TIP3    H114025   1.005   4.424   2.137
 4673TIP3    H214026   0.914   4.450   2.255
 4674TIP3   OH214027   3.361   1.691  -0.003
 4674TIP3    H114028   3.409   1.608  -0.009
 4674TIP3    H214029   3.272   1.669  -0.030
 4675TIP3   OH214030   2.734   4.426   2.761
 4675TIP3    H114031   2.688   4.465   2.835
 4675TIP3    H214032   2.667   4.417   2.693
 4676TIP3   OH214033   2.643   4.700   1.563
 4676TIP3    H114034   2.704   4.762   1.603
 4676TIP3    H214035   2.695   4.655   1.496
 4677TIP3   OH214036   5.841   3.568   0.056
 4677TIP3    H114037   5.827   3.657   0.091
 4677TIP3    H214038   5.824   3.510   0.131
 4678TIP3   OH214039   1.774   2.151   3.936
 4678TIP3    H114040   1.862   2.128   3.966
 4678TIP3    H214041   1.762   2.241   3.965
 4679TIP3   OH214042   0.641   5.391   4.187
 4679TIP3    H114043   0.592   5.472   4.180
 4679TIP3    H214044   0.578   5.327   4.218
 4680TIP3   OH214045   1.509   3.364   2.115
 4680TIP3    H114046   1.464   3.443   2.145
 4680TIP3    H214047   1.591   3.397   2.078
 4681TIP3   OH214048   4.811   4.604   4.916
 4681TIP3    H114049   4.837   4.520   4.954
 4681TIP3    H214050   4.721   4.617   4.945
 4682TIP3   OH214051   4.300   1.561   1.422
 4682TIP3    H114052   4.340   1.536   1.339
 4682TIP3    H214053   4.210   1.529   1.416
 4683TIP3   OH214054   1.445   2.039   2.104
 4683TIP3    H114055   1.442   2.022   2.010
 4683TIP3    H214056   1.370   1.991   2.140
 4684TIP3   OH214057   5.134   0.600   2.481
 4684TIP3    H114058   5.206   0.653   2.517
 4684TIP3    H214059   5.058   0.658   2.485
 4685TIP3   OH214060   2.191   5.923   1.151
 4685TIP3    H114061   2.183   5.844   1.099
 4685TIP3    H214062   2.102   5.941   1.182
 4686TIP3   OH214063   2.103   4.961   4.270
 4686TIP3    H114064   2.093   5.046   4.312
 4686TIP3    H214065   2.142   4.981   4.185
 4687TIP3   OH214066   6.057   3.583   3.771
 4687TIP3    H114067   6.053   3.530   3.851
 4687TIP3    H214068   6.109   3.531   3.710
 4688TIP3   OH214069   6.158   2.386   3.481
 4688TIP3    H114070   6.078   2.437   3.473
 4688TIP3    H214071   6.129   2.300   3.511
 4689TIP3   OH214072   1.108   1.169   1.267
 4689TIP3    H114073   1.038   1.118   1.229
 4689TIP3    H214074   1.154   1.108   1.325
 4690TIP3   OH214075   1.564   3.776   2.993
 4690TIP3    H114076   1.499   3.786   3.063
 4690TIP3    H214077   1.641   3.739   3.036
 4691TIP3   OH214078   5.756   0.515   3.210
 4691TIP3    H114079   5.790   0.600   3.241
 4691TIP3    H214080   5.674   0.537   3.166
 4692TIP3   OH214081   0.649   3.229   3.948
 4692TIP3    H114082   0.712   3.171   3.991
 4692TIP3    H214083   0.620   3.180   3.871
 4693TIP3   OH214084   5.956   6.001   3.838
 4693TIP3    H114085   5.981   5.987   3.929
 4693TIP3    H214086   5.862   6.022   3.841
 4694TIP3   OH214087   2.115   0.946   5.098
 4694TIP3    H114088   2.079   0.951   5.009
 4694TIP3    H214089   2.197   0.995   5.093
 4695TIP3   OH214090   3.746   1.778   2.668
 4695TIP3    H114091   3.824   1.834   2.666
 4695TIP3    H214092   3.758   1.721   2.744
 4696TIP3   OH214093   6.126   3.611   2.022
 4696TIP3    H114094   6.189   3.629   1.952
 4696TIP3    H214095   6.134   3.685   2.081
 4697TIP3   OH214096   0.827   0.350   4.861
 4697TIP3    H114097   0.745   0.326   4.904
 4697TIP3    H214098   0.857   0.270   4.819
 4698TIP3   OH214099   2.108   3.281   0.284
 4698TIP3    H114100   2.161   3.355   0.254
 4698TIP3    H214101   2.167   3.229   0.338
 4699TIP3   OH214102   2.533   0.356   2.232
 4699TIP3    H114103   2.588   0.298   2.287
 4699TIP3    H214104   2.559   0.444   2.258
 4700TIP3   OH214105   4.137   3.058   4.101
 4700TIP3    H114106   4.185   3.117   4.043
 4700TIP3    H214107   4.060   3.031   4.051
 4701TIP3   OH214108   4.739   5.654   1.534
 4701TIP3    H114109   4.757   5.602   1.456
 4701TIP3    H214110   4.643   5.660   1.538
 4702TIP3   OH214111   1.576   0.787   2.756
 4702TIP3    H114112   1.525   0.728   2.811
 4702TIP3    H214113   1.579   0.744   2.670
 4703TIP3   OH214114   0.282   0.801   0.679
 4703TIP3    H114115   0.218   0.861   0.717
 4703TIP3    H214116   0.296   0.735   0.747
 4704TIP3   OH214117   6.245   2.374   5.067
 4704TIP3    H114118   6.332   2.336   5.072
 4704TIP3    H214119   6.255   2.453   5.013
 4705TIP3   OH214120   4.780   0.845   3.466
 4705TIP3    H114121   4.755   0.888   3.384
 4705TIP3    H214122   4.762   0.752   3.450
 4706TIP3   OH214123   1.700   3.518   3.519
 4706TIP3    H114124   1.725   3.596   3.570
 4706TIP3    H214125   1.703   3.447   3.583
 4707TIP3   OH214126   0.859   3.359   5.046
 4707TIP3    H114127   0.936   3.346   5.102
 4707TIP3    H214128   0.809   3.278   5.056
 4708TIP3   OH214129   0.407   2.309   4.032
 4708TIP3    H114130   0.462   2.360   4.091
 4708TIP3    H214131   0.437   2.219   4.042
 4709TIP3   OH214132   4.697   5.953   1.742
 4709TIP3    H114133   4.670   5.994   1.824
 4709TIP3    H214134   4.791   5.967   1.737
 4710TIP3   OH214135   0.964   1.782   4.422
 4710TIP3    H114136   1.046   1.827   4.444
 4710TIP3    H214137   0.973   1.762   4.329
 4711TIP3   OH214138   1.912   4.773   4.760
 4711TIP3    H114139   1.824   4.785   4.724
 4711TIP3    H214140   1.954   4.711   4.700
 4712TIP3   OH214141   4.323   4.697   4.192
 4712TIP3    H114142   4.254   4.685   4.127
 4712TIP3    H214143   4.366   4.612   4.196
 4713TIP3   OH214144   3.093   3.135   0.178
 4713TIP3    H114145   3.041   3.161   0.254
 4713TIP3    H214146   3.112   3.218   0.133
 4714TIP3   OH214147   0.750   1.548   2.744
 4714TIP3    H114148   0.708   1.513   2.666
 4714TIP3    H214149   0.723   1.489   2.814
 4715TIP3   OH214150   0.115   5.688   4.393
 4715TIP3    H114151   0.048   5.677   4.461
 4715TIP3    H214152   0.179   5.620   4.411
 4716TIP3   OH214153   0.385   5.063   2.581
 4716TIP3    H114154   0.325   5.086   2.652
 4716TIP3    H214155   0.362   5.122   2.510
 4717TIP3   OH214156   5.531   2.618   2.653
 4717TIP3    H114157   5.615   2.574   2.641
 4717TIP3    H214158   5.554   2.710   2.670
 4718TIP3   OH214159   6.296   1.307   2.249
 4718TIP3    H114160   6.226   1.243   2.263
 4718TIP3    H214161   6.306   1.351   2.334
 4719TIP3   OH214162   0.913   4.084   4.696
 4719TIP3    H114163   0.921   4.054   4.786
 4719TIP3    H214164   0.853   4.022   4.655
 4720TIP3   OH214165   5.209   0.777   4.520
 4720TIP3    H114166   5.240   0.695   4.560
 4720TIP3    H214167   5.120   0.788   4.554
 4721TIP3   OH214168   3.452   2.400   1.235
 4721TIP3    H114169   3.409   2.396   1.321
 4721TIP3    H214170   3.494   2.314   1.226
 4722TIP3   OH214171   3.127   3.679   0.742
 4722TIP3    H114172   3.142   3.773   0.730
 4722TIP3    H214173   3.204   3.648   0.789
 4723TIP3   OH214174   5.279   5.250   0.458
 4723TIP3    H114175   5.291   5.322   0.520
 4723TIP3    H214176   5.243   5.179   0.510
 4724TIP3   OH214177   5.387   0.076   4.069
 4724TIP3    H114178   5.334   0.122   4.004
 4724TIP3    H214179   5.478   0.091   4.041
 4725TIP3   OH214180   0.500   1.417   0.891
 4725TIP3    H114181   0.414   1.386   0.919
 4725TIP3    H214182   0.486   1.455   0.805
 4726TIP3   OH214183   6.104   0.635   4.001
 4726TIP3    H114184   6.164   0.623   3.928
 4726TIP3    H214185   6.017   0.631   3.962
 4727TIP3   OH214186   0.735   2.043   3.478
 4727TIP3    H114187   0.759   2.135   3.465
 4727TIP3    H214188   0.718   2.011   3.389
 4728TIP3   OH214189   6.035   0.640   2.346
 4728TIP3    H114190   6.035   0.719   2.292
 4728TIP3    H214191   5.942   0.619   2.358
 4729TIP3   OH214192   4.685   0.327   4.972
 4729TIP3    H114193   4.753   0.392   4.956
 4729TIP3    H214194   4.656   0.343   5.062
 4730TIP3   OH214195   4.815   1.049   2.728
 4730TIP3    H114196   4.906   1.042   2.757
 4730TIP3    H214197   4.772   0.972   2.765
 4731TIP3   OH214198   4.227   3.034   1.102
 4731TIP3    H114199   4.227   2.941   1.127
 4731TIP3    H214200   4.243   3.033   1.007
 4732TIP3   OH214201   6.283   5.397   4.793
 4732TIP3    H114202   6.251   5.352   4.871
 4732TIP3    H214203   6.274   5.333   4.722
 4733TIP3   OH214204   4.831   1.465   4.836
 4733TIP3    H114205   4.898   1.438   4.774
 4733TIP3    H214206   4.876   1.528   4.894
 4734TIP3   OH214207   1.062   2.509   4.320
 4734TIP3    H114208   1.147   2.504   4.275
 4734TIP3    H214209   1.060   2.430   4.374
 4735TIP3   OH214210   1.597   3.411   3.210
 4735TIP3    H114211   1.602   3.349   3.282
 4735TIP3    H214212   1.630   3.362   3.134
 4736TIP3   OH214213   4.893   4.207   2.550
 4736TIP3    H114214   4.910   4.297   2.578
 4736TIP3    H214215   4.811   4.212   2.500
 4737TIP3   OH214216   3.797   1.397   5.142
 4737TIP3    H114217   3.877   1.445   5.123
 4737TIP3    H214218   3.828   1.312   5.174
 4738TIP3   OH214219   1.191   3.626   4.687
 4738TIP3    H114220   1.193   3.536   4.717
 4738TIP3    H214221   1.260   3.632   4.621
 4739TIP3   OH214222   1.035   3.092   2.290
 4739TIP3    H114223   1.048   3.130   2.203
 4739TIP3    H214224   1.079   3.007   2.287
 4740TIP3   OH214225   4.970   2.921   3.719
 4740TIP3    H114226   4.937   3.003   3.756
 4740TIP3    H214227   4.898   2.889   3.664
 4741TIP3   OH214228   1.851   0.911   2.780
 4741TIP3    H114229   1.904   0.870   2.712
 4741TIP3    H214230   1.767   0.865   2.776
 4742TIP3   OH214231   1.863   5.450   4.744
 4742TIP3    H114232   1.888   5.412   4.660
 4742TIP3    H214233   1.809   5.526   4.722
 4743TIP3   OH214234   4.495   1.038   0.135
 4743TIP3    H114235   4.460   1.027   0.047
 4743TIP3    H214236   4.443   0.979   0.190
 4744TIP3   OH214237   1.905   5.918   4.824
 4744TIP3    H114238   1.966   5.844   4.828
 4744TIP3    H214239   1.874   5.918   4.734
 4745TIP3   OH214240   3.455   5.139   0.599
 4745TIP3    H114241   3.438   5.211   0.661
 4745TIP3    H214242   3.396   5.157   0.525
 4746TIP3   OH214243   5.586   0.594   2.777
 4746TIP3    H114244   5.666   0.548   2.800
 4746TIP3    H214245   5.611   0.653   2.705
 4747TIP3   OH214246   5.170   4.071   0.535
 4747TIP3    H114247   5.092   4.029   0.571
 4747TIP3    H214248   5.236   4.002   0.536
 4748TIP3   OH214249   4.193   3.378   2.242
 4748TIP3    H114250   4.192   3.327   2.324
 4748TIP3    H214251   4.245   3.455   2.263
 4749TIP3   OH214252   4.274   5.242   5.116
 4749TIP3    H114253   4.258   5.329   5.079
 4749TIP3    H214254   4.223   5.183   5.061
 4750TIP3   OH214255   1.787   0.850   3.153
 4750TIP3    H114256   1.790   0.769   3.102
 4750TIP3    H214257   1.819   0.825   3.239
 4751TIP3   OH214258   4.076   0.804   2.648
 4751TIP3    H114259   4.020   0.880   2.660
 4751TIP3    H214260   4.041   0.760   2.571
 4752TIP3   OH214261   3.656   2.636   1.010
 4752TIP3    H114262   3.587   2.607   0.951
 4752TIP3    H214263   3.612   2.651   1.094
 4753TIP3   OH214264   1.859   4.434   0.213
 4753TIP3    H114265   1.816   4.502   0.265
 4753TIP3    H214266   1.933   4.406   0.267
 4754TIP3   OH214267   4.839   5.702   2.896
 4754TIP3    H114268   4.933   5.716   2.889
 4754TIP3    H214269   4.801   5.753   2.825
 4755TIP3   OH214270   2.073   4.773   0.204
 4755TIP3    H114271   2.059   4.781   0.110
 4755TIP3    H214272   2.154   4.821   0.220
 4756TIP3   OH214273   0.947   3.290   3.809
 4756TIP3    H114274   1.026   3.333   3.844
 4756TIP3    H214275   0.907   3.248   3.885
 4757TIP3   OH214276   0.402   1.709   2.313
 4757TIP3    H114277   0.483   1.748   2.345
 4757TIP3    H214278   0.332   1.761   2.353
 4758TIP3   OH214279   0.188   3.862   3.104
 4758TIP3    H114280   0.157   3.776   3.132
 4758TIP3    H214281   0.162   3.868   3.012
 4759TIP3   OH214282   5.959   2.343   0.410
 4759TIP3    H114283   6.014   2.309   0.339
 4759TIP3    H214284   6.004   2.423   0.438
 4760TIP3   OH214285   5.600   0.569   1.998
 4760TIP3    H114286   5.671   0.573   2.062
 4760TIP3    H214287   5.550   0.650   2.012
 4761TIP3   OH214288   5.155   0.930   1.192
 4761TIP3    H114289   5.147   0.856   1.252
 4761TIP3    H214290   5.065   0.962   1.182
 4762TIP3   OH214291   0.026   5.605   2.720
 4762TIP3    H114292   0.096   5.671   2.729
 4762TIP3    H214293   0.005   5.581   2.810
 4763TIP3   OH214294   2.814   0.958   3.937
 4763TIP3    H114295   2.737   0.998   3.898
 4763TIP3    H214296   2.841   0.892   3.873
 4764TIP3   OH214297   2.250   5.030   1.553
 4764TIP3    H114298   2.297   5.091   1.610
 4764TIP3    H214299   2.302   4.949   1.558
 4765TIP3   OH214300   2.025   4.087   3.255
 4765TIP3    H114301   2.063   4.030   3.323
 4765TIP3    H214302   2.099   4.107   3.197
 4766TIP3   OH214303   1.413   1.098   3.384
 4766TIP3    H114304   1.469   1.042   3.331
 4766TIP3    H214305   1.401   1.177   3.331
 4767TIP3   OH214306   0.811   5.227   3.053
 4767TIP3    H114307   0.717   5.211   3.043
 4767TIP3    H214308   0.817   5.289   3.126
 4768TIP3   OH214309   3.930   5.926   4.576
 4768TIP3    H114310   3.850   5.979   4.574
 4768TIP3    H214311   3.977   5.952   4.496
 4769TIP3   OH214312   5.471   0.265   1.731
 4769TIP3    H114313   5.388   0.312   1.731
 4769TIP3    H214314   5.477   0.228   1.643
 4770TIP3   OH214315   5.575   0.129   0.096
 4770TIP3    H114316   5.517   0.153   0.168
 4770TIP3    H214317   5.527   0.063   0.047
 4771TIP3   OH214318   2.463   2.497   0.816
 4771TIP3    H114319   2.383   2.450   0.797
 4771TIP3    H214320   2.526   2.466   0.751
 4772TIP3   OH214321   1.427   5.834   3.317
 4772TIP3    H114322   1.432   5.875   3.403
 4772TIP3    H214323   1.345   5.784   3.318
 4773TIP3   OH214324   3.835   0.182   3.001
 4773TIP3    H114325   3.899   0.168   2.932
 4773TIP3    H214326   3.859   0.266   3.040
 4774TIP3   OH214327   2.028   2.158   3.452
 4774TIP3    H114328   2.105   2.214   3.464
 4774TIP3    H214329   1.999   2.177   3.363
 4775TIP3   OH214330   3.202   4.770   3.736
 4775TIP3    H114331   3.203   4.859   3.770
 4775TIP3    H214332   3.152   4.720   3.801
 4776TIP3   OH214333   5.036   1.000   0.292
 4776TIP3    H114334   5.075   1.029   0.210
 4776TIP3    H214335   4.942   0.998   0.274
 4777TIP3   OH214336   3.913   3.859   1.655
 4777TIP3    H114337   3.970   3.935   1.666
 4777TIP3    H214338   3.832   3.883   1.698
 4778TIP3   OH214339   2.480   4.158   2.473
 4778TIP3    H114340   2.418   4.090   2.500
 4778TIP3    H214341   2.467   4.166   2.378
 4779TIP3   OH214342   3.953   5.098   1.630
 4779TIP3    H114343   3.994   5.101   1.544
 4779TIP3    H214344   3.926   5.007   1.641
 4780TIP3   OH214345   3.491   2.384   3.807
 4780TIP3    H114346   3.456   2.299   3.832
 4780TIP3    H214347   3.481   2.438   3.885
 4781TIP3   OH214348   5.883   5.241   4.118
 4781TIP3    H114349   5.837   5.304   4.062
 4781TIP3    H214350   5.836   5.159   4.107
 4782TIP3   OH214351   3.522   4.271   4.299
 4782TIP3    H114352   3.565   4.273   4.213
 4782TIP3    H214353   3.455   4.204   4.290
 4783TIP3   OH214354   3.802   5.756   1.822
 4783TIP3    H114355   3.793   5.840   1.776
 4783TIP3    H214356   3.722   5.708   1.800
 4784TIP3   OH214357   3.663   0.139   3.278
 4784TIP3    H114358   3.688   0.172   3.192
 4784TIP3    H214359   3.735   0.167   3.335
 4785TIP3   OH214360   4.199   5.300   3.828
 4785TIP3    H114361   4.290   5.273   3.813
 4785TIP3    H214362   4.205   5.364   3.898
 4786TIP3   OH214363   6.107   4.461   2.960
 4786TIP3    H114364   6.143   4.393   2.902
 4786TIP3    H214365   6.032   4.496   2.912
 4787TIP3   OH214366   1.181   4.352   2.628
 4787TIP3    H114367   1.168   4.259   2.610
 4787TIP3    H214368   1.101   4.379   2.673
 4788TIP3   OH214369   6.178   2.138   0.602
 4788TIP3    H114370   6.183   2.061   0.658
 4788TIP3    H214371   6.187   2.104   0.513
 4789TIP3   OH214372   2.075   0.072   3.280
 4789TIP3    H114373   2.092   0.061   3.373
 4789TIP3    H214374   2.033  -0.009   3.253
 4790TIP3   OH214375   3.065   5.902   3.133
 4790TIP3    H114376   3.129   5.936   3.196
 4790TIP3    H214377   2.986   5.953   3.150
 4791TIP3   OH214378   1.926   5.159   1.224
 4791TIP3    H114379   1.918   5.100   1.150
 4791TIP3    H214380   2.019   5.155   1.249
 4792TIP3   OH214381   4.062   0.798   2.967
 4792TIP3    H114382   4.148   0.783   3.005
 4792TIP3    H214383   4.078   0.811   2.874
 4793TIP3   OH214384   2.356   5.817   4.189
 4793TIP3    H114385   2.305   5.898   4.189
 4793TIP3    H214386   2.447   5.846   4.175
 4794TIP3   OH214387   1.355   3.301   4.180
 4794TIP3    H114388   1.435   3.258   4.149
 4794TIP3    H214389   1.378   3.394   4.185
 4795TIP3   OH214390   1.932   0.800   3.395
 4795TIP3    H114391   1.994   0.728   3.406
 4795TIP3    H214392   1.982   0.879   3.419
 4796TIP3   OH214393   1.645   2.469   3.404
 4796TIP3    H114394   1.671   2.386   3.364
 4796TIP3    H214395   1.709   2.532   3.373
 4797TIP3   OH214396   1.534   5.113   4.481
 4797TIP3    H114397   1.583   5.125   4.562
 4797TIP3    H214398   1.592   5.148   4.413
 4798TIP3   OH214399   1.486   5.225   4.986
 4798TIP3    H114400   1.574   5.190   4.974
 4798TIP3    H214401   1.438   5.200   4.907
 4799TIP3   OH214402   5.484   3.977   4.607
 4799TIP3    H114403   5.454   4.043   4.670
 4799TIP3    H214404   5.444   4.002   4.524
 4800TIP3   OH214405   4.604   0.894   2.954
 4800TIP3    H114406   4.588   0.921   2.863
 4800TIP3    H214407   4.564   0.807   2.961
 4801TIP3   OH214408   2.306   0.038   4.532
 4801TIP3    H114409   2.341   0.000   4.613
 4801TIP3    H214410   2.246   0.106   4.562
 4802TIP3   OH214411   2.153   2.767   2.766
 4802TIP3    H114412   2.094   2.839   2.785
 4802TIP3    H214413   2.116   2.692   2.812
 4803TIP3   OH214414   4.483   4.533   0.539
 4803TIP3    H114415   4.535   4.509   0.462
 4803TIP3    H214416   4.393   4.531   0.509
 4804TIP3   OH214417   1.009   3.479   2.821
 4804TIP3    H114418   1.086   3.534   2.809
 4804TIP3    H214419   1.002   3.467   2.916
 4805TIP3   OH214420   2.013   1.387   3.642
 4805TIP3    H114421   2.001   1.439   3.562
 4805TIP3    H214422   2.105   1.400   3.665
 4806TIP3   OH214423   0.980   1.660   4.914
 4806TIP3    H114424   0.940   1.652   5.000
 4806TIP3    H214425   1.004   1.752   4.907
 4807TIP3   OH214426   3.337   4.265   3.549
 4807TIP3    H114427   3.277   4.319   3.598
 4807TIP3    H214428   3.339   4.304   3.461
 4808TIP3   OH214429   0.200   1.735   1.314
 4808TIP3    H114430   0.124   1.788   1.340
 4808TIP3    H214431   0.276   1.788   1.340
 4809TIP3   OH214432   3.302   0.567   4.851
 4809TIP3    H114433   3.297   0.523   4.935
 4809TIP3    H214434   3.325   0.658   4.872
 4810TIP3   OH214435   4.665   3.124   0.626
 4810TIP3    H114436   4.576   3.111   0.593
 4810TIP3    H214437   4.666   3.216   0.655
 4811TIP3   OH214438   5.836   2.695   1.418
 4811TIP3    H114439   5.845   2.750   1.496
 4811TIP3    H214440   5.915   2.710   1.368
 4812TIP3   OH214441   5.205   1.729   0.543
 4812TIP3    H114442   5.220   1.665   0.473
 4812TIP3    H214443   5.162   1.679   0.613
 4813TIP3   OH214444   0.110   0.213   2.266
 4813TIP3    H114445   0.036   0.270   2.247
 4813TIP3    H214446   0.078   0.125   2.249
 4814TIP3   OH214447   4.044   3.658   1.885
 4814TIP3    H114448   4.064   3.658   1.979
 4814TIP3    H214449   4.051   3.750   1.860
 4815TIP3   OH214450   4.703   2.482   0.219
 4815TIP3    H114451   4.644   2.528   0.278
 4815TIP3    H214452   4.673   2.391   0.221
 4816TIP3   OH214453   5.380   0.338   0.710
 4816TIP3    H114454   5.378   0.323   0.804
 4816TIP3    H214455   5.423   0.423   0.700
 4817TIP3   OH214456   3.248   1.893   1.707
 4817TIP3    H114457   3.311   1.840   1.756
 4817TIP3    H214458   3.254   1.980   1.747
 4818TIP3   OH214459   0.363   1.668   1.994
 4818TIP3    H114460   0.273   1.687   1.968
 4818TIP3    H214461   0.361   1.577   2.023
 4819TIP3   OH214462   2.709   3.574   2.241
 4819TIP3    H114463   2.710   3.670   2.249
 4819TIP3    H214464   2.717   3.543   2.331
 4820TIP3   OH214465   3.972   4.311   2.887
 4820TIP3    H114466   3.958   4.405   2.872
 4820TIP3    H214467   4.061   4.295   2.854
 4821TIP3   OH214468   2.530   4.445   2.258
 4821TIP3    H114469   2.554   4.460   2.349
 4821TIP3    H214470   2.581   4.509   2.208
 4822TIP3   OH214471   3.538   4.620   3.180
 4822TIP3    H114472   3.512   4.589   3.093
 4822TIP3    H214473   3.456   4.644   3.223
 4823TIP3   OH214474   0.184   5.868   3.359
 4823TIP3    H114475   0.222   5.956   3.359
 4823TIP3    H214476   0.108   5.874   3.417
 4824TIP3   OH214477   6.247   5.721   2.494
 4824TIP3    H114478   6.312   5.667   2.538
 4824TIP3    H214479   6.273   5.720   2.402
 4825TIP3   OH214480   0.765   5.813   4.923
 4825TIP3    H114481   0.720   5.897   4.929
 4825TIP3    H214482   0.698   5.748   4.944
 4826TIP3   OH214483   4.134   4.427   2.051
 4826TIP3    H114484   4.172   4.505   2.092
 4826TIP3    H214485   4.045   4.422   2.087
 4827TIP3   OH214486   2.422   1.071   3.100
 4827TIP3    H114487   2.473   1.151   3.113
 4827TIP3    H214488   2.487   1.000   3.103
 4828TIP3   OH214489   2.222   0.909   4.143
 4828TIP3    H114490   2.277   0.889   4.218
 4828TIP3    H214491   2.133   0.901   4.176
 4829TIP3   OH214492   0.498   1.764   0.971
 4829TIP3    H114493   0.495   1.786   0.878
 4829TIP3    H214494   0.565   1.695   0.976
 4830TIP3   OH214495   4.361   3.875   1.835
 4830TIP3    H114496   4.403   3.924   1.764
 4830TIP3    H214497   4.370   3.932   1.912
 4831TIP3   OH214498   0.309   1.530   0.039
 4831TIP3    H114499   0.382   1.470   0.021
 4831TIP3    H214500   0.350   1.617   0.042
 4832TIP3   OH214501   1.748   1.835   5.104
 4832TIP3    H114502   1.711   1.919   5.076
 4832TIP3    H214503   1.688   1.804   5.172
 4833TIP3   OH214504   1.523   0.889   0.439
 4833TIP3    H114505   1.497   0.980   0.422
 4833TIP3    H214506   1.442   0.839   0.432
 4834TIP3   OH214507   1.490   2.165   1.153
 4834TIP3    H114508   1.456   2.248   1.120
 4834TIP3    H214509   1.540   2.188   1.231
 4835TIP3   OH214510   3.896   1.281   0.303
 4835TIP3    H114511   3.835   1.258   0.373
 4835TIP3    H214512   3.943   1.358   0.336
 4836TIP3   OH214513   0.300   2.992  -0.002
 4836TIP3    H114514   0.292   3.087   0.005
 4836TIP3    H214515   0.236   2.958   0.061
 4837TIP3   OH214516   3.830   2.853   4.992
 4837TIP3    H114517   3.769   2.862   5.066
 4837TIP3    H214518   3.831   2.759   4.974
 4838TIP3   OH214519   3.291   4.923   1.753
 4838TIP3    H114520   3.208   4.970   1.761
 4838TIP3    H214521   3.265   4.835   1.726
 4839TIP3   OH214522   2.831   4.747   4.941
 4839TIP3    H114523   2.834   4.652   4.943
 4839TIP3    H214524   2.823   4.769   4.848
 4840TIP3   OH214525   4.599   3.007   0.211
 4840TIP3    H114526   4.690   3.032   0.196
 4840TIP3    H214527   4.603   2.912   0.225
 4841TIP3   OH214528   0.979   2.767   3.258
 4841TIP3    H114529   1.051   2.715   3.222
 4841TIP3    H214530   1.006   2.786   3.348
 4842TIP3   OH214531   1.436   1.062   1.032
 4842TIP3    H114532   1.515   1.085   1.081
 4842TIP3    H214533   1.420   0.970   1.054
 4843TIP3   OH214534   5.848   2.538   3.900
 4843TIP3    H114535   5.780   2.601   3.877
 4843TIP3    H214536   5.804   2.475   3.957
 4844TIP3   OH214537   2.706   5.802   1.864
 4844TIP3    H114538   2.734   5.890   1.889
 4844TIP3    H214539   2.620   5.792   1.905
 4845TIP3   OH214540   1.071   4.009   3.579
 4845TIP3    H114541   1.130   4.079   3.605
 4845TIP3    H214542   1.120   3.959   3.514
 4846TIP3   OH214543   4.985   3.655   2.563
 4846TIP3    H114544   5.043   3.602   2.509
 4846TIP3    H214545   5.027   3.656   2.649
 4847TIP3   OH214546   6.049   0.298   4.244
 4847TIP3    H114547   6.106   0.361   4.199
 4847TIP3    H214548   6.108   0.227   4.269
 4848TIP3   OH214549   3.141   5.062   2.276
 4848TIP3    H114550   3.106   5.091   2.360
 4848TIP3    H214551   3.218   5.010   2.300
 4849TIP3   OH214552   2.190   1.120   2.271
 4849TIP3    H114553   2.114   1.061   2.264
 4849TIP3    H214554   2.192   1.146   2.363
 4850TIP3   OH214555   3.692   0.464   2.539
 4850TIP3    H114556   3.778   0.448   2.577
 4850TIP3    H214557   3.710   0.505   2.455
 4851TIP3   OH214558   1.635   2.631   1.374
 4851TIP3    H114559   1.623   2.678   1.456
 4851TIP3    H214560   1.660   2.698   1.311
 4852TIP3   OH214561   3.088   3.027   3.539
 4852TIP3    H114562   3.052   2.947   3.501
 4852TIP3    H214563   3.077   3.093   3.471
 4853TIP3   OH214564   1.196   5.498   1.425
 4853TIP3    H114565   1.196   5.425   1.487
 4853TIP3    H214566   1.261   5.559   1.458
 4854TIP3   OH214567   4.120   5.034   1.408
 4854TIP3    H114568   4.109   5.103   1.343
 4854TIP3    H214569   4.090   4.955   1.364
 4855TIP3   OH214570   3.355   2.949   1.071
 4855TIP3    H114571   3.281   2.989   1.117
 4855TIP3    H214572   3.402   3.023   1.032
 4856TIP3   OH214573   3.872   2.963   3.129
 4856TIP3    H114574   3.780   2.989   3.121
 4856TIP3    H214575   3.892   2.920   3.046
 4857TIP3   OH214576   3.508   0.430   4.736
 4857TIP3    H114577   3.564   0.481   4.794
 4857TIP3    H214578   3.419   0.456   4.759
 4858TIP3   OH214579   4.991   3.037   2.544
 4858TIP3    H114580   4.943   3.078   2.472
 4858TIP3    H214581   5.083   3.054   2.525
 4859TIP3   OH214582   3.612   1.089   5.142
 4859TIP3    H114583   3.540   1.116   5.199
 4859TIP3    H214584   3.687   1.142   5.171
 4860TIP3   OH214585   5.553   3.804   3.024
 4860TIP3    H114586   5.646   3.795   3.003
 4860TIP3    H214587   5.536   3.898   3.016
 4861TIP3   OH214588   4.156   4.634   3.981
 4861TIP3    H114589   4.156   4.635   3.885
 4861TIP3    H214590   4.066   4.611   4.005
 4862TIP3   OH214591   2.248   4.180   2.881
 4862TIP3    H114592   2.312   4.110   2.863
 4862TIP3    H214593   2.170   4.134   2.913
 4863TIP3   OH214594   6.145   4.797   1.094
 4863TIP3    H114595   6.052   4.820   1.092
 4863TIP3    H214596   6.183   4.846   1.022
 4864TIP3   OH214597   0.131   0.890   1.013
 4864TIP3    H114598   0.138   0.969   1.068
 4864TIP3    H214599   0.117   0.923   0.925
 4865TIP3   OH214600   5.042   2.738   4.502
 4865TIP3    H114601   5.086   2.663   4.543
 4865TIP3    H214602   5.090   2.814   4.534
 4866TIP3   OH214603   0.219   4.189   3.646
 4866TIP3    H114604   0.163   4.201   3.723
 4866TIP3    H214605   0.307   4.213   3.676
 4867TIP3   OH214606   5.645   1.811   4.904
 4867TIP3    H114607   5.699   1.881   4.868
 4867TIP3    H214608   5.627   1.838   4.994
 4868TIP3   OH214609   4.383   0.862   1.513
 4868TIP3    H114610   4.311   0.903   1.465
 4868TIP3    H214611   4.379   0.770   1.487
 4869TIP3   OH214612   1.887   1.659   0.115
 4869TIP3    H114613   1.936   1.602   0.057
 4869TIP3    H214614   1.948   1.680   0.186
 4870TIP3   OH214615   1.614   1.952   1.574
 4870TIP3    H114616   1.702   1.969   1.607
 4870TIP3    H214617   1.600   2.020   1.507
 4871TIP3   OH214618   4.853   2.203   0.470
 4871TIP3    H114619   4.917   2.154   0.419
 4871TIP3    H214620   4.857   2.164   0.557
 4872TIP3   OH214621   1.915   2.552   0.389
 4872TIP3    H114622   1.835   2.499   0.399
 4872TIP3    H214623   1.979   2.492   0.350
 4873TIP3   OH214624   2.641   3.582   3.541
 4873TIP3    H114625   2.584   3.603   3.467
 4873TIP3    H214626   2.636   3.660   3.597
 4874TIP3   OH214627   5.326   4.857   1.475
 4874TIP3    H114628   5.333   4.830   1.566
 4874TIP3    H214629   5.373   4.789   1.426
 4875TIP3   OH214630   5.565   0.366   1.138
 4875TIP3    H114631   5.577   0.332   1.227
 4875TIP3    H214632   5.639   0.425   1.125
 4876TIP3   OH214633   1.728   0.279   1.993
 4876TIP3    H114634   1.721   0.293   2.087
 4876TIP3    H214635   1.681   0.197   1.977
 4877TIP3   OH214636   2.816   3.135   0.324
 4877TIP3    H114637   2.857   3.210   0.366
 4877TIP3    H214638   2.773   3.171   0.247
 4878TIP3   OH214639   1.801   3.321   4.130
 4878TIP3    H114640   1.725   3.326   4.188
 4878TIP3    H214641   1.807   3.409   4.092
 4879TIP3   OH214642   1.610   4.600   2.465
 4879TIP3    H114643   1.666   4.607   2.388
 4879TIP3    H214644   1.654   4.652   2.532
 4880TIP3   OH214645   4.852   3.181   3.781
 4880TIP3    H114646   4.920   3.248   3.782
 4880TIP3    H214647   4.796   3.203   3.855
 4881TIP3   OH214648   1.060   5.480   2.786
 4881TIP3    H114649   1.088   5.552   2.842
 4881TIP3    H214650   1.067   5.515   2.697
 4882TIP3   OH214651   2.847   0.520   0.574
 4882TIP3    H114652   2.806   0.442   0.611
 4882TIP3    H214653   2.792   0.543   0.499
 4883TIP3   OH214654   2.289   4.686   4.300
 4883TIP3    H114655   2.279   4.605   4.349
 4883TIP3    H214656   2.217   4.685   4.237
 4884TIP3   OH214657   2.360   0.848   1.683
 4884TIP3    H114658   2.420   0.911   1.644
 4884TIP3    H214659   2.310   0.898   1.747
 4885TIP3   OH214660   1.836   2.781   0.805
 4885TIP3    H114661   1.820   2.859   0.859
 4885TIP3    H214662   1.807   2.708   0.860
 4886TIP3   OH214663   3.374   1.482   3.218
 4886TIP3    H114664   3.318   1.417   3.260
 4886TIP3    H214665   3.372   1.459   3.126
 4887TIP3   OH214666   2.229   2.588   3.163
 4887TIP3    H114667   2.154   2.543   3.201
 4887TIP3    H214668   2.279   2.520   3.118
 4888TIP3   OH214669   4.935   2.416   4.409
 4888TIP3    H114670   5.013   2.467   4.384
 4888TIP3    H214671   4.962   2.368   4.487
 4889TIP3   OH214672   3.799   5.665   4.150
 4889TIP3    H114673   3.749   5.656   4.069
 4889TIP3    H214674   3.756   5.607   4.212
 4890TIP3   OH214675   1.367   4.918   1.478
 4890TIP3    H114676   1.296   4.856   1.467
 4890TIP3    H214677   1.427   4.899   1.405
 4891TIP3   OH214678   1.096   4.175   0.746
 4891TIP3    H114679   1.113   4.263   0.712
 4891TIP3    H214680   1.001   4.166   0.742
 4892TIP3   OH214681   6.148   1.808   4.346
 4892TIP3    H114682   6.218   1.824   4.409
 4892TIP3    H214683   6.192   1.769   4.271
 4893TIP3   OH214684   4.234   2.404   2.266
 4893TIP3    H114685   4.294   2.410   2.340
 4893TIP3    H214686   4.153   2.369   2.305
 4894TIP3   OH214687   4.950   4.276   0.024
 4894TIP3    H114688   4.920   4.364   0.000
 4894TIP3    H214689   4.935   4.272   0.119
 4895TIP3   OH214690   2.240   4.014   1.048
 4895TIP3    H114691   2.305   4.084   1.040
 4895TIP3    H214692   2.202   4.026   1.135
 4896TIP3   OH214693   2.443   2.796   3.949
 4896TIP3    H114694   2.464   2.785   3.856
 4896TIP3    H214695   2.479   2.882   3.972
 4897TIP3   OH214696   0.749   3.294   4.531
 4897TIP3    H114697   0.796   3.307   4.613
 4897TIP3    H214698   0.818   3.289   4.464
 4898TIP3   OH214699   6.178   6.003   3.702
 4898TIP3    H114700   6.226   6.065   3.758
 4898TIP3    H214701   6.098   5.984   3.751
 4899TIP3   OH214702   5.873   3.716   0.630
 4899TIP3    H114703   5.829   3.793   0.594
 4899TIP3    H214704   5.966   3.736   0.623
 4900TIP3   OH214705   1.473  -0.017   1.998
 4900TIP3    H114706   1.491  -0.107   2.025
 4900TIP3    H214707   1.432   0.023   2.075
 4901TIP3   OH214708   2.830   0.222   0.166
 4901TIP3    H114709   2.924   0.214   0.186
 4901TIP3    H214710   2.810   0.143   0.116
 4902TIP3   OH214711   6.147   4.101   1.104
 4902TIP3    H114712   6.234   4.076   1.072
 4902TIP3    H214713   6.126   4.034   1.169
 4903TIP3   OH214714   3.199   3.003   1.555
 4903TIP3    H114715   3.272   3.042   1.507
 4903TIP3    H214716   3.128   3.067   1.547
 4904TIP3   OH214717   5.919   3.523   1.560
 4904TIP3    H114718   5.911   3.436   1.520
 4904TIP3    H214719   5.841   3.569   1.531
 4905TIP3   OH214720   2.807   5.249   1.693
 4905TIP3    H114721   2.779   5.174   1.746
 4905TIP3    H214722   2.871   5.294   1.747
 4906TIP3   OH214723   5.376   3.309   1.097
 4906TIP3    H114724   5.360   3.297   1.191
 4906TIP3    H214725   5.408   3.399   1.089
 4907TIP3   OH214726   4.749   0.216   0.079
 4907TIP3    H114727   4.726   0.308   0.066
 4907TIP3    H214728   4.764   0.183  -0.010
 4908TIP3   OH214729   5.224   3.025   3.636
 4908TIP3    H114730   5.222   3.048   3.729
 4908TIP3    H214731   5.140   2.983   3.620
 4909TIP3   OH214732   3.594   4.704   1.261
 4909TIP3    H114733   3.644   4.779   1.229
 4909TIP3    H214734   3.657   4.654   1.313
 4910TIP3   OH214735   2.310   4.371   0.136
 4910TIP3    H114736   2.244   4.440   0.128
 4910TIP3    H214737   2.342   4.357   0.047
 4911TIP3   OH214738   4.183   4.077   1.584
 4911TIP3    H114739   4.254   4.029   1.628
 4911TIP3    H214740   4.177   4.160   1.632
 4912TIP3   OH214741   2.806   3.976   1.263
 4912TIP3    H114742   2.737   3.970   1.330
 4912TIP3    H214743   2.876   3.920   1.297
 4913TIP3   OH214744   5.864   4.854   1.146
 4913TIP3    H114745   5.769   4.848   1.142
 4913TIP3    H214746   5.881   4.936   1.192
 4914TIP3   OH214747   1.885   1.387   1.441
 4914TIP3    H114748   1.796   1.369   1.410
 4914TIP3    H214749   1.877   1.387   1.537
 4915TIP3   OH214750   2.177   0.379   4.959
 4915TIP3    H114751   2.213   0.322   5.026
 4915TIP3    H214752   2.096   0.335   4.931
 4916TIP3   OH214753   5.902   1.197   0.812
 4916TIP3    H114754   5.841   1.181   0.884
 4916TIP3    H214755   5.847   1.210   0.735
 4917TIP3   OH214756   5.077   0.466   4.123
 4917TIP3    H114757   5.010   0.413   4.167
 4917TIP3    H214758   5.069   0.441   4.031
 4918TIP3   OH214759   5.893   2.161   4.420
 4918TIP3    H114760   5.947   2.085   4.442
 4918TIP3    H214761   5.909   2.175   4.327
 4919TIP3   OH214762   6.392   5.489   4.061
 4919TIP3    H114763   6.368   5.581   4.073
 4919TIP3    H214764   6.321   5.441   4.103
 4920TIP3   OH214765   0.528   3.268   1.538
 4920TIP3    H114766   0.616   3.259   1.574
 4920TIP3    H214767   0.485   3.333   1.595
 4921TIP3   OH214768   0.427   3.416   1.233
 4921TIP3    H114769   0.442   3.505   1.267
 4921TIP3    H214770   0.493   3.405   1.165
 4922TIP3   OH214771   4.307   5.249   1.104
 4922TIP3    H114772   4.376   5.234   1.039
 4922TIP3    H214773   4.338   5.205   1.183
 4923TIP3   OH214774   0.338   2.296   1.244
 4923TIP3    H114775   0.407   2.362   1.244
 4923TIP3    H214776   0.257   2.347   1.247
 4924TIP3   OH214777   1.558   1.726   2.454
 4924TIP3    H114778   1.491   1.736   2.523
 4924TIP3    H214779   1.516   1.672   2.387
 4925TIP3   OH214780   2.555   5.599   0.727
 4925TIP3    H114781   2.519   5.630   0.810
 4925TIP3    H214782   2.485   5.613   0.663
 4926TIP3   OH214783   1.750   4.302   1.436
 4926TIP3    H114784   1.773   4.324   1.527
 4926TIP3    H214785   1.748   4.206   1.435
 4927TIP3   OH214786   0.063   3.084   2.366
 4927TIP3    H114787   0.058   3.020   2.296
 4927TIP3    H214788   0.156   3.108   2.371
 4928TIP3   OH214789   1.453   4.565   1.539
 4928TIP3    H114790   1.473   4.473   1.554
 4928TIP3    H214791   1.474   4.580   1.447
 4929TIP3   OH214792   0.609   2.280   0.675
 4929TIP3    H114793   0.639   2.294   0.585
 4929TIP3    H214794   0.514   2.282   0.669
 4930TIP3   OH214795   5.194   1.636   4.544
 4930TIP3    H114796   5.230   1.722   4.565
 4930TIP3    H214797   5.246   1.575   4.597
 4931TIP3   OH214798   3.302   5.546   1.388
 4931TIP3    H114799   3.337   5.457   1.394
 4931TIP3    H214800   3.368   5.594   1.339
 4932TIP3   OH214801   3.129   5.647   2.457
 4932TIP3    H114802   3.183   5.664   2.534
 4932TIP3    H214803   3.124   5.552   2.451
 4933TIP3   OH214804   3.180   3.042   2.982
 4933TIP3    H114805   3.221   3.111   3.035
 4933TIP3    H214806   3.216   2.961   3.017
 4934TIP3   OH214807   3.409   2.028   0.758
 4934TIP3    H114808   3.483   2.073   0.717
 4934TIP3    H214809   3.332   2.072   0.722
 4935TIP3   OH214810   2.572   5.600   3.443
 4935TIP3    H114811   2.561   5.627   3.534
 4935TIP3    H214812   2.483   5.589   3.409
 4936TIP3   OH214813   2.022   3.385   0.552
 4936TIP3    H114814   1.969   3.431   0.487
 4936TIP3    H214815   2.026   3.295   0.519
 4937TIP3   OH214816   1.281   5.322   1.602
 4937TIP3    H114817   1.283   5.366   1.687
 4937TIP3    H214818   1.365   5.276   1.596
 4938TIP3   OH214819   3.263   2.199   3.199
 4938TIP3    H114820   3.173   2.230   3.199
 4938TIP3    H214821   3.266   2.133   3.269
 4939TIP3   OH214822   4.675   4.191   2.370
 4939TIP3    H114823   4.695   4.176   2.278
 4939TIP3    H214824   4.584   4.163   2.381
 4940TIP3   OH214825   4.927   5.682   2.005
 4940TIP3    H114826   4.900   5.754   2.062
 4940TIP3    H214827   4.880   5.606   2.038
 4941TIP3   OH214828   5.577   1.114   4.428
 4941TIP3    H114829   5.575   1.209   4.416
 4941TIP3    H214830   5.500   1.095   4.481
 4942TIP3   OH214831   0.298   4.724   1.565
 4942TIP3    H114832   0.254   4.694   1.485
 4942TIP3    H214833   0.226   4.757   1.619
 4943TIP3   OH214834   3.741   2.764   2.928
 4943TIP3    H114835   3.733   2.851   2.890
 4943TIP3    H214836   3.666   2.716   2.894
 4944TIP3   OH214837   3.883   2.525   1.161
 4944TIP3    H114838   3.823   2.528   1.235
 4944TIP3    H214839   3.831   2.551   1.086
 4945TIP3   OH214840   0.470   4.512   1.906
 4945TIP3    H114841   0.543   4.533   1.965
 4945TIP3    H214842   0.472   4.582   1.841
 4946TIP3   OH214843   0.609   0.806   5.093
 4946TIP3    H114844   0.521   0.807   5.130
 4946TIP3    H214845   0.667   0.792   5.167
 4947TIP3   OH214846   1.392   1.622   4.207
 4947TIP3    H114847   1.464   1.593   4.151
 4947TIP3    H214848   1.377   1.550   4.268
 4948TIP3   OH214849   3.993   2.197   4.838
 4948TIP3    H114850   4.016   2.204   4.746
 4948TIP3    H214851   4.034   2.273   4.879
 4949TIP3   OH214852   3.007   0.993   4.929
 4949TIP3    H114853   3.015   1.016   5.021
 4949TIP3    H214854   2.913   0.997   4.911
 4950TIP3   OH214855   3.741   1.366   2.098
 4950TIP3    H114856   3.748   1.438   2.160
 4950TIP3    H214857   3.782   1.292   2.142
 4951TIP3   OH214858   2.800   0.074   0.733
 4951TIP3    H114859   2.753   0.070   0.817
 4951TIP3    H214860   2.771   0.157   0.694
 4952TIP3   OH214861   4.464   5.831   4.921
 4952TIP3    H114862   4.470   5.925   4.906
 4952TIP3    H214863   4.373   5.817   4.950
 4953TIP3   OH214864   5.544   2.487   1.697
 4953TIP3    H114865   5.513   2.398   1.717
 4953TIP3    H214866   5.464   2.539   1.693
 4954TIP3   OH214867   5.216   5.646   4.738
 4954TIP3    H114868   5.246   5.643   4.647
 4954TIP3    H214869   5.231   5.558   4.771
 4955TIP3   OH214870   2.404   1.822   0.137
 4955TIP3    H114871   2.408   1.891   0.071
 4955TIP3    H214872   2.402   1.870   0.220
 4956TIP3   OH214873   4.193   1.305   2.819
 4956TIP3    H114874   4.288   1.298   2.819
 4956TIP3    H214875   4.167   1.282   2.909
 4957TIP3   OH214876   3.825   2.071   1.021
 4957TIP3    H114877   3.773   2.147   1.047
 4957TIP3    H214878   3.778   2.035   0.946
 4958TIP3   OH214879   0.016   4.912   3.204
 4958TIP3    H114880   0.037   4.968   3.130
 4958TIP3    H214881   0.020   4.823   3.170
 4959TIP3   OH214882   5.668   1.967   4.380
 4959TIP3    H114883   5.703   2.055   4.368
 4959TIP3    H214884   5.674   1.926   4.294
 4960TIP3   OH214885   0.573   1.951   0.542
 4960TIP3    H114886   0.621   1.923   0.620
 4960TIP3    H214887   0.640   1.968   0.476
 4961TIP3   OH214888   0.208   2.977   4.320
 4961TIP3    H114889   0.122   2.976   4.278
 4961TIP3    H214890   0.270   2.980   4.248
 4962TIP3   OH214891   2.000   1.985   3.985
 4962TIP3    H114892   2.053   1.980   4.065
 4962TIP3    H214893   1.948   1.904   3.987
 4963TIP3   OH214894   4.700   5.113   3.019
 4963TIP3    H114895   4.750   5.192   3.038
 4963TIP3    H214896   4.765   5.048   2.992
 4964TIP3   OH214897   6.093   2.733   4.102
 4964TIP3    H114898   6.056   2.676   4.169
 4964TIP3    H214899   6.183   2.747   4.129
 4965TIP3   OH214900   1.102   5.285   4.627
 4965TIP3    H114901   1.024   5.256   4.675
 4965TIP3    H214902   1.082   5.265   4.535
 4966TIP3   OH214903   4.897   5.302   3.058
 4966TIP3    H114904   4.982   5.317   3.015
 4966TIP3    H214905   4.918   5.254   3.138
 4967TIP3   OH214906   4.449   1.642   3.285
 4967TIP3    H114907   4.531   1.687   3.263
 4967TIP3    H214908   4.453   1.560   3.236
 4968TIP3   OH214909   4.319   3.631   1.214
 4968TIP3    H114910   4.398   3.650   1.265
 4968TIP3    H214911   4.295   3.542   1.238
 4969TIP3   OH214912   0.065   3.062   1.450
 4969TIP3    H114913   0.046   2.987   1.506
 4969TIP3    H214914   0.158   3.079   1.465
 4970TIP3   OH214915   1.927   4.067   1.952
 4970TIP3    H114916   1.859   4.044   2.015
 4970TIP3    H214917   2.007   4.028   1.989
 4971TIP3   OH214918   5.736   3.830   0.113
 4971TIP3    H114919   5.768   3.889   0.044
 4971TIP3    H214920   5.721   3.888   0.188
 4972TIP3   OH214921   0.394   0.709   2.656
 4972TIP3    H114922   0.362   0.628   2.617
 4972TIP3    H214923   0.337   0.725   2.731
 4973TIP3   OH214924   1.418   1.883   4.250
 4973TIP3    H114925   1.493   1.908   4.195
 4973TIP3    H214926   1.411   1.789   4.239
 4974TIP3   OH214927   2.549   3.059   3.997
 4974TIP3    H114928   2.490   3.132   3.979
 4974TIP3    H214929   2.621   3.097   4.046
 4975TIP3   OH214930   3.895   4.011   4.184
 4975TIP3    H114931   3.849   3.977   4.261
 4975TIP3    H214932   3.826   4.032   4.122
 4976TIP3   OH214933   3.266   4.586   3.253
 4976TIP3    H114934   3.284   4.492   3.251
 4976TIP3    H214935   3.184   4.596   3.205
 4977TIP3   OH214936   1.501   5.527   2.512
 4977TIP3    H114937   1.580   5.580   2.520
 4977TIP3    H214938   1.431   5.585   2.543
 4978TIP3   OH214939   5.010   4.911   4.067
 4978TIP3    H114940   5.000   4.862   3.985
 4978TIP3    H214941   4.922   4.918   4.102
 4979TIP3   OH214942   0.300   2.292   3.537
 4979TIP3    H114943   0.379   2.345   3.528
 4979TIP3    H214944   0.248   2.313   3.459
 4980TIP3   OH214945   1.428   4.338   0.643
 4980TIP3    H114946   1.500   4.342   0.580
 4980TIP3    H214947   1.470   4.312   0.725
 4981TIP3   OH214948   1.616   2.653   1.072
 4981TIP3    H114949   1.610   2.734   1.121
 4981TIP3    H214950   1.672   2.596   1.126
 4982TIP3   OH214951   1.499   2.120   3.006
 4982TIP3    H114952   1.416   2.085   2.976
 4982TIP3    H214953   1.549   2.044   3.035
 4983TIP3   OH214954   1.781   4.699   2.261
 4983TIP3    H114955   1.866   4.653   2.262
 4983TIP3    H214956   1.744   4.679   2.175
 4984TIP3   OH214957   5.970   4.116   3.435
 4984TIP3    H114958   5.962   4.030   3.476
 4984TIP3    H214959   6.062   4.141   3.447
 4985TIP3   OH214960   4.092   2.839   4.935
 4985TIP3    H114961   3.997   2.856   4.937
 4985TIP3    H214962   4.128   2.912   4.885
 4986TIP3   OH214963   4.715   4.842   2.182
 4986TIP3    H114964   4.690   4.773   2.120
 4986TIP3    H214965   4.632   4.876   2.215
 4987TIP3   OH214966   2.402   1.312   2.079
 4987TIP3    H114967   2.448   1.320   1.995
 4987TIP3    H214968   2.383   1.219   2.088
 4988TIP3   OH214969   4.326   1.632   3.536
 4988TIP3    H114970   4.383   1.628   3.460
 4988TIP3    H214971   4.352   1.713   3.581
 4989TIP3   OH214972   3.505   4.684   1.527
 4989TIP3    H114973   3.491   4.609   1.586
 4989TIP3    H214974   3.488   4.649   1.440
 4990TIP3   OH214975   3.903   2.778   0.995
 4990TIP3    H114976   3.811   2.753   1.000
 4990TIP3    H214977   3.903   2.874   1.002
 4991TIP3   OH214978   4.566   0.912   4.281
 4991TIP3    H114979   4.500   0.874   4.223
 4991TIP3    H214980   4.648   0.867   4.257
 4992TIP3   OH214981   6.116   3.796   0.996
 4992TIP3    H114982   6.024   3.783   0.971
 4992TIP3    H214983   6.111   3.849   1.076
 4993TIP3   OH214984   3.316   0.282   0.757
 4993TIP3    H114985   3.257   0.292   0.682
 4993TIP3    H214986   3.300   0.361   0.810
 4994TIP3   OH214987   2.142   5.403   0.216
 4994TIP3    H114988   2.083   5.344   0.170
 4994TIP3    H214989   2.130   5.381   0.309
 4995TIP3   OH214990   1.083   2.780   1.393
 4995TIP3    H114991   1.079   2.689   1.422
 4995TIP3    H214992   1.114   2.775   1.302
 4996TIP3   OH214993   0.491   0.291   3.408
 4996TIP3    H114994   0.413   0.345   3.398
 4996TIP3    H214995   0.530   0.288   3.321
 4997TIP3   OH214996   5.378   0.886   1.346
 4997TIP3    H114997   5.368   0.929   1.260
 4997TIP3    H214998   5.317   0.933   1.403
 4998TIP3   OH214999   2.256   0.951   0.298
 4998TIP3    H115000   2.275   0.858   0.285
 4998TIP3    H215001   2.161   0.954   0.313
 4999TIP3   OH215002   2.363   5.484   3.294
 4999TIP3    H115003   2.331   5.542   3.225
 4999TIP3    H215004   2.340   5.396   3.265
 5000TIP3   OH215005   2.856   2.311   0.140
 5000TIP3    H115006   2.793   2.239   0.131
 5000TIP3    H215007   2.863   2.348   0.052
 5001TIP3   OH215008   2.930   5.919   2.112
 5001TIP3    H115009   2.968   5.901   2.026
 5001TIP3    H215010   2.965   5.849   2.168
 5002TIP3   OH215011   4.880   1.050   4.215
 5002TIP3    H115012   4.876   1.012   4.303
 5002TIP3    H215013   4.973   1.054   4.194
 5003TIP3   OH215014   6.198   4.297   4.806
 5003TIP3    H115015   6.209   4.249   4.889
 5003TIP3    H215016   6.186   4.388   4.832
 5004TIP3   OH215017   5.980   2.929   3.186
 5004TIP3    H115018   5.981   2.851   3.130
 5004TIP3    H215019   6.058   2.920   3.241
 5005TIP3   OH215020   1.783   4.690   3.332
 5005TIP3    H115021   1.792   4.693   3.237
 5005TIP3    H215022   1.866   4.726   3.365
 5006TIP3   OH215023   0.244   3.200   1.662
 5006TIP3    H115024   0.158   3.230   1.692
 5006TIP3    H215025   0.267   3.259   1.590
 5007TIP3   OH215026   6.236   3.519   1.048
 5007TIP3    H115027   6.243   3.599   0.995
 5007TIP3    H215028   6.321   3.475   1.035
 5008TIP3   OH215029   4.659   1.199   4.264
 5008TIP3    H115030   4.740   1.183   4.216
 5008TIP3    H215031   4.602   1.126   4.239
 5009TIP3   OH215032   3.173   2.091   1.883
 5009TIP3    H115033   3.113   2.039   1.937
 5009TIP3    H215034   3.236   2.127   1.945
 5010TIP3   OH215035   4.440   4.461   1.797
 5010TIP3    H115036   4.417   4.390   1.737
 5010TIP3    H215037   4.513   4.507   1.755
 5011TIP3   OH215038   3.498   2.085   3.479
 5011TIP3    H115039   3.484   2.119   3.568
 5011TIP3    H215040   3.571   2.136   3.445
 5012TIP3   OH215041   5.206   0.252   5.171
 5012TIP3    H115042   5.127   0.230   5.122
 5012TIP3    H215043   5.270   0.277   5.104
 5013TIP3   OH215044   3.210   0.182   2.801
 5013TIP3    H115045   3.242   0.270   2.820
 5013TIP3    H215046   3.155   0.192   2.724
 5014TIP3   OH215047   0.167   3.580   0.481
 5014TIP3    H115048   0.163   3.531   0.563
 5014TIP3    H215049   0.138   3.668   0.504
 5015TIP3   OH215050   3.488   5.902   3.173
 5015TIP3    H115051   3.416   5.957   3.204
 5015TIP3    H215052   3.517   5.944   3.091
 5016TIP3   OH215053   0.085   1.105   4.993
 5016TIP3    H115054   0.067   1.057   4.913
 5016TIP3    H215055   0.016   1.171   4.997
 5017TIP3   OH215056   6.097   4.601   0.929
 5017TIP3    H115057   6.152   4.646   0.865
 5017TIP3    H215058   6.096   4.658   1.005
 5018TIP3   OH215059   1.807   2.680   3.879
 5018TIP3    H115060   1.875   2.622   3.844
 5018TIP3    H215061   1.727   2.629   3.871
 5019TIP3   OH215062   3.168   5.200   1.148
 5019TIP3    H115063   3.231   5.175   1.081
 5019TIP3    H215064   3.086   5.213   1.100
 5020TIP3   OH215065   2.156   3.933   2.060
 5020TIP3    H115066   2.184   3.979   2.140
 5020TIP3    H215067   2.222   3.955   1.995
 5021TIP3   OH215068   1.797   4.876   0.257
 5021TIP3    H115069   1.784   4.920   0.173
 5021TIP3    H215070   1.892   4.879   0.271
 5022TIP3   OH215071   3.121   2.901   4.992
 5022TIP3    H115072   3.054   2.870   4.932
 5022TIP3    H215073   3.117   2.840   5.066
 5023TIP3   OH215074   3.557   4.821   2.587
 5023TIP3    H115075   3.555   4.752   2.521
 5023TIP3    H215076   3.536   4.901   2.539
 5024TIP3   OH215077   0.929   4.388   2.699
 5024TIP3    H115078   0.872   4.464   2.706
 5024TIP3    H215079   0.930   4.366   2.606
 5025TIP3   OH215080   2.547   3.025   2.061
 5025TIP3    H115081   2.526   3.113   2.092
 5025TIP3    H215082   2.570   2.977   2.141
 5026TIP3   OH215083   6.353   3.205   0.091
 5026TIP3    H115084   6.312   3.146   0.027
 5026TIP3    H215085   6.381   3.147   0.162
 5027TIP3   OH215086   3.289   2.694   1.034
 5027TIP3    H115087   3.309   2.670   0.943
 5027TIP3    H215088   3.304   2.789   1.038
 5028TIP3   OH215089   2.514   0.461   4.089
 5028TIP3    H115090   2.542   0.552   4.084
 5028TIP3    H215091   2.557   0.426   4.167
 5029TIP3   OH215092   3.546   1.857   1.645
 5029TIP3    H115093   3.564   1.767   1.672
 5029TIP3    H215094   3.561   1.909   1.724
 5030TIP3   OH215095   1.434   2.461   2.228
 5030TIP3    H115096   1.360   2.504   2.273
 5030TIP3    H215097   1.402   2.447   2.139
 5031TIP3   OH215098   0.205   1.000   5.236
 5031TIP3    H115099   0.176   1.049   5.159
 5031TIP3    H215100   0.297   0.980   5.217
 5032TIP3   OH215101   0.970   1.622   1.073
 5032TIP3    H115102   0.932   1.687   1.132
 5032TIP3    H215103   1.044   1.667   1.033
 5033TIP3   OH215104   3.613   3.310   5.152
 5033TIP3    H115105   3.658   3.231   5.183
 5033TIP3    H215106   3.565   3.341   5.229
 5034TIP3   OH215107   0.851   0.353   2.699
 5034TIP3    H115108   0.774   0.301   2.675
 5034TIP3    H215109   0.921   0.288   2.712
 5035TIP3   OH215110   3.293   1.403   1.955
 5035TIP3    H115111   3.369   1.367   1.909
 5035TIP3    H215112   3.218   1.360   1.913
 5036TIP3   OH215113   1.954   4.124   0.007
 5036TIP3    H115114   1.932   4.031   0.001
 5036TIP3    H215115   1.889   4.161   0.067
 5037TIP3   OH215116   4.633   5.842   3.420
 5037TIP3    H115117   4.611   5.909   3.484
 5037TIP3    H215118   4.588   5.869   3.340
 5038TIP3   OH215119   0.094   1.692   5.131
 5038TIP3    H115120   0.098   1.776   5.085
 5038TIP3    H215121   0.181   1.653   5.116
 5039TIP3   OH215122   2.002   0.843   0.365
 5039TIP3    H115123   2.026   0.750   0.363
 5039TIP3    H215124   1.913   0.844   0.401
 5040TIP3   OH215125   0.248   3.361   1.456
 5040TIP3    H115126   0.264   3.359   1.361
 5040TIP3    H215127   0.156   3.389   1.464
 5041TIP3   OH215128   4.651   0.687   1.406
 5041TIP3    H115129   4.638   0.640   1.489
 5041TIP3    H215130   4.607   0.633   1.341
 5042TIP3   OH215131   2.769   4.788   5.195
 5042TIP3    H115132   2.765   4.799   5.100
 5042TIP3    H215133   2.835   4.852   5.223
 5043TIP3   OH215134   1.596   0.146   0.290
 5043TIP3    H115135   1.543   0.211   0.242
 5043TIP3    H215136   1.542   0.067   0.291
 5044TIP3   OH215137   5.715   5.911   4.982
 5044TIP3    H115138   5.676   5.872   5.060
 5044TIP3    H215139   5.692   6.004   4.987
 5045TIP3   OH215140   2.651   3.958   0.815
 5045TIP3    H115141   2.578   3.914   0.860
 5045TIP3    H215142   2.726   3.945   0.873
 5046TIP3   OH215143   4.504   3.289   4.184
 5046TIP3    H115144   4.513   3.208   4.234
 5046TIP3    H215145   4.413   3.316   4.198
 5047TIP3   OH215146   3.179   4.961   4.419
 5047TIP3    H115147   3.097   4.961   4.370
 5047TIP3    H215148   3.240   5.011   4.365
 5048TIP3   OH215149   2.090   0.152   3.868
 5048TIP3    H115150   2.086   0.123   3.959
 5048TIP3    H215151   2.160   0.217   3.867
 5049TIP3   OH215152   3.883   3.383   2.118
 5049TIP3    H115153   3.941   3.361   2.045
 5049TIP3    H215154   3.859   3.298   2.156
 5050TIP3   OH215155   0.911   0.821   0.146
 5050TIP3    H115156   0.830   0.867   0.170
 5050TIP3    H215157   0.981   0.875   0.182
 5051TIP3   OH215158   1.310   1.647  -0.009
 5051TIP3    H115159   1.406   1.640  -0.006
 5051TIP3    H215160   1.294   1.720  -0.069
 5052TIP3   OH215161   5.258   3.114   0.619
 5052TIP3    H115162   5.235   3.067   0.539
 5052TIP3    H215163   5.341   3.158   0.598
 5053TIP3   OH215164   3.817   5.177   1.186
 5053TIP3    H115165   3.902   5.216   1.206
 5053TIP3    H215166   3.756   5.223   1.243
 5054TIP3   OH215167   6.057   0.462   0.633
 5054TIP3    H115168   6.111   0.541   0.633
 5054TIP3    H215169   6.046   0.440   0.540
 5055TIP3   OH215170   4.570   5.042   2.565
 5055TIP3    H115171   4.560   4.946   2.565
 5055TIP3    H215172   4.541   5.069   2.652
 5056TIP3   OH215173   0.453   3.704   4.013
 5056TIP3    H115174   0.518   3.639   3.986
 5056TIP3    H215175   0.454   3.769   3.942
 5057TIP3   OH215176   2.142   1.873   0.514
 5057TIP3    H115177   2.227   1.841   0.543
 5057TIP3    H215178   2.101   1.907   0.593
 5058TIP3   OH215179   5.301   1.035   2.936
 5058TIP3    H115180   5.380   0.980   2.940
 5058TIP3    H215181   5.256   1.018   3.018
 5059TIP3   OH215182   3.750   3.275   2.692
 5059TIP3    H115183   3.707   3.214   2.752
 5059TIP3    H215184   3.706   3.260   2.608
 5060TIP3   OH215185   0.329   4.430   1.597
 5060TIP3    H115186   0.352   4.434   1.504
 5060TIP3    H215187   0.397   4.375   1.636
 5061TIP3   OH215188   2.138   2.251   0.621
 5061TIP3    H115189   2.141   2.264   0.527
 5061TIP3    H215190   2.077   2.318   0.653
 5062TIP3   OH215191   0.004   1.423   1.659
 5062TIP3    H115192  -0.021   1.494   1.718
 5062TIP3    H215193   0.088   1.392   1.693
 5063TIP3   OH215194   3.341   2.756   1.926
 5063TIP3    H115195   3.256   2.753   1.969
 5063TIP3    H215196   3.323   2.790   1.838
 5064TIP3   OH215197   0.730   2.212   2.824
 5064TIP3    H115198   0.769   2.129   2.851
 5064TIP3    H215199   0.704   2.198   2.733
 5065TIP3   OH215200   3.077   1.356   3.496
 5065TIP3    H115201   3.115   1.339   3.410
 5065TIP3    H215202   2.986   1.328   3.488
 5066TIP3   OH215203   1.034   3.895   4.228
 5066TIP3    H115204   1.057   3.821   4.284
 5066TIP3    H215205   1.089   3.883   4.150
 5067TIP3   OH215206   1.121   3.530   1.269
 5067TIP3    H115207   1.146   3.569   1.352
 5067TIP3    H215208   1.033   3.564   1.252
 5068TIP3   OH215209   0.175   0.824   1.530
 5068TIP3    H115210   0.192   0.851   1.440
 5068TIP3    H215211   0.125   0.743   1.521
 5069TIP3   OH215212   3.669   3.386   3.680
 5069TIP3    H115213   3.698   3.475   3.663
 5069TIP3    H215214   3.672   3.343   3.594
 5070TIP3   OH215215   3.694   4.580   2.368
 5070TIP3    H115216   3.732   4.573   2.456
 5070TIP3    H215217   3.735   4.657   2.330
 5071TIP3   OH215218   2.449   4.127   1.704
 5071TIP3    H115219   2.418   4.181   1.632
 5071TIP3    H215220   2.489   4.188   1.765
 5072TIP3   OH215221   2.677   3.104   3.132
 5072TIP3    H115222   2.643   3.181   3.178
 5072TIP3    H215223   2.652   3.117   3.041
 5073TIP3   OH215224   2.191   2.810   4.961
 5073TIP3    H115225   2.242   2.736   4.993
 5073TIP3    H215226   2.220   2.822   4.870
 5074TIP3   OH215227   4.621   5.279   0.547
 5074TIP3    H115228   4.643   5.187   0.538
 5074TIP3    H215229   4.527   5.283   0.528
 5075TIP3   OH215230   4.706   0.186   0.415
 5075TIP3    H115231   4.768   0.257   0.431
 5075TIP3    H215232   4.638   0.225   0.360
 5076TIP3   OH215233   1.427   0.914   4.634
 5076TIP3    H115234   1.441   0.823   4.610
 5076TIP3    H215235   1.514   0.953   4.634
 5077TIP3   OH215236   4.347   1.245   0.994
 5077TIP3    H115237   4.358   1.150   0.994
 5077TIP3    H215238   4.286   1.262   0.922
 5078TIP3   OH215239   0.885   1.127   1.535
 5078TIP3    H115240   0.953   1.063   1.512
 5078TIP3    H215241   0.859   1.102   1.624
 5079TIP3   OH215242   4.216   5.307   3.081
 5079TIP3    H115243   4.223   5.288   2.988
 5079TIP3    H215244   4.305   5.297   3.115
 5080TIP3   OH215245   4.016   4.497   1.054
 5080TIP3    H115246   4.105   4.479   1.087
 5080TIP3    H215247   4.028   4.569   0.993
 5081TIP3   OH215248   4.084   5.390   2.657
 5081TIP3    H115249   4.134   5.366   2.735
 5081TIP3    H215250   4.144   5.443   2.605
 5082TIP3   OH215251   4.066   4.851   1.209
 5082TIP3    H115252   3.991   4.834   1.151
 5082TIP3    H215253   4.141   4.857   1.150
 5083TIP3   OH215254   2.747   2.173   1.721
 5083TIP3    H115255   2.815   2.212   1.776
 5083TIP3    H215256   2.791   2.102   1.675
 5084TIP3   OH215257   4.967   1.726   4.835
 5084TIP3    H115258   4.985   1.730   4.741
 5084TIP3    H215259   5.052   1.742   4.877
 5085TIP3   OH215260   2.566   2.197   2.723
 5085TIP3    H115261   2.577   2.102   2.715
 5085TIP3    H215262   2.487   2.216   2.673
 5086TIP3   OH215263   4.674   1.733   3.088
 5086TIP3    H115264   4.681   1.639   3.109
 5086TIP3    H215265   4.742   1.748   3.024
 5087TIP3   OH215266   5.282   3.178   2.927
 5087TIP3    H115267   5.343   3.150   2.996
 5087TIP3    H215268   5.213   3.112   2.929
 5088TIP3   OH215269   5.682   3.085   1.656
 5088TIP3    H115270   5.739   3.161   1.669
 5088TIP3    H215271   5.656   3.090   1.564
 5089TIP3   OH215272  -0.037   1.481   3.628
 5089TIP3    H115273   0.047   1.473   3.675
 5089TIP3    H215274  -0.084   1.400   3.649
 5090TIP3   OH215275   3.877   2.326   3.592
 5090TIP3    H115276   3.972   2.319   3.596
 5090TIP3    H215277   3.845   2.237   3.610
 5091TIP3   OH215278   4.217   0.424   0.372
 5091TIP3    H115279   4.144   0.484   0.388
 5091TIP3    H215280   4.286   0.478   0.335
 5092TIP3   OH215281   2.958   4.201   3.816
 5092TIP3    H115282   2.976   4.108   3.833
 5092TIP3    H215283   2.916   4.232   3.896
 5093TIP3   OH215284   3.758   4.908   1.162
 5093TIP3    H115285   3.819   4.980   1.178
 5093TIP3    H215286   3.723   4.925   1.075
 5094TIP3   OH215287   2.526   2.318   1.832
 5094TIP3    H115288   2.495   2.390   1.777
 5094TIP3    H215289   2.597   2.278   1.782
 5095TIP3   OH215290   3.213   4.056   3.623
 5095TIP3    H115291   3.278   4.120   3.593
 5095TIP3    H215292   3.159   4.103   3.685
 5096TIP3   OH215293   4.514   1.056   1.305
 5096TIP3    H115294   4.538   1.045   1.396
 5096TIP3    H215295   4.566   1.132   1.276
 5097TIP3   OH215296   4.145   3.410   3.557
 5097TIP3    H115297   4.201   3.405   3.635
 5097TIP3    H215298   4.092   3.331   3.561
 5098TIP3   OH215299   0.060   1.295   1.414
 5098TIP3    H115300   0.040   1.378   1.370
 5098TIP3    H215301   0.038   1.311   1.506
 5099TIP3   OH215302   4.194   4.905   0.543
 5099TIP3    H115303   4.257   4.911   0.471
 5099TIP3    H215304   4.239   4.947   0.617
 5100TIP3   OH215305   3.762   3.527   1.846
 5100TIP3    H115306   3.668   3.537   1.858
 5100TIP3    H215307   3.799   3.546   1.932
 5101TIP3   OH215308   3.796   4.866   1.449
 5101TIP3    H115309   3.704   4.846   1.465
 5101TIP3    H215310   3.809   4.851   1.356
 5102TIP3   OH215311   2.448   5.719   0.296
 5102TIP3    H115312   2.505   5.782   0.254
 5102TIP3    H215313   2.391   5.686   0.226
 5103TIP3   OH215314   0.458   0.442   0.505
 5103TIP3    H115315   0.417   0.527   0.495
 5103TIP3    H215316   0.516   0.434   0.429
 5104TIP3   OH215317   1.936   0.446   1.674
 5104TIP3    H115318   2.005   0.511   1.659
 5104TIP3    H215319   1.857   0.486   1.637
 5105TIP3   OH215320   2.449   3.617   0.819
 5105TIP3    H115321   2.383   3.614   0.750
 5105TIP3    H215322   2.434   3.702   0.862
 5106TIP3   OH215323   0.182   5.527   2.177
 5106TIP3    H115324   0.176   5.620   2.196
 5106TIP3    H215325   0.261   5.518   2.124
 5107TIP3   OH215326   3.522   3.190   1.977
 5107TIP3    H115327   3.522   3.118   2.040
 5107TIP3    H215328   3.431   3.220   1.974
 5108TIP3   OH215329   2.587   0.632   2.289
 5108TIP3    H115330   2.677   0.655   2.315
 5108TIP3    H215331   2.538   0.714   2.296
 5109TIP3   OH215332   0.397   2.627   5.112
 5109TIP3    H115333   0.417   2.536   5.132
 5109TIP3    H215334   0.467   2.676   5.155
 5110TIP3   OH215335   4.676   3.405   0.734
 5110TIP3    H115336   4.601   3.451   0.773
 5110TIP3    H215337   4.753   3.449   0.772
 5111TIP3   OH215338   6.262   5.646   4.582
 5111TIP3    H115339   6.232   5.690   4.662
 5111TIP3    H215340   6.241   5.554   4.597
 5112TIP3   OH215341   5.511   0.868   1.744
 5112TIP3    H115342   5.600   0.878   1.777
 5112TIP3    H215343   5.507   0.927   1.669
 5113TIP3   OH215344   0.762   5.405   3.941
 5113TIP3    H115345   0.838   5.347   3.943
 5113TIP3    H215346   0.720   5.393   4.026
 5114TIP3   OH215347   6.061   0.490   4.428
 5114TIP3    H115348   6.040   0.407   4.386
 5114TIP3    H215349   6.105   0.466   4.509
 5115TIP3   OH215350   6.264   0.914   0.440
 5115TIP3    H115351   6.210   0.872   0.507
 5115TIP3    H215352   6.202   0.939   0.371
 5116TIP3   OH215353   4.940   4.384   3.190
 5116TIP3    H115354   4.900   4.470   3.186
 5116TIP3    H215355   4.987   4.374   3.107
 5117TIP3   OH215356   5.159   2.574   1.649
 5117TIP3    H115357   5.071   2.562   1.614
 5117TIP3    H215358   5.217   2.561   1.574
 5118TIP3   OH215359   3.733   0.306   4.286
 5118TIP3    H115360   3.699   0.242   4.224
 5118TIP3    H215361   3.659   0.325   4.344
 5119TIP3   OH215362   6.070   0.564   1.676
 5119TIP3    H115363   6.152   0.519   1.697
 5119TIP3    H215364   6.017   0.553   1.755
 5120TIP3   OH215365   1.983   1.496   1.165
 5120TIP3    H115366   1.999   1.413   1.120
 5120TIP3    H215367   2.041   1.558   1.121
 5121TIP3   OH215368   5.865   0.798   3.508
 5121TIP3    H115369   5.820   0.871   3.549
 5121TIP3    H215370   5.937   0.839   3.459
 5122TIP3   OH215371   5.862   1.611   4.296
 5122TIP3    H115372   5.845   1.659   4.215
 5122TIP3    H215373   5.917   1.670   4.348
 5123TIP3   OH215374   2.110   3.898   3.871
 5123TIP3    H115375   2.185   3.857   3.828
 5123TIP3    H215376   2.095   3.979   3.821
 5124TIP3   OH215377   2.369   2.111   2.184
 5124TIP3    H115378   2.425   2.167   2.237
 5124TIP3    H215379   2.418   2.029   2.174
 5125TIP3   OH215380   2.924   2.725   4.889
 5125TIP3    H115381   2.937   2.662   4.959
 5125TIP3    H215382   2.938   2.675   4.808
 5126TIP3   OH215383   1.261   2.877   1.564
 5126TIP3    H115384   1.341   2.825   1.555
 5126TIP3    H215385   1.193   2.823   1.523
 5127TIP3   OH215386   4.032   3.160   3.550
 5127TIP3    H115387   3.979   3.158   3.470
 5127TIP3    H215388   4.105   3.100   3.532
 5128TIP3   OH215389   4.422   1.198   0.453
 5128TIP3    H115390   4.346   1.196   0.395
 5128TIP3    H215391   4.426   1.110   0.490
 5129TIP3   OH215392   0.224   4.013   3.410
 5129TIP3    H115393   0.225   4.077   3.482
 5129TIP3    H215394   0.138   4.024   3.369
 5130TIP3   OH215395   5.595   0.532   0.797
 5130TIP3    H115396   5.558   0.557   0.882
 5130TIP3    H215397   5.689   0.521   0.814
 5131TIP3   OH215398   1.086   2.126   0.022
 5131TIP3    H115399   0.998   2.165   0.022
 5131TIP3    H215400   1.137   2.183   0.079
 5132TIP3   OH215401   2.033   3.684   4.683
 5132TIP3    H115402   1.962   3.677   4.747
 5132TIP3    H215403   2.106   3.637   4.723
 5133TIP3   OH215404   0.486   4.462   0.134
 5133TIP3    H115405   0.496   4.392   0.198
 5133TIP3    H215406   0.503   4.420   0.049
 5134TIP3   OH215407   5.918   5.108   0.314
 5134TIP3    H115408   5.828   5.119   0.346
 5134TIP3    H215409   5.914   5.134   0.222
 5135TIP3   OH215410   4.569   3.012   1.089
 5135TIP3    H115411   4.629   3.064   1.036
 5135TIP3    H215412   4.482   3.046   1.067
 5136TIP3   OH215413   2.467   1.087   2.658
 5136TIP3    H115414   2.508   1.044   2.584
 5136TIP3    H215415   2.383   1.119   2.624
 5137TIP3   OH215416   4.322   5.557   2.769
 5137TIP3    H115417   4.341   5.549   2.862
 5137TIP3    H215418   4.404   5.536   2.725
 5138TIP3   OH215419   0.208   3.314   0.855
 5138TIP3    H115420   0.144   3.281   0.792
 5138TIP3    H215421   0.219   3.406   0.833
 5139TIP3   OH215422   5.885   1.922   3.492
 5139TIP3    H115423   5.895   1.833   3.526
 5139TIP3    H215424   5.956   1.930   3.428
 5140TIP3   OH215425   4.736   3.172  -0.031
 5140TIP3    H115426   4.743   3.263  -0.059
 5140TIP3    H215427   4.767   3.173   0.060
 5141TIP3   OH215428   2.193   5.149   1.293
 5141TIP3    H115429   2.233   5.106   1.218
 5141TIP3    H215430   2.228   5.104   1.369
 5142TIP3   OH215431   3.174   2.949   2.501
 5142TIP3    H115432   3.177   2.859   2.469
 5142TIP3    H215433   3.123   2.944   2.582
 5143TIP3   OH215434   1.082   0.477   2.567
 5143TIP3    H115435   0.993   0.466   2.600
 5143TIP3    H215436   1.087   0.569   2.542
 5144TIP3   OH215437   6.242   0.888   1.346
 5144TIP3    H115438   6.274   0.828   1.278
 5144TIP3    H215439   6.234   0.833   1.424
 5145TIP3   OH215440   5.275   4.353   3.266
 5145TIP3    H115441   5.312   4.439   3.246
 5145TIP3    H215442   5.311   4.329   3.351
 5146TIP3   OH215443   0.409   2.740   4.244
 5146TIP3    H115444   0.411   2.835   4.256
 5146TIP3    H215445   0.501   2.714   4.241
 5147TIP3   OH215446   3.372   0.046   2.518
 5147TIP3    H115447   3.438   0.102   2.559
 5147TIP3    H215448   3.289   0.082   2.547
 5148TIP3   OH215449   0.448   0.400   0.817
 5148TIP3    H115450   0.434   0.394   0.723
 5148TIP3    H215451   0.531   0.355   0.832
 5149TIP3   OH215452   0.359   3.834   2.081
 5149TIP3    H115453   0.367   3.785   2.163
 5149TIP3    H215454   0.322   3.919   2.107
 5150TIP3   OH215455   5.842   4.659   0.710
 5150TIP3    H115456   5.835   4.615   0.795
 5150TIP3    H215457   5.791   4.739   0.720
 5151TIP3   OH215458   1.405   2.741   0.940
 5151TIP3    H115459   1.467   2.684   0.986
 5151TIP3    H215460   1.459   2.811   0.904
 5152TIP3   OH215461   5.037   2.805   3.008
 5152TIP3    H115462   4.956   2.758   2.986
 5152TIP3    H215463   5.042   2.802   3.103
 5153TIP3   OH215464   3.120   0.938   4.399
 5153TIP3    H115465   3.143   0.959   4.490
 5153TIP3    H215466   3.179   0.866   4.376
 5154TIP3   OH215467   4.634   1.298   3.111
 5154TIP3    H115468   4.673   1.385   3.115
 5154TIP3    H215469   4.682   1.253   3.041
 5155TIP3   OH215470   3.869   4.263   2.347
 5155TIP3    H115471   3.805   4.308   2.402
 5155TIP3    H215472   3.950   4.312   2.358
 5156TIP3   OH215473   5.898   5.028   2.430
 5156TIP3    H115474   5.988   5.057   2.443
 5156TIP3    H215475   5.864   5.086   2.362
 5157TIP3   OH215476   5.931   1.689   3.590
 5157TIP3    H115477   5.889   1.611   3.553
 5157TIP3    H215478   5.969   1.659   3.673
 5158TIP3   OH215479   4.606   1.107   1.573
 5158TIP3    H115480   4.530   1.163   1.562
 5158TIP3    H215481   4.591   1.062   1.657
 5159TIP3   OH215482   4.586   1.330   0.831
 5159TIP3    H115483   4.630   1.246   0.821
 5159TIP3    H215484   4.493   1.311   0.814
 5160TIP3   OH215485   1.609   2.834   2.526
 5160TIP3    H115486   1.521   2.840   2.564
 5160TIP3    H215487   1.666   2.873   2.591
 5161TIP3   OH215488   5.115   3.859   1.466
 5161TIP3    H115489   5.066   3.776   1.470
 5161TIP3    H215490   5.169   3.858   1.545
 5162TIP3   OH215491   1.664   1.492   3.657
 5162TIP3    H115492   1.655   1.429   3.728
 5162TIP3    H215493   1.577   1.494   3.616
 5163TIP3   OH215494   0.213   4.242   0.118
 5163TIP3    H115495   0.138   4.188   0.097
 5163TIP3    H215496   0.223   4.302   0.044
 5164TIP3   OH215497   3.027   2.259   2.157
 5164TIP3    H115498   2.995   2.284   2.244
 5164TIP3    H215499   3.058   2.342   2.119
 5165TIP3   OH215500   2.194   3.728   1.166
 5165TIP3    H115501   2.153   3.659   1.219
 5165TIP3    H215502   2.130   3.746   1.097
 5166TIP3   OH215503   4.243   1.644   0.632
 5166TIP3    H115504   4.257   1.739   0.632
 5166TIP3    H215505   4.255   1.618   0.541
 5167TIP3   OH215506   1.482   3.683   1.520
 5167TIP3    H115507   1.495   3.759   1.577
 5167TIP3    H215508   1.397   3.648   1.547
 5168TIP3   OH215509   2.085   3.920   4.163
 5168TIP3    H115510   2.110   3.957   4.078
 5168TIP3    H215511   2.050   3.834   4.142
 5169TIP3   OH215512   0.157   3.937   5.062
 5169TIP3    H115513   0.202   3.866   5.016
 5169TIP3    H215514   0.096   3.972   4.998
 5170TIP3   OH215515   4.108   5.531   5.096
 5170TIP3    H115516   4.169   5.543   5.024
 5170TIP3    H215517   4.022   5.553   5.059
 5171TIP3   OH215518   5.142   0.189   4.741
 5171TIP3    H115519   5.209   0.183   4.673
 5171TIP3    H215520   5.083   0.258   4.710
 5172TIP3   OH215521   4.666   1.872   3.481
 5172TIP3    H115522   4.717   1.793   3.461
 5172TIP3    H215523   4.723   1.923   3.539
 5173TIP3   OH215524   3.444   4.189   4.897
 5173TIP3    H115525   3.486   4.103   4.906
 5173TIP3    H215526   3.462   4.215   4.807
 5174TIP3   OH215527   5.983   2.705   0.690
 5174TIP3    H115528   6.072   2.715   0.721
 5174TIP3    H215529   5.941   2.789   0.709
 5175TIP3   OH215530   1.146   2.569   3.154
 5175TIP3    H115531   1.130   2.475   3.148
 5175TIP3    H215532   1.228   2.583   3.107
 5176TIP3   OH215533   2.578   5.022   3.168
 5176TIP3    H115534   2.622   4.987   3.246
 5176TIP3    H215535   2.624   4.981   3.095
 5177TIP3   OH215536   4.406   0.981   1.014
 5177TIP3    H115537   4.501   0.970   1.023
 5177TIP3    H215538   4.369   0.934   1.088
 5178TIP3   OH215539   3.268   2.526   3.680
 5178TIP3    H115540   3.357   2.502   3.708
 5178TIP3    H215541   3.238   2.450   3.630
 5179TIP3   OH215542   5.497   5.168   4.246
 5179TIP3    H115543   5.415   5.215   4.258
 5179TIP3    H215544   5.505   5.158   4.151
 5180TIP3   OH215545   5.188   4.500   1.882
 5180TIP3    H115546   5.206   4.441   1.809
 5180TIP3    H215547   5.273   4.539   1.904
 5181TIP3   OH215548   4.824   2.059   5.090
 5181TIP3    H115549   4.917   2.085   5.090
 5181TIP3    H215550   4.781   2.125   5.144
 5182TIP3   OH215551   1.717   4.071   1.796
 5182TIP3    H115552   1.798   4.063   1.847
 5182TIP3    H215553   1.649   4.084   1.862
 5183TIP3   OH215554   2.278   3.568   3.222
 5183TIP3    H115555   2.200   3.623   3.231
 5183TIP3    H215556   2.246   3.485   3.188
 5184TIP3   OH215557   6.088   1.622   1.216
 5184TIP3    H115558   6.045   1.707   1.220
 5184TIP3    H215559   6.024   1.564   1.174
 5185TIP3   OH215560   5.841   5.224   1.618
 5185TIP3    H115561   5.890   5.145   1.638
 5185TIP3    H215562   5.765   5.221   1.676
 5186TIP3   OH215563   6.200   1.521   5.145
 5186TIP3    H115564   6.279   1.573   5.134
 5186TIP3    H215565   6.185   1.518   5.239
 5187TIP3   OH215566   4.036   1.976   1.529
 5187TIP3    H115567   4.088   1.931   1.463
 5187TIP3    H215568   3.971   1.911   1.557
 5188TIP3   OH215569   5.207   5.535   3.817
 5188TIP3    H115570   5.173   5.569   3.900
 5188TIP3    H215571   5.273   5.471   3.844
 5189TIP3   OH215572   6.242   2.565   4.433
 5189TIP3    H115573   6.331   2.561   4.400
 5189TIP3    H215574   6.191   2.515   4.370
 5190TIP3   OH215575   3.983   4.016   3.726
 5190TIP3    H115576   4.025   3.990   3.808
 5190TIP3    H215577   4.055   4.053   3.673
 5191TIP3   OH215578   4.573   3.555   4.519
 5191TIP3    H115579   4.513   3.597   4.457
 5191TIP3    H215580   4.523   3.480   4.552
 5192TIP3   OH215581   2.254   1.729   4.681
 5192TIP3    H115582   2.325   1.665   4.689
 5192TIP3    H215583   2.283   1.788   4.612
 5193TIP3   OH215584   3.505   4.438   0.216
 5193TIP3    H115585   3.507   4.431   0.312
 5193TIP3    H215586   3.536   4.353   0.185
 5194TIP3   OH215587   4.694   3.891   4.370
 5194TIP3    H115588   4.610   3.928   4.397
 5194TIP3    H215589   4.673   3.836   4.295
 5195TIP3   OH215590   4.355   2.397   2.511
 5195TIP3    H115591   4.338   2.415   2.604
 5195TIP3    H215592   4.401   2.314   2.511
 5196TIP3   OH215593   4.345   3.569   1.875
 5196TIP3    H115594   4.351   3.664   1.884
 5196TIP3    H215595   4.427   3.536   1.911
 5197TIP3   OH215596   4.119   5.554   3.367
 5197TIP3    H115597   4.209   5.584   3.352
 5197TIP3    H215598   4.125   5.501   3.447
 5198TIP3   OH215599   5.617   2.919   4.424
 5198TIP3    H115600   5.547   2.983   4.409
 5198TIP3    H215601   5.634   2.924   4.518
 5199TIP3   OH215602   3.865   0.530   4.203
 5199TIP3    H115603   3.812   0.455   4.231
 5199TIP3    H215604   3.883   0.578   4.284
 5200TIP3   OH215605   2.954   2.852   2.951
 5200TIP3    H115606   2.978   2.819   2.864
 5200TIP3    H215607   3.027   2.909   2.975
 5201TIP3   OH215608   0.746   0.981   4.102
 5201TIP3    H115609   0.742   0.891   4.070
 5201TIP3    H215610   0.827   1.016   4.065
 5202TIP3   OH215611   4.922   2.030   3.442
 5202TIP3    H115612   4.944   1.936   3.441
 5202TIP3    H215613   5.003   2.073   3.417
 5203TIP3   OH215614   3.654   5.604   3.940
 5203TIP3    H115615   3.578   5.551   3.962
 5203TIP3    H215616   3.624   5.662   3.869
 5204TIP3   OH215617   6.138   0.308   4.951
 5204TIP3    H115618   6.165   0.398   4.972
 5204TIP3    H215619   6.143   0.303   4.856
 5205TIP3   OH215620   3.072   1.239   0.295
 5205TIP3    H115621   2.998   1.189   0.260
 5205TIP3    H215622   3.107   1.184   0.364
 5206TIP3   OH215623   2.559   0.772   1.910
 5206TIP3    H115624   2.521   0.693   1.948
 5206TIP3    H215625   2.608   0.740   1.834
 5207TIP3   OH215626   4.813   5.874   4.596
 5207TIP3    H115627   4.863   5.822   4.658
 5207TIP3    H215628   4.732   5.824   4.584
 5208TIP3   OH215629   1.875   2.486   1.693
 5208TIP3    H115630   1.872   2.410   1.752
 5208TIP3    H215631   1.852   2.450   1.607
 5209TIP3   OH215632   4.051   0.990   2.252
 5209TIP3    H115633   4.053   1.014   2.344
 5209TIP3    H215634   3.972   0.936   2.244
 5210TIP3   OH215635   4.405   2.248   2.849
 5210TIP3    H115636   4.477   2.266   2.788
 5210TIP3    H215637   4.347   2.189   2.801
 5211TIP3   OH215638   1.206   0.795   4.900
 5211TIP3    H115639   1.222   0.883   4.864
 5211TIP3    H215640   1.176   0.744   4.825
 5212TIP3   OH215641   3.766   3.127   4.266
 5212TIP3    H115642   3.791   3.037   4.246
 5212TIP3    H215643   3.677   3.120   4.302
 5213TIP3   OH215644   3.592   3.625   2.733
 5213TIP3    H115645   3.565   3.535   2.750
 5213TIP3    H215646   3.555   3.646   2.647
 5214TIP3   OH215647   3.586   5.312   2.496
 5214TIP3    H115648   3.617   5.372   2.565
 5214TIP3    H215649   3.622   5.349   2.415
 5215TIP3   OH215650   3.549   0.139   1.288
 5215TIP3    H115651   3.465   0.140   1.243
 5215TIP3    H215652   3.600   0.209   1.246
 5216TIP3   OH215653   4.932   1.773   0.350
 5216TIP3    H115654   4.976   1.858   0.346
 5216TIP3    H215655   5.001   1.710   0.328
 5217TIP3   OH215656   1.336   1.050   3.702
 5217TIP3    H115657   1.297   1.098   3.775
 5217TIP3    H215658   1.368   1.118   3.643
 5218TIP3   OH215659   5.211   1.748   0.995
 5218TIP3    H115660   5.118   1.770   0.997
 5218TIP3    H215661   5.256   1.832   0.999
 5219TIP3   OH215662   4.162   0.157   4.888
 5219TIP3    H115663   4.115   0.074   4.892
 5219TIP3    H215664   4.187   0.166   4.796
 5220TIP3   OH215665   1.357   2.485   1.390
 5220TIP3    H115666   1.339   2.445   1.305
 5220TIP3    H215667   1.439   2.534   1.376
 5221TIP3   OH215668   5.164   5.132   1.854
 5221TIP3    H115669   5.083   5.088   1.877
 5221TIP3    H215670   5.232   5.086   1.903
 5222TIP3   OH215671   2.697   0.179   2.351
 5222TIP3    H115672   2.706   0.137   2.266
 5222TIP3    H215673   2.665   0.109   2.409
 5223TIP3   OH215674   5.278   1.914   3.181
 5223TIP3    H115675   5.348   1.963   3.136
 5223TIP3    H215676   5.200   1.967   3.167
 5224TIP3   OH215677   4.518   2.997   3.883
 5224TIP3    H115678   4.481   2.993   3.795
 5224TIP3    H215679   4.546   3.087   3.893
 5225TIP3   OH215680   5.434   2.407   0.570
 5225TIP3    H115681   5.404   2.393   0.480
 5225TIP3    H215682   5.451   2.501   0.574
 5226TIP3   OH215683   3.584   2.254   2.681
 5226TIP3    H115684   3.669   2.212   2.693
 5226TIP3    H215685   3.520   2.186   2.703
 5227TIP3   OH215686   2.320   0.575   4.254
 5227TIP3    H115687   2.226   0.579   4.236
 5227TIP3    H215688   2.355   0.522   4.182
 5228TIP3   OH215689   3.639   3.847   4.941
 5228TIP3    H115690   3.673   3.879   5.025
 5228TIP3    H215691   3.650   3.752   4.945
 5229TIP3   OH215692   4.628   1.919   2.267
 5229TIP3    H115693   4.671   1.904   2.182
 5229TIP3    H215694   4.556   1.979   2.247
 5230TIP3   OH215695   5.844   0.102  -0.022
 5230TIP3    H115696   5.882   0.060   0.055
 5230TIP3    H215697   5.755   0.126   0.005
 5231TIP3   OH215698   0.624   0.428   1.583
 5231TIP3    H115699   0.634   0.369   1.657
 5231TIP3    H215700   0.544   0.477   1.603
 5232TIP3   OH215701   2.402   4.637   1.808
 5232TIP3    H115702   2.474   4.578   1.783
 5232TIP3    H215703   2.371   4.673   1.725
 5233TIP3   OH215704   5.095   4.956   3.405
 5233TIP3    H115705   5.173   4.908   3.376
 5233TIP3    H215706   5.066   4.910   3.483
 5234TIP3   OH215707   5.882   4.805   4.312
 5234TIP3    H115708   5.871   4.725   4.363
 5234TIP3    H215709   5.817   4.866   4.349
 5235TIP3   OH215710   0.483   3.469   1.733
 5235TIP3    H115711   0.432   3.529   1.786
 5235TIP3    H215712   0.565   3.515   1.716
 5236TIP3   OH215713   3.882   3.775   2.390
 5236TIP3    H115714   3.844   3.704   2.440
 5236TIP3    H215715   3.873   3.748   2.298
 5237TIP3   OH215716   3.228   4.387   0.944
 5237TIP3    H115717   3.137   4.374   0.970
 5237TIP3    H215718   3.271   4.303   0.964
 5238TIP3   OH215719   3.559   0.887   0.501
 5238TIP3    H115720   3.574   0.889   0.595
 5238TIP3    H215721   3.588   0.973   0.470
 5239TIP3   OH215722   4.754   0.211   3.731
 5239TIP3    H115723   4.771   0.229   3.823
 5239TIP3    H215724   4.817   0.143   3.708
 5240TIP3   OH215725   3.991   0.541   0.747
 5240TIP3    H115726   3.940   0.621   0.757
 5240TIP3    H215727   3.929   0.477   0.713
 5241TIP3   OH215728   4.323   5.711   3.301
 5241TIP3    H115729   4.381   5.777   3.263
 5241TIP3    H215730   4.358   5.698   3.389
 5242TIP3   OH215731   0.456   3.851   3.754
 5242TIP3    H115732   0.392   3.835   3.684
 5242TIP3    H215733   0.413   3.914   3.811
 5243TIP3   OH215734   6.242   3.273   2.938
 5243TIP3    H115735   6.337   3.262   2.932
 5243TIP3    H215736   6.220   3.247   3.028
 5244TIP3   OH215737   1.455   5.404   4.419
 5244TIP3    H115738   1.445   5.375   4.509
 5244TIP3    H215739   1.526   5.351   4.384
 5245TIP3   OH215740   1.554   5.362   4.692
 5245TIP3    H115741   1.578   5.451   4.715
 5245TIP3    H215742   1.628   5.309   4.720
 5246TIP3   OH215743   1.570   0.857   0.117
 5246TIP3    H115744   1.478   0.845   0.093
 5246TIP3    H215745   1.568   0.874   0.211
 5247TIP3   OH215746   1.827   0.476   1.327
 5247TIP3    H115747   1.905   0.531   1.335
 5247TIP3    H215748   1.770   0.504   1.399
 5248TIP3   OH215749   0.298   1.954   3.835
 5248TIP3    H115750   0.261   2.034   3.874
 5248TIP3    H215751   0.384   1.981   3.802
 5249TIP3   OH215752   2.409   1.389   5.095
 5249TIP3    H115753   2.433   1.402   5.003
 5249TIP3    H215754   2.475   1.438   5.144
 5250TIP3   OH215755   0.074   5.945   0.639
 5250TIP3    H115756   0.071   5.984   0.551
 5250TIP3    H215757   0.068   5.851   0.622
 5251TIP3   OH215758   2.498   0.549   4.839
 5251TIP3    H115759   2.421   0.494   4.855
 5251TIP3    H215760   2.466   0.620   4.783
 5252TIP3   OH215761   0.038   5.190   4.573
 5252TIP3    H115762   0.021   5.098   4.596
 5252TIP3    H215763  -0.028   5.210   4.507
 5253TIP3   OH215764   4.252   6.013   3.059
 5253TIP3    H115765   4.210   6.036   2.976
 5253TIP3    H215766   4.180   5.987   3.116
 5254TIP3   OH215767   0.240   0.158   0.597
 5254TIP3    H115768   0.158   0.110   0.603
 5254TIP3    H215769   0.225   0.225   0.531
 5255TIP3   OH215770   3.738   0.026   0.989
 5255TIP3    H115771   3.786   0.057   0.912
 5255TIP3    H215772   3.740   0.099   1.050
 5256TIP3   OH215773   2.239   4.338   1.675
 5256TIP3    H115774   2.165   4.280   1.693
 5256TIP3    H215775   2.212   4.388   1.598
 5257TIP3   OH215776   3.146   4.916   0.093
 5257TIP3    H115777   3.223   4.891   0.043
 5257TIP3    H215778   3.080   4.850   0.070
 5258TIP3   OH215779   2.124   3.603   2.508
 5258TIP3    H115780   2.127   3.514   2.544
 5258TIP3    H215781   2.076   3.654   2.573
 5259TIP3   OH215782   5.884   2.839   0.381
 5259TIP3    H115783   5.805   2.890   0.399
 5259TIP3    H215784   5.924   2.881   0.306
 5260TIP3   OH215785   1.951   4.597   1.477
 5260TIP3    H115786   1.999   4.678   1.460
 5260TIP3    H215787   1.900   4.615   1.555
 5261TIP3   OH215788   3.128   5.709   0.641
 5261TIP3    H115789   3.039   5.687   0.614
 5261TIP3    H215790   3.117   5.767   0.716
 5262TIP3   OH215791   6.355   2.353   0.491
 5262TIP3    H115792   6.262   2.341   0.510
 5262TIP3    H215793   6.400   2.303   0.558
 5263TIP3   OH215794   6.276   5.816   3.505
 5263TIP3    H115795   6.213   5.873   3.550
 5263TIP3    H215796   6.222   5.749   3.463
 5264TIP3   OH215797   3.202   0.726   1.167
 5264TIP3    H115798   3.250   0.732   1.250
 5264TIP3    H215799   3.146   0.649   1.177
 5265TIP3   OH215800   4.875   5.594   3.604
 5265TIP3    H115801   4.894   5.615   3.695
 5265TIP3    H215802   4.780   5.592   3.598
 5266TIP3   OH215803   4.322   3.856   2.300
 5266TIP3    H115804   4.358   3.896   2.222
 5266TIP3    H215805   4.386   3.877   2.369
 5267TIP3   OH215806   0.540   4.629   2.740
 5267TIP3    H115807   0.515   4.683   2.814
 5267TIP3    H215808   0.480   4.655   2.670
 5268TIP3   OH215809   2.564   0.225   4.624
 5268TIP3    H115810   2.522   0.303   4.588
 5268TIP3    H215811   2.510   0.200   4.699
 5269TIP3   OH215812   5.154   4.545   1.477
 5269TIP3    H115813   5.072   4.531   1.430
 5269TIP3    H215814   5.145   4.632   1.516
 5270TIP3   OH215815   0.888   0.382   1.320
 5270TIP3    H115816   0.867   0.302   1.368
 5270TIP3    H215817   0.910   0.446   1.388
 5271TIP3   OH215818   5.430   1.867   0.408
 5271TIP3    H115819   5.434   1.798   0.342
 5271TIP3    H215820   5.342   1.860   0.445
 5272TIP3   OH215821   3.702   3.841   0.113
 5272TIP3    H115822   3.747   3.797   0.042
 5272TIP3    H215823   3.623   3.878   0.073
 5273TIP3   OH215824   2.076   4.577   2.678
 5273TIP3    H115825   2.031   4.518   2.738
 5273TIP3    H215826   2.108   4.522   2.607
 5274TIP3   OH215827   0.710   1.083   3.332
 5274TIP3    H115828   0.785   1.026   3.345
 5274TIP3    H215829   0.704   1.094   3.237
 5275TIP3   OH215830   3.500   0.256   1.927
 5275TIP3    H115831   3.444   0.180   1.908
 5275TIP3    H215832   3.523   0.290   1.841
 5276TIP3   OH215833   2.050   3.858   0.904
 5276TIP3    H115834   2.105   3.920   0.951
 5276TIP3    H215835   2.074   3.869   0.812
 5277TIP3   OH215836   4.925   2.382   2.440
 5277TIP3    H115837   4.999   2.424   2.397
 5277TIP3    H215838   4.949   2.289   2.443
 5278TIP3   OH215839   2.996   4.333   1.082
 5278TIP3    H115840   2.938   4.352   1.008
 5278TIP3    H215841   3.009   4.239   1.078
 5279TIP3   OH215842   4.926   5.944   0.948
 5279TIP3    H115843   4.932   6.006   0.875
 5279TIP3    H215844   4.832   5.935   0.963
 5280TIP3   OH215845   1.218   4.468   0.913
 5280TIP3    H115846   1.161   4.441   0.841
 5280TIP3    H215847   1.201   4.404   0.982
 5281TIP3   OH215848   1.810   0.037   1.705
 5281TIP3    H115849   1.893   0.072   1.670
 5281TIP3    H215850   1.748   0.048   1.633
 5282TIP3   OH215851   0.183   1.704   4.201
 5282TIP3    H115852   0.250   1.771   4.200
 5282TIP3    H215853   0.160   1.693   4.293
 5283TIP3   OH215854   5.102   4.750   1.761
 5283TIP3    H115855   5.096   4.658   1.788
 5283TIP3    H215856   5.194   4.772   1.774
 5284TIP3   OH215857   5.268   5.754   2.552
 5284TIP3    H115858   5.350   5.745   2.504
 5284TIP3    H215859   5.286   5.719   2.639
 5285TIP3   OH215860   1.124   1.758   1.889
 5285TIP3    H115861   1.096   1.667   1.883
 5285TIP3    H215862   1.219   1.755   1.882
 5286TIP3   OH215863   5.211   4.657   0.238
 5286TIP3    H115864   5.244   4.744   0.262
 5286TIP3    H215865   5.276   4.597   0.275
 5287TIP3   OH215866   2.930   1.392   1.192
 5287TIP3    H115867   2.886   1.414   1.110
 5287TIP3    H215868   2.946   1.476   1.234
 5288TIP3   OH215869   2.783   3.183   1.404
 5288TIP3    H115870   2.701   3.225   1.433
 5288TIP3    H215871   2.805   3.228   1.322
 5289TIP3   OH215872   4.331   4.041   1.339
 5289TIP3    H115873   4.242   4.022   1.308
 5289TIP3    H215874   4.323   4.043   1.434
 5290TIP3   OH215875   6.004   3.014   4.242
 5290TIP3    H115876   6.020   3.084   4.179
 5290TIP3    H215877   5.932   2.963   4.205
 5291TIP3   OH215878   5.242   1.708   1.873
 5291TIP3    H115879   5.177   1.651   1.914
 5291TIP3    H215880   5.212   1.718   1.782
 5292TIP3   OH215881   1.977   2.429   4.541
 5292TIP3    H115882   2.027   2.418   4.460
 5292TIP3    H215883   1.998   2.518   4.570
 5293TIP3   OH215884   0.328   1.516   3.429
 5293TIP3    H115885   0.233   1.508   3.437
 5293TIP3    H215886   0.341   1.569   3.350
 5294TIP3   OH215887   3.862   5.113   0.122
 5294TIP3    H115888   3.802   5.091   0.194
 5294TIP3    H215889   3.949   5.106   0.161
 5295TIP3   OH215890   1.933   2.885   4.639
 5295TIP3    H115891   2.007   2.834   4.606
 5295TIP3    H215892   1.898   2.930   4.561
 5296TIP3   OH215893   5.760   4.212   2.142
 5296TIP3    H115894   5.850   4.199   2.173
 5296TIP3    H215895   5.708   4.152   2.196
 5297TIP3   OH215896   3.523   3.359   0.632
 5297TIP3    H115897   3.448   3.417   0.625
 5297TIP3    H215898   3.507   3.290   0.568
 5298TIP3   OH215899   2.064   4.927   3.860
 5298TIP3    H115900   2.048   4.999   3.921
 5298TIP3    H215901   2.159   4.927   3.848
 5299TIP3   OH215902   4.807   3.226   1.833
 5299TIP3    H115903   4.824   3.223   1.738
 5299TIP3    H215904   4.735   3.289   1.842
 5300TIP3   OH215905   2.051   3.516   4.453
 5300TIP3    H115906   2.039   3.560   4.537
 5300TIP3    H215907   2.118   3.567   4.408
 5301TIP3   OH215908   5.726   5.780   1.352
 5301TIP3    H115909   5.679   5.863   1.340
 5301TIP3    H215910   5.801   5.786   1.293
 5302TIP3   OH215911   5.250   1.480   0.082
 5302TIP3    H115912   5.307   1.425   0.029
 5302TIP3    H215913   5.302   1.559   0.099
 5303TIP3   OH215914   2.574   1.024   3.723
 5303TIP3    H115915   2.528   0.965   3.783
 5303TIP3    H215916   2.513   1.038   3.651
 5304TIP3   OH215917   0.663   3.022   3.726
 5304TIP3    H115918   0.756   3.019   3.706
 5304TIP3    H215919   0.621   2.981   3.650
 5305TIP3   OH215920   3.365   2.170   3.937
 5305TIP3    H115921   3.307   2.101   3.906
 5305TIP3    H215922   3.344   2.179   4.030
 5306TIP3   OH215923   1.944   3.246   1.750
 5306TIP3    H115924   2.006   3.198   1.694
 5306TIP3    H215925   1.917   3.183   1.816
 5307TIP3   OH215926   6.256   0.161   4.363
 5307TIP3    H115927   6.314   0.085   4.358
 5307TIP3    H215928   6.274   0.199   4.449
 5308TIP3   OH215929   0.680   0.603   3.672
 5308TIP3    H115930   0.671   0.509   3.660
 5308TIP3    H215931   0.765   0.614   3.714
 5309TIP3   OH215932   0.863   2.343   0.493
 5309TIP3    H115933   0.847   2.327   0.399
 5309TIP3    H215934   0.946   2.298   0.511
 5310TIP3   OH215935   6.070   3.639   5.143
 5310TIP3    H115936   6.034   3.585   5.073
 5310TIP3    H215937   6.150   3.677   5.106
 5311TIP3   OH215938   0.293   4.437   4.537
 5311TIP3    H115939   0.224   4.436   4.604
 5311TIP3    H215940   0.354   4.369   4.565
 5312TIP3   OH215941   5.748   2.412   1.037
 5312TIP3    H115942   5.662   2.442   1.009
 5312TIP3    H215943   5.801   2.415   0.957
 5313TIP3   OH215944   2.051   1.712   2.133
 5313TIP3    H115945   1.991   1.721   2.206
 5313TIP3    H215946   2.136   1.693   2.174
 5314TIP3   OH215947   4.082   5.359   1.615
 5314TIP3    H115948   4.041   5.327   1.695
 5314TIP3    H215949   4.009   5.377   1.555
 5315TIP3   OH215950   1.518   5.784   2.190
 5315TIP3    H115951   1.448   5.831   2.235
 5315TIP3    H215952   1.535   5.836   2.111
 5316TIP3   OH215953   2.423   3.369   1.843
 5316TIP3    H115954   2.377   3.452   1.852
 5316TIP3    H215955   2.367   3.305   1.887
 5317TIP3   OH215956   5.499   5.646   2.412
 5317TIP3    H115957   5.577   5.658   2.465
 5317TIP3    H215958   5.510   5.561   2.371
 5318TIP3   OH215959   0.469   0.420   4.912
 5318TIP3    H115960   0.475   0.511   4.881
 5318TIP3    H215961   0.386   0.388   4.876
 5319TIP3   OH215962   1.252   0.470   1.802
 5319TIP3    H115963   1.280   0.425   1.882
 5319TIP3    H215964   1.238   0.560   1.829
 5320TIP3   OH215965   2.270   0.374   3.934
 5320TIP3    H115966   2.218   0.454   3.945
 5320TIP3    H215967   2.337   0.379   4.003
 5321TIP3   OH215968   1.041   1.395   0.666
 5321TIP3    H115969   1.027   1.410   0.760
 5321TIP3    H215970   1.125   1.350   0.662
 5322TIP3   OH215971   3.330   3.612   4.751
 5322TIP3    H115972   3.402   3.555   4.723
 5322TIP3    H215973   3.371   3.698   4.762
 5323TIP3   OH215974   2.282   2.804   0.515
 5323TIP3    H115975   2.195   2.776   0.543
 5323TIP3    H215976   2.338   2.786   0.590
 5324TIP3   OH215977   2.139   4.632   4.080
 5324TIP3    H115978   2.050   4.650   4.109
 5324TIP3    H215979   2.138   4.652   3.986
 5325TIP3   OH215980   2.727   4.503   1.394
 5325TIP3    H115981   2.646   4.457   1.371
 5325TIP3    H215982   2.796   4.443   1.367
 5326TIP3   OH215983   1.716   2.857   1.235
 5326TIP3    H115984   1.763   2.915   1.176
 5326TIP3    H215985   1.676   2.915   1.300
 5327TIP3   OH215986   3.410   1.434   0.000
 5327TIP3    H115987   3.326   1.419   0.042
 5327TIP3    H215988   3.472   1.381   0.051
 5328TIP3   OH215989   1.568   1.463   2.001
 5328TIP3    H115990   1.659   1.436   1.995
 5328TIP3    H215991   1.519   1.394   1.956
 5329TIP3   OH215992   0.513   0.882   0.560
 5329TIP3    H115993   0.430   0.857   0.600
 5329TIP3    H215994   0.520   0.824   0.484
 5330TIP3   OH215995   3.112   4.037   1.921
 5330TIP3    H115996   3.083   3.975   1.854
 5330TIP3    H215997   3.042   4.101   1.927
 5331TIP3   OH215998   1.324   3.144   3.548
 5331TIP3    H115999   1.391   3.183   3.492
 5331TIP3    H216000   1.303   3.213   3.611
 5332TIP3   OH216001   1.252   0.785   2.683
 5332TIP3    H116002   1.295   0.854   2.633
 5332TIP3    H216003   1.172   0.767   2.635
 5333TIP3   OH216004   3.335   3.988   3.286
 5333TIP3    H116005   3.325   4.011   3.193
 5333TIP3    H216006   3.253   4.016   3.326
 5334TIP3   OH216007   3.730   5.102   0.400
 5334TIP3    H116008   3.654   5.045   0.406
 5334TIP3    H216009   3.694   5.191   0.401
 5335TIP3   OH216010   1.796   3.027   2.163
 5335TIP3    H116011   1.791   2.933   2.176
 5335TIP3    H216012   1.854   3.058   2.233
 5336TIP3   OH216013   3.694   5.851   3.333
 5336TIP3    H116014   3.749   5.785   3.291
 5336TIP3    H216015   3.628   5.872   3.267
 5337TIP3   OH216016   1.591   0.537   4.923
 5337TIP3    H116017   1.659   0.490   4.971
 5337TIP3    H216018   1.631   0.556   4.838
 5338TIP3   OH216019   3.236   3.207   2.258
 5338TIP3    H116020   3.181   3.177   2.331
 5338TIP3    H216021   3.176   3.215   2.184
 5339TIP3   OH216022   0.262   4.985   3.756
 5339TIP3    H116023   0.283   5.068   3.798
 5339TIP3    H216024   0.214   4.936   3.823
 5340TIP3   OH216025   0.172   5.810   3.057
 5340TIP3    H116026   0.130   5.735   3.015
 5340TIP3    H216027   0.153   5.799   3.150
 5341TIP3   OH216028   0.896   3.217   0.630
 5341TIP3    H116029   0.826   3.246   0.571
 5341TIP3    H216030   0.966   3.281   0.617
 5342TIP3   OH216031   5.124   5.360   2.836
 5342TIP3    H116032   5.135   5.279   2.786
 5342TIP3    H216033   5.065   5.413   2.782
 5343TIP3   OH216034   6.061   0.351   2.593
 5343TIP3    H116035   6.139   0.325   2.544
 5343TIP3    H216036   6.094   0.375   2.680
 5344TIP3   OH216037   3.538   0.947   4.891
 5344TIP3    H116038   3.574   1.017   4.946
 5344TIP3    H216039   3.460   0.917   4.939
 5345TIP3   OH216040   1.911   3.952   2.490
 5345TIP3    H116041   1.949   3.981   2.574
 5345TIP3    H216042   1.914   3.856   2.495
 5346TIP3   OH216043   3.860   3.788   0.355
 5346TIP3    H116044   3.802   3.820   0.286
 5346TIP3    H216045   3.848   3.693   0.353
 5347TIP3   OH216046   3.517   2.535   1.884
 5347TIP3    H116047   3.480   2.622   1.896
 5347TIP3    H216048   3.612   2.549   1.883
 5348TIP3   OH216049   5.443   1.720   4.713
 5348TIP3    H116050   5.439   1.723   4.618
 5348TIP3    H216051   5.516   1.779   4.736
 5349TIP3   OH216052   0.038   4.332   3.242
 5349TIP3    H116053   0.028   4.334   3.337
 5349TIP3    H216054  -0.030   4.271   3.212
 5350TIP3   OH216055   0.455   4.046   3.067
 5350TIP3    H116056   0.509   4.018   2.993
 5350TIP3    H216057   0.467   3.979   3.133
 5351TIP3   OH216058   1.227   0.315   0.342
 5351TIP3    H116059   1.228   0.233   0.391
 5351TIP3    H216060   1.186   0.378   0.401
 5352TIP3   OH216061   2.078   5.307   2.671
 5352TIP3    H116062   2.020   5.265   2.735
 5352TIP3    H216063   2.162   5.312   2.716
 5353TIP3   OH216064   5.971   3.867   3.184
 5353TIP3    H116065   5.885   3.862   3.227
 5353TIP3    H216066   6.024   3.801   3.230
 5354TIP3   OH216067   2.165   4.896   1.850
 5354TIP3    H116068   2.104   4.970   1.858
 5354TIP3    H216069   2.241   4.934   1.805
 5355TIP3   OH216070   5.756   4.838   0.230
 5355TIP3    H116071   5.750   4.744   0.246
 5355TIP3    H216072   5.698   4.877   0.296
 5356TIP3   OH216073   1.774   0.786   2.148
 5356TIP3    H116074   1.745   0.771   2.058
 5356TIP3    H216075   1.753   0.705   2.194
 5357TIP3   OH216076   3.935   3.318   1.665
 5357TIP3    H116077   3.852   3.306   1.711
 5357TIP3    H216078   3.938   3.411   1.643
 5358TIP3   OH216079   3.242   1.933   3.837
 5358TIP3    H116080   3.313   1.901   3.892
 5358TIP3    H216081   3.251   1.886   3.754
 5359TIP3   OH216082   4.738   5.084   1.742
 5359TIP3    H116083   4.731   5.180   1.737
 5359TIP3    H216084   4.668   5.052   1.686
 5360TIP3   OH216085   5.474   2.314   0.978
 5360TIP3    H116086   5.532   2.240   0.960
 5360TIP3    H216087   5.407   2.310   0.910
 5361TIP3   OH216088   4.906   5.299   0.493
 5361TIP3    H116089   4.950   5.378   0.523
 5361TIP3    H216090   4.821   5.301   0.537
 5362TIP3   OH216091   0.422   0.691   0.148
 5362TIP3    H116092   0.409   0.684   0.243
 5362TIP3    H216093   0.361   0.759   0.120
 5363TIP3   OH216094   2.505   4.954   2.826
 5363TIP3    H116095   2.487   5.047   2.840
 5363TIP3    H216096   2.420   4.914   2.813
 5364TIP3   OH216097   1.925   3.258   2.453
 5364TIP3    H116098   2.013   3.268   2.417
 5364TIP3    H216099   1.877   3.334   2.419
 5365TIP3   OH216100   4.825   0.602   1.723
 5365TIP3    H116101   4.787   0.607   1.635
 5365TIP3    H216102   4.885   0.676   1.729
 5366TIP3   OH216103   3.668   0.121   4.098
 5366TIP3    H116104   3.702   0.039   4.132
 5366TIP3    H216105   3.738   0.154   4.041
 5367TIP3   OH216106   2.541   0.086   0.013
 5367TIP3    H116107   2.626   0.048  -0.009
 5367TIP3    H216108   2.496   0.093  -0.071
 5368TIP3   OH216109   5.895   2.471   0.785
 5368TIP3    H116110   5.899   2.536   0.716
 5368TIP3    H216111   5.986   2.441   0.796
 5369TIP3   OH216112   0.970   2.993   3.698
 5369TIP3    H116113   0.970   3.075   3.748
 5369TIP3    H216114   0.980   2.925   3.764
 5370TIP3   OH216115   5.164   5.083   2.271
 5370TIP3    H116116   5.143   5.024   2.198
 5370TIP3    H216117   5.079   5.112   2.303
 5371TIP3   OH216118   2.796   1.031   3.147
 5371TIP3    H116119   2.885   1.050   3.120
 5371TIP3    H216120   2.750   1.114   3.140
 5372TIP3   OH216121   5.339   0.743   2.613
 5372TIP3    H116122   5.291   0.825   2.609
 5372TIP3    H216123   5.304   0.699   2.691
 5373TIP3   OH216124   3.669   0.640   3.844
 5373TIP3    H116125   3.625   0.668   3.924
 5373TIP3    H216126   3.724   0.715   3.820
 5374TIP3   OH216127   2.303   5.147   2.451
 5374TIP3    H116128   2.250   5.098   2.514
 5374TIP3    H216129   2.242   5.208   2.410
 5375TIP3   OH216130   6.174   5.229   4.407
 5375TIP3    H116131   6.192   5.261   4.319
 5375TIP3    H216132   6.093   5.273   4.433
 5376TIP3   OH216133   5.498   0.801   4.776
 5376TIP3    H116134   5.447   0.845   4.844
 5376TIP3    H216135   5.574   0.858   4.762
 5377TIP3   OH216136   0.554   4.092   1.091
 5377TIP3    H116137   0.467   4.131   1.091
 5377TIP3    H216138   0.541   4.006   1.050
 5378TIP3   OH216139   2.020   1.257   1.053
 5378TIP3    H116140   2.033   1.234   0.961
 5378TIP3    H216141   1.968   1.185   1.089
 5379TIP3   OH216142   3.005   3.672   4.004
 5379TIP3    H116143   2.998   3.603   4.071
 5379TIP3    H216144   2.916   3.706   3.996
 5380TIP3   OH216145   2.711   3.171   3.412
 5380TIP3    H116146   2.712   3.227   3.335
 5380TIP3    H216147   2.752   3.223   3.481
 5381TIP3   OH216148   4.253   3.766   1.469
 5381TIP3    H116149   4.347   3.782   1.484
 5381TIP3    H216150   4.231   3.694   1.529
 5382TIP3   OH216151   2.517   1.151   1.746
 5382TIP3    H116152   2.562   1.100   1.814
 5382TIP3    H216153   2.520   1.241   1.778
 5383TIP3   OH216154   1.038   0.670   4.738
 5383TIP3    H116155   1.068   0.691   4.649
 5383TIP3    H216156   0.943   0.666   4.731
 5384TIP3   OH216157   6.046   3.398   2.148
 5384TIP3    H116158   6.077   3.473   2.097
 5384TIP3    H216159   5.951   3.398   2.135
 5385TIP3   OH216160   3.142   4.460   2.927
 5385TIP3    H116161   3.097   4.542   2.950
 5385TIP3    H216162   3.082   4.417   2.866
 5386TIP3   OH216163   4.184   3.269   4.564
 5386TIP3    H116164   4.204   3.224   4.645
 5386TIP3    H216165   4.269   3.287   4.524
 5387TIP3   OH216166   4.415   0.630   3.387
 5387TIP3    H116167   4.462   0.659   3.309
 5387TIP3    H216168   4.444   0.539   3.400
 5388TIP3   OH216169   1.760   1.358   4.323
 5388TIP3    H116170   1.767   1.400   4.409
 5388TIP3    H216171   1.800   1.421   4.262
 5389TIP3   OH216172   2.791   3.384   1.178
 5389TIP3    H116173   2.696   3.374   1.173
 5389TIP3    H216174   2.820   3.382   1.086
 5390TIP3   OH216175   5.363   1.633   2.137
 5390TIP3    H116176   5.358   1.542   2.166
 5390TIP3    H216177   5.311   1.636   2.057
 5391TIP3   OH216178   5.905   0.440   2.134
 5391TIP3    H116179   5.893   0.519   2.082
 5391TIP3    H216180   5.975   0.392   2.090
 5392TIP3   OH216181   3.614   2.994   2.513
 5392TIP3    H116182   3.534   3.036   2.546
 5392TIP3    H216183   3.583   2.919   2.463
 5393TIP3   OH216184   2.054   3.999   2.932
 5393TIP3    H116185   1.977   3.949   2.961
 5393TIP3    H216186   2.032   4.026   2.842
 5394TIP3   OH216187   2.704   2.371   3.938
 5394TIP3    H116188   2.655   2.290   3.948
 5394TIP3    H216189   2.659   2.433   3.996
 5395TIP3   OH216190   1.217   4.477   2.076
 5395TIP3    H116191   1.306   4.479   2.112
 5395TIP3    H216192   1.194   4.569   2.066
 5396TIP3   OH216193   6.232   0.451   0.011
 5396TIP3    H116194   6.240   0.546   0.007
 5396TIP3    H216195   6.322   0.420  -0.001
 5397TIP3   OH216196   3.366   2.982   0.618
 5397TIP3    H116197   3.275   2.956   0.605
 5397TIP3    H216198   3.381   3.049   0.552
 5398TIP3   OH216199   5.795   1.485   3.383
 5398TIP3    H116200   5.771   1.507   3.293
 5398TIP3    H216201   5.866   1.421   3.374
 5399TIP3   OH216202   3.001   1.466   2.194
 5399TIP3    H116203   2.976   1.556   2.174
 5399TIP3    H216204   3.026   1.469   2.287
 5400TIP3   OH216205   2.602   3.911   3.273
 5400TIP3    H116206   2.616   3.879   3.184
 5400TIP3    H216207   2.683   3.890   3.320
 5401TIP3   OH216208   3.743   4.818   3.135
 5401TIP3    H116209   3.668   4.767   3.166
 5401TIP3    H216210   3.708   4.906   3.119
 5402TIP3   OH216211   5.468   5.360   2.418
 5402TIP3    H116212   5.382   5.365   2.458
 5402TIP3    H216213   5.528   5.344   2.491
 5403TIP3   OH216214   3.815   4.789   2.726
 5403TIP3    H116215   3.843   4.724   2.663
 5403TIP3    H216216   3.721   4.797   2.714
 5404TIP3   OH216217   3.252   2.815   4.674
 5404TIP3    H116218   3.269   2.862   4.755
 5404TIP3    H216219   3.324   2.839   4.616
 5405TIP3   OH216220   1.064   5.542   4.801
 5405TIP3    H116221   1.122   5.479   4.759
 5405TIP3    H216222   1.008   5.575   4.730
 5406TIP3   OH216223   3.568   5.778   1.505
 5406TIP3    H116224   3.641   5.834   1.529
 5406TIP3    H216225   3.585   5.695   1.549
 5407TIP3   OH216226   5.247   3.550   2.304
 5407TIP3    H116227   5.214   3.511   2.385
 5407TIP3    H216228   5.336   3.516   2.295
 5408TIP3   OH216229   4.484   2.218   4.182
 5408TIP3    H116230   4.572   2.195   4.151
 5408TIP3    H216231   4.491   2.216   4.277
 5409TIP3   OH216232   0.518   5.835   1.265
 5409TIP3    H116233   0.465   5.772   1.215
 5409TIP3    H216234   0.553   5.784   1.338
 5410TIP3   OH216235   0.558   2.221   3.197
 5410TIP3    H116236   0.598   2.135   3.196
 5410TIP3    H216237   0.483   2.214   3.137
 5411TIP3   OH216238   3.248   1.277   0.802
 5411TIP3    H116239   3.196   1.336   0.748
 5411TIP3    H216240   3.331   1.268   0.755
 5412TIP3   OH216241   5.291   0.819   4.111
 5412TIP3    H116242   5.300   0.732   4.072
 5412TIP3    H216243   5.342   0.815   4.192
 5413TIP3   OH216244   5.952   2.833   3.655
 5413TIP3    H116245   5.871   2.862   3.696
 5413TIP3    H216246   5.985   2.765   3.712
 5414TIP3   OH216247   1.048   4.539   2.997
 5414TIP3    H116248   1.129   4.575   2.960
 5414TIP3    H216249   0.994   4.616   3.015
 5415TIP3   OH216250   5.011   3.796   5.163
 5415TIP3    H116251   5.074   3.834   5.102
 5415TIP3    H216252   4.940   3.765   5.107
 5416TIP3   OH216253   6.247   0.432   4.123
 5416TIP3    H116254   6.326   0.467   4.163
 5416TIP3    H216255   6.192   0.509   4.106
 5417TIP3   OH216256   4.217   4.265   1.783
 5417TIP3    H116257   4.222   4.220   1.867
 5417TIP3    H216258   4.154   4.336   1.797
 5418TIP3   OH216259   4.803   5.353   1.745
 5418TIP3    H116260   4.811   5.319   1.656
 5418TIP3    H216261   4.891   5.385   1.766
 5419TIP3   OH216262   4.122   1.858   4.445
 5419TIP3    H116263   4.043   1.804   4.442
 5419TIP3    H216264   4.157   1.844   4.533
 5420TIP3   OH216265   4.661   4.209   1.639
 5420TIP3    H116266   4.651   4.293   1.595
 5420TIP3    H216267   4.754   4.191   1.635
 5421TIP3   OH216268   2.030   5.893   4.520
 5421TIP3    H116269   2.039   5.808   4.564
 5421TIP3    H216270   2.050   5.957   4.588
 5422TIP3   OH216271   4.737   5.541   3.135
 5422TIP3    H116272   4.803   5.472   3.134
 5422TIP3    H216273   4.757   5.595   3.058
 5423TIP3   OH216274   2.707   3.854   3.019
 5423TIP3    H116275   2.708   3.912   2.943
 5423TIP3    H216276   2.797   3.822   3.025
 5424TIP3   OH216277   2.280   4.319   1.268
 5424TIP3    H116278   2.295   4.274   1.185
 5424TIP3    H216279   2.187   4.338   1.268
 5425TIP3   OH216280   4.402   0.781   1.222
 5425TIP3    H116281   4.434   0.844   1.287
 5425TIP3    H216282   4.477   0.765   1.165
 5426TIP3   OH216283   1.797   0.231   0.459
 5426TIP3    H116284   1.765   0.248   0.548
 5426TIP3    H216285   1.718   0.212   0.409
 5427TIP3   OH216286   2.158   0.965   4.614
 5427TIP3    H116287   2.137   0.972   4.521
 5427TIP3    H216288   2.184   1.054   4.639
 5428TIP3   OH216289   2.213   4.724   2.406
 5428TIP3    H116290   2.186   4.634   2.385
 5428TIP3    H216291   2.289   4.713   2.463
 5429TIP3   OH216292   1.965   2.020   4.602
 5429TIP3    H116293   2.046   1.970   4.591
 5429TIP3    H216294   1.992   2.100   4.649
 5430TIP3   OH216295   1.062   5.607   2.165
 5430TIP3    H116296   1.034   5.688   2.122
 5430TIP3    H216297   1.005   5.540   2.130
 5431TIP3   OH216298   5.895   0.926   0.760
 5431TIP3    H116299   5.886   1.018   0.783
 5431TIP3    H216300   5.843   0.916   0.680
 5432TIP3   OH216301   4.248   0.218   0.539
 5432TIP3    H116302   4.234   0.282   0.470
 5432TIP3    H216303   4.249   0.133   0.494
 5433TIP3   OH216304   3.501   4.079   3.821
 5433TIP3    H116305   3.495   4.174   3.824
 5433TIP3    H216306   3.555   4.060   3.744
 5434TIP3   OH216307   0.728   2.143   1.328
 5434TIP3    H116308   0.680   2.071   1.288
 5434TIP3    H216309   0.720   2.216   1.267
 5435TIP3   OH216310   5.359   2.802   2.052
 5435TIP3    H116311   5.455   2.798   2.055
 5435TIP3    H216312   5.331   2.761   2.133
 5436TIP3   OH216313   3.526   1.068   1.443
 5436TIP3    H116314   3.468   1.066   1.367
 5436TIP3    H216315   3.608   1.028   1.412
 5437TIP3   OH216316   1.313   4.491   3.588
 5437TIP3    H116317   1.407   4.489   3.604
 5437TIP3    H216318   1.275   4.503   3.675
 5438TIP3   OH216319   2.211   4.560   3.416
 5438TIP3    H116320   2.201   4.494   3.484
 5438TIP3    H216321   2.130   4.554   3.364
 5439TIP3   OH216322   5.761   1.462   0.592
 5439TIP3    H116323   5.699   1.522   0.632
 5439TIP3    H216324   5.710   1.416   0.526
 5440TIP3   OH216325   5.800   5.763   4.780
 5440TIP3    H116326   5.771   5.820   4.851
 5440TIP3    H216327   5.876   5.717   4.815
 5441TIP3   OH216328   3.952   2.542   0.822
 5441TIP3    H116329   3.970   2.620   0.874
 5441TIP3    H216330   4.026   2.483   0.839
 5442TIP3   OH216331   4.824   0.314   2.635
 5442TIP3    H116332   4.794   0.228   2.666
 5442TIP3    H216333   4.872   0.350   2.710
 5443TIP3   OH216334   2.564   3.344   3.245
 5443TIP3    H116335   2.531   3.429   3.272
 5443TIP3    H216336   2.562   3.347   3.149
 5444TIP3   OH216337   4.292   4.660   5.054
 5444TIP3    H116338   4.299   4.650   5.149
 5444TIP3    H216339   4.215   4.609   5.030
 5445TIP3   OH216340   3.959   3.159   3.287
 5445TIP3    H116341   3.950   3.078   3.238
 5445TIP3    H216342   3.983   3.224   3.221
 5446TIP3   OH216343   5.514   5.502   4.923
 5446TIP3    H116344   5.479   5.418   4.893
 5446TIP3    H216345   5.449   5.534   4.985
 5447TIP3   OH216346   0.142   5.611   5.134
 5447TIP3    H116347   0.147   5.606   5.230
 5447TIP3    H216348   0.134   5.520   5.106
 5448TIP3   OH216349   2.306   2.032   2.865
 5448TIP3    H116350   2.285   2.123   2.843
 5448TIP3    H216351   2.395   2.020   2.833
 5449TIP3   OH216352   1.771   5.774   0.361
 5449TIP3    H116353   1.836   5.704   0.360
 5449TIP3    H216354   1.698   5.739   0.309
 5450TIP3   OH216355   5.478   3.199   2.364
 5450TIP3    H116356   5.542   3.159   2.304
 5450TIP3    H216357   5.515   3.185   2.451
 5451TIP3   OH216358   6.265   4.789   2.770
 5451TIP3    H116359   6.191   4.851   2.768
 5451TIP3    H216360   6.266   4.756   2.859
 5452TIP3   OH216361   1.487   3.273   0.625
 5452TIP3    H116362   1.567   3.307   0.663
 5452TIP3    H216363   1.475   3.323   0.544
 5453TIP3   OH216364   4.051   2.991   2.377
 5453TIP3    H116365   4.023   2.973   2.287
 5453TIP3    H216366   3.969   3.003   2.424
 5454TIP3   OH216367   4.086   3.149   2.958
 5454TIP3    H116368   4.108   3.059   2.980
 5454TIP3    H216369   4.167   3.198   2.973
 5455TIP3   OH216370   1.820   4.732   2.617
 5455TIP3    H116371   1.915   4.726   2.628
 5455TIP3    H216372   1.785   4.731   2.706
 5456TIP3   OH216373   6.211   2.820   3.875
 5456TIP3    H116374   6.291   2.773   3.897
 5456TIP3    H216375   6.147   2.790   3.940
 5457TIP3   OH216376   1.108   5.420   3.171
 5457TIP3    H116377   1.090   5.513   3.189
 5457TIP3    H216378   1.130   5.418   3.078
 5458TIP3   OH216379   1.602   5.182   0.291
 5458TIP3    H116380   1.570   5.163   0.380
 5458TIP3    H216381   1.694   5.204   0.303
 5459TIP3   OH216382   2.825   3.633   1.848
 5459TIP3    H116383   2.782   3.548   1.850
 5459TIP3    H216384   2.781   3.684   1.916
 5460TIP3   OH216385   3.136   3.607   0.290
 5460TIP3    H116386   3.105   3.684   0.337
 5460TIP3    H216387   3.206   3.640   0.233
 5461TIP3   OH216388   5.155   0.903   3.880
 5461TIP3    H116389   5.203   0.897   3.963
 5461TIP3    H216390   5.103   0.823   3.876
 5462TIP3   OH216391   3.058   3.600   1.616
 5462TIP3    H116392   3.067   3.523   1.673
 5462TIP3    H216393   3.028   3.564   1.532
 5463TIP3   OH216394   5.667   0.385   2.244
 5463TIP3    H116395   5.756   0.392   2.209
 5463TIP3    H216396   5.674   0.322   2.316
 5464TIP3   OH216397   1.148   5.425   0.251
 5464TIP3    H116398   1.173   5.333   0.265
 5464TIP3    H216399   1.225   5.464   0.210
 5465TIP3   OH216400   0.258   4.743   3.515
 5465TIP3    H116401   0.207   4.823   3.527
 5465TIP3    H216402   0.192   4.675   3.500
 5466TIP3   OH216403   1.755   3.159   3.913
 5466TIP3    H116404   1.819   3.089   3.900
 5466TIP3    H216405   1.799   3.223   3.969
 5467TIP3   OH216406   5.990   5.962   5.026
 5467TIP3    H116407   6.002   5.933   5.116
 5467TIP3    H216408   5.897   5.948   5.009
 5468TIP3   OH216409   4.766   1.422   1.875
 5468TIP3    H116410   4.746   1.479   1.949
 5468TIP3    H216411   4.779   1.481   1.801
 5469TIP3   OH216412   5.078   5.423   4.795
 5469TIP3    H116413   5.023   5.497   4.770
 5469TIP3    H216414   5.063   5.358   4.727
 5470TIP3   OH216415   5.378   0.188   0.278
 5470TIP3    H116416   5.303   0.128   0.281
 5470TIP3    H216417   5.379   0.230   0.363
 5471TIP3   OH216418   5.622   2.206   0.485
 5471TIP3    H116419   5.688   2.216   0.553
 5471TIP3    H216420   5.546   2.254   0.518
 5472TIP3   OH216421   5.281   0.576   1.913
 5472TIP3    H116422   5.268   0.520   1.990
 5472TIP3    H216423   5.376   0.583   1.905
 5473TIP3   OH216424   0.323   0.550   2.413
 5473TIP3    H116425   0.352   0.536   2.323
 5473TIP3    H216426   0.293   0.464   2.442
 5474TIP3   OH216427   0.927   0.921   3.253
 5474TIP3    H116428   0.865   0.936   3.182
 5474TIP3    H216429   0.906   0.834   3.286
 5475TIP3   OH216430   1.591   0.524   4.126
 5475TIP3    H116431   1.633   0.450   4.081
 5475TIP3    H216432   1.594   0.501   4.218
 5476TIP3   OH216433   5.771   2.605   0.285
 5476TIP3    H116434   5.699   2.597   0.348
 5476TIP3    H216435   5.840   2.650   0.334
 5477TIP3   OH216436   3.362   3.646   0.120
 5477TIP3    H116437   3.439   3.656   0.064
 5477TIP3    H216438   3.289   3.681   0.069
 5478TIP3   OH216439   1.692   5.559   0.929
 5478TIP3    H116440   1.665   5.587   1.016
 5478TIP3    H216441   1.706   5.464   0.938
 5479TIP3   OH216442   0.030   1.074   3.061
 5479TIP3    H116443  -0.026   1.151   3.071
 5479TIP3    H216444   0.069   1.084   2.974
 5480TIP3   OH216445   5.852   5.605   0.733
 5480TIP3    H116446   5.858   5.601   0.828
 5480TIP3    H216447   5.913   5.675   0.708
 5481TIP3   OH216448   1.206   4.360   1.487
 5481TIP3    H116449   1.116   4.340   1.459
 5481TIP3    H216450   1.205   4.346   1.582
 5482TIP3   OH216451   0.873   4.934   0.358
 5482TIP3    H116452   0.915   4.995   0.418
 5482TIP3    H216453   0.862   4.854   0.410
 5483TIP3   OH216454   0.883   3.716   3.804
 5483TIP3    H116455   0.964   3.665   3.800
 5483TIP3    H216456   0.821   3.658   3.847
 5484TIP3   OH216457   3.452   3.691   2.155
 5484TIP3    H116458   3.459   3.604   2.195
 5484TIP3    H216459   3.431   3.673   2.063
 5485TIP3   OH216460   4.503   1.310   1.892
 5485TIP3    H116461   4.498   1.263   1.975
 5485TIP3    H216462   4.593   1.344   1.890
 5486TIP3   OH216463   5.001   4.108   3.917
 5486TIP3    H116464   4.964   4.180   3.866
 5486TIP3    H216465   4.926   4.059   3.949
 5487TIP3   OH216466   0.743   2.815   2.173
 5487TIP3    H116467   0.690   2.886   2.209
 5487TIP3    H216468   0.792   2.856   2.102
 5488TIP3   OH216469   2.391   2.816   0.250
 5488TIP3    H116470   2.318   2.854   0.201
 5488TIP3    H216471   2.363   2.821   0.342
 5489TIP3   OH216472   1.502   2.657   1.924
 5489TIP3    H116473   1.518   2.567   1.951
 5489TIP3    H216474   1.583   2.684   1.882
 5490TIP3   OH216475   2.128   5.407   3.436
 5490TIP3    H116476   2.215   5.426   3.401
 5490TIP3    H216477   2.115   5.473   3.505
 5491TIP3   OH216478   5.712   3.518   2.672
 5491TIP3    H116479   5.771   3.586   2.705
 5491TIP3    H216480   5.638   3.567   2.635
 5492TIP3   OH216481   5.715   0.149   4.783
 5492TIP3    H116482   5.638   0.101   4.751
 5492TIP3    H216483   5.718   0.227   4.727
 5493TIP3   OH216484   2.970   3.507   0.982
 5493TIP3    H116485   3.034   3.577   0.993
 5493TIP3    H216486   3.007   3.450   0.914
 5494TIP3   OH216487   0.010   4.251   3.827
 5494TIP3    H116488  -0.050   4.267   3.899
 5494TIP3    H216489   0.056   4.334   3.814
 5495TIP3   OH216490   6.095   2.771   1.980
 5495TIP3    H116491   6.024   2.818   2.024
 5495TIP3    H216492   6.160   2.839   1.961
 5496TIP3   OH216493   5.774   4.538   0.238
 5496TIP3    H116494   5.829   4.498   0.170
 5496TIP3    H216495   5.811   4.506   0.320
 5497TIP3   OH216496   3.414   3.156   4.630
 5497TIP3    H116497   3.460   3.211   4.566
 5497TIP3    H216498   3.405   3.071   4.587
 5498TIP3   OH216499   6.116   1.519   2.062
 5498TIP3    H116500   6.173   1.510   2.139
 5498TIP3    H216501   6.030   1.491   2.092
 5499TIP3   OH216502   6.265   2.946   0.563
 5499TIP3    H116503   6.296   2.860   0.533
 5499TIP3    H216504   6.292   2.949   0.655
 5500TIP3   OH216505   0.953   1.975   0.730
 5500TIP3    H116506   0.954   2.056   0.678
 5500TIP3    H216507   1.027   1.924   0.695
 5501TIP3   OH216508   4.823   3.288   1.548
 5501TIP3    H116509   4.914   3.312   1.532
 5501TIP3    H216510   4.802   3.228   1.476
 5502TIP3   OH216511   5.543   1.541   0.839
 5502TIP3    H116512   5.528   1.449   0.817
 5502TIP3    H216513   5.553   1.584   0.753
 5503TIP3   OH216514   0.193   3.290   4.430
 5503TIP3    H116515   0.218   3.284   4.338
 5503TIP3    H216516   0.274   3.271   4.478
 5504TIP3   OH216517   0.662   3.847   0.080
 5504TIP3    H116518   0.667   3.821   0.172
 5504TIP3    H216519   0.580   3.809   0.049
 5505TIP3   OH216520   1.491   2.937   4.533
 5505TIP3    H116521   1.428   2.878   4.575
 5505TIP3    H216522   1.438   2.988   4.472
 5506TIP3   OH216523   0.362   1.605   5.111
 5506TIP3    H116524   0.431   1.617   5.046
 5506TIP3    H216525   0.311   1.530   5.079
 5507TIP3   OH216526   4.004   2.930   2.685
 5507TIP3    H116527   4.047   2.859   2.732
 5507TIP3    H216528   3.966   2.985   2.754
 5508TIP3   OH216529   0.540   4.338   5.137
 5508TIP3    H116530   0.582   4.269   5.085
 5508TIP3    H216531   0.611   4.374   5.191
 5509TIP3   OH216532   4.712   5.364   3.726
 5509TIP3    H116533   4.658   5.323   3.794
 5509TIP3    H216534   4.798   5.374   3.766
 5510TIP3   OH216535   2.872   4.297   0.844
 5510TIP3    H116536   2.915   4.286   0.760
 5510TIP3    H216537   2.822   4.379   0.835
 5511TIP3   OH216538   0.296   5.976   1.460
 5511TIP3    H116539   0.390   5.984   1.443
 5511TIP3    H216540   0.265   5.911   1.397
 5512TIP3   OH216541   5.452   2.160   2.040
 5512TIP3    H116542   5.372   2.180   1.991
 5512TIP3    H216543   5.432   2.078   2.085
 5513TIP3   OH216544   2.637   1.273   3.117
 5513TIP3    H116545   2.631   1.312   3.030
 5513TIP3    H216546   2.617   1.345   3.177
 5514TIP3   OH216547   4.073   1.182   2.600
 5514TIP3    H116548   4.104   1.207   2.687
 5514TIP3    H216549   4.019   1.104   2.615
 5515TIP3   OH216550   0.750   3.629   5.210
 5515TIP3    H116551   0.790   3.579   5.139
 5515TIP3    H216552   0.756   3.572   5.286
 5516TIP3   OH216553   0.730   3.920   4.565
 5516TIP3    H116554   0.806   3.868   4.538
 5516TIP3    H216555   0.690   3.948   4.483
 5517TIP3   OH216556   3.857   0.938   0.488
 5517TIP3    H116557   3.815   0.879   0.425
 5517TIP3    H216558   3.803   1.017   0.487
 5518TIP3   OH216559   3.596   5.129   4.773
 5518TIP3    H116560   3.574   5.186   4.847
 5518TIP3    H216561   3.689   5.110   4.784
 5519TIP3   OH216562   5.155   0.942   5.224
 5519TIP3    H116563   5.072   0.895   5.213
 5519TIP3    H216564   5.218   0.893   5.170
 5520TIP3   OH216565   6.059   5.650   3.405
 5520TIP3    H116566   5.966   5.633   3.425
 5520TIP3    H216567   6.097   5.563   3.392
 5521TIP3   OH216568   1.664   0.848   3.484
 5521TIP3    H116569   1.576   0.870   3.517
 5521TIP3    H216570   1.706   0.933   3.471
 5522TIP3   OH216571   0.816   4.986   1.218
 5522TIP3    H116572   0.821   5.005   1.312
 5522TIP3    H216573   0.789   4.894   1.214
 5523TIP3   OH216574   1.845   5.764   2.466
 5523TIP3    H116575   1.827   5.858   2.460
 5523TIP3    H216576   1.774   5.723   2.417
 5524TIP3   OH216577   4.971   2.154   4.244
 5524TIP3    H116578   5.049   2.140   4.190
 5524TIP3    H216579   4.987   2.237   4.289
 5525TIP3   OH216580   6.014   4.638   2.743
 5525TIP3    H116581   5.990   4.607   2.656
 5525TIP3    H216582   6.105   4.669   2.733
 5526TIP3   OH216583   0.072   0.152   3.642
 5526TIP3    H116584   0.161   0.127   3.616
 5526TIP3    H216585   0.071   0.247   3.634
 5527TIP3   OH216586   1.510   0.942   3.196
 5527TIP3    H116587   1.605   0.930   3.198
 5527TIP3    H216588   1.477   0.861   3.157
 5528TIP3   OH216589   3.821   1.682   3.825
 5528TIP3    H116590   3.865   1.648   3.902
 5528TIP3    H216591   3.767   1.754   3.858
 5529TIP3   OH216592   5.158   5.592   1.032
 5529TIP3    H116593   5.159   5.508   1.076
 5529TIP3    H216594   5.068   5.603   1.000
 5530TIP3   OH216595   1.099   4.444   3.252
 5530TIP3    H116596   1.067   4.468   3.165
 5530TIP3    H216597   1.022   4.446   3.308
 5531TIP3   OH216598   3.592   0.493   3.568
 5531TIP3    H116599   3.574   0.563   3.505
 5531TIP3    H216600   3.602   0.539   3.652
 5532TIP3   OH216601   4.949   0.753   4.650
 5532TIP3    H116602   4.958   0.847   4.666
 5532TIP3    H216603   4.857   0.741   4.628
 5533TIP3   OH216604   6.089   3.150   2.303
 5533TIP3    H116605   6.091   3.240   2.272
 5533TIP3    H216606   6.179   3.132   2.331
 5534TIP3   OH216607   1.465   3.801   2.729
 5534TIP3    H116608   1.528   3.789   2.800
 5534TIP3    H216609   1.416   3.879   2.754
 5535TIP3   OH216610   1.960   1.189   1.921
 5535TIP3    H116611   2.020   1.183   1.847
 5535TIP3    H216612   1.880   1.146   1.892
 5536TIP3   OH216613   4.752   2.805   2.037
 5536TIP3    H116614   4.819   2.872   2.023
 5536TIP3    H216615   4.776   2.734   1.979
 5537TIP3   OH216616   4.102   4.854   0.154
 5537TIP3    H116617   4.147   4.903   0.085
 5537TIP3    H216618   4.009   4.864   0.134
 5538TIP3   OH216619   1.204   1.173   3.906
 5538TIP3    H116620   1.128   1.226   3.883
 5538TIP3    H216621   1.262   1.233   3.953
 5539TIP3   OH216622   4.728   4.588   4.197
 5539TIP3    H116623   4.722   4.680   4.223
 5539TIP3    H216624   4.640   4.565   4.169
 5540TIP3   OH216625   1.271   3.696   3.044
 5540TIP3    H116626   1.287   3.629   3.110
 5540TIP3    H216627   1.261   3.647   2.962
 5541TIP3   OH216628   4.738   4.635   1.160
 5541TIP3    H116629   4.809   4.581   1.196
 5541TIP3    H216630   4.659   4.584   1.177
 5542TIP3   OH216631   1.374   4.734   3.922
 5542TIP3    H116632   1.308   4.668   3.903
 5542TIP3    H216633   1.384   4.783   3.841
 5543TIP3   OH216634   5.381   4.497   0.400
 5543TIP3    H116635   5.453   4.559   0.413
 5543TIP3    H216636   5.424   4.419   0.365
 5544TIP3   OH216637   1.159   3.821   2.760
 5544TIP3    H116638   1.086   3.837   2.819
 5544TIP3    H216639   1.200   3.907   2.748
 5545TIP3   OH216640   1.405   0.061   1.325
 5545TIP3    H116641   1.343   0.131   1.342
 5545TIP3    H216642   1.397   0.043   1.231
 5546TIP3   OH216643   0.465   0.119   0.771
 5546TIP3    H116644   0.379   0.150   0.742
 5546TIP3    H216645   0.447   0.070   0.851
 5547TIP3   OH216646   6.032   2.489   4.843
 5547TIP3    H116647   6.111   2.520   4.799
 5547TIP3    H216648   5.980   2.448   4.774
 5548TIP3   OH216649   5.210   4.877   1.989
 5548TIP3    H116650   5.278   4.841   2.045
 5548TIP3    H216651   5.133   4.822   2.006
 5549TIP3   OH216652   4.816   2.602   0.606
 5549TIP3    H116653   4.795   2.629   0.695
 5549TIP3    H216654   4.742   2.546   0.579
 5550TIP3   OH216655   2.030   2.475   2.628
 5550TIP3    H116656   2.000   2.565   2.624
 5550TIP3    H216657   2.028   2.445   2.537
 5551TIP3   OH216658   3.278   2.461   3.221
 5551TIP3    H116659   3.256   2.463   3.315
 5551TIP3    H216660   3.279   2.368   3.199
 5552TIP3   OH216661   6.286   2.134   3.376
 5552TIP3    H116662   6.371   2.166   3.346
 5552TIP3    H216663   6.223   2.172   3.314
 5553TIP3   OH216664   3.500   4.774   1.011
 5553TIP3    H116665   3.416   4.804   1.046
 5553TIP3    H216666   3.513   4.688   1.052
 5554TIP3   OH216667   2.057   0.533   4.195
 5554TIP3    H116668   2.021   0.542   4.106
 5554TIP3    H216669   2.042   0.441   4.218
 5555TIP3   OH216670   5.847   1.834   5.185
 5555TIP3    H116671   5.814   1.752   5.220
 5555TIP3    H216672   5.893   1.809   5.105
 5556TIP3   OH216673   1.911   2.482   3.532
 5556TIP3    H116674   1.963   2.471   3.611
 5556TIP3    H216675   1.932   2.570   3.501
 5557TIP3   OH216676   4.487   2.730   2.925
 5557TIP3    H116677   4.422   2.800   2.933
 5557TIP3    H216678   4.456   2.661   2.982
 5558TIP3   OH216679   4.543   5.467   2.627
 5558TIP3    H116680   4.580   5.466   2.539
 5558TIP3    H216681   4.612   5.430   2.683
 5559TIP3   OH216682   4.978   4.284   0.301
 5559TIP3    H116683   4.921   4.236   0.361
 5559TIP3    H216684   5.025   4.345   0.357
 5560TIP3   OH216685   5.691   3.076   0.468
 5560TIP3    H116686   5.601   3.043   0.467
 5560TIP3    H216687   5.691   3.143   0.536
 5561TIP3   OH216688   4.619   2.022   1.730
 5561TIP3    H116689   4.550   2.010   1.664
 5561TIP3    H216690   4.693   2.059   1.680
 5562TIP3   OH216691   2.996   4.104   2.165
 5562TIP3    H116692   2.990   4.030   2.225
 5562TIP3    H216693   3.079   4.090   2.119
 5563TIP3   OH216694   2.561   5.579   1.043
 5563TIP3    H116695   2.478   5.595   0.999
 5563TIP3    H216696   2.598   5.504   0.996
 5564TIP3   OH216697   4.053   4.238   4.230
 5564TIP3    H116698   4.084   4.246   4.320
 5564TIP3    H216699   4.000   4.159   4.229
 5565TIP3   OH216700   3.600   3.217   3.869
 5565TIP3    H116701   3.602   3.265   3.786
 5565TIP3    H216702   3.535   3.263   3.922
 5566TIP3   OH216703   3.219   4.785   2.512
 5566TIP3    H116704   3.243   4.867   2.555
 5566TIP3    H216705   3.269   4.785   2.431
 5567TIP3   OH216706   2.686   4.620   2.100
 5567TIP3    H116707   2.706   4.710   2.125
 5567TIP3    H216708   2.771   4.584   2.073
 5568TIP3   OH216709   1.102   0.438   3.980
 5568TIP3    H116710   1.164   0.501   4.016
 5568TIP3    H216711   1.111   0.447   3.885
 5569TIP3   OH216712   4.668   1.813   0.285
 5569TIP3    H116713   4.761   1.801   0.304
 5569TIP3    H216714   4.647   1.899   0.322
 5570TIP3   OH216715   2.271   5.322   2.130
 5570TIP3    H116716   2.249   5.229   2.135
 5570TIP3    H216717   2.288   5.348   2.220
 5571TIP3   OH216718   1.891   2.648   2.854
 5571TIP3    H116719   1.880   2.646   2.759
 5571TIP3    H216720   1.816   2.599   2.888
 5572TIP3   OH216721   0.171   3.078   5.163
 5572TIP3    H116722   0.248   3.123   5.130
 5572TIP3    H216723   0.127   3.044   5.084
 5573TIP3   OH216724   6.037   1.463   0.588
 5573TIP3    H116725   5.954   1.418   0.595
 5573TIP3    H216726   6.024   1.546   0.635
 5574TIP3   OH216727   3.116   3.649   3.011
 5574TIP3    H116728   3.106   3.554   3.017
 5574TIP3    H216729   3.156   3.664   2.926
 5575TIP3   OH216730   2.661   2.630   1.114
 5575TIP3    H116731   2.718   2.600   1.044
 5575TIP3    H216732   2.574   2.632   1.074
 5576TIP3   OH216733   2.571   4.461   0.228
 5576TIP3    H116734   2.628   4.386   0.206
 5576TIP3    H216735   2.483   4.430   0.208
 5577TIP3   OH216736   4.454   0.262   0.257
 5577TIP3    H116737   4.446   0.190   0.194
 5577TIP3    H216738   4.371   0.261   0.304
 5578TIP3   OH216739   1.027   3.001   2.606
 5578TIP3    H116740   0.963   3.030   2.671
 5578TIP3    H216741   1.110   3.040   2.634
 5579TIP3   OH216742   5.477   3.064   3.142
 5579TIP3    H116743   5.460   2.970   3.139
 5579TIP3    H216744   5.503   3.082   3.232
 5580TIP3   OH216745   2.189   0.575   2.050
 5580TIP3    H116746   2.134   0.572   1.971
 5580TIP3    H216747   2.163   0.656   2.094
 5581TIP3   OH216748   0.090   2.098   2.390
 5581TIP3    H116749   0.022   2.035   2.365
 5581TIP3    H216750   0.084   2.103   2.485
 5582TIP3   OH216751   3.379   2.451   2.764
 5582TIP3    H116752   3.354   2.361   2.782
 5582TIP3    H216753   3.468   2.444   2.729
 5583TIP3   OH216754   6.222   4.637   0.023
 5583TIP3    H116755   6.136   4.671   0.050
 5583TIP3    H216756   6.261   4.604   0.104
 5584TIP3   OH216757   3.609   1.701   1.130
 5584TIP3    H116758   3.598   1.754   1.052
 5584TIP3    H216759   3.590   1.612   1.101
 5585TIP3   OH216760   2.450   3.192   4.994
 5585TIP3    H116761   2.410   3.267   5.037
 5585TIP3    H216762   2.401   3.181   4.913
 5586TIP3   OH216763   2.727   5.775   5.028
 5586TIP3    H116764   2.693   5.863   5.016
 5586TIP3    H216765   2.797   5.784   5.093
 5587TIP3   OH216766   0.955   3.734   2.078
 5587TIP3    H116767   0.931   3.806   2.136
 5587TIP3    H216768   1.048   3.719   2.096
 5588TIP3   OH216769   0.685   1.855   3.718
 5588TIP3    H116770   0.596   1.821   3.705
 5588TIP3    H216771   0.700   1.911   3.642
 5589TIP3   OH216772   0.605   5.883   3.671
 5589TIP3    H116773   0.599   5.946   3.599
 5589TIP3    H216774   0.693   5.847   3.663
 5590TIP3   OH216775   2.684   3.154   2.656
 5590TIP3    H116776   2.732   3.206   2.591
 5590TIP3    H216777   2.731   3.167   2.737
 5591TIP3   OH216778   1.171   4.216   3.752
 5591TIP3    H116779   1.142   4.157   3.821
 5591TIP3    H216780   1.267   4.216   3.759
 5592TIP3   OH216781   2.961   0.154   3.002
 5592TIP3    H116782   3.018   0.123   2.931
 5592TIP3    H216783   2.924   0.235   2.969
 5593TIP3   OH216784   0.165   0.552   3.851
 5593TIP3    H116785   0.207   0.564   3.765
 5593TIP3    H216786   0.074   0.531   3.831
 5594TIP3   OH216787   5.090   0.950   0.014
 5594TIP3    H116788   5.070   0.857  -0.001
 5594TIP3    H216789   5.186   0.954   0.019
 5595TIP3   OH216790   1.414   4.603   0.163
 5595TIP3    H116791   1.392   4.563   0.079
 5595TIP3    H216792   1.478   4.543   0.203
 5596TIP3   OH216793   4.310   2.702   2.272
 5596TIP3    H116794   4.222   2.726   2.300
 5596TIP3    H216795   4.302   2.612   2.241
 5597TIP3   OH216796   3.786   5.031   4.427
 5597TIP3    H116797   3.784   4.936   4.421
 5597TIP3    H216798   3.850   5.058   4.361
 5598TIP3   OH216799   4.631   3.246   3.941
 5598TIP3    H116800   4.580   3.265   4.021
 5598TIP3    H216801   4.660   3.332   3.911
 5599TIP3   OH216802   4.116   1.573   2.801
 5599TIP3    H116803   4.095   1.481   2.789
 5599TIP3    H216804   4.155   1.578   2.888
 5600TIP3   OH216805   1.473   5.404   1.261
 5600TIP3    H116806   1.408   5.381   1.328
 5600TIP3    H216807   1.435   5.479   1.216
 5601TIP3   OH216808   2.481   1.501   4.794
 5601TIP3    H116809   2.455   1.505   4.702
 5601TIP3    H216810   2.575   1.488   4.792
 5602TIP3   OH216811   2.790   2.256   4.974
 5602TIP3    H116812   2.822   2.263   5.063
 5602TIP3    H216813   2.769   2.346   4.949
 5603TIP3   OH216814   2.463   4.596   3.705
 5603TIP3    H116815   2.484   4.574   3.796
 5603TIP3    H216816   2.521   4.669   3.684
 5604TIP3   OH216817   3.208   1.237   3.264
 5604TIP3    H116818   3.285   1.180   3.264
 5604TIP3    H216819   3.166   1.222   3.180
 5605TIP3   OH216820   1.837   1.820   0.844
 5605TIP3    H116821   1.775   1.859   0.783
 5605TIP3    H216822   1.877   1.748   0.795
 5606TIP3   OH216823   0.736   2.135   2.037
 5606TIP3    H116824   0.647   2.111   2.011
 5606TIP3    H216825   0.778   2.052   2.059
 5607TIP3   OH216826   5.945   2.211   4.897
 5607TIP3    H116827   6.031   2.174   4.877
 5607TIP3    H216828   5.954   2.305   4.880
 5608TIP3   OH216829   4.512   0.090   3.504
 5608TIP3    H116830   4.434   0.061   3.458
 5608TIP3    H216831   4.483   0.108   3.593
 5609TIP3   OH216832   3.896   1.331   4.840
 5609TIP3    H116833   3.941   1.332   4.924
 5609TIP3    H216834   3.805   1.311   4.862
 5610TIP3   OH216835   2.605   4.807   0.971
 5610TIP3    H116836   2.700   4.814   0.964
 5610TIP3    H216837   2.590   4.761   1.053
 5611TIP3   OH216838   3.507   2.772   4.877
 5611TIP3    H116839   3.598   2.797   4.859
 5611TIP3    H216840   3.464   2.854   4.903
 5612TIP3   OH216841   0.822   2.620   4.471
 5612TIP3    H116842   0.909   2.592   4.442
 5612TIP3    H216843   0.836   2.706   4.510
 5613TIP3   OH216844   0.619   4.936   5.170
 5613TIP3    H116845   0.572   4.987   5.236
 5613TIP3    H216846   0.665   5.001   5.117
 5614TIP3   OH216847   2.288   1.443   3.684
 5614TIP3    H116848   2.383   1.452   3.677
 5614TIP3    H216849   2.254   1.486   3.605
 5615TIP3   OH216850   1.047   2.020   3.270
 5615TIP3    H116851   1.129   2.042   3.314
 5615TIP3    H216852   1.075   1.981   3.187
 5616TIP3   OH216853   6.232   1.711   2.271
 5616TIP3    H116854   6.289   1.783   2.246
 5616TIP3    H216855   6.153   1.753   2.306
 5617TIP3   OH216856   4.829   1.754   1.139
 5617TIP3    H116857   4.818   1.838   1.185
 5617TIP3    H216858   4.878   1.777   1.060
 5618TIP3   OH216859   1.967   4.366   5.068
 5618TIP3    H116860   1.900   4.415   5.115
 5618TIP3    H216861   2.045   4.373   5.122
 5619TIP3   OH216862   6.088   3.021   1.769
 5619TIP3    H116863   6.047   3.105   1.788
 5619TIP3    H216864   6.138   3.000   1.848
 5620TIP3   OH216865   6.071   3.732   4.354
 5620TIP3    H116866   6.128   3.673   4.306
 5620TIP3    H216867   6.113   3.818   4.345
 5621TIP3   OH216868   6.181   2.911   4.802
 5621TIP3    H116869   6.099   2.960   4.788
 5621TIP3    H216870   6.155   2.839   4.860
 5622TIP3   OH216871   1.381   5.462   0.531
 5622TIP3    H116872   1.376   5.384   0.588
 5622TIP3    H216873   1.315   5.447   0.464
 5623TIP3   OH216874   3.557   2.672   2.754
 5623TIP3    H116875   3.586   2.669   2.663
 5623TIP3    H216876   3.464   2.649   2.750
 5624TIP3   OH216877   0.875   5.030   4.874
 5624TIP3    H116878   0.806   4.969   4.848
 5624TIP3    H216879   0.867   5.103   4.812
 5625TIP3   OH216880   2.867   4.771   4.649
 5625TIP3    H116881   2.898   4.682   4.634
 5625TIP3    H216882   2.795   4.781   4.587
 5626TIP3   OH216883   5.304   3.867   1.036
 5626TIP3    H116884   5.261   3.949   1.011
 5626TIP3    H216885   5.327   3.878   1.128
 5627TIP3   OH216886   1.727   2.711   0.186
 5627TIP3    H116887   1.654   2.653   0.164
 5627TIP3    H216888   1.805   2.656   0.182
 5628TIP3   OH216889   1.431   3.999   1.910
 5628TIP3    H116890   1.437   4.076   1.966
 5628TIP3    H216891   1.369   4.024   1.841
 5629TIP3   OH216892   3.170   3.069   1.256
 5629TIP3    H116893   3.240   3.075   1.321
 5629TIP3    H216894   3.128   3.155   1.258
 5630TIP3   OH216895   2.534   3.808   0.092
 5630TIP3    H116896   2.454   3.761   0.117
 5630TIP3    H216897   2.555   3.860   0.170
 5631TIP3   OH216898   3.367   2.139   5.081
 5631TIP3    H116899   3.399   2.204   5.144
 5631TIP3    H216900   3.339   2.191   5.005
 5632TIP3   OH216901   5.730   3.938   0.507
 5632TIP3    H116902   5.643   3.949   0.545
 5632TIP3    H216903   5.751   4.024   0.470
 5633TIP3   OH216904   2.270   1.243   4.728
 5633TIP3    H116905   2.353   1.228   4.684
 5633TIP3    H216906   2.288   1.311   4.793
 5634TIP3   OH216907   0.651   1.525   4.994
 5634TIP3    H116908   0.680   1.454   4.937
 5634TIP3    H216909   0.604   1.585   4.936
 5635TIP3   OH216910   5.039   3.227   2.324
 5635TIP3    H116911   5.115   3.172   2.344
 5635TIP3    H216912   4.995   3.181   2.252
 5636TIP3   OH216913   3.317   2.678   2.464
 5636TIP3    H116914   3.359   2.596   2.490
 5636TIP3    H216915   3.386   2.727   2.419
 5637TIP3   OH216916   0.691   1.547   3.609
 5637TIP3    H116917   0.632   1.621   3.618
 5637TIP3    H216918   0.634   1.476   3.578
 5638TIP3   OH216919   3.854   5.619   3.662
 5638TIP3    H116920   3.761   5.604   3.647
 5638TIP3    H216921   3.864   5.714   3.662
 5639TIP3   OH216922   0.220   2.465   0.835
 5639TIP3    H116923   0.246   2.394   0.776
 5639TIP3    H216924   0.124   2.463   0.833
 5640TIP3   OH216925   0.354   1.939   2.936
 5640TIP3    H116926   0.391   1.937   3.024
 5640TIP3    H216927   0.355   2.031   2.912
 5641TIP3   OH216928   0.467   3.550   0.724
 5641TIP3    H116929   0.511   3.629   0.693
 5641TIP3    H216930   0.402   3.530   0.656
 5642TIP3   OH216931   4.002   5.135   4.266
 5642TIP3    H116932   4.067   5.127   4.197
 5642TIP3    H216933   3.937   5.196   4.231
 5643TIP3   OH216934   2.752   0.803   0.984
 5643TIP3    H116935   2.761   0.747   1.061
 5643TIP3    H216936   2.773   0.746   0.910
 5644TIP3   OH216937   3.859   4.630   3.340
 5644TIP3    H116938   3.788   4.687   3.309
 5644TIP3    H216939   3.939   4.672   3.309
 5645TIP3   OH216940   3.508   4.685   4.284
 5645TIP3    H116941   3.513   4.647   4.371
 5645TIP3    H216942   3.585   4.650   4.238
 5646TIP3   OH216943   3.467   5.776   2.446
 5646TIP3    H116944   3.544   5.721   2.462
 5646TIP3    H216945   3.430   5.743   2.364
 5647TIP3   OH216946   4.917   3.373   5.143
 5647TIP3    H116947   4.837   3.341   5.102
 5647TIP3    H216948   4.924   3.323   5.224
 5648TIP3   OH216949   0.237   3.493   3.446
 5648TIP3    H116950   0.183   3.502   3.524
 5648TIP3    H216951   0.184   3.442   3.386
 5649TIP3   OH216952   2.009   1.856   2.618
 5649TIP3    H116953   2.047   1.796   2.682
 5649TIP3    H216954   1.915   1.842   2.624
 5650TIP3   OH216955   0.596   2.476   4.186
 5650TIP3    H116956   0.667   2.413   4.197
 5650TIP3    H216957   0.638   2.561   4.191
 5651TIP3   OH216958   1.542   4.591   1.279
 5651TIP3    H116959   1.477   4.617   1.214
 5651TIP3    H216960   1.594   4.524   1.235
 5652TIP3   OH216961   1.191   2.143   2.685
 5652TIP3    H116962   1.123   2.202   2.719
 5652TIP3    H216963   1.213   2.086   2.758
 5653TIP3   OH216964   1.237   5.371   3.548
 5653TIP3    H116965   1.170   5.326   3.599
 5653TIP3    H216966   1.319   5.352   3.593
 5654TIP3   OH216967   0.499   2.111   1.931
 5654TIP3    H116968   0.484   2.018   1.916
 5654TIP3    H216969   0.512   2.148   1.843
 5655TIP3   OH216970   3.299   0.774   4.261
 5655TIP3    H116971   3.319   0.827   4.184
 5655TIP3    H216972   3.360   0.700   4.255
 5656TIP3   OH216973   3.284   3.670   3.243
 5656TIP3    H116974   3.314   3.761   3.244
 5656TIP3    H216975   3.227   3.664   3.166
 5657TIP3   OH216976   6.221   0.553   5.066
 5657TIP3    H116977   6.254   0.643   5.063
 5657TIP3    H216978   6.145   0.557   5.125
 5658TIP3   OH216979   1.729   2.330   3.682
 5658TIP3    H116980   1.761   2.390   3.615
 5658TIP3    H216981   1.654   2.375   3.720
 5659TIP3   OH216982   6.004   2.509   5.174
 5659TIP3    H116983   5.920   2.463   5.168
 5659TIP3    H216984   6.066   2.452   5.128
 5660TIP3   OH216985   4.226   0.822   2.160
 5660TIP3    H116986   4.165   0.882   2.203
 5660TIP3    H216987   4.171   0.749   2.131
 5661TIP3   OH216988   2.786   1.292   1.572
 5661TIP3    H116989   2.803   1.228   1.503
 5661TIP3    H216990   2.834   1.260   1.647
 5662TIP3   OH216991   0.258   1.835   4.753
 5662TIP3    H116992   0.179   1.784   4.740
 5662TIP3    H216993   0.267   1.886   4.672
 5663TIP3   OH216994   6.129   0.500   1.157
 5663TIP3    H116995   6.170   0.559   1.094
 5663TIP3    H216996   6.090   0.558   1.223
 5664TIP3   OH216997   5.483   2.747   3.132
 5664TIP3    H116998   5.417   2.767   3.065
 5664TIP3    H216999   5.474   2.653   3.147
 5665TIP3   OH217000   3.108   5.943   0.376
 5665TIP3    H117001   3.014   5.962   0.384
 5665TIP3    H217002   3.139   5.935   0.466
 5666TIP3   OH217003   1.046   2.215   3.899
 5666TIP3    H117004   1.035   2.124   3.872
 5666TIP3    H217005   0.997   2.222   3.981
 5667TIP3   OH217006   3.147   1.177   2.648
 5667TIP3    H117007   3.117   1.093   2.611
 5667TIP3    H217008   3.243   1.173   2.638
 5668TIP3   OH217009   5.462   2.222   1.700
 5668TIP3    H117010   5.480   2.131   1.674
 5668TIP3    H217011   5.383   2.216   1.754
 5669TIP3   OH217012   4.266   1.930   0.965
 5669TIP3    H117013   4.316   1.879   1.029
 5669TIP3    H217014   4.323   2.004   0.944
 5670TIP3   OH217015   2.976   5.130   2.508
 5670TIP3    H117016   3.017   5.191   2.569
 5670TIP3    H217017   2.914   5.080   2.561
 5671TIP3   OH217018   2.940   4.441   2.352
 5671TIP3    H117019   3.001   4.372   2.376
 5671TIP3    H217020   2.854   4.407   2.376
 5672TIP3   OH217021   3.832   4.578   1.327
 5672TIP3    H117022   3.849   4.494   1.370
 5672TIP3    H217023   3.911   4.595   1.276
 5673TIP3   OH217024   1.132   2.017   2.447
 5673TIP3    H117025   1.122   2.064   2.530
 5673TIP3    H217026   1.169   1.933   2.472
 5674TIP3   OH217027   1.099   3.094   0.975
 5674TIP3    H117028   1.137   3.105   0.888
 5674TIP3    H217029   1.174   3.077   1.032
 5675TIP3   OH217030   2.956   0.118   3.531
 5675TIP3    H117031   2.920   0.153   3.450
 5675TIP3    H217032   3.042   0.084   3.506
 5676TIP3   OH217033   4.926   0.570   3.163
 5676TIP3    H117034   4.938   0.648   3.108
 5676TIP3    H217035   5.006   0.566   3.216
 5677TIP3   OH217036   5.363   1.252   3.940
 5677TIP3    H117037   5.318   1.333   3.961
 5677TIP3    H217038   5.438   1.251   3.999
 5678TIP3   OH217039   5.782   5.875   4.476
 5678TIP3    H117040   5.711   5.938   4.467
 5678TIP3    H217041   5.855   5.925   4.514
 5679TIP3   OH217042   1.616   3.237   4.296
 5679TIP3    H117043   1.529   3.253   4.332
 5679TIP3    H217044   1.676   3.261   4.367
 5680TIP3   OH217045   5.227   3.013   1.906
 5680TIP3    H117046   5.311   3.057   1.896
 5680TIP3    H217047   5.248   2.931   1.951
 5681TIP3   OH217048   1.446   4.515   4.160
 5681TIP3    H117049   1.379   4.581   4.174
 5681TIP3    H217050   1.503   4.552   4.093
 5682TIP3   OH217051   2.663   1.849   2.467
 5682TIP3    H117052   2.705   1.785   2.524
 5682TIP3    H217053   2.589   1.882   2.517
 5683TIP3   OH217054   1.222   4.630   4.339
 5683TIP3    H117055   1.263   4.717   4.344
 5683TIP3    H217056   1.270   4.578   4.403
 5684TIP3   OH217057   0.904   0.543   4.470
 5684TIP3    H117058   0.981   0.485   4.470
 5684TIP3    H217059   0.939   0.630   4.451
 5685TIP3   OH217060   4.643   1.932   4.534
 5685TIP3    H117061   4.645   1.872   4.608
 5685TIP3    H217062   4.590   1.887   4.468
 5686TIP3   OH217063   5.583   5.325   3.548
 5686TIP3    H117064   5.643   5.260   3.513
 5686TIP3    H217065   5.497   5.284   3.542
 5687TIP3   OH217066   0.087   0.647   3.029
 5687TIP3    H117067   0.132   0.703   3.092
 5687TIP3    H217068   0.068   0.567   3.078
 5688TIP3   OH217069   6.360   5.179   1.383
 5688TIP3    H117070   6.330   5.089   1.392
 5688TIP3    H217071   6.330   5.223   1.462
 5689TIP3   OH217072   1.847   4.213   4.883
 5689TIP3    H117073   1.781   4.277   4.852
 5689TIP3    H217074   1.888   4.256   4.958
 5690TIP3   OH217075   0.868   3.717   1.119
 5690TIP3    H117076   0.954   3.748   1.090
 5690TIP3    H217077   0.821   3.797   1.145
 5691TIP3   OH217078   5.165   1.809   2.836
 5691TIP3    H117079   5.138   1.900   2.850
 5691TIP3    H217080   5.248   1.816   2.789
 5692TIP3   OH217081   3.578   3.846   3.314
 5692TIP3    H117082   3.669   3.868   3.294
 5692TIP3    H217083   3.528   3.924   3.292
 5693TIP3   OH217084   6.127   2.648   0.133
 5693TIP3    H117085   6.092   2.603   0.210
 5693TIP3    H217086   6.161   2.731   0.167
 5694TIP3   OH217087   1.513   0.656   1.300
 5694TIP3    H117088   1.528   0.684   1.391
 5694TIP3    H217089   1.575   0.707   1.249
 5695TIP3   OH217090   2.529   5.474   2.321
 5695TIP3    H117091   2.560   5.446   2.235
 5695TIP3    H217092   2.441   5.437   2.329
 5696TIP3   OH217093   2.234   4.394   3.069
 5696TIP3    H117094   2.262   4.476   3.030
 5696TIP3    H217095   2.214   4.337   2.995
 5697TIP3   OH217096   4.949   1.160   3.391
 5697TIP3    H117097   4.921   1.110   3.314
 5697TIP3    H217098   4.888   1.233   3.396
 5698TIP3   OH217099   0.439   0.906   3.916
 5698TIP3    H117100   0.476   0.985   3.877
 5698TIP3    H217101   0.448   0.839   3.847
 5699TIP3   OH217102   4.175   1.191   3.065
 5699TIP3    H117103   4.206   1.101   3.075
 5699TIP3    H217104   4.224   1.242   3.129
 5700TIP3   OH217105   3.785   4.689   3.874
 5700TIP3    H117106   3.777   4.693   3.778
 5700TIP3    H217107   3.823   4.603   3.891
 5701TIP3   OH217108   2.568   2.451   2.588
 5701TIP3    H117109   2.507   2.492   2.649
 5701TIP3    H217110   2.654   2.472   2.624
 5702TIP3   OH217111   0.488   4.145   0.112
 5702TIP3    H117112   0.419   4.183   0.058
 5702TIP3    H217113   0.483   4.051   0.094
 5703TIP3   OH217114   5.396   2.311   4.182
 5703TIP3    H117115   5.477   2.318   4.232
 5703TIP3    H217116   5.356   2.230   4.212
 5704TIP3   OH217117   5.038   2.877   1.737
 5704TIP3    H117118   5.062   2.950   1.794
 5704TIP3    H217119   5.121   2.845   1.702
 5705TIP3   OH217120   0.465   2.849   4.794
 5705TIP3    H117121   0.388   2.867   4.848
 5705TIP3    H217122   0.442   2.882   4.707
 5706TIP3   OH217123   0.482   2.885   1.944
 5706TIP3    H117124   0.436   2.927   1.872
 5706TIP3    H217125   0.549   2.948   1.970
 5707TIP3   OH217126   2.938   4.954   4.270
 5707TIP3    H117127   2.862   5.002   4.302
 5707TIP3    H217128   2.968   5.003   4.194
 5708TIP3   OH217129   6.295   1.156   3.376
 5708TIP3    H117130   6.253   1.081   3.333
 5708TIP3    H217131   6.271   1.147   3.468
 5709TIP3   OH217132   5.575   0.645   4.544
 5709TIP3    H117133   5.669   0.657   4.561
 5709TIP3    H217134   5.531   0.688   4.617
 5710TIP3   OH217135   3.810   1.345   4.211
 5710TIP3    H117136   3.904   1.352   4.192
 5710TIP3    H217137   3.805   1.329   4.305
 5711TIP3   OH217138   2.933   0.770   3.754
 5711TIP3    H117139   3.018   0.811   3.737
 5711TIP3    H217140   2.955   0.684   3.788
 5712TIP3   OH217141   0.511   0.225   0.179
 5712TIP3    H117142   0.425   0.258   0.154
 5712TIP3    H217143   0.511   0.133   0.153
 5713TIP3   OH217144   2.353   4.905   3.839
 5713TIP3    H117145   2.393   4.824   3.871
 5713TIP3    H217146   2.380   4.911   3.747
 5714TIP3   OH217147   0.086   2.430   1.238
 5714TIP3    H117148  -0.007   2.426   1.215
 5714TIP3    H217149   0.123   2.495   1.178
 5715TIP3   OH217150   0.152   3.023   3.086
 5715TIP3    H117151   0.124   3.044   3.175
 5715TIP3    H217152   0.243   2.993   3.096
 5716TIP3   OH217153   4.648   5.920   0.972
 5716TIP3    H117154   4.634   5.870   1.052
 5716TIP3    H217155   4.569   5.905   0.920
 5717TIP3   OH217156   5.257   4.147   1.506
 5717TIP3    H117157   5.271   4.063   1.549
 5717TIP3    H217158   5.225   4.123   1.419
 5718TIP3   OH217159   1.423   2.309   1.617
 5718TIP3    H117160   1.398   2.384   1.562
 5718TIP3    H217161   1.343   2.287   1.665
 5719TIP3   OH217162   4.846   3.887   2.622
 5719TIP3    H117163   4.879   3.817   2.566
 5719TIP3    H217164   4.776   3.846   2.673
 5720TIP3   OH217165   5.622   5.494   1.705
 5720TIP3    H117166   5.675   5.540   1.639
 5720TIP3    H217167   5.656   5.524   1.789
 5721TIP3   OH217168   6.145   5.152   2.437
 5721TIP3    H117169   6.186   5.151   2.350
 5721TIP3    H217170   6.124   5.244   2.453
 5722TIP3   OH217171   6.267   4.764   0.450
 5722TIP3    H117172   6.230   4.851   0.435
 5722TIP3    H217173   6.200   4.718   0.502
 5723TIP3   OH217174   4.799   1.380   3.481
 5723TIP3    H117175   4.716   1.336   3.501
 5723TIP3    H217176   4.804   1.452   3.545
 5724TIP3   OH217177   2.274   0.221   4.176
 5724TIP3    H117178   2.332   0.183   4.242
 5724TIP3    H217179   2.315   0.199   4.092
 5725TIP3   OH217180   3.185   0.122   2.073
 5725TIP3    H117181   3.209   0.124   1.980
 5725TIP3    H217182   3.213   0.207   2.106
 5726TIP3   OH217183   1.771   3.510   0.066
 5726TIP3    H117184   1.744   3.434   0.118
 5726TIP3    H217185   1.777   3.582   0.128
 5727TIP3   OH217186   4.823   3.027   2.303
 5727TIP3    H117187   4.759   3.097   2.317
 5727TIP3    H217188   4.795   2.985   2.222
 5728TIP3   OH217189   0.767   5.509   4.633
 5728TIP3    H117190   0.803   5.596   4.653
 5728TIP3    H217191   0.778   5.500   4.539
 5729TIP3   OH217192   3.570   3.480   4.694
 5729TIP3    H117193   3.580   3.459   4.602
 5729TIP3    H217194   3.597   3.401   4.740
 5730TIP3   OH217195   1.176   0.424   2.228
 5730TIP3    H117196   1.082   0.434   2.213
 5730TIP3    H217197   1.204   0.509   2.263
 5731TIP3   OH217198   6.302   1.929   1.517
 5731TIP3    H117199   6.263   1.842   1.525
 5731TIP3    H217200   6.301   1.965   1.606
 5732TIP3   OH217201   5.931   1.230   0.312
 5732TIP3    H117202   5.983   1.154   0.286
 5732TIP3    H217203   5.986   1.306   0.291
 5733TIP3   OH217204   0.049   2.404   3.359
 5733TIP3    H117205  -0.041   2.390   3.389
 5733TIP3    H217206   0.060   2.499   3.360
 5734TIP3   OH217207   2.626   0.701   4.560
 5734TIP3    H117208   2.686   0.763   4.519
 5734TIP3    H217209   2.634   0.717   4.654
 5735TIP3   OH217210   1.440   4.193   0.305
 5735TIP3    H117211   1.372   4.254   0.335
 5735TIP3    H217212   1.443   4.205   0.210
 5736TIP3   OH217213   4.257   4.968   2.078
 5736TIP3    H117214   4.203   4.929   2.148
 5736TIP3    H217215   4.205   4.957   1.999
 5737TIP3   OH217216   4.402   4.849   3.347
 5737TIP3    H117217   4.361   4.863   3.432
 5737TIP3    H217218   4.456   4.928   3.333
 5738TIP3   OH217219   2.930   3.369   3.265
 5738TIP3    H117220   2.851   3.413   3.233
 5738TIP3    H217221   2.938   3.400   3.355
 5739TIP3   OH217222   2.224   4.649   2.957
 5739TIP3    H117223   2.177   4.694   3.027
 5739TIP3    H217224   2.221   4.709   2.883
 5740TIP3   OH217225   5.448   4.524   4.085
 5740TIP3    H117226   5.497   4.455   4.041
 5740TIP3    H217227   5.515   4.584   4.120
 5741TIP3   OH217228   3.329   3.227   3.157
 5741TIP3    H117229   3.405   3.177   3.185
 5741TIP3    H217230   3.361   3.317   3.145
 5742TIP3   OH217231   3.425   3.659   5.186
 5742TIP3    H117232   3.383   3.603   5.122
 5742TIP3    H217233   3.400   3.621   5.271
 5743TIP3   OH217234   4.958   1.314   4.027
 5743TIP3    H117235   5.014   1.300   4.103
 5743TIP3    H217236   4.997   1.260   3.958
 5744TIP3   OH217237   3.049   3.214   4.201
 5744TIP3    H117238   3.084   3.184   4.285
 5744TIP3    H217239   3.090   3.157   4.136
 5745TIP3   OH217240   4.572   3.764   2.121
 5745TIP3    H117241   4.658   3.728   2.100
 5745TIP3    H217242   4.565   3.844   2.069
 5746TIP3   OH217243   3.521   1.356   1.830
 5746TIP3    H117244   3.607   1.389   1.857
 5746TIP3    H217245   3.532   1.331   1.739
 5747TIP3   OH217246   5.572   4.611   0.092
 5747TIP3    H117247   5.560   4.706   0.094
 5747TIP3    H217248   5.637   4.593   0.160
 5748TIP3   OH217249   3.573   1.390   1.246
 5748TIP3    H117250   3.581   1.308   1.197
 5748TIP3    H217251   3.663   1.423   1.251
 5749TIP3   OH217252   6.061   3.805   3.951
 5749TIP3    H117253   6.070   3.751   3.873
 5749TIP3    H217254   6.002   3.755   4.008
 5750TIP3   OH217255   2.939   3.461   4.188
 5750TIP3    H117256   2.989   3.386   4.222
 5750TIP3    H217257   2.848   3.441   4.209
 5751TIP3   OH217258   0.455   1.259   3.950
 5751TIP3    H117259   0.378   1.243   3.895
 5751TIP3    H217260   0.526   1.212   3.906
 5752TIP3   OH217261   3.005   4.548   4.542
 5752TIP3    H117262   2.942   4.479   4.523
 5752TIP3    H217263   3.020   4.592   4.458
 5753TIP3   OH217264   5.537   1.974   1.224
 5753TIP3    H117265   5.509   2.001   1.311
 5753TIP3    H217266   5.597   2.043   1.196
 5754TIP3   OH217267   2.011   4.643   4.550
 5754TIP3    H117268   2.097   4.660   4.512
 5754TIP3    H217269   1.997   4.549   4.537
 5755TIP3   OH217270   2.011   2.394   4.183
 5755TIP3    H117271   2.048   2.353   4.104
 5755TIP3    H217272   1.953   2.327   4.219
 5756TIP3   OH217273   0.063   4.625   1.138
 5756TIP3    H117274   0.084   4.647   1.229
 5756TIP3    H217275  -0.015   4.570   1.145
 5757TIP3   OH217276   0.543   2.417   3.423
 5757TIP3    H117277   0.627   2.380   3.449
 5757TIP3    H217278   0.526   2.378   3.337
 5758TIP3   OH217279   6.229   0.602   2.014
 5758TIP3    H117280   6.192   0.514   2.018
 5758TIP3    H217281   6.287   0.608   2.090
 5759TIP3   OH217282   0.503   5.176   0.692
 5759TIP3    H117283   0.468   5.244   0.634
 5759TIP3    H217284   0.476   5.093   0.651
 5760TIP3   OH217285   5.062   4.019   3.170
 5760TIP3    H117286   5.090   4.062   3.089
 5760TIP3    H217287   4.972   4.049   3.183
 5761TIP3   OH217288   3.465   0.282   3.456
 5761TIP3    H117289   3.521   0.350   3.493
 5761TIP3    H217290   3.522   0.236   3.394
 5762TIP3   OH217291   0.907   2.826   3.913
 5762TIP3    H117292   0.956   2.795   3.990
 5762TIP3    H217293   0.875   2.746   3.871
 5763TIP3   OH217294   0.993   5.849   2.052
 5763TIP3    H117295   1.026   5.938   2.068
 5763TIP3    H217296   0.898   5.859   2.051
 5764TIP3   OH217297   2.772   2.502   2.208
 5764TIP3    H117298   2.860   2.532   2.233
 5764TIP3    H217299   2.778   2.485   2.114
 5765TIP3   OH217300   1.005   3.305   1.784
 5765TIP3    H117301   0.972   3.245   1.852
 5765TIP3    H217302   1.086   3.340   1.820
 5766TIP3   OH217303   4.338   5.603   4.236
 5766TIP3    H117304   4.271   5.665   4.265
 5766TIP3    H217305   4.320   5.523   4.284
 5767TIP3   OH217306   0.179   2.569   3.624
 5767TIP3    H117307   0.152   2.481   3.598
 5767TIP3    H217308   0.231   2.556   3.703
 5768TIP3   OH217309   1.872   4.228   3.455
 5768TIP3    H117310   1.891   4.157   3.393
 5768TIP3    H217311   1.837   4.299   3.400
 5769TIP3   OH217312   6.340   4.466   0.538
 5769TIP3    H117313   6.372   4.444   0.625
 5769TIP3    H217314   6.251   4.497   0.552
 5770TIP3   OH217315   2.126   3.370   2.649
 5770TIP3    H117316   2.053   3.327   2.605
 5770TIP3    H217317   2.150   3.310   2.720
 5771TIP3   OH217318   4.437   1.237   4.477
 5771TIP3    H117319   4.472   1.303   4.416
 5771TIP3    H217320   4.453   1.274   4.564
 5772TIP3   OH217321   5.794   5.523   3.511
 5772TIP3    H117322   5.848   5.506   3.588
 5772TIP3    H217323   5.716   5.469   3.525
 5773TIP3   OH217324   6.140   1.417   3.982
 5773TIP3    H117325   6.197   1.473   4.035
 5773TIP3    H217326   6.111   1.349   4.043
 5774TIP3   OH217327   1.827   4.032   2.214
 5774TIP3    H117328   1.743   3.986   2.210
 5774TIP3    H217329   1.878   3.984   2.280
 5775TIP3   OH217330   3.638   3.891   4.347
 5775TIP3    H117331   3.679   3.805   4.358
 5775TIP3    H217332   3.593   3.886   4.263
 5776TIP3   OH217333   5.265   0.874   1.878
 5776TIP3    H117334   5.220   0.792   1.855
 5776TIP3    H217335   5.356   0.857   1.855
 5777TIP3   OH217336   6.138   3.563   3.083
 5777TIP3    H117337   6.112   3.578   3.174
 5777TIP3    H217338   6.109   3.474   3.064
 5778TIP3   OH217339   4.159   5.470   0.167
 5778TIP3    H117340   4.073   5.433   0.150
 5778TIP3    H217341   4.195   5.416   0.238
 5779TIP3   OH217342   3.450   4.793   2.867
 5779TIP3    H117343   3.516   4.851   2.907
 5779TIP3    H217344   3.452   4.816   2.774
 5780TIP3   OH217345   2.764   5.378   4.800
 5780TIP3    H117346   2.679   5.334   4.792
 5780TIP3    H217347   2.824   5.309   4.828
 5781TIP3   OH217348   4.332   3.292   2.994
 5781TIP3    H117349   4.383   3.358   3.042
 5781TIP3    H217350   4.387   3.270   2.918
 5782TIP3   OH217351   2.993   2.411   2.418
 5782TIP3    H117352   3.050   2.481   2.386
 5782TIP3    H217353   2.930   2.456   2.474
 5783TIP3   OH217354   1.675   5.965   1.376
 5783TIP3    H117355   1.637   6.052   1.387
 5783TIP3    H217356   1.605   5.914   1.336
 5784TIP3   OH217357   1.908   5.421   1.941
 5784TIP3    H117358   1.883   5.389   1.854
 5784TIP3    H217359   1.841   5.486   1.962
 5785TIP3   OH217360   2.373   0.402   1.591
 5785TIP3    H117361   2.429   0.390   1.515
 5785TIP3    H217362   2.425   0.454   1.652
 5786TIP3   OH217363   0.377   0.978   1.712
 5786TIP3    H117364   0.332   0.976   1.627
 5786TIP3    H217365   0.363   1.067   1.744
 5787TIP3   OH217366   1.703   0.731   1.891
 5787TIP3    H117367   1.654   0.652   1.868
 5787TIP3    H217368   1.672   0.798   1.830
 5788TIP3   OH217369   3.623   4.167   3.472
 5788TIP3    H117370   3.671   4.106   3.528
 5788TIP3    H217371   3.534   4.167   3.508
 5789TIP3   OH217372   3.921   0.405   2.709
 5789TIP3    H117373   3.903   0.311   2.702
 5789TIP3    H217374   4.005   0.417   2.665
 5790TIP3   OH217375   4.135   2.874   2.966
 5790TIP3    H117376   4.213   2.853   3.016
 5790TIP3    H217377   4.126   2.803   2.902
 5791TIP3   OH217378   2.832   5.435   2.362
 5791TIP3    H117379   2.884   5.357   2.380
 5791TIP3    H217380   2.825   5.479   2.447
 5792TIP3   OH217381   6.275   4.219   2.464
 5792TIP3    H117382   6.319   4.155   2.520
 5792TIP3    H217383   6.297   4.192   2.375
 5793TIP3   OH217384   4.039   2.651   2.360
 5793TIP3    H117385   3.981   2.699   2.419
 5793TIP3    H217386   4.038   2.561   2.393
 5794TIP3   OH217387   5.196  -0.020   4.240
 5794TIP3    H117388   5.243  -0.046   4.319
 5794TIP3    H217389   5.263   0.014   4.181
 5795TIP3   OH217390   4.996   2.060   0.274
 5795TIP3    H117391   4.949   2.131   0.231
 5795TIP3    H217392   5.027   2.005   0.201
 5796TIP3   OH217393   4.426   2.632   3.867
 5796TIP3    H117394   4.376   2.700   3.913
 5796TIP3    H217395   4.493   2.606   3.930
 5797TIP3   OH217396   3.923   5.195   3.089
 5797TIP3    H117397   3.888   5.160   3.171
 5797TIP3    H217398   4.004   5.239   3.115
 5798TIP3   OH217399   0.312   3.651   1.547
 5798TIP3    H117400   0.392   3.669   1.497
 5798TIP3    H217401   0.338   3.582   1.609
 5799TIP3   OH217402   0.754   5.831   0.610
 5799TIP3    H117403   0.684   5.774   0.642
 5799TIP3    H217404   0.748   5.909   0.666
 5800TIP3   OH217405   0.335   1.038   3.420
 5800TIP3    H117406   0.304   1.128   3.411
 5800TIP3    H217407   0.386   1.022   3.341
 5801TIP3   OH217408   4.565   1.784   4.300
 5801TIP3    H117409   4.584   1.715   4.236
 5801TIP3    H217410   4.486   1.826   4.266
 5802TIP3   OH217411   4.730   0.702   4.229
 5802TIP3    H117412   4.824   0.719   4.226
 5802TIP3    H217413   4.713   0.642   4.157
 5803TIP3   OH217414   5.789   3.703   1.890
 5803TIP3    H117415   5.793   3.756   1.970
 5803TIP3    H217416   5.879   3.704   1.857
 5804TIP3   OH217417   6.170   2.315   4.298
 5804TIP3    H117418   6.218   2.341   4.219
 5804TIP3    H217419   6.111   2.245   4.267
 5805TIP3   OH217420   4.062   4.810   3.281
 5805TIP3    H117421   4.146   4.765   3.288
 5805TIP3    H217422   4.071   4.868   3.206
 5806TIP3   OH217423   1.469   4.558   2.185
 5806TIP3    H117424   1.462   4.616   2.261
 5806TIP3    H217425   1.520   4.608   2.121
 5807TIP3   OH217426   3.944   1.903   1.207
 5807TIP3    H117427   3.891   1.941   1.137
 5807TIP3    H217428   3.880   1.877   1.273
 5808TIP3   OH217429   5.719   2.009   3.301
 5808TIP3    H117430   5.751   1.946   3.237
 5808TIP3    H217431   5.778   2.000   3.375
 5809TIP3   OH217432   4.776   0.506   3.776
 5809TIP3    H117433   4.756   0.427   3.725
 5809TIP3    H217434   4.824   0.562   3.716
 5810TIP3   OH217435   5.340   5.588   2.769
 5810TIP3    H117436   5.324   5.522   2.836
 5810TIP3    H217437   5.435   5.595   2.764
 5811TIP3   OH217438   2.969   0.909   2.033
 5811TIP3    H117439   3.049   0.952   2.065
 5811TIP3    H217440   2.966   0.931   1.940
 5812TIP3   OH217441   4.914   3.854   4.166
 5812TIP3    H117442   4.849   3.909   4.122
 5812TIP3    H217443   4.951   3.800   4.095
 5813TIP3   OH217444   4.657   4.253   0.964
 5813TIP3    H117445   4.633   4.239   1.055
 5813TIP3    H217446   4.593   4.317   0.932
 5814TIP3   OH217447   3.093   3.712   3.706
 5814TIP3    H117448   3.088   3.634   3.761
 5814TIP3    H217449   3.187   3.726   3.692
 5815TIP3   OH217450   3.660   2.192   1.431
 5815TIP3    H117451   3.568   2.202   1.406
 5815TIP3    H217452   3.661   2.211   1.525
 5816TIP3   OH217453   0.330   1.456   0.644
 5816TIP3    H117454   0.282   1.378   0.616
 5816TIP3    H217455   0.276   1.529   0.616
 5817TIP3   OH217456   3.452   0.765   0.041
 5817TIP3    H117457   3.499   0.739   0.121
 5817TIP3    H217458   3.385   0.826   0.073
 5818TIP3   OH217459   1.290   0.293   1.998
 5818TIP3    H117460   1.255   0.352   2.065
 5818TIP3    H217461   1.293   0.207   2.041
 5819TIP3   OH217462   5.467   1.187   2.424
 5819TIP3    H117463   5.560   1.179   2.406
 5819TIP3    H217464   5.453   1.135   2.503
 5820TIP3   OH217465   0.210   5.325   0.116
 5820TIP3    H117466   0.164   5.319   0.032
 5820TIP3    H217467   0.142   5.343   0.180
 5821TIP3   OH217468   5.442   2.751   3.416
 5821TIP3    H117469   5.460   2.772   3.324
 5821TIP3    H217470   5.369   2.689   3.412
 5822TIP3   OH217471   0.454   1.614   3.100
 5822TIP3    H117472   0.540   1.583   3.071
 5822TIP3    H217473   0.469   1.705   3.126
 5823TIP3   OH217474   6.087   1.870   3.259
 5823TIP3    H117475   6.155   1.903   3.201
 5823TIP3    H217476   6.130   1.861   3.344
 5824TIP3   OH217477   2.487   5.296   4.825
 5824TIP3    H117478   2.498   5.217   4.771
 5824TIP3    H217479   2.413   5.276   4.882
 5825TIP3   OH217480   6.272   1.945   3.046
 5825TIP3    H117481   6.327   2.016   3.080
 5825TIP3    H217482   6.334   1.883   3.008
 5826TIP3   OH217483   2.302   2.852   4.693
 5826TIP3    H117484   2.381   2.810   4.659
 5826TIP3    H217485   2.236   2.838   4.625
 5827TIP3   OH217486   1.065   5.136   2.986
 5827TIP3    H117487   0.974   5.164   2.998
 5827TIP3    H217488   1.073   5.057   3.040
 5828TIP3   OH217489   4.609   0.554   0.548
 5828TIP3    H117490   4.559   0.565   0.467
 5828TIP3    H217491   4.566   0.613   0.610
 5829TIP3   OH217492   1.699   4.367   1.181
 5829TIP3    H117493   1.662   4.283   1.153
 5829TIP3    H217494   1.709   4.358   1.276
 5830TIP3   OH217495   6.201   2.021   0.337
 5830TIP3    H117496   6.136   1.961   0.374
 5830TIP3    H217497   6.273   1.964   0.309
 5831TIP3   OH217498   5.837   2.310   2.284
 5831TIP3    H117499   5.921   2.270   2.310
 5831TIP3    H217500   5.804   2.252   2.215
 5832TIP3   OH217501   1.909   1.125   5.184
 5832TIP3    H117502   1.910   1.179   5.105
 5832TIP3    H217503   1.986   1.069   5.175
 5833TIP3   OH217504   1.999   4.732   0.644
 5833TIP3    H117505   2.031   4.693   0.563
 5833TIP3    H217506   1.905   4.742   0.631
 5834TIP3   OH217507   0.721   3.808   2.289
 5834TIP3    H117508   0.767   3.889   2.267
 5834TIP3    H217509   0.645   3.836   2.340
 5835TIP3   OH217510   3.752   4.839   4.897
 5835TIP3    H117511   3.793   4.921   4.872
 5835TIP3    H217512   3.665   4.864   4.930
 5836TIP3   OH217513   0.545   3.619   2.928
 5836TIP3    H117514   0.533   3.672   3.007
 5836TIP3    H217515   0.458   3.583   2.909
 5837TIP3   OH217516   3.999   1.886   2.708
 5837TIP3    H117517   4.065   1.884   2.778
 5837TIP3    H217518   4.020   1.811   2.653
 5838TIP3   OH217519   3.183   1.765   0.667
 5838TIP3    H117520   3.132   1.830   0.715
 5838TIP3    H217521   3.266   1.759   0.715
 5839TIP3   OH217522   1.715   3.724   0.849
 5839TIP3    H117523   1.802   3.685   0.857
 5839TIP3    H217524   1.661   3.674   0.911
 5840TIP3   OH217525   2.666   4.750   4.417
 5840TIP3    H117526   2.650   4.838   4.384
 5840TIP3    H217527   2.695   4.701   4.340
 5841TIP3   OH217528   6.093   4.534   0.610
 5841TIP3    H117529   6.039   4.602   0.651
 5841TIP3    H217530   6.053   4.452   0.638
 5842TIP3   OH217531   4.382   5.677   3.590
 5842TIP3    H117532   4.308   5.695   3.648
 5842TIP3    H217533   4.459   5.690   3.645
 5843TIP3   OH217534   2.415   1.529   4.544
 5843TIP3    H117535   2.389   1.570   4.462
 5843TIP3    H217536   2.422   1.435   4.523
 5844TIP3   OH217537   3.642   0.348   1.119
 5844TIP3    H117538   3.565   0.397   1.091
 5844TIP3    H217539   3.708   0.366   1.052
 5845TIP3   OH217540   3.806   1.939   1.920
 5845TIP3    H117541   3.856   1.873   1.969
 5845TIP3    H217542   3.873   1.992   1.876
 5846TIP3   OH217543   2.979   4.013   4.244
 5846TIP3    H117544   3.017   4.035   4.328
 5846TIP3    H217545   3.054   3.984   4.190
 5847TIP3   OH217546   4.459   4.932   2.261
 5847TIP3    H117547   4.388   4.918   2.198
 5847TIP3    H217548   4.485   5.024   2.248
 5848TIP3   OH217549   1.565   0.568   4.380
 5848TIP3    H117550   1.656   0.580   4.410
 5848TIP3    H217551   1.512   0.590   4.456
 5849TIP3   OH217552   0.500   4.021   2.466
 5849TIP3    H117553   0.510   4.105   2.421
 5849TIP3    H217554   0.518   4.042   2.558
 5850TIP3   OH217555   0.317   4.153   1.427
 5850TIP3    H117556   0.235   4.196   1.401
 5850TIP3    H217557   0.289   4.069   1.463
 5851TIP3   OH217558   2.770   5.118   0.729
 5851TIP3    H117559   2.824   5.182   0.682
 5851TIP3    H217560   2.824   5.040   0.735
 5852TIP3   OH217561   0.139   0.642   1.777
 5852TIP3    H117562   0.104   0.730   1.767
 5852TIP3    H217563   0.203   0.649   1.847
 5853TIP3   OH217564   3.304   1.041   1.277
 5853TIP3    H117565   3.312   1.088   1.193
 5853TIP3    H217566   3.218   1.000   1.273
 5854TIP3   OH217567   6.137   1.978   2.418
 5854TIP3    H117568   6.143   1.955   2.511
 5854TIP3    H217569   6.052   1.943   2.390
 5855TIP3   OH217570   0.878   4.294   2.401
 5855TIP3    H117571   0.785   4.282   2.422
 5855TIP3    H217572   0.899   4.221   2.342
 5856TIP3   OH217573   2.072   1.572   2.761
 5856TIP3    H117574   2.005   1.610   2.819
 5856TIP3    H217575   2.155   1.599   2.799
 5857TIP3   OH217576   1.825   5.365   3.345
 5857TIP3    H117577   1.791   5.450   3.375
 5857TIP3    H217578   1.920   5.373   3.355
 5858TIP3   OH217579   0.453   5.481   2.130
 5858TIP3    H117580   0.455   5.521   2.042
 5858TIP3    H217581   0.503   5.400   2.120
 5859TIP3   OH217582   5.570   0.514   4.307
 5859TIP3    H117583   5.590   0.561   4.389
 5859TIP3    H217584   5.476   0.523   4.296
 5860TIP3   OH217585   1.648   2.143   0.920
 5860TIP3    H117586   1.562   2.128   0.879
 5860TIP3    H217587   1.639   2.106   1.007
 5861TIP3   OH217588   4.910   2.767   0.416
 5861TIP3    H117589   4.867   2.698   0.466
 5861TIP3    H217590   4.886   2.848   0.462
 5862TIP3   OH217591   5.964   5.494   0.480
 5862TIP3    H117592   5.920   5.526   0.402
 5862TIP3    H217593   5.903   5.511   0.552
 5863TIP3   OH217594   4.188   2.302   0.340
 5863TIP3    H117595   4.243   2.295   0.417
 5863TIP3    H217596   4.231   2.247   0.274
 5864TIP3   OH217597   5.209   4.557   5.141
 5864TIP3    H117598   5.163   4.516   5.068
 5864TIP3    H217599   5.225   4.486   5.203
 5865TIP3   OH217600   2.409   3.719   0.331
 5865TIP3    H117601   2.504   3.716   0.338
 5865TIP3    H217602   2.383   3.785   0.395
 5866TIP3   OH217603   5.402   1.677   3.285
 5866TIP3    H117604   5.423   1.639   3.199
 5866TIP3    H217605   5.347   1.752   3.264
 5867TIP3   OH217606   4.618   5.565   3.387
 5867TIP3    H117607   4.612   5.645   3.440
 5867TIP3    H217608   4.668   5.592   3.310
 5868TIP3   OH217609   0.916  -0.001   5.005
 5868TIP3    H117610   0.884   0.010   5.094
 5868TIP3    H217611   0.847   0.035   4.950
 5869TIP3   OH217612   4.938   1.937   1.778
 5869TIP3    H117613   4.920   1.998   1.707
 5869TIP3    H217614   5.010   1.882   1.745
 5870TIP3   OH217615   5.264   5.105   0.696
 5870TIP3    H117616   5.194   5.160   0.730
 5870TIP3    H217617   5.233   5.016   0.707
 5871TIP3   OH217618   0.420   1.833   4.129
 5871TIP3    H117619   0.455   1.922   4.129
 5871TIP3    H217620   0.492   1.779   4.160
 5872TIP3   OH217621   4.904   4.627   0.597
 5872TIP3    H117622   4.875   4.579   0.520
 5872TIP3    H217623   4.831   4.622   0.658
 5873TIP3   OH217624   2.538   1.504   0.954
 5873TIP3    H117625   2.569   1.594   0.949
 5873TIP3    H217626   2.486   1.492   0.874
 5874TIP3   OH217627   4.959   2.081   4.765
 5874TIP3    H117628   4.978   2.070   4.858
 5874TIP3    H217629   5.037   2.047   4.721
 5875TIP3   OH217630   0.782   1.941   4.045
 5875TIP3    H117631   0.867   1.921   4.085
 5875TIP3    H217632   0.757   1.860   4.001
 5876TIP3   OH217633   1.079   1.059   5.045
 5876TIP3    H117634   1.004   1.116   5.034
 5876TIP3    H217635   1.099   1.028   4.956
 5877TIP3   OH217636   1.494   3.435   4.493
 5877TIP3    H117637   1.445   3.388   4.561
 5877TIP3    H217638   1.586   3.419   4.514
 5878TIP3   OH217639   3.468   1.709   4.889
 5878TIP3    H117640   3.511   1.626   4.907
 5878TIP3    H217641   3.380   1.698   4.924
 5879TIP3   OH217642   1.296   4.101   1.254
 5879TIP3    H117643   1.383   4.104   1.295
 5879TIP3    H217644   1.259   4.017   1.283
 5880TIP3   OH217645   0.078   0.385   5.094
 5880TIP3    H117646   0.086   0.370   5.188
 5880TIP3    H217647   0.010   0.451   5.087
 5881TIP3   OH217648   5.154   2.369   4.629
 5881TIP3    H117649   5.233   2.374   4.683
 5881TIP3    H217650   5.082   2.379   4.692
 5882TIP3   OH217651   2.181   1.646   1.367
 5882TIP3    H117652   2.222   1.696   1.297
 5882TIP3    H217653   2.158   1.711   1.433
 5883TIP3   OH217654   5.006   5.126   4.259
 5883TIP3    H117655   4.975   5.103   4.172
 5883TIP3    H217656   4.967   5.211   4.278
 5884TIP3   OH217657   0.175   2.901   0.868
 5884TIP3    H117658   0.232   2.960   0.917
 5884TIP3    H217659   0.100   2.956   0.843
 5885TIP3   OH217660   3.096   2.738   3.677
 5885TIP3    H117661   3.074   2.751   3.769
 5885TIP3    H217662   3.140   2.653   3.674
 5886TIP3   OH217663   0.988   2.635   0.268
 5886TIP3    H117664   1.035   2.648   0.350
 5886TIP3    H217665   0.899   2.610   0.295
 5887TIP3   OH217666   6.112   2.979   1.302
 5887TIP3    H117667   6.134   2.985   1.395
 5887TIP3    H217668   6.189   3.013   1.257
 5888TIP3   OH217669   4.039   3.597   4.963
 5888TIP3    H117670   4.123   3.587   4.919
 5888TIP3    H217671   3.985   3.647   4.902
 5889TIP3   OH217672   2.225   5.779   2.514
 5889TIP3    H117673   2.239   5.785   2.419
 5889TIP3    H217674   2.314   5.780   2.551
 5890TIP3   OH217675   3.464   1.637   3.721
 5890TIP3    H117676   3.376   1.631   3.682
 5890TIP3    H217677   3.458   1.586   3.801
 5891TIP3   OH217678   1.057   0.684   3.504
 5891TIP3    H117679   1.126   0.748   3.484
 5891TIP3    H217680   0.976   0.726   3.472
 5892TIP3   OH217681   5.322   3.039   1.231
 5892TIP3    H117682   5.285   3.079   1.152
 5892TIP3    H217683   5.246   3.018   1.285
 5893TIP3   OH217684   5.099   3.039   0.247
 5893TIP3    H117685   5.103   3.128   0.212
 5893TIP3    H217686   5.022   3.000   0.205
 5894TIP3   OH217687   4.004   1.201   2.080
 5894TIP3    H117688   3.952   1.164   2.008
 5894TIP3    H217689   4.029   1.125   2.132
 5895TIP3   OH217690   3.793   2.553   1.893
 5895TIP3    H117691   3.812   2.595   1.976
 5895TIP3    H217692   3.861   2.586   1.833
 5896TIP3   OH217693   3.817   5.604   2.643
 5896TIP3    H117694   3.883   5.593   2.711
 5896TIP3    H217695   3.867   5.612   2.562
 5897TIP3   OH217696   5.989   4.171   2.266
 5897TIP3    H117697   6.066   4.160   2.210
 5897TIP3    H217698   6.003   4.109   2.338
 5898TIP3   OH217699   1.175   4.294   5.137
 5898TIP3    H117700   1.155   4.223   5.075
 5898TIP3    H217701   1.219   4.250   5.210
 5899TIP3   OH217702   6.299   2.708   2.625
 5899TIP3    H117703   6.334   2.742   2.708
 5899TIP3    H217704   6.356   2.744   2.558
 5900TIP3   OH217705   0.913   0.028   2.885
 5900TIP3    H117706   0.975  -0.020   2.940
 5900TIP3    H217707   0.967   0.066   2.815
 5901TIP3   OH217708   1.458   2.451   5.056
 5901TIP3    H117709   1.479   2.366   5.095
 5901TIP3    H217710   1.526   2.463   4.989
 5902TIP3   OH217711   5.625   0.552   4.896
 5902TIP3    H117712   5.699   0.547   4.957
 5902TIP3    H217713   5.593   0.642   4.906
 5903TIP3   OH217714   0.589   1.898   2.332
 5903TIP3    H117715   0.601   1.913   2.238
 5903TIP3    H217716   0.677   1.906   2.369
 5904TIP3   OH217717   3.061   1.976   0.775
 5904TIP3    H117718   3.099   2.031   0.706
 5904TIP3    H217719   3.102   2.007   0.855
 5905TIP3   OH217720   5.287   1.416   4.667
 5905TIP3    H117721   5.365   1.362   4.679
 5905TIP3    H217722   5.240   1.410   4.750
 5906TIP3   OH217723   0.550   2.831   1.095
 5906TIP3    H117724   0.599   2.914   1.091
 5906TIP3    H217725   0.461   2.858   1.119
 5907TIP3   OH217726   0.109   0.559   4.284
 5907TIP3    H117727   0.137   0.478   4.326
 5907TIP3    H217728   0.181   0.581   4.225
 5908TIP3   OH217729   5.003   0.557   4.416
 5908TIP3    H117730   4.961   0.521   4.494
 5908TIP3    H217731   4.971   0.502   4.344
 5909TIP3   OH217732   0.169   4.494   2.678
 5909TIP3    H117733   0.203   4.578   2.707
 5909TIP3    H217734   0.197   4.487   2.587
 5910TIP3   OH217735   0.989   3.992   1.334
 5910TIP3    H117736   0.942   3.979   1.251
 5910TIP3    H217737   1.002   4.087   1.339
 5911TIP3   OH217738   1.138   1.772   3.674
 5911TIP3    H117739   1.160   1.797   3.584
 5911TIP3    H217740   1.080   1.697   3.665
 5912TIP3   OH217741   0.260   3.704   4.918
 5912TIP3    H117742   0.241   3.661   4.835
 5912TIP3    H217743   0.353   3.689   4.933
 5913TIP3   OH217744   2.179   3.814   3.417
 5913TIP3    H117745   2.214   3.728   3.439
 5913TIP3    H217746   2.089   3.813   3.449
 5914TIP3   OH217747   4.607   5.723   4.479
 5914TIP3    H117748   4.623   5.700   4.387
 5914TIP3    H217749   4.549   5.654   4.511
 5915TIP3   OH217750   1.739   0.382   5.160
 5915TIP3    H117751   1.817   0.437   5.149
 5915TIP3    H217752   1.752   0.338   5.244
 5916TIP3   OH217753   3.022   2.001   0.134
 5916TIP3    H117754   3.100   2.031   0.179
 5916TIP3    H217755   2.974   2.081   0.112
 5917TIP3   OH217756   2.830   4.226   4.058
 5917TIP3    H117757   2.870   4.273   4.132
 5917TIP3    H217758   2.794   4.146   4.098
 5918TIP3   OH217759   1.804   2.775   4.131
 5918TIP3    H117760   1.798   2.752   4.039
 5918TIP3    H217761   1.891   2.745   4.157
 5919TIP3   OH217762   4.735   4.016   1.957
 5919TIP3    H117763   4.734   4.093   2.014
 5919TIP3    H217764   4.826   3.986   1.959
 5920TIP3   OH217765   4.488   1.119   3.318
 5920TIP3    H117766   4.536   1.169   3.252
 5920TIP3    H217767   4.450   1.045   3.269
 5921TIP3   OH217768   2.913   5.218   2.035
 5921TIP3    H117769   2.853   5.161   2.083
 5921TIP3    H217770   2.897   5.306   2.070
 5922TIP3   OH217771   4.938   1.335   1.120
 5922TIP3    H117772   4.916   1.413   1.170
 5922TIP3    H217773   5.032   1.342   1.103
 5923TIP3   OH217774   0.063   0.703   2.474
 5923TIP3    H117775   0.040   0.666   2.559
 5923TIP3    H217776   0.144   0.659   2.449
 5924TIP3   OH217777   6.299   1.239   3.804
 5924TIP3    H117778   6.238   1.165   3.802
 5924TIP3    H217779   6.262   1.299   3.868
 5925TIP3   OH217780   2.755   5.762   0.648
 5925TIP3    H117781   2.691   5.692   0.658
 5925TIP3    H217782   2.740   5.796   0.559
 5926TIP3   OH217783   5.631   3.478   1.859
 5926TIP3    H117784   5.668   3.398   1.898
 5926TIP3    H217785   5.704   3.541   1.860
 5927TIP3   OH217786   3.859   4.244   0.842
 5927TIP3    H117787   3.810   4.319   0.809
 5927TIP3    H217788   3.825   4.230   0.930
 5928TIP3   OH217789   5.914   3.255   1.710
 5928TIP3    H117790   5.937   3.241   1.619
 5928TIP3    H217791   5.964   3.331   1.738
 5929TIP3   OH217792   5.822   4.296   2.775
 5929TIP3    H117793   5.909   4.315   2.739
 5929TIP3    H217794   5.838   4.276   2.867
 5930TIP3   OH217795   5.811   2.917   0.729
 5930TIP3    H117796   5.744   2.851   0.711
 5930TIP3    H217797   5.765   3.001   0.720
 5931TIP3   OH217798   4.193   4.698   1.562
 5931TIP3    H117799   4.106   4.737   1.574
 5931TIP3    H217800   4.237   4.711   1.646
 5932TIP3   OH217801   6.053   4.791   5.083
 5932TIP3    H117802   6.085   4.759   4.999
 5932TIP3    H217803   5.991   4.860   5.060
 5933TIP3   OH217804   2.618   0.598   1.211
 5933TIP3    H117805   2.533   0.633   1.185
 5933TIP3    H217806   2.615   0.592   1.306
 5934TIP3   OH217807   6.283   5.466   3.454
 5934TIP3    H117808   6.377   5.478   3.446
 5934TIP3    H217809   6.263   5.489   3.545
 5935TIP3   OH217810   0.290   2.729   4.015
 5935TIP3    H117811   0.350   2.788   3.969
 5935TIP3    H217812   0.325   2.723   4.104
 5936TIP3   OH217813   0.502   0.612   4.286
 5936TIP3    H117814   0.537   0.530   4.320
 5936TIP3    H217815   0.518   0.609   4.192
 5937TIP3   OH217816   5.193   0.330   1.611
 5937TIP3    H117817   5.156   0.243   1.600
 5937TIP3    H217818   5.161   0.360   1.696
 5938TIP3   OH217819   0.424   0.971   3.115
 5938TIP3    H117820   0.451   0.881   3.131
 5938TIP3    H217821   0.423   0.979   3.019
 5939TIP3   OH217822   5.970   3.281   0.347
 5939TIP3    H117823   5.930   3.217   0.407
 5939TIP3    H217824   6.034   3.328   0.400
 5940TIP3   OH217825   6.255   5.746   1.966
 5940TIP3    H117826   6.299   5.830   1.951
 5940TIP3    H217827   6.220   5.721   1.880
 5941TIP3   OH217828   4.032   5.892   0.976
 5941TIP3    H117829   4.044   5.925   0.887
 5941TIP3    H217830   3.992   5.806   0.964
 5942TIP3   OH217831   4.577   2.423   4.026
 5942TIP3    H117832   4.577   2.374   4.109
 5942TIP3    H217833   4.487   2.418   3.995
 5943TIP3   OH217834   3.973   2.009   0.451
 5943TIP3    H117835   4.006   1.919   0.443
 5943TIP3    H217836   4.021   2.058   0.385
 5944TIP3   OH217837   4.251  -0.038   1.744
 5944TIP3    H117838   4.272   0.035   1.802
 5944TIP3    H217839   4.159  -0.058   1.763
 5945TIP3   OH217840   1.084   0.777   1.129
 5945TIP3    H117841   1.008   0.730   1.094
 5945TIP3    H217842   1.050   0.863   1.155
 5946TIP3   OH217843   0.610   2.931   3.485
 5946TIP3    H117844   0.547   2.859   3.480
 5946TIP3    H217845   0.663   2.922   3.405
 5947TIP3   OH217846   3.481   3.648   2.452
 5947TIP3    H117847   3.501   3.736   2.418
 5947TIP3    H217848   3.397   3.625   2.412
 5948TIP3   OH217849   2.189   2.762   2.088
 5948TIP3    H117850   2.282   2.763   2.111
 5948TIP3    H217851   2.147   2.716   2.161
 5949TIP3   OH217852   6.086   2.754   4.989
 5949TIP3    H117853   6.078   2.669   5.031
 5949TIP3    H217854   6.028   2.811   5.039
 5950TIP3   OH217855   1.389   5.471   5.023
 5950TIP3    H117856   1.417   5.380   5.009
 5950TIP3    H217857   1.307   5.464   5.071
 5951TIP3   OH217858   4.957   4.700   2.984
 5951TIP3    H117859   5.051   4.691   2.974
 5951TIP3    H217860   4.943   4.702   3.079
 5952TIP3   OH217861   2.727   4.216   1.138
 5952TIP3    H117862   2.749   4.150   1.203
 5952TIP3    H217863   2.739   4.173   1.053
 5953TIP3   OH217864   2.063   3.108   4.224
 5953TIP3    H117865   2.118   3.088   4.149
 5953TIP3    H217866   2.029   3.195   4.206
 5954TIP3   OH217867   1.136   2.251   0.553
 5954TIP3    H117868   1.181   2.167   0.550
 5954TIP3    H217869   1.191   2.309   0.499
 5955TIP3   OH217870   3.588   3.886   0.987
 5955TIP3    H117871   3.660   3.880   0.924
 5955TIP3    H217872   3.526   3.946   0.947
 5956TIP3   OH217873   2.783   0.043   4.632
 5956TIP3    H117874   2.780   0.005   4.720
 5956TIP3    H217875   2.717   0.112   4.633
 5957TIP3   OH217876   1.374   1.576   5.164
 5957TIP3    H117877   1.373   1.535   5.251
 5957TIP3    H217878   1.467   1.581   5.141
 5958TIP3   OH217879   4.344   3.074   0.562
 5958TIP3    H117880   4.360   3.168   0.554
 5958TIP3    H217881   4.338   3.042   0.472
 5959TIP3   OH217882   2.593   2.374   4.739
 5959TIP3    H117883   2.508   2.363   4.695
 5959TIP3    H217884   2.573   2.370   4.832
 5960TIP3   OH217885   4.025   0.624   0.338
 5960TIP3    H117886   4.038   0.581   0.253
 5960TIP3    H217887   4.086   0.697   0.338
 5961TIP3   OH217888   0.832   1.283   1.949
 5961TIP3    H117889   0.772   1.345   1.909
 5961TIP3    H217890   0.823   1.203   1.897
 5962TIP3   OH217891   4.962   5.378   5.062
 5962TIP3    H117892   4.944   5.284   5.063
 5962TIP3    H217893   5.002   5.395   4.977
 5963TIP3   OH217894   1.357   4.923   1.867
 5963TIP3    H117895   1.325   4.895   1.781
 5963TIP3    H217896   1.452   4.924   1.858
 5964TIP3   OH217897   5.605   3.866   1.182
 5964TIP3    H117898   5.532   3.882   1.241
 5964TIP3    H217899   5.628   3.952   1.147
 5965TIP3   OH217900   4.729   3.261   2.153
 5965TIP3    H117901   4.657   3.320   2.177
 5965TIP3    H217902   4.780   3.311   2.089
 5966TIP3   OH217903   2.799   2.651   0.882
 5966TIP3    H117904   2.855   2.726   0.905
 5966TIP3    H217905   2.753   2.679   0.803
 5967TIP3   OH217906   1.727   3.649   4.568
 5967TIP3    H117907   1.758   3.718   4.510
 5967TIP3    H217908   1.758   3.568   4.528
 5968TIP3   OH217909   2.115   0.001   1.899
 5968TIP3    H117910   2.069   0.028   1.820
 5968TIP3    H217911   2.134   0.082   1.946
 5969TIP3   OH217912   6.008   4.745   0.146
 5969TIP3    H117913   6.035   4.829   0.184
 5969TIP3    H217914   5.914   4.755   0.130
 5970TIP3   OH217915   5.429   4.658   1.183
 5970TIP3    H117916   5.342   4.620   1.181
 5970TIP3    H217917   5.488   4.583   1.194
 5971TIP3   OH217918   5.820   0.980   0.149
 5971TIP3    H117919   5.797   1.039   0.077
 5971TIP3    H217920   5.757   1.001   0.218
 5972TIP3   OH217921   3.078   0.761   0.762
 5972TIP3    H117922   3.123   0.839   0.794
 5972TIP3    H217923   2.993   0.793   0.732
 5973TIP3   OH217924   5.228   2.809   2.666
 5973TIP3    H117925   5.297   2.846   2.611
 5973TIP3    H217926   5.170   2.763   2.606
 5974TIP3   OH217927   3.193   2.486   4.155
 5974TIP3    H117928   3.174   2.523   4.241
 5974TIP3    H217929   3.107   2.480   4.112
 5975TIP3   OH217930   2.652   5.450   0.092
 5975TIP3    H117931   2.669   5.512   0.163
 5975TIP3    H217932   2.663   5.364   0.132
 5976TIP3   OH217933   1.255   5.310   1.023
 5976TIP3    H117934   1.220   5.228   1.059
 5976TIP3    H217935   1.182   5.371   1.026
 5977TIP3   OH217936   0.591   3.533   0.067
 5977TIP3    H117937   0.525   3.602   0.058
 5977TIP3    H217938   0.541   3.453   0.084
 5978TIP3   OH217939   6.300   2.944   3.272
 5978TIP3    H117940   6.250   2.864   3.252
 5978TIP3    H217941   6.364   2.915   3.337
 5979TIP3   OH217942   4.708   1.027   4.847
 5979TIP3    H117943   4.740   1.062   4.763
 5979TIP3    H217944   4.686   0.936   4.827
 5980TIP3   OH217945   1.007   3.418   2.126
 5980TIP3    H117946   0.998   3.496   2.072
 5980TIP3    H217947   1.089   3.378   2.097
 5981TIP3   OH217948   5.295   4.014   2.984
 5981TIP3    H117949   5.290   4.006   3.080
 5981TIP3    H217950   5.301   4.109   2.968
 5982TIP3   OH217951   3.830   5.698   3.109
 5982TIP3    H117952   3.759   5.650   3.065
 5982TIP3    H217953   3.895   5.631   3.129
 5983TIP3   OH217954   0.619   5.095   4.001
 5983TIP3    H117955   0.549   5.042   4.038
 5983TIP3    H217956   0.687   5.096   4.068
 5984TIP3   OH217957   5.146   4.477   2.733
 5984TIP3    H117958   5.185   4.534   2.800
 5984TIP3    H217959   5.052   4.490   2.742
 5985TIP3   OH217960   0.347   4.919   1.814
 5985TIP3    H117961   0.276   4.872   1.858
 5985TIP3    H217962   0.303   4.977   1.752
 5986TIP3   OH217963   4.351   2.493   4.784
 5986TIP3    H117964   4.380   2.512   4.873
 5986TIP3    H217965   4.424   2.447   4.743
 5987TIP3   OH217966   1.500   2.837   2.936
 5987TIP3    H117967   1.497   2.831   3.032
 5987TIP3    H217968   1.428   2.895   2.913
 5988TIP3   OH217969   3.156   1.880   4.149
 5988TIP3    H117970   3.106   1.944   4.099
 5988TIP3    H217971   3.246   1.912   4.144
 5989TIP3   OH217972   4.599   5.114   4.886
 5989TIP3    H117973   4.636   5.033   4.921
 5989TIP3    H217974   4.617   5.180   4.953
 5990TIP3   OH217975   4.252   1.300   2.185
 5990TIP3    H117976   4.172   1.289   2.135
 5990TIP3    H217977   4.315   1.242   2.143
 5991TIP3   OH217978   2.362   5.714   2.905
 5991TIP3    H117979   2.367   5.720   2.809
 5991TIP3    H217980   2.444   5.673   2.931
 5992TIP3   OH217981   0.513   2.884   2.595
 5992TIP3    H117982   0.580   2.909   2.531
 5992TIP3    H217983   0.462   2.817   2.550
 5993TIP3   OH217984   0.788   5.953   0.377
 5993TIP3    H117985   0.784   5.907   0.461
 5993TIP3    H217986   0.811   5.885   0.314
 5994TIP3   OH217987   6.335   4.230   3.483
 5994TIP3    H117988   6.305   4.145   3.452
 5994TIP3    H217989   6.413   4.212   3.535
 5995TIP3   OH217990   6.077   5.713   4.086
 5995TIP3    H117991   6.004   5.757   4.130
 5995TIP3    H217992   6.110   5.651   4.152
 5996TIP3   OH217993   5.316   5.872   2.222
 5996TIP3    H117994   5.266   5.805   2.175
 5996TIP3    H217995   5.345   5.932   2.154
 5997TIP3   OH217996   3.863   0.393   3.208
 5997TIP3    H117997   3.884   0.354   3.293
 5997TIP3    H217998   3.946   0.395   3.160
 5998TIP3   OH217999   4.652   2.094   1.070
 5998TIP3    H118000   4.729   2.070   1.122
 5998TIP3    H218001   4.586   2.029   1.093
 5999TIP3   OH218002   3.848   2.207   3.873
 5999TIP3    H118003   3.942   2.202   3.890
 5999TIP3    H218004   3.834   2.149   3.798
 6000TIP3   OH218005   0.500   4.811   1.067
 6000TIP3    H118006   0.477   4.886   1.013
 6000TIP3    H218007   0.509   4.847   1.155
 6001TIP3   OH218008   2.209   2.314   1.618
 6001TIP3    H118009   2.261   2.286   1.543
 6001TIP3    H218010   2.198   2.235   1.671
 6002TIP3   OH218011   0.856   5.902   1.619
 6002TIP3    H118012   0.885   5.859   1.539
 6002TIP3    H218013   0.763   5.921   1.604
 6003TIP3   OH218014   5.295   3.444   3.890
 6003TIP3    H118015   5.284   3.538   3.904
 6003TIP3    H218016   5.353   3.415   3.960
 6004TIP3   OH218017   3.044   5.940   2.813
 6004TIP3    H118018   3.053   6.005   2.883
 6004TIP3    H218019   3.014   5.990   2.737
 6005TIP3   OH218020   5.693   5.560   4.189
 6005TIP3    H118021   5.676   5.588   4.279
 6005TIP3    H218022   5.613   5.581   4.141
 6006TIP3   OH218023   5.552   2.832   5.180
 6006TIP3    H118024   5.613   2.899   5.212
 6006TIP3    H218025   5.571   2.755   5.233
 6007TIP3   OH218026   1.126   5.758   0.268
 6007TIP3    H118027   1.214   5.794   0.279
 6007TIP3    H218028   1.118   5.691   0.335
 6008TIP3   OH218029   5.753   2.469   1.917
 6008TIP3    H118030   5.681   2.417   1.953
 6008TIP3    H218031   5.713   2.518   1.844
 6009TIP3   OH218032   2.835   0.181   2.739
 6009TIP3    H118033   2.773   0.253   2.727
 6009TIP3    H218034   2.873   0.166   2.653
 6010TIP3   OH218035   2.262   2.778   1.571
 6010TIP3    H118036   2.214   2.746   1.495
 6010TIP3    H218037   2.291   2.699   1.616
 6011TIP3   OH218038   4.721   0.046   4.954
 6011TIP3    H118039   4.659   0.000   5.010
 6011TIP3    H218040   4.691   0.137   4.955
 6012TIP3   OH218041   3.104   0.325   0.044
 6012TIP3    H118042   3.069   0.293  -0.039
 6012TIP3    H218043   3.153   0.251   0.079
 6013TIP3   OH218044   2.380   5.110   3.372
 6013TIP3    H118045   2.330   5.175   3.323
 6013TIP3    H218046   2.448   5.081   3.312
 6014TIP3   OH218047   1.073   5.272   2.262
 6014TIP3    H118048   1.085   5.260   2.356
 6014TIP3    H218049   1.162   5.273   2.226
 6015TIP3   OH218050   5.605   5.891   1.733
 6015TIP3    H118051   5.628   5.900   1.825
 6015TIP3    H218052   5.510   5.896   1.731
 6016TIP3   OH218053   5.384   2.085   2.995
 6016TIP3    H118054   5.333   2.073   2.915
 6016TIP3    H218055   5.373   2.177   3.017
 6017TIP3   OH218056   2.435   3.144   2.459
 6017TIP3    H118057   2.492   3.068   2.445
 6017TIP3    H218058   2.386   3.121   2.538
 6018TIP3   OH218059   1.499   0.825   0.794
 6018TIP3    H118060   1.475   0.756   0.732
 6018TIP3    H218061   1.589   0.846   0.773
 6019TIP3   OH218062   3.293   2.067   4.727
 6019TIP3    H118063   3.211   2.039   4.686
 6019TIP3    H218064   3.312   1.998   4.791
 6020TIP3   OH218065   4.745   5.138   1.186
 6020TIP3    H118066   4.731   5.047   1.211
 6020TIP3    H218067   4.840   5.145   1.178
 6021TIP3   OH218068   1.761   3.486   2.081
 6021TIP3    H118069   1.855   3.494   2.068
 6021TIP3    H218070   1.723   3.501   1.995
 6022TIP3   OH218071   1.049   1.385   0.942
 6022TIP3    H118072   1.029   1.460   0.998
 6022TIP3    H218073   1.127   1.346   0.980
 6023TIP3   OH218074   5.339   3.366   0.438
 6023TIP3    H118075   5.245   3.352   0.450
 6023TIP3    H218076   5.348   3.392   0.347
 6024TIP3   OH218077   4.205   5.423   0.473
 6024TIP3    H118078   4.132   5.361   0.474
 6024TIP3    H218079   4.183   5.486   0.541
 6025TIP3   OH218080   1.301   4.050   0.582
 6025TIP3    H118081   1.248   4.124   0.608
 6025TIP3    H218082   1.285   3.983   0.649
 6026TIP3   OH218083   5.435   3.577   1.408
 6026TIP3    H118084   5.464   3.488   1.392
 6026TIP3    H218085   5.384   3.572   1.489
 6027TIP3   OH218086   2.866   4.484   3.243
 6027TIP3    H118087   2.795   4.518   3.299
 6027TIP3    H218088   2.935   4.461   3.305
 6028TIP3   OH218089   0.476   2.116   3.693
 6028TIP3    H118090   0.556   2.168   3.695
 6028TIP3    H218091   0.406   2.181   3.692
 6029TIP3   OH218092   3.764   3.080   5.199
 6029TIP3    H118093   3.823   3.060   5.127
 6029TIP3    H218094   3.726   2.996   5.224
 6030TIP3   OH218095   5.497   4.138   0.885
 6030TIP3    H118096   5.539   4.224   0.888
 6030TIP3    H218097   5.570   4.076   0.882
 6031TIP3   OH218098   1.096   4.050   2.504
 6031TIP3    H118099   1.167   3.996   2.538
 6031TIP3    H218100   1.131   4.086   2.422
 6032TIP3   OH218101   3.373   3.783   3.637
 6032TIP3    H118102   3.417   3.701   3.611
 6032TIP3    H218103   3.399   3.846   3.570
 6033TIP3   OH218104   5.304   0.896   0.433
 6033TIP3    H118105   5.224   0.946   0.420
 6033TIP3    H218106   5.279   0.805   0.417
 6034TIP3   OH218107   2.007   1.781   4.824
 6034TIP3    H118108   1.988   1.743   4.910
 6034TIP3    H218109   2.084   1.837   4.839
 6035TIP3   OH218110   4.928   2.379   4.800
 6035TIP3    H118111   4.848   2.401   4.848
 6035TIP3    H218112   4.920   2.285   4.782
 6036TIP3   OH218113   1.802   1.507   4.552
 6036TIP3    H118114   1.752   1.568   4.606
 6036TIP3    H218115   1.888   1.549   4.540
 6037TIP3   OH218116   3.152   0.538   4.104
 6037TIP3    H118117   3.129   0.562   4.194
 6037TIP3    H218118   3.077   0.563   4.052
 6038TIP3   OH218119   1.171   2.795   2.459
 6038TIP3    H118120   1.110   2.848   2.511
 6038TIP3    H218121   1.160   2.827   2.370
 6039TIP3   OH218122   5.781   0.465   3.542
 6039TIP3    H118123   5.783   0.556   3.572
 6039TIP3    H218124   5.865   0.452   3.498
 6040TIP3   OH218125   0.134   4.406   5.052
 6040TIP3    H118126   0.171   4.406   5.140
 6040TIP3    H218127   0.042   4.384   5.065
 6041TIP3   OH218128   5.344   1.724   0.150
 6041TIP3    H118129   5.262   1.774   0.151
 6041TIP3    H218130   5.391   1.756   0.073
 6042TIP3   OH218131   0.061   1.859   0.222
 6042TIP3    H118132   0.053   1.862   0.318
 6042TIP3    H218133   0.146   1.818   0.206
 6043TIP3   OH218134   2.944   4.343   0.326
 6043TIP3    H118135   2.954   4.357   0.232
 6043TIP3    H218136   3.032   4.323   0.357
 6044TIP3   OH218137   3.235   0.069   1.534
 6044TIP3    H118138   3.287  -0.007   1.507
 6044TIP3    H218139   3.144   0.038   1.528
 6045TIP3   OH218140   3.146   5.456   0.509
 6045TIP3    H118141   3.100   5.498   0.437
 6045TIP3    H218142   3.151   5.522   0.578
 6046TIP3   OH218143   5.958   1.702   0.689
 6046TIP3    H118144   5.865   1.716   0.707
 6046TIP3    H218145   6.000   1.705   0.775
 6047TIP3   OH218146   3.051   1.630   2.964
 6047TIP3    H118147   3.025   1.552   3.013
 6047TIP3    H218148   2.982   1.694   2.982
 6048TIP3   OH218149   1.100   4.540   4.097
 6048TIP3    H118150   1.141   4.581   4.173
 6048TIP3    H218151   1.097   4.447   4.119
 6049TIP3   OH218152   0.942   3.794   2.972
 6049TIP3    H118153   0.915   3.882   2.998
 6049TIP3    H218154   0.872   3.764   2.913
 6050TIP3   OH218155   1.182   2.678   3.687
 6050TIP3    H118156   1.160   2.662   3.779
 6050TIP3    H218157   1.255   2.619   3.670
 6051TIP3   OH218158   2.293   0.413   2.836
 6051TIP3    H118159   2.240   0.492   2.843
 6051TIP3    H218160   2.323   0.396   2.925
 6052TIP3   OH218161   1.937   4.510   1.083
 6052TIP3    H118162   1.991   4.434   1.064
 6052TIP3    H218163   1.873   4.480   1.148
 6053TIP3   OH218164   5.543   3.301   4.939
 6053TIP3    H118165   5.459   3.345   4.955
 6053TIP3    H218166   5.583   3.350   4.867
 6054TIP3   OH218167   0.769   4.604   3.192
 6054TIP3    H118168   0.725   4.666   3.252
 6054TIP3    H218169   0.780   4.525   3.244
 6055TIP3   OH218170   3.247   1.745   4.521
 6055TIP3    H118171   3.281   1.779   4.604
 6055TIP3    H218172   3.270   1.812   4.457
 6056TIP3   OH218173   4.975   0.831   1.779
 6056TIP3    H118174   4.962   0.896   1.710
 6056TIP3    H218175   4.928   0.866   1.854
 6057TIP3   OH218176   0.426   4.036   2.777
 6057TIP3    H118177   0.398   4.124   2.751
 6057TIP3    H218178   0.346   3.991   2.803
 6058TIP3   OH218179   2.210   5.496   4.864
 6058TIP3    H118180   2.222   5.435   4.792
 6058TIP3    H218181   2.134   5.463   4.912
 6059TIP3   OH218182   4.522   4.503   0.258
 6059TIP3    H118183   4.447   4.545   0.218
 6059TIP3    H218184   4.594   4.520   0.198
 6060TIP3   OH218185   1.003   5.946   3.930
 6060TIP3    H118186   0.944   5.995   3.873
 6060TIP3    H218187   0.948   5.913   4.001
 6061TIP3   OH218188   2.981   4.708   2.376
 6061TIP3    H118189   2.986   4.613   2.375
 6061TIP3    H218190   3.036   4.735   2.449
 6062TIP3   OH218191   4.426   4.804   2.518
 6062TIP3    H118192   4.423   4.785   2.424
 6062TIP3    H218193   4.374   4.884   2.528
 6063TIP3   OH218194   5.536   2.867   1.042
 6063TIP3    H118195   5.520   2.831   1.129
 6063TIP3    H218196   5.619   2.829   1.014
 6064TIP3   OH218197   1.703   0.761   5.058
 6064TIP3    H118198   1.754   0.730   4.983
 6064TIP3    H218199   1.682   0.852   5.037
 6065TIP3   OH218200   1.872   2.063   1.646
 6065TIP3    H118201   1.812   2.113   1.701
 6065TIP3    H218202   1.953   2.058   1.697
 6066TIP3   OH218203   0.147   2.109   1.944
 6066TIP3    H118204   0.198   2.190   1.948
 6066TIP3    H218205   0.088   2.122   1.870
 6067TIP3   OH218206   0.426   4.840   2.113
 6067TIP3    H118207   0.484   4.770   2.082
 6067TIP3    H218208   0.470   4.921   2.087
 6068TIP3   OH218209   5.000   3.905   2.143
 6068TIP3    H118210   5.022   3.900   2.050
 6068TIP3    H218211   5.077   3.871   2.188
 6069TIP3   OH218212   5.342   2.006   4.721
 6069TIP3    H118213   5.340   1.992   4.815
 6069TIP3    H218214   5.432   1.983   4.695
 6070TIP3   OH218215   2.927   3.526   5.044
 6070TIP3    H118216   2.906   3.437   5.017
 6070TIP3    H218217   3.017   3.539   5.017
 6071TIP3   OH218218   2.815   0.439   4.471
 6071TIP3    H118219   2.801   0.362   4.526
 6071TIP3    H218220   2.898   0.476   4.503
 6072TIP3   OH218221   2.144   4.262   3.844
 6072TIP3    H118222   2.109   4.205   3.775
 6072TIP3    H218223   2.198   4.326   3.797
 6073TIP3   OH218224   4.360   5.194   0.493
 6073TIP3    H118225   4.414   5.125   0.454
 6073TIP3    H218226   4.344   5.255   0.422
 6074TIP3   OH218227   1.059   3.080   1.994
 6074TIP3    H118228   0.989   3.019   1.970
 6074TIP3    H218229   1.138   3.040   1.959
 6075TIP3   OH218230   3.593   1.867   3.710
 6075TIP3    H118231   3.588   1.900   3.799
 6075TIP3    H218232   3.546   1.784   3.713
 6076TIP3   OH218233   6.239   1.416   2.487
 6076TIP3    H118234   6.261   1.422   2.580
 6076TIP3    H218235   6.276   1.495   2.448
 6077TIP3   OH218236   2.301   4.927   0.217
 6077TIP3    H118237   2.343   5.001   0.173
 6077TIP3    H218238   2.364   4.855   0.210
 6078TIP3   OH218239   0.234   4.552   2.011
 6078TIP3    H118240   0.330   4.553   2.007
 6078TIP3    H218241   0.208   4.496   1.938
 6079TIP3   OH218242   5.053   0.982   0.545
 6079TIP3    H118243   5.039   0.989   0.450
 6079TIP3    H218244   4.983   1.036   0.583
 6080TIP3   OH218245   1.733   0.018   4.678
 6080TIP3    H118246   1.692  -0.063   4.708
 6080TIP3    H218247   1.697   0.086   4.735
 6081TIP3   OH218248   2.009   3.085   0.512
 6081TIP3    H118249   1.998   3.040   0.428
 6081TIP3    H218250   1.920   3.096   0.545
 6082TIP3   OH218251   0.512   5.955   2.858
 6082TIP3    H118252   0.573   6.018   2.820
 6082TIP3    H218253   0.546   5.869   2.832
 6083TIP3   OH218254   1.336   3.910   0.291
 6083TIP3    H118255   1.326   3.902   0.196
 6083TIP3    H218256   1.306   3.826   0.326
 6084TIP3   OH218257   2.185   2.979   4.432
 6084TIP3    H118258   2.265   2.948   4.390
 6084TIP3    H218259   2.129   3.008   4.360
 6085TIP3   OH218260   2.152   4.166   0.595
 6085TIP3    H118261   2.065   4.194   0.621
 6085TIP3    H218262   2.177   4.226   0.525
 6086TIP3   OH218263   3.352   3.151   2.578
 6086TIP3    H118264   3.318   3.232   2.541
 6086TIP3    H218265   3.290   3.083   2.549
 6087TIP3   OH218266   0.103   0.224   4.542
 6087TIP3    H118267   0.141   0.137   4.537
 6087TIP3    H218268   0.146   0.274   4.473
 6088TIP3   OH218269   1.292   2.257   0.179
 6088TIP3    H118270   1.341   2.324   0.131
 6088TIP3    H218271   1.356   2.220   0.240
 6089TIP3   OH218272   5.311   5.636   3.596
 6089TIP3    H118273   5.252   5.705   3.566
 6089TIP3    H218274   5.254   5.576   3.645
 6090TIP3   OH218275   3.038   3.819   3.454
 6090TIP3    H118276   3.029   3.756   3.526
 6090TIP3    H218277   3.095   3.887   3.488
 6091TIP3   OH218278   4.639   3.780   0.724
 6091TIP3    H118279   4.733   3.768   0.740
 6091TIP3    H218280   4.628   3.874   0.717
 6092TIP3   OH218281   3.965   2.131   1.728
 6092TIP3    H118282   3.997   2.221   1.740
 6092TIP3    H218283   4.016   2.097   1.654
 6093TIP3   OH218284   4.421   4.103   2.448
 6093TIP3    H118285   4.332   4.108   2.413
 6093TIP3    H218286   4.409   4.087   2.541
 6094TIP3   OH218287   2.222   1.196   1.584
 6094TIP3    H118288   2.199   1.282   1.619
 6094TIP3    H218289   2.298   1.168   1.634
 6095TIP3   OH218290   1.616   2.244   2.764
 6095TIP3    H118291   1.545   2.187   2.734
 6095TIP3    H218292   1.599   2.258   2.857
 6096TIP3   OH218293   0.076   5.047   0.373
 6096TIP3    H118294  -0.003   5.000   0.348
 6096TIP3    H218295   0.063   5.068   0.466
 6097TIP3   OH218296   1.480   4.872   4.662
 6097TIP3    H118297   1.499   4.964   4.677
 6097TIP3    H218298   1.515   4.854   4.575
 6098TIP3   OH218299   0.638   0.235   1.798
 6098TIP3    H118300   0.612   0.232   1.891
 6098TIP3    H218301   0.688   0.155   1.785
 6099TIP3   OH218302   4.360   3.966   4.362
 6099TIP3    H118303   4.366   4.003   4.450
 6099TIP3    H218304   4.295   3.896   4.370
 6100TIP3   OH218305   4.065   1.463   1.787
 6100TIP3    H118306   4.088   1.550   1.754
 6100TIP3    H218307   4.131   1.444   1.853
 6101TIP3   OH218308   5.747   0.961   1.239
 6101TIP3    H118309   5.790   0.912   1.169
 6101TIP3    H218310   5.819   1.006   1.284
 6102TIP3   OH218311   1.545   4.951   2.174
 6102TIP3    H118312   1.533   4.857   2.158
 6102TIP3    H218313   1.601   4.955   2.252
 6103TIP3   OH218314   3.876   1.387   3.678
 6103TIP3    H118315   3.830   1.330   3.617
 6103TIP3    H218316   3.921   1.328   3.739
 6104TIP3   OH218317  -0.005   0.601   4.822
 6104TIP3    H118318   0.065   0.660   4.795
 6104TIP3    H218319  -0.031   0.631   4.909
 6105TIP3   OH218320   4.492   5.308   3.168
 6105TIP3    H118321   4.519   5.216   3.161
 6105TIP3    H218322   4.569   5.353   3.202
 6106TIP3   OH218323   5.625   1.834   2.223
 6106TIP3    H118324   5.651   1.778   2.150
 6106TIP3    H218325   5.538   1.866   2.198
 6107TIP3   OH218326   2.241   5.444   2.384
 6107TIP3    H118327   2.227   5.526   2.431
 6107TIP3    H218328   2.176   5.446   2.313
 6108TIP3   OH218329   1.974   3.306   3.024
 6108TIP3    H118330   1.974   3.399   3.004
 6108TIP3    H218331   1.882   3.283   3.033
 6109TIP3   OH218332   5.759   5.787   3.606
 6109TIP3    H118333   5.761   5.691   3.606
 6109TIP3    H218334   5.666   5.809   3.608
 6110TIP3   OH218335   4.977   0.088   3.056
 6110TIP3    H118336   4.936   0.154   3.112
 6110TIP3    H218337   5.026   0.139   2.992
 6111TIP3   OH218338   5.907   0.800   4.203
 6111TIP3    H118339   5.883   0.724   4.150
 6111TIP3    H218340   5.997   0.820   4.177
 6112TIP3   OH218341   2.611   0.147   4.370
 6112TIP3    H118342   2.588   0.157   4.462
 6112TIP3    H218343   2.598   0.054   4.352
 6113TIP3   OH218344   4.561   4.712   4.986
 6113TIP3    H118345   4.579   4.805   4.968
 6113TIP3    H218346   4.473   4.713   5.025
 6114TIP3   OH218347   5.539   4.085   1.749
 6114TIP3    H118348   5.582   4.003   1.724
 6114TIP3    H218349   5.457   4.058   1.790
 6115TIP3   OH218350   0.338   2.548   2.895
 6115TIP3    H118351   0.263   2.558   2.953
 6115TIP3    H218352   0.412   2.581   2.946
 6116TIP3   OH218353   0.319   5.502   4.239
 6116TIP3    H118354   0.305   5.467   4.151
 6116TIP3    H218355   0.410   5.532   4.238
 6117TIP3   OH218356   0.401   2.380   4.402
 6117TIP3    H118357   0.452   2.443   4.453
 6117TIP3    H218358   0.449   2.371   4.320
 6118TIP3   OH218359   1.848   2.182   4.228
 6118TIP3    H118360   1.783   2.123   4.267
 6118TIP3    H218361   1.917   2.123   4.197
 6119TIP3   OH218362   5.287   0.309   4.197
 6119TIP3    H118363   5.251   0.339   4.114
 6119TIP3    H218364   5.351   0.242   4.172
 6120TIP3   OH218365   2.381   1.769   1.218
 6120TIP3    H118366   2.394   1.685   1.261
 6120TIP3    H218367   2.458   1.821   1.242
 6121TIP3   OH218368   2.099   2.066   1.792
 6121TIP3    H118369   2.193   2.071   1.808
 6121TIP3    H218370   2.059   2.091   1.875
 6122TIP3   OH218371   5.656   3.270   1.101
 6122TIP3    H118372   5.621   3.291   1.014
 6122TIP3    H218373   5.748   3.248   1.085
 6123TIP3   OH218374   3.167   2.375   3.479
 6123TIP3    H118375   3.161   2.283   3.505
 6123TIP3    H218376   3.082   2.395   3.440
 6124TIP3   OH218377   5.761   5.451   5.008
 6124TIP3    H118378   5.685   5.494   4.969
 6124TIP3    H218379   5.833   5.470   4.947
 6125TIP3   OH218380   3.634   1.578   3.072
 6125TIP3    H118381   3.648   1.531   3.154
 6125TIP3    H218382   3.549   1.621   3.083
 6126TIP3   OH218383   4.076   5.425   3.613
 6126TIP3    H118384   4.008   5.490   3.630
 6126TIP3    H218385   4.123   5.418   3.696
 6127TIP3   OH218386   0.766   3.741   2.785
 6127TIP3    H118387   0.827   3.717   2.715
 6127TIP3    H218388   0.697   3.675   2.781
 6128TIP3   OH218389   3.685   3.037   2.871
 6128TIP3    H118390   3.593   3.031   2.843
 6128TIP3    H218391   3.681   3.074   2.959
 6129TIP3   OH218392   1.194   4.475   3.839
 6129TIP3    H118393   1.221   4.383   3.832
 6129TIP3    H218394   1.170   4.486   3.931
 6130TIP3   OH218395   2.543   5.845   3.229
 6130TIP3    H118396   2.488   5.855   3.306
 6130TIP3    H218397   2.631   5.866   3.260
 6131TIP3   OH218398   0.541   3.793   1.369
 6131TIP3    H118399   0.541   3.880   1.407
 6131TIP3    H218400   0.602   3.743   1.423
 6132TIP3   OH218401   4.804   1.785   0.625
 6132TIP3    H118402   4.847   1.772   0.541
 6132TIP3    H218403   4.772   1.699   0.650
 6133TIP3   OH218404   2.353   5.362   1.883
 6133TIP3    H118405   2.313   5.327   1.962
 6133TIP3    H218406   2.279   5.381   1.825
 6134TIP3   OH218407   3.017   0.292   1.598
 6134TIP3    H118408   2.937   0.332   1.565
 6134TIP3    H218409   3.063   0.262   1.519
 6135TIP3   OH218410   0.585   2.717   1.594
 6135TIP3    H118411   0.549   2.804   1.615
 6135TIP3    H218412   0.609   2.723   1.502
 6136TIP3   OH218413   5.348   1.246   2.756
 6136TIP3    H118414   5.442   1.254   2.741
 6136TIP3    H218415   5.340   1.171   2.816
 6137TIP3   OH218416   3.926   0.895   1.176
 6137TIP3    H118417   3.921   0.941   1.260
 6137TIP3    H218418   3.834   0.880   1.151
 6138TIP3   OH218419   1.417   4.393   2.487
 6138TIP3    H118420   1.358   4.398   2.562
 6138TIP3    H218421   1.442   4.484   2.470
 6139TIP3   OH218422   3.599   2.729   4.154
 6139TIP3    H118423   3.677   2.782   4.170
 6139TIP3    H218424   3.569   2.703   4.241
 6140TIP3   OH218425   1.422   0.064   3.840
 6140TIP3    H118426   1.356   0.086   3.905
 6140TIP3    H218427   1.408   0.127   3.769
 6141TIP3   OH218428   5.893   0.668   0.407
 6141TIP3    H118429   5.845   0.585   0.399
 6141TIP3    H218430   5.909   0.695   0.317
 6142TIP3   OH218431   4.294   4.692   1.825
 6142TIP3    H118432   4.356   4.620   1.816
 6142TIP3    H218433   4.249   4.675   1.908
 6143TIP3   OH218434   1.968   5.296   3.713
 6143TIP3    H118435   2.056   5.319   3.742
 6143TIP3    H218436   1.943   5.368   3.653
 6144TIP3   OH218437   5.509   1.692   1.663
 6144TIP3    H118438   5.594   1.720   1.626
 6144TIP3    H218439   5.453   1.681   1.586
 6145TIP3   OH218440   5.826   1.014   4.347
 6145TIP3    H118441   5.832   0.968   4.264
 6145TIP3    H218442   5.739   1.053   4.347
 6146TIP3   OH218443   1.719   0.379   0.683
 6146TIP3    H118444   1.684   0.373   0.772
 6146TIP3    H218445   1.770   0.460   0.682
 6147TIP3   OH218446   2.377   3.272   3.900
 6147TIP3    H118447   2.317   3.346   3.903
 6147TIP3    H218448   2.432   3.289   3.823
 6148TIP3   OH218449   6.164   5.304   4.083
 6148TIP3    H118450   6.169   5.224   4.030
 6148TIP3    H218451   6.071   5.326   4.084
 6149TIP3   OH218452   3.899   3.594   1.625
 6149TIP3    H118453   3.854   3.584   1.709
 6149TIP3    H218454   3.905   3.689   1.611
 6150TIP3   OH218455   5.030   3.654   1.782
 6150TIP3    H118456   5.030   3.620   1.692
 6150TIP3    H218457   5.121   3.652   1.809
 6151TIP3   OH218458   0.469   0.695   3.187
 6151TIP3    H118459   0.548   0.646   3.163
 6151TIP3    H218460   0.408   0.628   3.218
 6152TIP3   OH218461   1.187   3.258   2.719
 6152TIP3    H118462   1.141   3.329   2.765
 6152TIP3    H218463   1.228   3.301   2.644
 6153TIP3   OH218464   5.845   2.747   4.825
 6153TIP3    H118465   5.925   2.755   4.876
 6153TIP3    H218466   5.873   2.701   4.745
 6154TIP3   OH218467   1.844   1.764   1.670
 6154TIP3    H118468   1.855   1.785   1.762
 6154TIP3    H218469   1.754   1.789   1.650
 6155TIP3   OH218470   0.646   3.145   0.478
 6155TIP3    H118471   0.554   3.162   0.500
 6155TIP3    H218472   0.649   3.052   0.457
 6156TIP3   OH218473   1.975   1.069   2.436
 6156TIP3    H118474   1.908   1.128   2.472
 6156TIP3    H218475   1.956   1.067   2.342
 6157TIP3   OH218476   2.660   3.508   2.488
 6157TIP3    H118477   2.565   3.494   2.493
 6157TIP3    H218478   2.697   3.420   2.486
 6158TIP3   OH218479   1.046   4.439   0.690
 6158TIP3    H118480   1.055   4.496   0.613
 6158TIP3    H218481   0.957   4.405   0.683
 6159TIP3   OH218482   4.077   0.913   4.375
 6159TIP3    H118483   4.137   0.988   4.372
 6159TIP3    H218484   4.012   0.937   4.441
 6160TIP3   OH218485   6.240   1.852   3.486
 6160TIP3    H118486   6.232   1.785   3.554
 6160TIP3    H218487   6.294   1.920   3.526
 6161TIP3   OH218488   1.124   0.217   3.503
 6161TIP3    H118489   1.065   0.152   3.540
 6161TIP3    H218490   1.106   0.216   3.409
 6162TIP3   OH218491   0.974   5.114   2.736
 6162TIP3    H118492   0.978   5.182   2.804
 6162TIP3    H218493   1.026   5.042   2.771
 6163TIP3   OH218494   4.406   2.119   2.215
 6163TIP3    H118495   4.317   2.095   2.242
 6163TIP3    H218496   4.393   2.170   2.135
 6164TIP3   OH218497   5.609   5.235   3.928
 6164TIP3    H118498   5.658   5.196   3.856
 6164TIP3    H218499   5.657   5.314   3.950
 6165TIP3   OH218500   1.279   4.014   1.698
 6165TIP3    H118501   1.208   4.007   1.634
 6165TIP3    H218502   1.298   4.108   1.703
 6166TIP3   OH218503   0.099   0.350   2.020
 6166TIP3    H118504   0.115   0.442   2.038
 6166TIP3    H218505   0.145   0.303   2.090
 6167TIP3   OH218506   4.317   2.942   4.516
 6167TIP3    H118507   4.328   2.847   4.525
 6167TIP3    H218508   4.231   2.952   4.474
 6168TIP3   OH218509   4.592   3.759   0.069
 6168TIP3    H118510   4.568   3.814   0.144
 6168TIP3    H218511   4.657   3.812   0.022
 6169TIP3   OH218512   3.563   1.599   3.985
 6169TIP3    H118513   3.571   1.504   3.976
 6169TIP3    H218514   3.610   1.620   4.066
 6170TIP3   OH218515   1.119   1.521   4.062
 6170TIP3    H118516   1.060   1.557   4.128
 6170TIP3    H218517   1.204   1.561   4.081
 6171TIP3   OH218518   6.224   2.876   0.271
 6171TIP3    H118519   6.193   2.901   0.358
 6171TIP3    H218520   6.154   2.904   0.211
 6172TIP3   OH218521   0.454   1.278   2.547
 6172TIP3    H118522   0.443   1.197   2.498
 6172TIP3    H218523   0.479   1.250   2.635
 6173TIP3   OH218524   5.931   2.270   1.757
 6173TIP3    H118525   5.872   2.341   1.783
 6173TIP3    H218526   6.016   2.313   1.748
 6174TIP3   OH218527   0.407   0.549   1.300
 6174TIP3    H118528   0.474   0.557   1.232
 6174TIP3    H218529   0.324   0.554   1.253
 6175TIP3   OH218530   3.522   2.825   2.295
 6175TIP3    H118531   3.520   2.869   2.210
 6175TIP3    H218532   3.577   2.748   2.280
 6176TIP3   OH218533   5.818   2.683  -0.009
 6176TIP3    H118534   5.887   2.618  -0.023
 6176TIP3    H218535   5.761   2.645   0.058
 6177TIP3   OH218536   5.192   3.151   3.290
 6177TIP3    H118537   5.171   3.114   3.376
 6177TIP3    H218538   5.273   3.200   3.304
 6178TIP3   OH218539   4.395   1.449   2.361
 6178TIP3    H118540   4.422   1.508   2.291
 6178TIP3    H218541   4.326   1.396   2.322
 6179TIP3   OH218542   4.620   3.963   5.093
 6179TIP3    H118543   4.631   3.913   5.012
 6179TIP3    H218544   4.527   3.986   5.095
 6180TIP3   OH218545   3.688   4.451   0.794
 6180TIP3    H118546   3.632   4.422   0.866
 6180TIP3    H218547   3.689   4.546   0.801
 6181TIP3   OH218548   3.568   4.386   1.383
 6181TIP3    H118549   3.636   4.325   1.354
 6181TIP3    H218550   3.542   4.353   1.469
 6182TIP3   OH218551   1.002   4.204   1.774
 6182TIP3    H118552   0.994   4.137   1.706
 6182TIP3    H218553   0.981   4.159   1.856
 6183TIP3   OH218554   0.739   3.649   4.343
 6183TIP3    H118555   0.760   3.736   4.307
 6183TIP3    H218556   0.807   3.634   4.408
 6184TIP3   OH218557   3.733   4.555   4.900
 6184TIP3    H118558   3.744   4.503   4.820
 6184TIP3    H218559   3.724   4.645   4.868
 6185TIP3   OH218560   4.368   1.429   3.790
 6185TIP3    H118561   4.446   1.447   3.738
 6185TIP3    H218562   4.348   1.337   3.772
 6186TIP3   OH218563   1.700   2.563   4.847
 6186TIP3    H118564   1.697   2.635   4.784
 6186TIP3    H218565   1.712   2.605   4.932
 6187TIP3   OH218566   2.731   4.053   0.546
 6187TIP3    H118567   2.765   4.143   0.545
 6187TIP3    H218568   2.706   4.038   0.637
 6188TIP3   OH218569   1.123   0.412   2.875
 6188TIP3    H118570   1.128   0.507   2.887
 6188TIP3    H218571   1.176   0.395   2.798
 6189TIP3   OH218572   3.566   2.169   0.994
 6189TIP3    H118573   3.487   2.211   0.959
 6189TIP3    H218574   3.638   2.218   0.954
 6190TIP3   OH218575   3.095   5.123   1.810
 6190TIP3    H118576   3.035   5.146   1.881
 6190TIP3    H218577   3.078   5.189   1.742
 6191TIP3   OH218578   2.399   3.501   2.198
 6191TIP3    H118579   2.329   3.527   2.257
 6191TIP3    H218580   2.405   3.573   2.135
 6192TIP3   OH218581   1.232   3.432   0.057
 6192TIP3    H118582   1.194   3.445  -0.029
 6192TIP3    H218583   1.287   3.354   0.048
 6193TIP3   OH218584   0.740   3.526   0.580
 6193TIP3    H118585   0.750   3.504   0.673
 6193TIP3    H218586   0.653   3.495   0.558
 6194TIP3   OH218587   2.705   4.822   2.998
 6194TIP3    H118588   2.644   4.851   2.930
 6194TIP3    H218589   2.656   4.756   3.048
 6195TIP3   OH218590   0.131   1.137   4.207
 6195TIP3    H118591   0.143   1.210   4.146
 6195TIP3    H218592   0.195   1.071   4.178
 6196TIP3   OH218593   0.506   5.559   1.759
 6196TIP3    H118594   0.585   5.541   1.810
 6196TIP3    H218595   0.537   5.566   1.668
 6197TIP3   OH218596   1.905   4.410   4.020
 6197TIP3    H118597   1.973   4.364   3.971
 6197TIP3    H218598   1.952   4.471   4.076
 6198TIP3   OH218599   4.666   5.578   1.878
 6198TIP3    H118600   4.706   5.498   1.843
 6198TIP3    H218601   4.739   5.638   1.892
 6199TIP3   OH218602   0.646   0.313   0.974
 6199TIP3    H118603   0.615   0.258   1.046
 6199TIP3    H218604   0.742   0.305   0.978
 6200TIP3   OH218605   5.187   2.462   3.696
 6200TIP3    H118606   5.158   2.550   3.720
 6200TIP3    H218607   5.203   2.418   3.779
 6201TIP3   OH218608   3.752   0.577   1.353
 6201TIP3    H118609   3.772   0.519   1.426
 6201TIP3    H218610   3.804   0.544   1.280
 6202TIP3   OH218611   4.950   1.018   3.059
 6202TIP3    H118612   4.944   1.111   3.034
 6202TIP3    H218613   5.039   1.008   3.093
 6203TIP3   OH218614   4.451   3.215   0.078
 6203TIP3    H118615   4.520   3.155   0.106
 6203TIP3    H218616   4.387   3.159   0.034
 6204TIP3   OH218617   5.691   4.209   4.414
 6204TIP3    H118618   5.609   4.251   4.437
 6204TIP3    H218619   5.735   4.273   4.356
 6205TIP3   OH218620   0.663   4.438   3.985
 6205TIP3    H118621   0.664   4.483   3.901
 6205TIP3    H218622   0.736   4.477   4.033
 6206TIP3   OH218623   0.577   4.391   2.908
 6206TIP3    H118624   0.671   4.378   2.921
 6206TIP3    H218625   0.570   4.477   2.866
 6207TIP3   OH218626   0.011   1.846   0.498
 6207TIP3    H118627   0.021   1.863   0.592
 6207TIP3    H218628  -0.077   1.807   0.490
 6208TIP3   OH218629   4.867   3.217   0.209
 6208TIP3    H118630   4.942   3.257   0.165
 6208TIP3    H218631   4.863   3.259   0.295
 6209TIP3   OH218632   3.819   2.423   1.606
 6209TIP3    H118633   3.759   2.365   1.654
 6209TIP3    H218634   3.763   2.471   1.546
 6210TIP3   OH218635   5.457   3.536   2.941
 6210TIP3    H118636   5.483   3.627   2.952
 6210TIP3    H218637   5.370   3.541   2.901
 6211TIP3   OH218638   1.910   2.953   3.840
 6211TIP3    H118639   1.860   2.883   3.882
 6211TIP3    H218640   1.993   2.911   3.815
 6212TIP3   OH218641   4.238   5.463   4.859
 6212TIP3    H118642   4.156   5.479   4.813
 6212TIP3    H218643   4.284   5.399   4.805
 6213TIP3   OH218644   1.330   0.850   3.972
 6213TIP3    H118645   1.333   0.914   3.901
 6213TIP3    H218646   1.278   0.892   4.040
 6214TIP3   OH218647   4.127   5.074   4.031
 6214TIP3    H118648   4.060   5.007   4.035
 6214TIP3    H218649   4.118   5.113   3.944
 6215TIP3   OH218650   4.811   2.176   3.040
 6215TIP3    H118651   4.838   2.258   3.001
 6215TIP3    H218652   4.761   2.201   3.118
 6216TIP3   OH218653   1.601   4.240   3.236
 6216TIP3    H118654   1.572   4.172   3.176
 6216TIP3    H218655   1.520   4.274   3.276
 6217TIP3   OH218656   4.481   1.767   5.121
 6217TIP3    H118657   4.508   1.849   5.163
 6217TIP3    H218658   4.461   1.709   5.195
 6218TIP3   OH218659   5.189   0.945   3.181
 6218TIP3    H118660   5.202   0.850   3.189
 6218TIP3    H218661   5.195   0.977   3.271
 6219TIP3   OH218662   0.318   1.730   0.336
 6219TIP3    H118663   0.338   1.746   0.429
 6219TIP3    H218664   0.324   1.635   0.327
 6220TIP3   OH218665   6.114   3.289   1.300
 6220TIP3    H118666   6.154   3.279   1.387
 6220TIP3    H218667   6.155   3.221   1.247
 6221TIP3   OH218668   4.497   4.179   4.163
 6221TIP3    H118669   4.439   4.130   4.222
 6221TIP3    H218670   4.476   4.146   4.075
 6222TIP3   OH218671   2.882   3.038   4.465
 6222TIP3    H118672   2.844   2.955   4.494
 6222TIP3    H218673   2.975   3.019   4.452
 6223TIP3   OH218674   1.404   0.303   2.323
 6223TIP3    H118675   1.339   0.367   2.294
 6223TIP3    H218676   1.362   0.218   2.309
 6224TIP3   OH218677   5.009   2.075   2.813
 6224TIP3    H118678   5.091   2.109   2.778
 6224TIP3    H218679   4.948   2.077   2.739
 6225TIP3   OH218680   2.657   5.407   3.207
 6225TIP3    H118681   2.629   5.457   3.284
 6225TIP3    H218682   2.654   5.316   3.236
 6226TIP3   OH218683   3.927   2.547   0.157
 6226TIP3    H118684   4.011   2.556   0.112
 6226TIP3    H218685   3.928   2.457   0.190
 6227TIP3   OH218686   0.213   2.092   0.153
 6227TIP3    H118687   0.151   2.020   0.144
 6227TIP3    H218688   0.196   2.148   0.077
 6228TIP3   OH218689   4.462   4.014   1.628
 6228TIP3    H118690   4.510   3.933   1.608
 6228TIP3    H218691   4.531   4.078   1.644
 6229TIP3   OH218692   6.247   3.454   0.042
 6229TIP3    H118693   6.261   3.535   0.091
 6229TIP3    H218694   6.289   3.387   0.096
 6230TIP3   OH218695   4.884   1.637   1.712
 6230TIP3    H118696   4.964   1.690   1.709
 6230TIP3    H218697   4.820   1.688   1.663
 6231TIP3   OH218698   6.253   1.302   4.993
 6231TIP3    H118699   6.253   1.387   5.038
 6231TIP3    H218700   6.220   1.240   5.058
 6232TIP3   OH218701   0.007   5.755   2.232
 6232TIP3    H118702  -0.031   5.729   2.149
 6232TIP3    H218703   0.056   5.835   2.212
 6233TIP3   OH218704   1.492   1.057   2.667
 6233TIP3    H118705   1.563   1.117   2.645
 6233TIP3    H218706   1.529   0.970   2.656
 6234TIP3   OH218707   2.281   3.039   2.653
 6234TIP3    H118708   2.261   2.945   2.646
 6234TIP3    H218709   2.209   3.075   2.705
 6235TIP3   OH218710   5.925   4.387   0.422
 6235TIP3    H118711   5.860   4.356   0.485
 6235TIP3    H218712   5.954   4.471   0.458
 6236TIP3   OH218713   2.668   1.716   0.482
 6236TIP3    H118714   2.717   1.680   0.555
 6236TIP3    H218715   2.722   1.789   0.450
 6237TIP3   OH218716   1.043   2.351   1.310
 6237TIP3    H118717   1.024   2.261   1.337
 6237TIP3    H218718   1.061   2.345   1.217
 6238TIP3   OH218719   5.320   2.669   4.613
 6238TIP3    H118720   5.382   2.718   4.667
 6238TIP3    H218721   5.336   2.577   4.634
 6239TIP3   OH218722   2.105   2.137   2.246
 6239TIP3    H118723   2.199   2.142   2.228
 6239TIP3    H218724   2.099   2.083   2.325
 6240TIP3   OH218725   0.773   5.197   5.065
 6240TIP3    H118726   0.849   5.251   5.089
 6240TIP3    H218727   0.796   5.160   4.979
 6241TIP3   OH218728   2.613   3.981   0.286
 6241TIP3    H118729   2.704   3.955   0.299
 6241TIP3    H218730   2.586   4.016   0.371
 6242TIP3   OH218731   0.584   4.064   1.403
 6242TIP3    H118732   0.490   4.077   1.392
 6242TIP3    H218733   0.620   4.064   1.314
 6243TIP3   OH218734   5.060   0.385   3.428
 6243TIP3    H118735   5.078   0.315   3.491
 6243TIP3    H218736   5.145   0.406   3.391
 6244TIP3   OH218737   3.237   3.588   2.358
 6244TIP3    H118738   3.248   3.625   2.270
 6244TIP3    H218739   3.170   3.521   2.348
 6245TIP3   OH218740   3.545   0.671   1.186
 6245TIP3    H118741   3.618   0.639   1.239
 6245TIP3    H218742   3.495   0.593   1.164
 6246TIP3   OH218743   3.556   4.865   4.632
 6246TIP3    H118744   3.571   4.945   4.682
 6246TIP3    H218745   3.643   4.825   4.625
 6247TIP3   OH218746   6.218   5.454   1.211
 6247TIP3    H118747   6.256   5.525   1.263
 6247TIP3    H218748   6.247   5.374   1.255
 6248TIP3   OH218749   0.930   2.632   0.977
 6248TIP3    H118750   0.860   2.580   0.937
 6248TIP3    H218751   0.931   2.604   1.068
 6249TIP3   OH218752   1.985   2.390   2.371
 6249TIP3    H118753   1.896   2.399   2.335
 6249TIP3    H218754   2.013   2.303   2.342
 6250TIP3   OH218755   0.083   2.792   3.479
 6250TIP3    H118756   0.125   2.723   3.528
 6250TIP3    H218757   0.154   2.851   3.453
 6251TIP3   OH218758   3.332   2.978   0.200
 6251TIP3    H118759   3.400   3.041   0.176
 6251TIP3    H218760   3.250   3.026   0.192
 6252TIP3   OH218761   2.693   2.634   4.356
 6252TIP3    H118762   2.758   2.565   4.367
 6252TIP3    H218763   2.653   2.614   4.271
 6253TIP3   OH218764   2.047   4.601   0.425
 6253TIP3    H118765   2.137   4.571   0.416
 6253TIP3    H218766   2.032   4.655   0.347
 6254TIP3   OH218767   2.199   0.675   2.824
 6254TIP3    H118768   2.143   0.664   2.748
 6254TIP3    H218769   2.253   0.752   2.804
 6255TIP3   OH218770   0.368   5.122   3.320
 6255TIP3    H118771   0.461   5.120   3.341
 6255TIP3    H218772   0.325   5.141   3.404
 6256TIP3   OH218773   6.088   0.250   1.733
 6256TIP3    H118774   6.158   0.300   1.690
 6256TIP3    H218775   6.008   0.278   1.688
 6257TIP3   OH218776  -0.024   0.984   4.407
 6257TIP3    H118777   0.034   1.030   4.345
 6257TIP3    H218778   0.028   0.911   4.439
 6258TIP3   OH218779   1.696   3.998   0.948
 6258TIP3    H118780   1.707   3.921   0.892
 6258TIP3    H218781   1.605   3.994   0.977
 6259TIP3   OH218782   4.569   2.748   4.366
 6259TIP3    H118783   4.609   2.805   4.301
 6259TIP3    H218784   4.643   2.710   4.413
 6260TIP3   OH218785   5.271   4.933   0.317
 6260TIP3    H118786   5.218   4.952   0.240
 6260TIP3    H218787   5.261   5.011   0.372
 6261TIP3   OH218788   1.336   4.445   4.961
 6261TIP3    H118789   1.370   4.474   5.046
 6261TIP3    H218790   1.264   4.387   4.982
 6262TIP3   OH218791   0.255   4.085   2.141
 6262TIP3    H118792   0.333   4.140   2.145
 6262TIP3    H218793   0.198   4.128   2.078
 6263TIP3   OH218794   2.406   3.102   0.161
 6263TIP3    H118795   2.476   3.157   0.125
 6263TIP3    H218796   2.328   3.126   0.112
 6264TIP3   OH218797   4.479   5.068   5.183
 6264TIP3    H118798   4.389   5.097   5.167
 6264TIP3    H218799   4.532   5.146   5.167
 6265TIP3   OH218800   5.672   3.064   0.099
 6265TIP3    H118801   5.767   3.054   0.095
 6265TIP3    H218802   5.645   3.016   0.177
 6266TIP3   OH218803   2.859   3.840   0.441
 6266TIP3    H118804   2.795   3.907   0.463
 6266TIP3    H218805   2.848   3.773   0.509
 6267TIP3   OH218806   4.239   1.120   5.194
 6267TIP3    H118807   4.174   1.182   5.162
 6267TIP3    H218808   4.301   1.111   5.122
 6268TIP3   OH218809   5.647   0.061   2.533
 6268TIP3    H118810   5.599   0.084   2.453
 6268TIP3    H218811   5.729   0.108   2.526
 6269TIP3   OH218812   3.061   3.310   1.223
 6269TIP3    H118813   2.981   3.355   1.197
 6269TIP3    H218814   3.112   3.304   1.142
 6270TIP3   OH218815   3.609   0.400   1.673
 6270TIP3    H118816   3.567   0.486   1.668
 6270TIP3    H218817   3.687   0.414   1.727
 6271TIP3   OH218818   3.037   5.639   3.064
 6271TIP3    H118819   3.028   5.730   3.095
 6271TIP3    H218820   2.996   5.587   3.133
 6272TIP3   OH218821   4.908   4.037   3.597
 6272TIP3    H118822   4.853   4.084   3.661
 6272TIP3    H218823   4.977   4.099   3.574
 6273TIP3   OH218824   0.612   2.634   0.664
 6273TIP3    H118825   0.655   2.565   0.715
 6273TIP3    H218826   0.575   2.693   0.730
 6274TIP3   OH218827   5.447   3.126   0.915
 6274TIP3    H118828   5.417   3.185   0.985
 6274TIP3    H218829   5.477   3.048   0.962
 6275TIP3   OH218830   5.579   2.985   1.419
 6275TIP3    H118831   5.557   2.899   1.382
 6275TIP3    H218832   5.510   3.043   1.387
 6276TIP3   OH218833   5.726   4.737   3.588
 6276TIP3    H118834   5.800   4.797   3.591
 6276TIP3    H218835   5.743   4.674   3.658
 6277TIP3   OH218836   5.646   5.283   4.452
 6277TIP3    H118837   5.615   5.373   4.449
 6277TIP3    H218838   5.587   5.235   4.394
 6278TIP3   OH218839   3.014   2.063   2.945
 6278TIP3    H118840   2.958   1.985   2.952
 6278TIP3    H218841   2.988   2.118   3.019
 6279TIP3   OH218842   2.027   1.420   4.144
 6279TIP3    H118843   2.079   1.380   4.213
 6279TIP3    H218844   2.015   1.511   4.173
 6280TIP3   OH218845   3.450   5.427   4.382
 6280TIP3    H118846   3.431   5.394   4.470
 6280TIP3    H218847   3.381   5.389   4.327
 6281TIP3   OH218848   0.274   4.003   3.899
 6281TIP3    H118849   0.188   3.964   3.913
 6281TIP3    H218850   0.270   4.088   3.943
 6282TIP3   OH218851   5.126   1.742   1.629
 6282TIP3    H118852   5.172   1.806   1.575
 6282TIP3    H218853   5.152   1.657   1.592
 6283TIP3   OH218854   2.904   2.086   1.968
 6283TIP3    H118855   2.967   2.142   2.014
 6283TIP3    H218856   2.827   2.085   2.025
 6284TIP3   OH218857   4.192   2.187   3.066
 6284TIP3    H118858   4.275   2.222   3.033
 6284TIP3    H218859   4.135   2.186   2.989
 6285TIP3   OH218860   4.091   1.740   1.829
 6285TIP3    H118861   4.085   1.797   1.906
 6285TIP3    H218862   4.185   1.729   1.815
 6286TIP3   OH218863   3.940   4.355   1.482
 6286TIP3    H118864   3.930   4.394   1.569
 6286TIP3    H218865   4.034   4.361   1.464
 6287TIP3   OH218866   2.125   0.603   0.428
 6287TIP3    H118867   2.153   0.527   0.377
 6287TIP3    H218868   2.157   0.585   0.516
 6288TIP3   OH218869   1.726   3.347   0.733
 6288TIP3    H118870   1.767   3.425   0.771
 6288TIP3    H218871   1.766   3.274   0.780
 6289TIP3   OH218872   3.241   2.580   2.953
 6289TIP3    H118873   3.288   2.591   3.036
 6289TIP3    H218874   3.300   2.529   2.898
 6290TIP3   OH218875   3.029   3.907   2.842
 6290TIP3    H118876   3.084   3.978   2.876
 6290TIP3    H218877   3.048   3.832   2.898
 6291TIP3   OH218878   0.510   3.338   4.166
 6291TIP3    H118879   0.419   3.316   4.147
 6291TIP3    H218880   0.560   3.296   4.096
 6292TIP3   OH218881   3.722   0.927   0.230
 6292TIP3    H118882   3.684   0.842   0.250
 6292TIP3    H218883   3.649   0.980   0.200
 6293TIP3   OH218884   3.412   3.928   4.522
 6293TIP3    H118885   3.486   3.976   4.483
 6293TIP3    H218886   3.398   3.854   4.462
 6294TIP3   OH218887   3.275   5.130   2.057
 6294TIP3    H118888   3.227   5.112   2.137
 6294TIP3    H218889   3.211   5.117   1.987
 6295TIP3   OH218890   3.968   1.627   4.456
 6295TIP3    H118891   3.908   1.553   4.461
 6295TIP3    H218892   3.994   1.644   4.546
 6296TIP3   OH218893   5.835   0.662   4.549
 6296TIP3    H118894   5.903   0.730   4.558
 6296TIP3    H218895   5.866   0.605   4.479
 6297TIP3   OH218896   5.862   3.303   1.408
 6297TIP3    H118897   5.949   3.317   1.370
 6297TIP3    H218898   5.834   3.218   1.372
 6298TIP3   OH218899   0.880   3.147   3.045
 6298TIP3    H118900   0.957   3.094   3.025
 6298TIP3    H218901   0.897   3.183   3.132
 6299TIP3   OH218902   3.541   1.906   0.023
 6299TIP3    H118903   3.474   1.838   0.033
 6299TIP3    H218904   3.585   1.909   0.108
 6300TIP3   OH218905   2.639   1.238   0.937
 6300TIP3    H118906   2.679   1.326   0.941
 6300TIP3    H218907   2.545   1.255   0.930
 6301TIP3   OH218908   2.497   2.695   4.582
 6301TIP3    H118909   2.522   2.635   4.651
 6301TIP3    H218910   2.541   2.662   4.504
 6302TIP3   OH218911   1.354   2.404   1.120
 6302TIP3    H118912   1.415   2.400   1.047
 6302TIP3    H218913   1.272   2.436   1.082
 6303TIP3   OH218914   1.045   5.824   3.466
 6303TIP3    H118915   1.089   5.909   3.473
 6303TIP3    H218916   1.112   5.760   3.487
 6304TIP3   OH218917   1.026   0.207   2.335
 6304TIP3    H118918   0.960   0.217   2.266
 6304TIP3    H218919   1.095   0.269   2.312
 6305TIP3   OH218920   1.007   1.353   3.905
 6305TIP3    H118921   1.059   1.409   3.963
 6305TIP3    H218922   0.917   1.383   3.918
 6306TIP3   OH218923   5.664   3.362   2.882
 6306TIP3    H118924   5.617   3.435   2.922
 6306TIP3    H218925   5.701   3.397   2.801
 6307TIP3   OH218926   0.321   2.614   2.567
 6307TIP3    H118927   0.238   2.617   2.519
 6307TIP3    H218928   0.306   2.550   2.636
 6308TIP3   OH218929   3.466   5.941   5.172
 6308TIP3    H118930   3.413   5.960   5.250
 6308TIP3    H218931   3.402   5.937   5.101
 6309TIP3   OH218932   3.201   5.820   3.852
 6309TIP3    H118933   3.150   5.868   3.918
 6309TIP3    H218934   3.136   5.770   3.802
 6310TIP3   OH218935   1.644   2.372   0.645
 6310TIP3    H118936   1.634   2.365   0.550
 6310TIP3    H218937   1.720   2.318   0.665
 6311TIP3   OH218938   2.374   5.089   1.795
 6311TIP3    H118939   2.439   5.038   1.844
 6311TIP3    H218940   2.397   5.181   1.813
 6312TIP3   OH218941   0.847   5.254   4.713
 6312TIP3    H118942   0.821   5.344   4.736
 6312TIP3    H218943   0.799   5.234   4.633
 6313TIP3   OH218944   2.971   0.154   1.017
 6313TIP3    H118945   3.058   0.118   1.001
 6313TIP3    H218946   2.918   0.079   1.043
 6314TIP3   OH218947   2.011   5.853   3.498
 6314TIP3    H118948   2.015   5.923   3.563
 6314TIP3    H218949   1.938   5.877   3.441
 6315TIP3   OH218950   4.560   2.423   3.055
 6315TIP3    H118951   4.507   2.373   2.993
 6315TIP3    H218952   4.650   2.412   3.024
 6316TIP3   OH218953   4.410   0.595   3.706
 6316TIP3    H118954   4.428   0.661   3.638
 6316TIP3    H218955   4.473   0.614   3.775
 6317TIP3   OH218956   2.157   5.073   2.209
 6317TIP3    H118957   2.108   5.029   2.278
 6317TIP3    H218958   2.092   5.097   2.144
 6318TIP3   OH218959   2.315   5.991   3.017
 6318TIP3    H118960   2.292   5.918   2.959
 6318TIP3    H218961   2.386   5.957   3.071
 6319TIP3   OH218962   5.756   1.175   3.517
 6319TIP3    H118963   5.735   1.225   3.438
 6319TIP3    H218964   5.680   1.118   3.530
 6320TIP3   OH218965   5.823   4.791   2.326
 6320TIP3    H118966   5.847   4.718   2.384
 6320TIP3    H218967   5.850   4.869   2.375
 6321TIP3   OH218968   4.474   5.456   0.170
 6321TIP3    H118969   4.560   5.425   0.196
 6321TIP3    H218970   4.484   5.550   0.157
 6322TIP3   OH218971   3.195   3.965   1.492
 6322TIP3    H118972   3.241   3.921   1.564
 6322TIP3    H218973   3.220   4.057   1.499
 6323TIP3   OH218974   0.846   4.495   1.284
 6323TIP3    H118975   0.871   4.566   1.225
 6323TIP3    H218976   0.881   4.520   1.369
 6324TIP3   OH218977   1.820   2.306   1.486
 6324TIP3    H118978   1.900   2.341   1.448
 6324TIP3    H218979   1.846   2.222   1.524
 6325TIP3   OH218980   0.862   3.564   0.020
 6325TIP3    H118981   0.768   3.572   0.039
 6325TIP3    H218982   0.888   3.481   0.059
 6326TIP3   OH218983   4.392   4.730   4.656
 6326TIP3    H118984   4.341   4.757   4.732
 6326TIP3    H218985   4.470   4.787   4.659
 6327TIP3   OH218986   5.859   3.976   4.396
 6327TIP3    H118987   5.900   3.955   4.480
 6327TIP3    H218988   5.784   4.031   4.420
 6328TIP3   OH218989   0.180   3.873   0.464
 6328TIP3    H118990   0.164   3.962   0.433
 6328TIP3    H218991   0.231   3.884   0.544
 6329TIP3   OH218992   5.750   1.491   3.076
 6329TIP3    H118993   5.801   1.416   3.046
 6329TIP3    H218994   5.775   1.562   3.017
 6330TIP3   OH218995   1.662   2.844   0.434
 6330TIP3    H118996   1.703   2.757   0.430
 6330TIP3    H218997   1.624   2.856   0.347
 6331TIP3   OH218998   1.225   1.651   4.563
 6331TIP3    H118999   1.298   1.589   4.569
 6331TIP3    H219000   1.147   1.599   4.581
 6332TIP3   OH219001   1.747   1.560   1.041
 6332TIP3    H119002   1.828   1.559   1.092
 6332TIP3    H219003   1.761   1.629   0.976
 6333TIP3   OH219004   2.550   1.452   0.407
 6333TIP3    H119005   2.609   1.510   0.358
 6333TIP3    H219006   2.603   1.374   0.423
 6334TIP3   OH219007   3.433   5.566   0.950
 6334TIP3    H119008   3.503   5.621   0.915
 6334TIP3    H219009   3.465   5.539   1.036
 6335TIP3   OH219010   5.105   2.049   1.246
 6335TIP3    H119011   5.113   1.991   1.321
 6335TIP3    H219012   5.151   2.129   1.272
 6336TIP3   OH219013   4.836   3.687   2.149
 6336TIP3    H119014   4.870   3.604   2.183
 6336TIP3    H219015   4.906   3.751   2.166
 6337TIP3   OH219016   0.694   1.839   2.576
 6337TIP3    H119017   0.749   1.818   2.652
 6337TIP3    H219018   0.604   1.834   2.609
 6338TIP3   OH219019   0.648   5.596   5.057
 6338TIP3    H119020   0.729   5.546   5.044
 6338TIP3    H219021   0.579   5.533   5.036
 6339TIP3   OH219022   1.281   4.954  -0.037
 6339TIP3    H119023   1.275   4.891   0.035
 6339TIP3    H219024   1.341   5.021  -0.005
 6340TIP3   OH219025   3.275   5.718   1.650
 6340TIP3    H119026   3.330   5.654   1.604
 6340TIP3    H219027   3.302   5.710   1.742
 6341TIP3   OH219028   5.755   0.890   0.499
 6341TIP3    H119029   5.661   0.871   0.499
 6341TIP3    H219030   5.797   0.806   0.484
 6342TIP3   OH219031   5.828   1.812   3.148
 6342TIP3    H119032   5.882   1.804   3.069
 6342TIP3    H219033   5.890   1.828   3.219
 6343TIP3   OH219034   0.346   2.075   5.082
 6343TIP3    H119035   0.429   2.083   5.034
 6343TIP3    H219036   0.362   2.118   5.165
 6344TIP3   OH219037   0.019   4.146   0.497
 6344TIP3    H119038   0.034   4.237   0.471
 6344TIP3    H219039   0.009   4.098   0.415
 6345TIP3   OH219040   3.408   2.670   0.803
 6345TIP3    H119041   3.429   2.596   0.746
 6345TIP3    H219042   3.420   2.747   0.747
 6346TIP3   OH219043   2.901   4.809   1.211
 6346TIP3    H119044   2.898   4.902   1.235
 6346TIP3    H219045   2.873   4.807   1.119
 6347TIP3   OH219046   3.903   2.222   0.661
 6347TIP3    H119047   3.900   2.144   0.606
 6347TIP3    H219048   3.980   2.209   0.716
 6348TIP3   OH219049   0.802   2.030   0.357
 6348TIP3    H119050   0.895   2.016   0.370
 6348TIP3    H219051   0.797   2.110   0.304
 6349TIP3   OH219052   1.363   0.529   4.782
 6349TIP3    H119053   1.437   0.528   4.843
 6349TIP3    H219054   1.289   0.496   4.833
 6350TIP3   OH219055   3.471   5.739   3.773
 6350TIP3    H119056   3.519   5.821   3.780
 6350TIP3    H219057   3.379   5.765   3.779
 6351TIP3   OH219058   2.126   5.449   1.741
 6351TIP3    H119059   2.083   5.521   1.695
 6351TIP3    H219060   2.054   5.401   1.783
 6352TIP3   OH219061   1.493   1.968   1.858
 6352TIP3    H119062   1.501   1.887   1.808
 6352TIP3    H219063   1.426   2.019   1.812
 6353TIP3   OH219064   3.417   2.879   1.693
 6353TIP3    H119065   3.341   2.892   1.635
 6353TIP3    H219066   3.468   2.959   1.685
 6354TIP3   OH219067   0.137   5.321   3.862
 6354TIP3    H119068   0.115   5.379   3.935
 6354TIP3    H219069   0.232   5.311   3.867
 6355TIP3   OH219070   0.331   3.092   0.950
 6355TIP3    H119071   0.404   3.097   0.889
 6355TIP3    H219072   0.287   3.176   0.943
 6356TIP3   OH219073   0.324   1.079   0.293
 6356TIP3    H119074   0.366   1.146   0.347
 6356TIP3    H219075   0.396   1.042   0.241
 6357TIP3   OH219076   2.769   1.831   1.246
 6357TIP3    H119077   2.789   1.819   1.153
 6357TIP3    H219078   2.677   1.858   1.247
 6358TIP3   OH219079   0.243   3.597   4.646
 6358TIP3    H119080   0.163   3.591   4.594
 6358TIP3    H219081   0.278   3.684   4.627
 6359TIP3   OH219082   1.479   2.744   3.769
 6359TIP3    H119083   1.409   2.802   3.798
 6359TIP3    H219084   1.537   2.800   3.717
 6360TIP3   OH219085   3.145   0.466   4.411
 6360TIP3    H119086   3.228   0.439   4.373
 6360TIP3    H219087   3.158   0.459   4.506
 6361TIP3   OH219088   3.394   4.993   1.262
 6361TIP3    H119089   3.355   4.915   1.223
 6361TIP3    H219090   3.473   4.961   1.305
 6362TIP3   OH219091   2.565   4.461   4.772
 6362TIP3    H119092   2.486   4.510   4.752
 6362TIP3    H219093   2.610   4.453   4.688
 6363TIP3   OH219094   3.713   4.398   3.297
 6363TIP3    H119095   3.647   4.451   3.253
 6363TIP3    H219096   3.791   4.454   3.300
 6364TIP3   OH219097   0.220   0.406   4.778
 6364TIP3    H119098   0.242   0.470   4.710
 6364TIP3    H219099   0.160   0.452   4.836
 6365TIP3   OH219100   4.170   3.937   4.009
 6365TIP3    H119101   4.120   3.861   4.041
 6365TIP3    H219102   4.115   4.012   4.031
 6366TIP3   OH219103   1.370   3.001   0.518
 6366TIP3    H119104   1.388   3.064   0.588
 6366TIP3    H219105   1.363   2.917   0.563
 6367TIP3   OH219106   6.017   4.018   4.628
 6367TIP3    H119107   5.950   4.078   4.661
 6367TIP3    H219108   6.029   3.953   4.698
 6368TIP3   OH219109   5.477   4.352   4.913
 6368TIP3    H119110   5.529   4.408   4.854
 6368TIP3    H219111   5.492   4.390   5.000
 6369TIP3   OH219112   2.572   5.253   2.959
 6369TIP3    H119113   2.597   5.333   3.006
 6369TIP3    H219114   2.575   5.184   3.025
 6370TIP3   OH219115   4.218   1.200   4.328
 6370TIP3    H119116   4.277   1.167   4.260
 6370TIP3    H219117   4.273   1.209   4.405
 6371TIP3   OH219118   3.677   4.811   0.566
 6371TIP3    H119119   3.605   4.856   0.521
 6371TIP3    H219120   3.745   4.877   0.576
 6372TIP3   OH219121   1.719   3.223   2.674
 6372TIP3    H119122   1.718   3.271   2.591
 6372TIP3    H219123   1.768   3.143   2.655
 6373TIP3   OH219124   3.084   1.427   1.464
 6373TIP3    H119125   3.042   1.503   1.425
 6373TIP3    H219126   3.161   1.462   1.509
 6374TIP3   OH219127   4.460   4.191   0.307
 6374TIP3    H119128   4.381   4.202   0.360
 6374TIP3    H219129   4.504   4.276   0.312
 6375TIP3   OH219130   0.334   5.571   2.982
 6375TIP3    H119131   0.427   5.553   2.970
 6375TIP3    H219132   0.331   5.648   3.039
 6376TIP3   OH219133   4.439   4.892   1.238
 6376TIP3    H119134   4.424   4.898   1.144
 6376TIP3    H219135   4.434   4.982   1.269
 6377TIP3   OH219136   5.358   3.221   1.574
 6377TIP3    H119137   5.372   3.147   1.634
 6377TIP3    H219138   5.446   3.257   1.560
 6378TIP3   OH219139   1.553   3.085   3.144
 6378TIP3    H119140   1.594   3.028   3.209
 6378TIP3    H219141   1.459   3.072   3.157
 6379TIP3   OH219142   1.749   3.108   4.920
 6379TIP3    H119143   1.712   3.105   5.008
 6379TIP3    H219144   1.823   3.048   4.923
 6380TIP3   OH219145   2.776   0.835   4.239
 6380TIP3    H119146   2.831   0.757   4.251
 6380TIP3    H219147   2.823   0.887   4.174
 6381TIP3   OH219148   6.356   5.987   0.315
 6381TIP3    H119149   6.310   6.005   0.233
 6381TIP3    H219150   6.449   5.987   0.290
 6382TIP3   OH219151   6.042   0.167   0.706
 6382TIP3    H119152   6.040   0.260   0.683
 6382TIP3    H219153   5.969   0.156   0.766
 6383TIP3   OH219154   0.751   4.929   2.888
 6383TIP3    H119155   0.757   5.015   2.929
 6383TIP3    H219156   0.713   4.946   2.802
 6384TIP3   OH219157   0.814   2.504   2.070
 6384TIP3    H119158   0.821   2.468   1.982
 6384TIP3    H219159   0.785   2.595   2.057
 6385TIP3   OH219160   5.300   1.923   4.968
 6385TIP3    H119161   5.368   1.920   5.035
 6385TIP3    H219162   5.271   1.832   4.959
 6386TIP3   OH219163   5.013   3.375   3.870
 6386TIP3    H119164   5.099   3.405   3.840
 6386TIP3    H219165   5.027   3.349   3.961
 6387TIP3   OH219166   4.216   1.214   0.231
 6387TIP3    H119167   4.266   1.144   0.189
 6387TIP3    H219168   4.143   1.230   0.170
 6388TIP3   OH219169   2.303   5.887   3.796
 6388TIP3    H119170   2.359   5.891   3.873
 6388TIP3    H219171   2.228   5.941   3.818
 6389TIP3   OH219172   3.547   4.447   1.988
 6389TIP3    H119173   3.493   4.385   1.939
 6389TIP3    H219174   3.499   4.529   1.984
 6390TIP3   OH219175   1.970   5.675   1.627
 6390TIP3    H119176   1.878   5.647   1.623
 6390TIP3    H219177   1.992   5.694   1.536
 6391TIP3   OH219178   5.148   5.619   4.081
 6391TIP3    H119179   5.183   5.669   4.155
 6391TIP3    H219180   5.056   5.604   4.102
 6392TIP3   OH219181   4.204   2.456   0.924
 6392TIP3    H119182   4.179   2.440   1.016
 6392TIP3    H219183   4.299   2.466   0.927
 6393TIP3   OH219184   0.415   5.689   3.278
 6393TIP3    H119185   0.388   5.598   3.265
 6393TIP3    H219186   0.370   5.717   3.358
 6394TIP3   OH219187   2.550   1.469   3.665
 6394TIP3    H119188   2.609   1.394   3.673
 6394TIP3    H219189   2.595   1.540   3.710
 6395TIP3   OH219190   3.406   4.684   1.908
 6395TIP3    H119191   3.336   4.715   1.967
 6395TIP3    H219192   3.360   4.659   1.828
 6396TIP3   OH219193   6.212   1.943   1.919
 6396TIP3    H119194   6.231   2.020   1.866
 6396TIP3    H219195   6.154   1.974   1.988
 6397TIP3   OH219196   2.991   1.640   5.180
 6397TIP3    H119197   3.066   1.623   5.123
 6397TIP3    H219198   3.026   1.636   5.269
 6398TIP3   OH219199   3.087   4.449   3.427
 6398TIP3    H119200   3.144   4.519   3.394
 6398TIP3    H219201   3.099   4.451   3.522
 6399TIP3   OH219202   2.727   3.307   5.053
 6399TIP3    H119203   2.780   3.227   5.046
 6399TIP3    H219204   2.636   3.276   5.046
 6400TIP3   OH219205   1.508   4.859   0.294
 6400TIP3    H119206   1.468   4.925   0.238
 6400TIP3    H219207   1.602   4.876   0.290
 6401TIP3   OH219208   5.681   1.997   1.844
 6401TIP3    H119209   5.598   2.000   1.797
 6401TIP3    H219210   5.745   1.969   1.779
 6402TIP3   OH219211   3.271   5.561   4.072
 6402TIP3    H119212   3.343   5.497   4.073
 6402TIP3    H219213   3.315   5.646   4.070
 6403TIP3   OH219214   4.883   0.516   1.220
 6403TIP3    H119215   4.790   0.533   1.205
 6403TIP3    H219216   4.885   0.441   1.280
 6404TIP3   OH219217   2.848   3.694   0.686
 6404TIP3    H119218   2.921   3.635   0.705
 6404TIP3    H219219   2.814   3.718   0.773
 6405TIP3   OH219220   6.404   0.652   0.451
 6405TIP3    H119221   6.369   0.562   0.452
 6405TIP3    H219222   6.362   0.694   0.525
 6406TIP3   OH219223   3.315   3.223   4.303
 6406TIP3    H119224   3.332   3.302   4.252
 6406TIP3    H219225   3.263   3.252   4.378
 6407TIP3   OH219226   3.746   1.037   4.632
 6407TIP3    H119227   3.820   1.021   4.690
 6407TIP3    H219228   3.692   1.100   4.679
 6408TIP3   OH219229   0.616   2.141   5.030
 6408TIP3    H119230   0.612   2.184   4.944
 6408TIP3    H219231   0.672   2.065   5.017
 6409TIP3   OH219232   5.826   2.257   0.654
 6409TIP3    H119233   5.830   2.340   0.702
 6409TIP3    H219234   5.871   2.275   0.572
 6410TIP3   OH219235   5.389   1.260   3.464
 6410TIP3    H119236   5.334   1.271   3.541
 6410TIP3    H219237   5.447   1.337   3.465
 6411TIP3   OH219238   4.038   0.374   3.777
 6411TIP3    H119239   4.033   0.402   3.868
 6411TIP3    H219240   4.033   0.455   3.726
 6412TIP3   OH219241   6.001   4.297   0.750
 6412TIP3    H119242   5.947   4.281   0.827
 6412TIP3    H219243   6.083   4.332   0.784
 6413TIP3   OH219244   0.140   2.775   1.596
 6413TIP3    H119245   0.089   2.744   1.521
 6413TIP3    H219246   0.088   2.751   1.673
 6414TIP3   OH219247   5.711   5.803   0.528
 6414TIP3    H119248   5.712   5.746   0.604
 6414TIP3    H219249   5.716   5.892   0.564
 6415TIP3   OH219250   5.909   1.361   4.403
 6415TIP3    H119251   6.001   1.375   4.422
 6415TIP3    H219252   5.874   1.449   4.386
 6416TIP3   OH219253   0.169   3.842   2.802
 6416TIP3    H119254   0.234   3.804   2.744
 6416TIP3    H219255   0.107   3.771   2.818
 6417TIP3   OH219256   5.841   0.966   1.637
 6417TIP3    H119257   5.875   1.037   1.692
 6417TIP3    H219258   5.874   0.886   1.677
 6418TIP3   OH219259   4.374   3.042   3.163
 6418TIP3    H119260   4.467   3.057   3.178
 6418TIP3    H219261   4.351   3.102   3.091
 6419TIP3   OH219262   1.611   1.780   3.799
 6419TIP3    H119263   1.582   1.871   3.810
 6419TIP3    H219264   1.537   1.736   3.759
 6420TIP3   OH219265   2.787   4.320   0.552
 6420TIP3    H119266   2.859   4.325   0.490
 6420TIP3    H219267   2.710   4.346   0.502
 6421TIP3   OH219268   0.813   4.250   4.375
 6421TIP3    H119269   0.834   4.217   4.288
 6421TIP3    H219270   0.767   4.178   4.418
 6422TIP3   OH219271   4.296   3.481   3.780
 6422TIP3    H119272   4.283   3.570   3.813
 6422TIP3    H219273   4.391   3.475   3.765
 6423TIP3   OH219274   2.261   3.787   2.967
 6423TIP3    H119275   2.328   3.833   2.915
 6423TIP3    H219276   2.258   3.836   3.049
 6424TIP3   OH219277   1.264   4.393   0.384
 6424TIP3    H119278   1.177   4.380   0.422
 6424TIP3    H219279   1.319   4.419   0.458
 6425TIP3   OH219280   0.589   4.055   4.065
 6425TIP3    H119281   0.592   4.011   3.980
 6425TIP3    H219282   0.498   4.050   4.092
 6426TIP3   OH219283   4.329   3.926   4.793
 6426TIP3    H119284   4.326   3.958   4.883
 6426TIP3    H219285   4.381   3.846   4.798
 6427TIP3   OH219286   5.951   5.416   4.666
 6427TIP3    H119287   5.952   5.467   4.585
 6427TIP3    H219288   5.913   5.331   4.641
 6428TIP3   OH219289   0.862   4.332   2.951
 6428TIP3    H119290   0.865   4.324   2.856
 6428TIP3    H219291   0.916   4.408   2.971
 6429TIP3   OH219292   4.080   0.148   3.621
 6429TIP3    H119293   4.091   0.225   3.676
 6429TIP3    H219294   4.145   0.157   3.552
 6430TIP3   OH219295   4.017   0.925   5.109
 6430TIP3    H119296   4.094   0.913   5.165
 6430TIP3    H219297   3.974   1.003   5.143
 6431TIP3   OH219298   0.583   5.624   0.616
 6431TIP3    H119299   0.552   5.549   0.667
 6431TIP3    H219300   0.585   5.591   0.525
 6432TIP3   OH219301   3.528   2.592   0.524
 6432TIP3    H119302   3.585   2.598   0.601
 6432TIP3    H219303   3.556   2.664   0.468
 6433TIP3   OH219304   1.211   1.031   4.797
 6433TIP3    H119305   1.294   1.009   4.753
 6433TIP3    H219306   1.155   1.064   4.727
 6434TIP3   OH219307   3.340   2.801   3.362
 6434TIP3    H119308   3.420   2.762   3.399
 6434TIP3    H219309   3.269   2.746   3.393
 6435TIP3   OH219310   3.210   5.658   1.092
 6435TIP3    H119311   3.260   5.595   1.040
 6435TIP3    H219312   3.275   5.720   1.124
 6436TIP3   OH219313   6.232   4.329   1.843
 6436TIP3    H119314   6.152   4.378   1.862
 6436TIP3    H219315   6.293   4.395   1.810
 6437TIP3   OH219316   5.006   0.153   0.409
 6437TIP3    H119317   5.062   0.229   0.425
 6437TIP3    H219318   5.003   0.107   0.493
 6438TIP3   OH219319   3.653   1.463   0.942
 6438TIP3    H119320   3.737   1.465   0.897
 6438TIP3    H219321   3.643   1.372   0.970
 6439TIP3   OH219322   4.302   3.286   4.976
 6439TIP3    H119323   4.394   3.303   4.952
 6439TIP3    H219324   4.274   3.216   4.917
 6440TIP3   OH219325   5.803   0.986   3.064
 6440TIP3    H119326   5.884   1.033   3.044
 6440TIP3    H219327   5.733   1.050   3.047
 6441TIP3   OH219328   4.380   5.709   4.657
 6441TIP3    H119329   4.409   5.756   4.735
 6441TIP3    H219330   4.298   5.752   4.632
 6442TIP3   OH219331   5.897   3.906   5.096
 6442TIP3    H119332   5.848   3.865   5.167
 6442TIP3    H219333   5.937   3.833   5.049
 6443TIP3   OH219334   1.099   2.697   0.521
 6443TIP3    H119335   1.064   2.786   0.519
 6443TIP3    H219336   1.113   2.679   0.614
 6444TIP3   OH219337   3.523   5.490   2.114
 6444TIP3    H119338   3.552   5.541   2.190
 6444TIP3    H219339   3.536   5.399   2.140
 6445TIP3   OH219340   2.428   5.737   4.638
 6445TIP3    H119341   2.512   5.776   4.663
 6445TIP3    H219342   2.424   5.655   4.688
 6446TIP3   OH219343   2.873   4.540   3.619
 6446TIP3    H119344   2.921   4.533   3.536
 6446TIP3    H219345   2.830   4.626   3.615
 6447TIP3   OH219346   1.012   5.710   0.941
 6447TIP3    H119347   0.968   5.717   0.856
 6447TIP3    H219348   0.996   5.619   0.969
 6448TIP3   OH219349   4.268   0.081   3.951
 6448TIP3    H119350   4.252   0.168   3.987
 6448TIP3    H219351   4.246   0.021   4.023
 6449TIP3   OH219352   5.208   3.458   2.555
 6449TIP3    H119353   5.151   3.381   2.554
 6449TIP3    H219354   5.281   3.433   2.612
 6450TIP3   OH219355   3.060   2.620   1.152
 6450TIP3    H119356   3.040   2.700   1.200
 6450TIP3    H219357   3.143   2.638   1.108
 6451TIP3   OH219358   2.452   2.722   2.898
 6451TIP3    H119359   2.416   2.671   2.970
 6451TIP3    H219360   2.430   2.812   2.919
 6452TIP3   OH219361   1.933   0.341   4.476
 6452TIP3    H119362   2.001   0.402   4.506
 6452TIP3    H219363   1.981   0.260   4.458
 6453TIP3   OH219364   5.673   5.171   0.424
 6453TIP3    H119365   5.603   5.109   0.400
 6453TIP3    H219366   5.635   5.257   0.406
 6454TIP3   OH219367   0.544   1.771   1.287
 6454TIP3    H119368   0.489   1.806   1.357
 6454TIP3    H219369   0.534   1.833   1.215
 6455TIP3   OH219370   0.882   3.488   1.600
 6455TIP3    H119371   0.951   3.553   1.603
 6455TIP3    H219372   0.926   3.405   1.621
 6456TIP3   OH219373   5.569   0.096   3.721
 6456TIP3    H119374   5.648   0.057   3.682
 6456TIP3    H219375   5.542   0.162   3.658
 6457TIP3   OH219376   0.212   3.212   2.876
 6457TIP3    H119377   0.166   3.187   2.796
 6457TIP3    H219378   0.199   3.139   2.935
 6458TIP3   OH219379   4.603   5.175   4.562
 6458TIP3    H119380   4.626   5.119   4.636
 6458TIP3    H219381   4.583   5.260   4.601
 6459TIP3   OH219382   3.682   5.957   0.620
 6459TIP3    H119383   3.718   6.010   0.549
 6459TIP3    H219384   3.602   6.003   0.646
 6460TIP3   OH219385   3.680   1.396   2.480
 6460TIP3    H119386   3.585   1.387   2.488
 6460TIP3    H219387   3.696   1.490   2.480
 6461TIP3   OH219388   1.743   2.710   1.768
 6461TIP3    H119389   1.794   2.639   1.727
 6461TIP3    H219390   1.802   2.746   1.834
 6462TIP3   OH219391   4.413   4.449   4.548
 6462TIP3    H119392   4.488   4.430   4.492
 6462TIP3    H219393   4.421   4.542   4.568
 6463TIP3   OH219394   5.782   5.010   1.888
 6463TIP3    H119395   5.705   4.986   1.836
 6463TIP3    H219396   5.763   5.098   1.920
 6464TIP3   OH219397   2.574   0.633   2.845
 6464TIP3    H119398   2.556   0.682   2.764
 6464TIP3    H219399   2.566   0.698   2.915
 6465TIP3   OH219400   4.035   0.597   3.581
 6465TIP3    H119401   4.063   0.523   3.527
 6465TIP3    H219402   3.965   0.639   3.531
 6466TIP3   OH219403   0.813   3.203   1.626
 6466TIP3    H119404   0.870   3.159   1.563
 6466TIP3    H219405   0.873   3.248   1.685
 6467TIP3   OH219406   2.731   5.255   0.375
 6467TIP3    H119407   2.763   5.262   0.285
 6467TIP3    H219408   2.806   5.277   0.429
 6468TIP3   OH219409   3.710   1.601   3.530
 6468TIP3    H119410   3.618   1.624   3.543
 6468TIP3    H219411   3.711   1.556   3.446
 6469TIP3   OH219412   3.592   0.587   0.536
 6469TIP3    H119413   3.619   0.669   0.495
 6469TIP3    H219414   3.503   0.603   0.566
 6470TIP3   OH219415   2.942   0.660   4.639
 6470TIP3    H119416   3.003   0.601   4.684
 6470TIP3    H219417   2.856   0.634   4.671
 6471TIP3   OH219418   3.139   3.740   1.044
 6471TIP3    H119419   3.180   3.823   1.018
 6471TIP3    H219420   3.190   3.710   1.119
 6472TIP3   OH219421   5.561   2.192   4.964
 6472TIP3    H119422   5.546   2.111   5.012
 6472TIP3    H219423   5.487   2.248   4.989
 6473TIP3   OH219424   3.228   0.914   2.114
 6473TIP3    H119425   3.203   0.852   2.182
 6473TIP3    H219426   3.286   0.976   2.158
 6474TIP3   OH219427   1.070   0.673   2.925
 6474TIP3    H119428   1.102   0.755   2.888
 6474TIP3    H219429   1.072   0.686   3.019
 6475TIP3   OH219430   3.154   0.982   4.665
 6475TIP3    H119431   3.113   0.969   4.751
 6475TIP3    H219432   3.247   0.967   4.681
 6476TIP3   OH219433   0.250   2.321   4.792
 6476TIP3    H119434   0.168   2.307   4.840
 6476TIP3    H219435   0.277   2.409   4.817
 6477TIP3   OH219436   5.959   1.783   2.341
 6477TIP3    H119437   5.878   1.834   2.347
 6477TIP3    H219438   5.946   1.711   2.403
 6478TIP3   OH219439   2.180   3.037   1.361
 6478TIP3    H119440   2.129   3.006   1.435
 6478TIP3    H219441   2.177   2.965   1.298
 6479TIP3   OH219442   1.298   4.303   1.770
 6479TIP3    H119443   1.251   4.384   1.789
 6479TIP3    H219444   1.379   4.311   1.820
 6480TIP3   OH219445   4.641   3.774   3.557
 6480TIP3    H119446   4.646   3.833   3.482
 6480TIP3    H219447   4.731   3.770   3.590
 6481TIP3   OH219448   2.301   4.309   2.254
 6481TIP3    H119449   2.388   4.349   2.258
 6481TIP3    H219450   2.278   4.310   2.161
 6482TIP3   OH219451   1.470   3.376   2.724
 6482TIP3    H119452   1.418   3.361   2.803
 6482TIP3    H219453   1.536   3.306   2.727
 6483TIP3   OH219454   5.210   3.832   0.205
 6483TIP3    H119455   5.184   3.785   0.284
 6483TIP3    H219456   5.160   3.913   0.208
 6484TIP3   OH219457   4.444   4.420   5.128
 6484TIP3    H119458   4.429   4.487   5.061
 6484TIP3    H219459   4.520   4.371   5.096
 6485TIP3   OH219460   0.555   0.607   4.021
 6485TIP3    H119461   0.553   0.515   3.994
 6485TIP3    H219462   0.646   0.634   4.007
 6486TIP3   OH219463   6.076   4.971   3.778
 6486TIP3    H119464   6.117   5.047   3.817
 6486TIP3    H219465   6.088   4.901   3.842
 6487TIP3   OH219466   5.112   2.276   1.480
 6487TIP3    H119467   5.207   2.280   1.474
 6487TIP3    H219468   5.081   2.335   1.412
 6488TIP3   OH219469   4.277   4.893   1.011
 6488TIP3    H119470   4.222   4.969   0.990
 6488TIP3    H219471   4.280   4.842   0.930
 6489TIP3   OH219472   4.721   2.368   1.024
 6489TIP3    H119473   4.686   2.282   1.046
 6489TIP3    H219474   4.734   2.411   1.108
 6490TIP3   OH219475   0.179   4.560   2.389
 6490TIP3    H119476   0.149   4.478   2.349
 6490TIP3    H219477   0.262   4.578   2.345
 6491TIP3   OH219478   5.148   0.594   4.829
 6491TIP3    H119479   5.185   0.537   4.762
 6491TIP3    H219480   5.117   0.671   4.781
 6492TIP3   OH219481   5.828   3.063   1.264
 6492TIP3    H119482   5.900   3.006   1.288
 6492TIP3    H219483   5.749   3.017   1.294
 6493TIP3   OH219484   6.055   0.681   1.377
 6493TIP3    H119485   6.074   0.721   1.461
 6493TIP3    H219486   5.971   0.636   1.390
 6494TIP3   OH219487   0.231  -0.077   3.189
 6494TIP3    H119488   0.290  -0.006   3.166
 6494TIP3    H219489   0.147  -0.052   3.151
 6495TIP3   OH219490   4.212   4.489   0.049
 6495TIP3    H119491   4.142   4.437   0.088
 6495TIP3    H219492   4.227   4.448  -0.036
 6496TIP3   OH219493   5.968   0.733   3.755
 6496TIP3    H119494   6.009   0.787   3.823
 6496TIP3    H219495   5.955   0.792   3.682
 6497TIP3   OH219496   6.000   2.161   4.162
 6497TIP3    H119497   6.066   2.095   4.141
 6497TIP3    H219498   5.931   2.147   4.098
 6498TIP3   OH219499   4.189   5.378   4.348
 6498TIP3    H119500   4.138   5.350   4.272
 6498TIP3    H219501   4.218   5.296   4.388
 6499TIP3   OH219502   2.456   0.708   3.802
 6499TIP3    H119503   2.524   0.641   3.795
 6499TIP3    H219504   2.393   0.671   3.864
 6500TIP3   OH219505   5.915   2.924   1.575
 6500TIP3    H119506   5.996   2.935   1.626
 6500TIP3    H219507   5.858   2.994   1.606
 6501TIP3   OH219508   1.557   3.212   1.415
 6501TIP3    H119509   1.588   3.292   1.374
 6501TIP3    H219510   1.481   3.240   1.467
 6502TIP3   OH219511   0.924   4.330   3.658
 6502TIP3    H119512   1.012   4.308   3.688
 6502TIP3    H219513   0.874   4.249   3.670
 6503TIP3   OH219514   1.489   1.715   1.607
 6503TIP3    H119515   1.545   1.791   1.596
 6503TIP3    H219516   1.400   1.751   1.611
 6504TIP3   OH219517   4.168   0.486   2.576
 6504TIP3    H119518   4.188   0.573   2.610
 6504TIP3    H219519   4.188   0.492   2.482
 6505TIP3   OH219520   5.330   2.524   1.891
 6505TIP3    H119521   5.353   2.616   1.906
 6505TIP3    H219522   5.266   2.526   1.821
 6506TIP3   OH219523   3.901   5.205   2.584
 6506TIP3    H119524   3.863   5.216   2.497
 6506TIP3    H219525   3.963   5.277   2.593
 6507TIP3   OH219526   0.655   0.775   2.837
 6507TIP3    H119527   0.593   0.714   2.796
 6507TIP3    H219528   0.717   0.796   2.768
 6508TIP3   OH219529   3.035   1.138   4.236
 6508TIP3    H119530   3.077   1.106   4.156
 6508TIP3    H219531   3.072   1.084   4.305
 6509TIP3   OH219532   0.120   1.806   2.861
 6509TIP3    H119533   0.195   1.866   2.856
 6509TIP3    H219534   0.152   1.732   2.914
 6510TIP3   OH219535   2.857   3.782   0.953
 6510TIP3    H119536   2.823   3.695   0.971
 6510TIP3    H219537   2.951   3.775   0.963
 6511TIP3   OH219538   2.433   3.672   2.009
 6511TIP3    H119539   2.432   3.766   2.026
 6511TIP3    H219540   2.356   3.657   1.954
 6512TIP3   OH219541   4.975   1.407   5.140
 6512TIP3    H119542   5.022   1.350   5.200
 6512TIP3    H219543   4.923   1.348   5.086
 6513TIP3   OH219544   4.271   5.321   2.098
 6513TIP3    H119545   4.292   5.414   2.089
 6513TIP3    H219546   4.332   5.290   2.166
 6514TIP3   OH219547   1.725   4.636   0.357
 6514TIP3    H119548   1.736   4.722   0.315
 6514TIP3    H219549   1.715   4.656   0.450
 6515TIP3   OH219550   3.517   3.918   2.357
 6515TIP3    H119551   3.496   3.882   2.271
 6515TIP3    H219552   3.599   3.965   2.345
 6516TIP3   OH219553   3.064   5.566   4.251
 6516TIP3    H119554   3.145   5.570   4.201
 6516TIP3    H219555   3.086   5.516   4.330
 6517TIP3   OH219556   4.882   0.453   2.882
 6517TIP3    H119557   4.807   0.423   2.933
 6517TIP3    H219558   4.958   0.412   2.923
 6518TIP3   OH219559   5.844   0.975   4.960
 6518TIP3    H119560   5.794   0.957   4.881
 6518TIP3    H219561   5.784   1.022   5.017
 6519TIP3   OH219562   4.267   0.297   4.375
 6519TIP3    H119563   4.347   0.309   4.425
 6519TIP3    H219564   4.204   0.356   4.417
 6520TIP3   OH219565   2.182   2.255   4.380
 6520TIP3    H119566   2.237   2.178   4.367
 6520TIP3    H219567   2.177   2.296   4.293
 6521TIP3   OH219568   1.723   4.856   2.869
 6521TIP3    H119569   1.788   4.800   2.912
 6521TIP3    H219570   1.699   4.921   2.935
 6522TIP3   OH219571   5.783   5.449   3.957
 6522TIP3    H119572   5.839   5.499   3.898
 6522TIP3    H219573   5.759   5.511   4.026
 6523TIP3   OH219574   0.570   3.692   3.381
 6523TIP3    H119575   0.558   3.638   3.460
 6523TIP3    H219576   0.541   3.779   3.407
 6524TIP3   OH219577   3.414   1.522   0.280
 6524TIP3    H119578   3.370   1.602   0.251
 6524TIP3    H219579   3.404   1.522   0.376
 6525TIP3   OH219580   0.054   4.756   1.704
 6525TIP3    H119581   0.042   4.751   1.798
 6525TIP3    H219582  -0.006   4.825   1.675
 6526TIP3   OH219583   5.255   1.036   2.300
 6526TIP3    H119584   5.252   1.042   2.204
 6526TIP3    H219585   5.318   1.103   2.326
 6527TIP3   OH219586   2.358   3.456   4.156
 6527TIP3    H119587   2.290   3.512   4.194
 6527TIP3    H219588   2.335   3.450   4.063
 6528TIP3   OH219589   0.689   3.115   0.094
 6528TIP3    H119590   0.747   3.039   0.090
 6528TIP3    H219591   0.691   3.151   0.005
 6529TIP3   OH219592   4.591   4.087   0.660
 6529TIP3    H119593   4.518   4.142   0.688
 6529TIP3    H219594   4.653   4.147   0.620
 6530TIP3   OH219595   1.735   3.963   3.332
 6530TIP3    H119596   1.671   3.905   3.292
 6530TIP3    H219597   1.683   4.039   3.360
 6531TIP3   OH219598   0.430   0.963   4.765
 6531TIP3    H119599   0.476   1.037   4.805
 6531TIP3    H219600   0.498   0.895   4.756
 6532TIP3   OH219601   2.984   2.442   0.878
 6532TIP3    H119602   2.919   2.511   0.863
 6532TIP3    H219603   3.021   2.463   0.963
 6533TIP3   OH219604   5.220   6.001   0.879
 6533TIP3    H119605   5.293   6.038   0.929
 6533TIP3    H219606   5.159   5.970   0.946
 6534TIP3   OH219607   1.281   4.759   3.490
 6534TIP3    H119608   1.335   4.680   3.479
 6534TIP3    H219609   1.293   4.808   3.409
 6535TIP3   OH219610   2.464   5.729   2.001
 6535TIP3    H119611   2.374   5.744   1.971
 6535TIP3    H219612   2.470   5.777   2.083
 6536TIP3   OH219613   5.193   3.502   0.246
 6536TIP3    H119614   5.270   3.559   0.251
 6536TIP3    H219615   5.129   3.543   0.303
 6537TIP3   OH219616   0.873   1.989   2.926
 6537TIP3    H119617   0.881   1.922   2.859
 6537TIP3    H219618   0.961   1.995   2.965
 6538TIP3   OH219619   5.907   2.320   1.341
 6538TIP3    H119620   5.882   2.254   1.277
 6538TIP3    H219621   5.860   2.296   1.421
 6539TIP3   OH219622   3.425   1.045   3.275
 6539TIP3    H119623   3.453   0.957   3.253
 6539TIP3    H219624   3.506   1.095   3.285
 6540TIP3   OH219625   4.207   0.204   1.931
 6540TIP3    H119626   4.299   0.223   1.948
 6540TIP3    H219627   4.169   0.191   2.018
 6541TIP3   OH219628   4.909   3.750   3.634
 6541TIP3    H119629   4.908   3.843   3.609
 6541TIP3    H219630   4.993   3.718   3.601
 6542TIP3   OH219631   5.927   3.661   2.756
 6542TIP3    H119632   5.974   3.577   2.750
 6542TIP3    H219633   5.997   3.726   2.761
 6543TIP3   OH219634   3.560   3.113   0.124
 6543TIP3    H119635   3.649   3.085   0.103
 6543TIP3    H219636   3.568   3.207   0.142
 6544TIP3   OH219637   0.616   3.092   3.027
 6544TIP3    H119638   0.698   3.140   3.037
 6544TIP3    H219639   0.580   3.124   2.945
 6545TIP3   OH219640   4.649   3.948   3.321
 6545TIP3    H119641   4.674   4.016   3.259
 6545TIP3    H219642   4.607   3.881   3.268
 6546TIP3   OH219643   6.270   5.847   1.617
 6546TIP3    H119644   6.180   5.876   1.600
 6546TIP3    H219645   6.264   5.752   1.621
 6547TIP3   OH219646   0.090   4.403   0.798
 6547TIP3    H119647   0.024   4.370   0.859
 6547TIP3    H219648   0.108   4.492   0.827
 6548TIP3   OH219649   2.375   1.977   0.682
 6548TIP3    H119650   2.280   1.990   0.690
 6548TIP3    H219651   2.384   1.898   0.628
 6549TIP3   OH219652   5.030   5.166   2.528
 6549TIP3    H119653   5.058   5.081   2.562
 6549TIP3    H219654   5.102   5.225   2.549
 6550TIP3   OH219655   1.963   3.583   3.327
 6550TIP3    H119656   1.937   3.493   3.346
 6550TIP3    H219657   2.030   3.603   3.391
 6551TIP3   OH219658   5.707   3.954   0.928
 6551TIP3    H119659   5.761   4.033   0.922
 6551TIP3    H219660   5.762   3.891   0.976
 6552TIP3   OH219661   1.369   2.833   2.652
 6552TIP3    H119662   1.304   2.859   2.717
 6552TIP3    H219663   1.320   2.829   2.570
 6553TIP3   OH219664   6.306   0.433   1.731
 6553TIP3    H119665   6.348   0.417   1.815
 6553TIP3    H219666   6.350   0.510   1.696
 6554TIP3   OH219667   4.090   4.128   3.070
 6554TIP3    H119668   4.049   4.198   3.018
 6554TIP3    H219669   4.062   4.047   3.028
 6555TIP3   OH219670   2.064   5.526   4.502
 6555TIP3    H119671   2.136   5.580   4.469
 6555TIP3    H219672   2.106   5.442   4.522
 6556TIP3   OH219673   2.393   2.619   1.870
 6556TIP3    H119674   2.442   2.579   1.799
 6556TIP3    H219675   2.301   2.598   1.851
 6557TIP3   OH219676   5.783   2.512   2.627
 6557TIP3    H119677   5.864   2.535   2.672
 6557TIP3    H219678   5.751   2.435   2.674
 6558TIP3   OH219679   2.382   4.167   3.533
 6558TIP3    H119680   2.435   4.239   3.567
 6558TIP3    H219681   2.373   4.186   3.440
 6559TIP3   OH219682   5.390   0.762   2.116
 6559TIP3    H119683   5.354   0.805   2.039
 6559TIP3    H219684   5.323   0.698   2.141
 6560TIP3   OH219685   5.261   0.286   3.928
 6560TIP3    H119686   5.325   0.346   3.889
 6560TIP3    H219687   5.182   0.298   3.876
 6561TIP3   OH219688   5.389   5.103   1.587
 6561TIP3    H119689   5.357   5.044   1.518
 6561TIP3    H219690   5.311   5.148   1.619
 6562TIP3   OH219691   0.870   5.421   2.119
 6562TIP3    H119692   0.794   5.375   2.083
 6562TIP3    H219693   0.918   5.354   2.167
 6563TIP3   OH219694   5.796   1.158   0.581
 6563TIP3    H119695   5.875   1.188   0.536
 6563TIP3    H219696   5.789   1.065   0.558
 6564TIP3   OH219697   6.280   5.123   3.900
 6564TIP3    H119698   6.342   5.189   3.867
 6564TIP3    H219699   6.335   5.052   3.931
 6565TIP3   OH219700   5.840   3.672   3.618
 6565TIP3    H119701   5.926   3.658   3.660
 6565TIP3    H219702   5.820   3.589   3.575
 6566TIP3   OH219703   2.266   1.166   3.781
 6566TIP3    H119704   2.190   1.172   3.839
 6566TIP3    H219705   2.286   1.256   3.757
 6567TIP3   OH219706   2.176   5.064   4.926
 6567TIP3    H119707   2.245   5.007   4.959
 6567TIP3    H219708   2.098   5.009   4.926
 6568TIP3   OH219709   5.352   5.900   3.350
 6568TIP3    H119710   5.260   5.909   3.375
 6568TIP3    H219711   5.375   5.986   3.315
 6569TIP3   OH219712   3.522   3.415   4.171
 6569TIP3    H119713   3.484   3.376   4.092
 6569TIP3    H219714   3.616   3.418   4.154
 6570TIP3   OH219715   3.458   2.605   1.625
 6570TIP3    H119716   3.431   2.693   1.652
 6570TIP3    H219717   3.484   2.562   1.706
 6571TIP3   OH219718   2.877   4.824   0.937
 6571TIP3    H119719   2.904   4.913   0.913
 6571TIP3    H219720   2.954   4.770   0.921
 6572TIP3   OH219721   3.374   2.311   1.909
 6572TIP3    H119722   3.432   2.240   1.938
 6572TIP3    H219723   3.432   2.386   1.895
 6573TIP3   OH219724   5.132   1.589   0.774
 6573TIP3    H119725   5.167   1.502   0.789
 6573TIP3    H219726   5.179   1.645   0.837
 6574TIP3   OH219727   3.127   1.895   2.552
 6574TIP3    H119728   3.170   1.833   2.611
 6574TIP3    H219729   3.182   1.896   2.474
 6575TIP3   OH219730   3.173   2.233   2.808
 6575TIP3    H119731   3.212   2.171   2.747
 6575TIP3    H219732   3.110   2.181   2.858
 6576TIP3   OH219733   5.069   2.475   1.295
 6576TIP3    H119734   5.014   2.524   1.234
 6576TIP3    H219735   5.156   2.475   1.255
 6577TIP3   OH219736   2.003   4.171   2.672
 6577TIP3    H119737   1.950   4.186   2.594
 6577TIP3    H219738   1.979   4.242   2.732
 6578TIP3   OH219739   1.785   0.905   0.503
 6578TIP3    H119740   1.716   0.847   0.471
 6578TIP3    H219741   1.740   0.965   0.563
 6579TIP3   OH219742   2.497   5.837   1.313
 6579TIP3    H119743   2.447   5.850   1.393
 6579TIP3    H219744   2.584   5.810   1.343
 6580TIP3   OH219745   2.306   5.416   1.448
 6580TIP3    H119746   2.261   5.342   1.408
 6580TIP3    H219747   2.263   5.429   1.532
 6581TIP3   OH219748   5.811   4.477   1.462
 6581TIP3    H119749   5.823   4.562   1.505
 6581TIP3    H219750   5.894   4.431   1.475
 6582TIP3   OH219751   0.147   5.208   2.251
 6582TIP3    H119752   0.092   5.163   2.315
 6582TIP3    H219753   0.086   5.237   2.182
 6583TIP3   OH219754   2.833   2.498   2.645
 6583TIP3    H119755   2.797   2.580   2.679
 6583TIP3    H219756   2.901   2.473   2.707
 6584TIP3   OH219757   6.282   4.669   3.014
 6584TIP3    H119758   6.373   4.650   3.040
 6584TIP3    H219759   6.239   4.583   3.013
 6585TIP3   OH219760   0.071   1.064   2.412
 6585TIP3    H119761   0.138   1.044   2.347
 6585TIP3    H219762   0.090   1.155   2.438
 6586TIP3   OH219763   3.068   4.396   4.121
 6586TIP3    H119764   3.120   4.365   4.195
 6586TIP3    H219765   3.091   4.338   4.049
 6587TIP3   OH219766   4.673   4.273   5.052
 6587TIP3    H119767   4.767   4.264   5.035
 6587TIP3    H219768   4.630   4.236   4.975
 6588TIP3   OH219769   6.321   1.678   2.628
 6588TIP3    H119770   6.234   1.719   2.624
 6588TIP3    H219771   6.358   1.710   2.711
 6589TIP3   OH219772   6.294   3.399   3.760
 6589TIP3    H119773   6.276   3.394   3.854
 6589TIP3    H219774   6.382   3.437   3.756
 6590TIP3   OH219775   5.030   4.224   3.408
 6590TIP3    H119776   5.067   4.149   3.360
 6590TIP3    H219777   5.001   4.284   3.340
 6591TIP3   OH219778   2.122   4.154   4.316
 6591TIP3    H119779   2.120   4.075   4.262
 6591TIP3    H219780   2.171   4.128   4.394
 6592TIP3   OH219781   2.141   2.821   0.138
 6592TIP3    H119782   2.119   2.797   0.048
 6592TIP3    H219783   2.080   2.892   0.160
 6593TIP3   OH219784   3.806   0.823   2.153
 6593TIP3    H119785   3.777   0.882   2.083
 6593TIP3    H219786   3.728   0.811   2.208
 6594TIP3   OH219787   4.715   1.153   2.512
 6594TIP3    H119788   4.651   1.100   2.465
 6594TIP3    H219789   4.728   1.107   2.595
 6595TIP3   OH219790   1.004   3.786   4.526
 6595TIP3    H119791   1.040   3.704   4.492
 6595TIP3    H219792   1.074   3.850   4.515
 6596TIP3   OH219793   3.953   3.388   2.899
 6596TIP3    H119794   4.006   3.310   2.911
 6596TIP3    H219795   3.898   3.370   2.823
 6597TIP3   OH219796   1.435   5.095   3.419
 6597TIP3    H119797   1.400   5.017   3.375
 6597TIP3    H219798   1.376   5.166   3.393
 6598TIP3   OH219799   4.729   5.414   0.271
 6598TIP3    H119800   4.703   5.495   0.315
 6598TIP3    H219801   4.804   5.383   0.322
 6599TIP3   OH219802   1.266   5.237   2.823
 6599TIP3    H119803   1.195   5.197   2.873
 6599TIP3    H219804   1.250   5.331   2.831
 6600TIP3   OH219805   0.138   4.940   2.782
 6600TIP3    H119806   0.089   5.022   2.770
 6600TIP3    H219807   0.073   4.871   2.770
 6601TIP3   OH219808   4.631   4.204   4.615
 6601TIP3    H119809   4.656   4.269   4.549
 6601TIP3    H219810   4.714   4.170   4.647
 6602TIP3   OH219811   6.091   3.830   2.198
 6602TIP3    H119812   6.101   3.874   2.113
 6602TIP3    H219813   5.997   3.834   2.216
 6603TIP3   OH219814   2.572   2.047   4.229
 6603TIP3    H119815   2.488   2.018   4.264
 6603TIP3    H219816   2.583   2.136   4.263
 6604TIP3   OH219817   2.780   5.207   3.337
 6604TIP3    H119818   2.754   5.115   3.327
 6604TIP3    H219819   2.876   5.206   3.334
 6605TIP3   OH219820   1.806   1.494   3.966
 6605TIP3    H119821   1.886   1.483   4.017
 6605TIP3    H219822   1.802   1.415   3.911
 6606TIP3   OH219823   0.900   4.797   4.361
 6606TIP3    H119824   0.865   4.809   4.450
 6606TIP3    H219825   0.987   4.760   4.375
 6607TIP3   OH219826   3.232   1.635   1.581
 6607TIP3    H119827   3.311   1.680   1.554
 6607TIP3    H219828   3.235   1.636   1.677
 6608TIP3   OH219829   4.055   4.182   1.171
 6608TIP3    H119830   3.989   4.251   1.174
 6608TIP3    H219831   4.004   4.102   1.156
 6609TIP3   OH219832   0.848   1.246   5.030
 6609TIP3    H119833   0.810   1.300   5.098
 6609TIP3    H219834   0.798   1.268   4.951
 6610TIP3   OH219835   5.123   2.997   2.827
 6610TIP3    H119836   5.169   2.937   2.767
 6610TIP3    H219837   5.076   2.939   2.887
 6611TIP3   OH219838   4.010   2.372   1.922
 6611TIP3    H119839   3.940   2.311   1.944
 6611TIP3    H219840   3.966   2.443   1.875
 6612TIP3   OH219841   4.096   1.077   0.492
 6612TIP3    H119842   4.021   1.017   0.493
 6612TIP3    H219843   4.110   1.098   0.400
 6613TIP3   OH219844   2.556   2.709   3.689
 6613TIP3    H119845   2.607   2.740   3.615
 6613TIP3    H219846   2.619   2.664   3.745
 6614TIP3   OH219847   2.617   2.404   0.604
 6614TIP3    H119848   2.658   2.318   0.609
 6614TIP3    H219849   2.687   2.464   0.580
 6615TIP3   OH219850   2.912   0.182   3.277
 6615TIP3    H119851   2.901   0.169   3.183
 6615TIP3    H219852   2.981   0.248   3.284
 6616TIP3   OH219853   4.520   0.921   1.760
 6616TIP3    H119854   4.472   0.868   1.697
 6616TIP3    H219855   4.566   0.858   1.815
 6617TIP3   OH219856   6.028   5.833   0.653
 6617TIP3    H119857   5.991   5.921   0.651
 6617TIP3    H219858   6.050   5.814   0.562
 6618TIP3   OH219859   4.949   0.584   3.585
 6618TIP3    H119860   5.001   0.662   3.564
 6618TIP3    H219861   4.989   0.514   3.534
 6619TIP3   OH219862   0.276   0.161   2.859
 6619TIP3    H119863   0.216   0.226   2.896
 6619TIP3    H219864   0.359   0.207   2.851
 6620TIP3   OH219865   1.764   1.092   3.005
 6620TIP3    H119866   1.772   1.053   2.918
 6620TIP3    H219867   1.780   1.019   3.065
 6621TIP3   OH219868   4.806   4.915   3.422
 6621TIP3    H119869   4.836   4.879   3.506
 6621TIP3    H219870   4.857   4.995   3.411
 6622TIP3   OH219871   4.237   5.887   4.402
 6622TIP3    H119872   4.299   5.935   4.458
 6622TIP3    H219873   4.239   5.798   4.435
 6623TIP3   OH219874   2.933   1.725   3.405
 6623TIP3    H119875   2.914   1.634   3.381
 6623TIP3    H219876   2.918   1.774   3.324
 6624TIP3   OH219877   5.703   3.409   0.828
 6624TIP3    H119878   5.714   3.487   0.881
 6624TIP3    H219879   5.644   3.436   0.757
 6625TIP3   OH219880   0.800   2.248   1.560
 6625TIP3    H119881   0.785   2.340   1.536
 6625TIP3    H219882   0.770   2.198   1.484
 6626TIP3   OH219883   2.082   1.561   3.185
 6626TIP3    H119884   2.046   1.473   3.172
 6626TIP3    H219885   2.020   1.619   3.141
 6627TIP3   OH219886   5.909   3.354   4.551
 6627TIP3    H119887   5.847   3.311   4.492
 6627TIP3    H219888   5.916   3.443   4.517
 6628TIP3   OH219889   4.819   2.723   5.179
 6628TIP3    H119890   4.874   2.693   5.107
 6628TIP3    H219891   4.750   2.657   5.186
 6629TIP3   OH219892   3.415   4.578   3.992
 6629TIP3    H119893   3.501   4.593   4.032
 6629TIP3    H219894   3.355   4.632   4.044
 6630TIP3   OH219895   5.769   0.536   1.113
 6630TIP3    H119896   5.806   0.561   1.028
 6630TIP3    H219897   5.809   0.597   1.175
 6631TIP3   OH219898   4.874   4.972   0.903
 6631TIP3    H119899   4.939   5.005   0.964
 6631TIP3    H219900   4.833   4.898   0.949
 6632TIP3   OH219901   3.861   0.326   4.814
 6632TIP3    H119902   3.852   0.397   4.877
 6632TIP3    H219903   3.925   0.266   4.853
 6633TIP3   OH219904   5.121   3.393   4.631
 6633TIP3    H119905   5.161   3.443   4.703
 6633TIP3    H219906   5.052   3.450   4.597
 6634TIP3   OH219907   5.943   5.428   2.921
 6634TIP3    H119908   5.929   5.451   2.829
 6634TIP3    H219909   5.946   5.333   2.923
 6635TIP3   OH219910   3.380   0.579   3.966
 6635TIP3    H119911   3.291   0.580   3.999
 6635TIP3    H219912   3.408   0.488   3.975
 6636TIP3   OH219913   6.304   3.934   4.013
 6636TIP3    H119914   6.313   4.023   4.047
 6636TIP3    H219915   6.210   3.920   4.007
 6637TIP3   OH219916   4.184   4.554   2.979
 6637TIP3    H119917   4.097   4.591   2.966
 6637TIP3    H219918   4.244   4.628   2.967
 6638TIP3   OH219919   1.809   4.648   4.384
 6638TIP3    H119920   1.808   4.552   4.381
 6638TIP3    H219921   1.885   4.670   4.436
 6639TIP3   OH219922   1.888   5.875   1.786
 6639TIP3    H119923   1.916   5.809   1.722
 6639TIP3    H219924   1.799   5.898   1.760
 6640TIP3   OH219925   4.918   4.719   3.254
 6640TIP3    H119926   4.987   4.669   3.298
 6640TIP3    H219927   4.896   4.788   3.316
 6641TIP3   OH219928   1.583   5.861   3.099
 6641TIP3    H119929   1.582   5.944   3.052
 6641TIP3    H219930   1.523   5.874   3.172
 6642TIP3   OH219931   2.963   0.821   3.283
 6642TIP3    H119932   2.916   0.893   3.242
 6642TIP3    H219933   2.934   0.822   3.374
 6643TIP3   OH219934   2.512   0.706   0.034
 6643TIP3    H119935   2.520   0.801   0.026
 6643TIP3    H219936   2.483   0.692   0.124
 6644TIP3   OH219937   5.620   5.748   0.833
 6644TIP3    H119938   5.602   5.836   0.867
 6644TIP3    H219939   5.689   5.713   0.890
 6645TIP3   OH219940   2.978   0.795   0.353
 6645TIP3    H119941   3.005   0.847   0.278
 6645TIP3    H219942   2.959   0.859   0.422
   6.35075   5.98754   5.18537   0.00000   0.00000  -2.11692   0.00000  -2.11692  -2.99377
