Title t= 273.00000 step= 136500
44434
    1GLY      N    1   4.713   4.016   5.328
    1GLY    HT1    2   4.766   4.021   5.239
    1GLY    HT2    3   4.728   3.920   5.366
    1GLY    HT3    4   4.727   4.091   5.399
    1GLY     CA    5   4.560   4.027   5.300
    1GLY    HA1    6   4.544   4.103   5.225
    1GLY    HA2    7   4.505   4.067   5.385
    1GLY      C    8   4.488   3.900   5.263
    1GLY      O    9   4.552   3.797   5.229
    2PRO      N   10   4.354   3.902   5.258
    2PRO     CD   11   4.263   4.012   5.306
    2PRO    HD1   12   4.260   4.090   5.227
    2PRO    HD2   13   4.295   4.046   5.406
    2PRO     CA   14   4.267   3.793   5.196
    2PRO     HA   15   4.260   3.711   5.267
    2PRO     CB   16   4.131   3.861   5.180
    2PRO    HB1   17   4.052   3.784   5.186
    2PRO    HB2   18   4.125   3.911   5.081
    2PRO     CG   19   4.123   3.953   5.306
    2PRO    HG1   20   4.050   4.034   5.285
    2PRO    HG2   21   4.088   3.895   5.395
    2PRO      C   22   4.321   3.734   5.068
    2PRO      O   23   4.374   3.815   4.989
    3GLY      N   24   4.303   3.603   5.046
    3GLY     HN   25   4.262   3.551   5.120
    3GLY     CA   26   4.337   3.522   4.931
    3GLY    HA1   27   4.286   3.557   4.843
    3GLY    HA2   28   4.298   3.425   4.957
    3GLY      C   29   4.487   3.518   4.906
    3GLY      O   30   4.574   3.554   4.986
    4ASP      N   31   4.516   3.467   4.787
    4ASP     HN   32   4.447   3.462   4.715
    4ASP     CA   33   4.651   3.450   4.737
    4ASP     HA   34   4.700   3.392   4.813
    4ASP     CB   35   4.668   3.370   4.607
    4ASP    HB1   36   4.770   3.329   4.591
    4ASP    HB2   37   4.643   3.423   4.512
    4ASP     CG   38   4.596   3.240   4.631
    4ASP    OD1   39   4.623   3.177   4.739
    4ASP    OD2   40   4.518   3.199   4.541
    4ASP      C   41   4.729   3.580   4.724
    4ASP      O   42   4.655   3.678   4.702
    5PRO      N   43   4.859   3.594   4.735
    5PRO     CD   44   4.958   3.494   4.755
    5PRO    HD1   45   4.969   3.419   4.673
    5PRO    HD2   46   4.936   3.441   4.850
    5PRO     CA   47   4.928   3.719   4.702
    5PRO     HA   48   4.910   3.790   4.781
    5PRO     CB   49   5.080   3.689   4.695
    5PRO    HB1   50   5.153   3.768   4.722
    5PRO    HB2   51   5.112   3.647   4.598
    5PRO     CG   52   5.086   3.572   4.782
    5PRO    HG1   53   5.180   3.516   4.764
    5PRO    HG2   54   5.071   3.599   4.889
    5PRO      C   55   4.887   3.796   4.579
    5PRO      O   56   4.851   3.732   4.475
    6GLY      N   57   4.883   3.930   4.585
    6GLY     HN   58   4.899   3.972   4.673
    6GLY     CA   59   4.830   4.015   4.477
    6GLY    HA1   60   4.856   4.112   4.516
    6GLY    HA2   61   4.722   4.002   4.472
    6GLY      C   62   4.907   4.003   4.348
    6GLY      O   63   5.029   3.974   4.344
    7SER      N   64   4.837   4.045   4.243
    7SER     HN   65   4.741   4.067   4.254
    7SER     CA   66   4.904   4.049   4.107
    7SER     HA   67   4.957   3.957   4.086
    7SER     CB   68   4.792   4.050   3.987
    7SER    HB1   69   4.846   4.055   3.890
    7SER    HB2   70   4.722   4.129   4.023
    7SER     OG   71   4.740   3.921   3.993
    7SER    HG1   72   4.698   3.920   4.079
    7SER      C   73   4.998   4.164   4.075
    7SER      O   74   5.002   4.259   4.151
    8GLY      N   75   5.082   4.158   3.968
    8GLY     HN   76   5.074   4.085   3.900
    8GLY     CA   77   5.191   4.242   3.929
    8GLY    HA1   78   5.251   4.180   3.864
    8GLY    HA2   79   5.241   4.272   4.020
    8GLY      C   80   5.136   4.368   3.869
    8GLY      O   81   5.026   4.406   3.898
    9ASN      N   82   5.219   4.432   3.785
    9ASN     HN   83   5.314   4.408   3.764
    9ASN     CA   84   5.182   4.553   3.720
    9ASN     HA   85   5.076   4.549   3.701
    9ASN     CB   86   5.223   4.673   3.813
    9ASN    HB1   87   5.326   4.667   3.852
    9ASN    HB2   88   5.164   4.676   3.907
    9ASN     CG   89   5.194   4.809   3.745
    9ASN    OD1   90   5.091   4.830   3.682
    9ASN    ND2   91   5.285   4.912   3.772
    9ASN   HD21   92   5.253   5.006   3.755
    9ASN   HD22   93   5.368   4.891   3.823
    9ASN      C   94   5.267   4.557   3.593
    9ASN      O   95   5.388   4.533   3.603
   10PRO      N   96   5.223   4.584   3.478
   10PRO     CD   97   5.078   4.575   3.447
   10PRO    HD1   98   5.027   4.661   3.495
   10PRO    HD2   99   5.036   4.477   3.476
   10PRO     CA  100   5.298   4.614   3.358
   10PRO     HA  101   5.337   4.518   3.327
   10PRO     CB  102   5.192   4.680   3.274
   10PRO    HB1  103   5.225   4.682   3.167
   10PRO    HB2  104   5.158   4.779   3.311
   10PRO     CG  105   5.071   4.588   3.299
   10PRO    HG1  106   4.970   4.627   3.277
   10PRO    HG2  107   5.095   4.489   3.254
   10PRO      C  108   5.422   4.689   3.356
   10PRO      O  109   5.444   4.778   3.441
   11GLY      N  110   5.511   4.678   3.262
   11GLY     HN  111   5.496   4.599   3.203
   11GLY     CA  112   5.634   4.758   3.233
   11GLY    HA1  113   5.684   4.709   3.150
   11GLY    HA2  114   5.703   4.745   3.315
   11GLY      C  115   5.618   4.902   3.202
   11GLY      O  116   5.514   4.954   3.177
   12SER      N  117   5.736   4.970   3.196
   12SER     HN  118   5.825   4.929   3.214
   12SER     CA  119   5.754   5.111   3.169
   12SER     HA  120   5.698   5.172   3.238
   12SER     CB  121   5.900   5.150   3.186
   12SER    HB1  122   5.904   5.260   3.201
   12SER    HB2  123   5.945   5.113   3.092
   12SER     OG  124   5.966   5.079   3.290
   12SER    HG1  125   5.920   5.119   3.363
   12SER      C  126   5.698   5.149   3.021
   12SER      O  127   5.744   5.097   2.923
   13GLY      N  128   5.609   5.247   3.020
   13GLY     HN  129   5.585   5.281   3.110
   13GLY     CA  130   5.535   5.291   2.906
   13GLY    HA1  131   5.466   5.357   2.956
   13GLY    HA2  132   5.490   5.200   2.869
   13GLY      C  133   5.600   5.350   2.788
   13GLY      O  134   5.664   5.452   2.794
   14ASP      N  135   5.582   5.292   2.667
   14ASP     HN  136   5.514   5.221   2.653
   14ASP     CA  137   5.636   5.328   2.522
   14ASP     HA  138   5.665   5.232   2.481
   14ASP     CB  139   5.521   5.399   2.440
   14ASP    HB1  140   5.555   5.415   2.335
   14ASP    HB2  141   5.481   5.492   2.485
   14ASP     CG  142   5.404   5.300   2.427
   14ASP    OD1  143   5.285   5.333   2.428
   14ASP    OD2  144   5.435   5.187   2.387
   14ASP      C  145   5.757   5.423   2.513
   14ASP      O  146   5.756   5.540   2.470
   15PRO      N  147   5.885   5.386   2.553
   15PRO     CD  148   5.914   5.275   2.640
   15PRO    HD1  149   5.900   5.187   2.574
   15PRO    HD2  150   5.848   5.270   2.730
   15PRO     CA  151   6.012   5.459   2.513
   15PRO     HA  152   6.013   5.550   2.572
   15PRO     CB  153   6.125   5.364   2.559
   15PRO    HB1  154   6.203   5.427   2.607
   15PRO    HB2  155   6.170   5.296   2.483
   15PRO     CG  156   6.064   5.275   2.674
   15PRO    HG1  157   6.106   5.173   2.662
   15PRO    HG2  158   6.088   5.336   2.763
   15PRO      C  159   6.026   5.482   2.366
   15PRO    OT1  160   6.006   5.384   2.286
   15PRO    OT2  161   6.064   5.594   2.324
   16LIT    LIT  162   4.454   3.142   4.375
   17LIT    LIT  163   5.841   3.575   2.865
   18LIT    LIT  164   5.440   0.364   1.232
   19LIT    LIT  165   3.158   5.156   4.280
   20LIT    LIT  166   5.694   4.883   4.657
   21LIT    LIT  167   3.479   7.112   0.074
   22LIT    LIT  168   7.961   1.703   5.382
   23LIT    LIT  169   5.519   1.634   1.252
   24LIT    LIT  170   6.291   6.796   4.176
   25LIT    LIT  171   8.059   0.504   4.581
   26LIT    LIT  172   2.742   3.618   3.842
   27LIT    LIT  173   6.736   7.503   3.576
   28LIT    LIT  174   6.830   2.604   2.255
   29LIT    LIT  175   8.191   1.993   2.409
   30LIT    LIT  176   0.695   0.352   5.680
   31LIT    LIT  177   1.131   0.549   1.653
   32LIT    LIT  178   0.743   2.015   5.501
   33LIT    LIT  179   5.069   1.011   0.322
   34LIT    LIT  180   7.884   6.990   0.235
   35LIT    LIT  181   6.787   7.148   6.629
   36LIT    LIT  182   4.039   6.585   2.425
   37LIT    LIT  183   1.271   4.617   2.152
   38LIT    LIT  184   5.018   5.345   5.316
   39LIT    LIT  185   2.639   0.033   3.932
   40LIT    LIT  186   6.357   5.321   4.212
   41LIT    LIT  187   6.047   5.501   2.151
   42LIT    LIT  188   2.221   0.419   6.606
   43LIT    LIT  189   7.509   7.476   3.243
   44LIT    LIT  190   6.476   7.185   2.518
   45LIT    LIT  191   0.824   2.130   2.008
   46LIT    LIT  192   5.078   3.067   0.797
   47LIT    LIT  193   3.637   1.570   1.232
   48LIT    LIT  194   6.714   6.095   4.178
   49LIT    LIT  195   5.199   5.188   2.485
   50LIT    LIT  196   5.865   1.725   2.312
   51LIT    LIT  197   7.410   7.431   0.403
   52LIT    LIT  198   6.561   2.656   5.205
   53LIT    LIT  199   3.414   4.884   2.628
   54LIT    LIT  200   8.131   6.823   3.999
   55LIT    LIT  201   2.046   0.827   5.575
   56LIT    LIT  202   6.114   3.087   6.325
   57LIT    LIT  203   7.098   0.595   2.646
   58LIT    LIT  204   7.006   5.450   0.898
   59LIT    LIT  205   3.404   4.543   1.589
   60CLA    CLA  206   2.196   0.312   4.067
   61CLA    CLA  207   5.800   4.802   4.855
   62CLA    CLA  208   5.690   5.077   1.318
   63CLA    CLA  209   8.300   2.771   1.209
   64CLA    CLA  210   5.944   6.228   4.376
   65CLA    CLA  211   3.336   0.263   1.309
   66CLA    CLA  212   3.112   0.933   5.836
   67CLA    CLA  213   2.276   6.128   0.939
   68CLA    CLA  214   5.744   1.843   4.634
   69CLA    CLA  215   1.045   2.431   5.165
   70CLA    CLA  216   5.310   5.649   0.885
   71CLA    CLA  217   1.674   1.243   5.498
   72CLA    CLA  218   8.121   2.824   2.303
   73CLA    CLA  219   3.145   3.927   3.768
   74CLA    CLA  220   4.033   4.768   1.115
   75CLA    CLA  221   4.848   2.231   3.687
   76CLA    CLA  222   3.753   5.042   4.239
   77CLA    CLA  223   2.177   2.510   6.050
   78CLA    CLA  224   0.956   2.527   0.173
   79CLA    CLA  225   6.337   7.451   0.378
   80CLA    CLA  226   4.537   0.531   0.706
   81CLA    CLA  227   7.009   0.379   2.591
   82CLA    CLA  228   6.754   1.734   4.744
   83CLA    CLA  229   0.255   3.205   5.189
   84CLA    CLA  230   5.454   1.758   6.135
   85CLA    CLA  231   8.060   4.140   6.001
   86CLA    CLA  232   6.188   3.748   2.160
   87CLA    CLA  233   7.993   5.685   1.699
   88CLA    CLA  234   0.694   6.124   3.135
   89CLA    CLA  235   5.855   5.128   6.240
   90CLA    CLA  236   8.140   7.343   1.661
   91CLA    CLA  237   3.115   7.415   1.595
   92CLA    CLA  238   3.966   5.500   6.749
   93CLA    CLA  239   3.827   0.969   3.756
   94CLA    CLA  240   1.583   0.734   0.623
   95CLA    CLA  241   6.835   5.578   0.798
   96CLA    CLA  242   8.200   0.618   4.726
   97CLA    CLA  243   5.762   4.364   3.634
   98CLA    CLA  244   1.811   4.460   6.141
   99CLA    CLA  245   1.456   0.005   6.713
  100CLA    CLA  246   1.956   4.940   1.990
  101CLA    CLA  247   6.876   1.577   0.643
  102TIP3   OH2  248   4.527   1.864   3.697
  102TIP3    H1  249   4.522   1.952   3.658
  102TIP3    H2  250   4.575   1.877   3.779
  103TIP3   OH2  251   4.344   7.470   5.564
  103TIP3    H1  252   4.400   7.509   5.497
  103TIP3    H2  253   4.401   7.461   5.640
  104TIP3   OH2  254   2.509   0.968   4.768
  104TIP3    H1  255   2.438   0.904   4.776
  104TIP3    H2  256   2.567   0.949   4.841
  105TIP3   OH2  257   3.852   6.590   2.329
  105TIP3    H1  258   3.833   6.676   2.293
  105TIP3    H2  259   3.770   6.541   2.320
  106TIP3   OH2  260   4.613   0.535   0.414
  106TIP3    H1  261   4.589   0.554   0.504
  106TIP3    H2  262   4.530   0.510   0.372
  107TIP3   OH2  263   5.071   2.619   1.490
  107TIP3    H1  264   5.054   2.525   1.481
  107TIP3    H2  265   5.166   2.626   1.497
  108TIP3   OH2  266   3.813   7.465   6.041
  108TIP3    H1  267   3.780   7.377   6.021
  108TIP3    H2  268   3.790   7.479   6.133
  109TIP3   OH2  269   4.645   1.032   2.408
  109TIP3    H1  270   4.593   1.059   2.484
  109TIP3    H2  271   4.618   0.941   2.391
  110TIP3   OH2  272   8.123   2.219   0.564
  110TIP3    H1  273   8.145   2.293   0.506
  110TIP3    H2  274   8.135   2.142   0.509
  111TIP3   OH2  275   7.428   3.779   5.517
  111TIP3    H1  276   7.444   3.869   5.546
  111TIP3    H2  277   7.516   3.741   5.507
  112TIP3   OH2  278   3.857   4.895   4.611
  112TIP3    H1  279   3.891   4.968   4.560
  112TIP3    H2  280   3.885   4.817   4.563
  113TIP3   OH2  281   1.428   7.240   5.977
  113TIP3    H1  282   1.417   7.246   5.882
  113TIP3    H2  283   1.420   7.146   5.996
  114TIP3   OH2  284   4.700   7.772   0.942
  114TIP3    H1  285   4.676   7.828   0.869
  114TIP3    H2  286   4.627   7.780   1.003
  115TIP3   OH2  287   7.850   1.381   2.202
  115TIP3    H1  288   7.893   1.399   2.286
  115TIP3    H2  289   7.919   1.394   2.137
  116TIP3   OH2  290   2.685   1.347   3.141
  116TIP3    H1  291   2.735   1.287   3.086
  116TIP3    H2  292   2.613   1.294   3.175
  117TIP3   OH2  293   2.145   5.772   5.384
  117TIP3    H1  294   2.075   5.749   5.323
  117TIP3    H2  295   2.143   5.702   5.450
  118TIP3   OH2  296   4.461   0.121   6.188
  118TIP3    H1  297   4.441   0.042   6.138
  118TIP3    H2  298   4.376   0.149   6.223
  119TIP3   OH2  299   1.076   4.178   1.807
  119TIP3    H1  300   1.064   4.179   1.902
  119TIP3    H2  301   1.003   4.126   1.774
  120TIP3   OH2  302   8.030   5.280   4.443
  120TIP3    H1  303   8.015   5.347   4.509
  120TIP3    H2  304   8.088   5.322   4.380
  121TIP3   OH2  305   0.679   2.645   2.183
  121TIP3    H1  306   0.707   2.734   2.161
  121TIP3    H2  307   0.681   2.643   2.279
  122TIP3   OH2  308   0.384   4.925   0.723
  122TIP3    H1  309   0.474   4.936   0.754
  122TIP3    H2  310   0.338   4.883   0.795
  123TIP3   OH2  311   5.716   5.507   2.166
  123TIP3    H1  312   5.731   5.413   2.161
  123TIP3    H2  313   5.749   5.533   2.252
  124TIP3   OH2  314   4.194   6.488   2.789
  124TIP3    H1  315   4.187   6.551   2.861
  124TIP3    H2  316   4.250   6.531   2.725
  125TIP3   OH2  317   0.192   3.281   3.350
  125TIP3    H1  318   0.131   3.284   3.277
  125TIP3    H2  319   0.135   3.277   3.428
  126TIP3   OH2  320   2.767   4.753   6.707
  126TIP3    H1  321   2.728   4.724   6.625
  126TIP3    H2  322   2.737   4.843   6.717
  127TIP3   OH2  323   6.430   0.506   4.233
  127TIP3    H1  324   6.503   0.531   4.289
  127TIP3    H2  325   6.401   0.588   4.193
  128TIP3   OH2  326   2.239   3.034   6.062
  128TIP3    H1  327   2.205   2.969   6.123
  128TIP3    H2  328   2.334   3.026   6.069
  129TIP3   OH2  329   4.896   2.299   6.550
  129TIP3    H1  330   4.862   2.226   6.601
  129TIP3    H2  331   4.915   2.261   6.464
  130TIP3   OH2  332   2.325   5.700   6.687
  130TIP3    H1  333   2.397   5.715   6.748
  130TIP3    H2  334   2.355   5.629   6.631
  131TIP3   OH2  335   8.330   5.136   0.101
  131TIP3    H1  336   8.257   5.197   0.088
  131TIP3    H2  337   8.352   5.144   0.194
  132TIP3   OH2  338   0.935   5.945   5.148
  132TIP3    H1  339   0.846   5.910   5.152
  132TIP3    H2  340   0.984   5.893   5.212
  133TIP3   OH2  341   6.544   2.335   5.717
  133TIP3    H1  342   6.458   2.302   5.746
  133TIP3    H2  343   6.542   2.428   5.740
  134TIP3   OH2  344   3.140   1.535   5.912
  134TIP3    H1  345   3.078   1.575   5.974
  134TIP3    H2  346   3.214   1.595   5.910
  135TIP3   OH2  347   7.476   2.111   5.087
  135TIP3    H1  348   7.520   2.194   5.069
  135TIP3    H2  349   7.426   2.093   5.007
  136TIP3   OH2  350   5.656   2.357   3.213
  136TIP3    H1  351   5.673   2.371   3.120
  136TIP3    H2  352   5.725   2.296   3.241
  137TIP3   OH2  353   1.657   2.275   5.240
  137TIP3    H1  354   1.647   2.237   5.153
  137TIP3    H2  355   1.600   2.352   5.239
  138TIP3   OH2  356   2.282   6.493   5.621
  138TIP3    H1  357   2.237   6.573   5.647
  138TIP3    H2  358   2.286   6.440   5.701
  139TIP3   OH2  359   1.249   0.448   0.174
  139TIP3    H1  360   1.170   0.403   0.144
  139TIP3    H2  361   1.293   0.385   0.231
  140TIP3   OH2  362   1.793   5.357   5.337
  140TIP3    H1  363   1.815   5.271   5.374
  140TIP3    H2  364   1.718   5.341   5.281
  141TIP3   OH2  365   3.785   6.126   3.284
  141TIP3    H1  366   3.821   6.214   3.290
  141TIP3    H2  367   3.730   6.127   3.206
  142TIP3   OH2  368   2.631   4.253   1.993
  142TIP3    H1  369   2.725   4.262   1.983
  142TIP3    H2  370   2.594   4.293   1.914
  143TIP3   OH2  371   5.896   1.592   2.438
  143TIP3    H1  372   5.811   1.579   2.481
  143TIP3    H2  373   5.950   1.519   2.469
  144TIP3   OH2  374   5.188   7.246   5.357
  144TIP3    H1  375   5.144   7.160   5.361
  144TIP3    H2  376   5.124   7.306   5.395
  145TIP3   OH2  377   0.703   3.071   6.300
  145TIP3    H1  378   0.771   3.089   6.364
  145TIP3    H2  379   0.750   3.043   6.222
  146TIP3   OH2  380   5.076   0.858   1.828
  146TIP3    H1  381   5.064   0.947   1.795
  146TIP3    H2  382   5.011   0.851   1.899
  147TIP3   OH2  383   4.790   0.786   2.559
  147TIP3    H1  384   4.773   0.863   2.504
  147TIP3    H2  385   4.790   0.820   2.649
  148TIP3   OH2  386   0.340   2.583   3.222
  148TIP3    H1  387   0.330   2.626   3.307
  148TIP3    H2  388   0.292   2.500   3.231
  149TIP3   OH2  389   3.394   4.158   0.847
  149TIP3    H1  390   3.349   4.220   0.790
  149TIP3    H2  391   3.476   4.139   0.801
  150TIP3   OH2  392   6.611   2.529   5.052
  150TIP3    H1  393   6.703   2.502   5.055
  150TIP3    H2  394   6.581   2.499   4.966
  151TIP3   OH2  395   1.143   0.141   1.569
  151TIP3    H1  396   1.107   0.150   1.657
  151TIP3    H2  397   1.090   0.072   1.529
  152TIP3   OH2  398   6.042   3.875   6.604
  152TIP3    H1  399   6.137   3.869   6.593
  152TIP3    H2  400   6.007   3.832   6.525
  153TIP3   OH2  401   7.148   2.248   1.233
  153TIP3    H1  402   7.058   2.252   1.267
  153TIP3    H2  403   7.188   2.330   1.263
  154TIP3   OH2  404   6.722   5.369   1.232
  154TIP3    H1  405   6.742   5.275   1.227
  154TIP3    H2  406   6.636   5.377   1.192
  155TIP3   OH2  407   4.118   5.473   3.300
  155TIP3    H1  408   4.024   5.461   3.307
  155TIP3    H2  409   4.155   5.398   3.348
  156TIP3   OH2  410   8.075   2.729   0.404
  156TIP3    H1  411   8.089   2.738   0.310
  156TIP3    H2  412   8.145   2.669   0.432
  157TIP3   OH2  413   2.946   1.606   6.122
  157TIP3    H1  414   2.917   1.528   6.169
  157TIP3    H2  415   2.955   1.673   6.191
  158TIP3   OH2  416   3.861   6.803   4.239
  158TIP3    H1  417   3.886   6.841   4.155
  158TIP3    H2  418   3.863   6.708   4.224
  159TIP3   OH2  419   2.987   4.314   6.383
  159TIP3    H1  420   2.949   4.241   6.433
  159TIP3    H2  421   3.009   4.379   6.450
  160TIP3   OH2  422   1.827   2.117   3.267
  160TIP3    H1  423   1.757   2.164   3.223
  160TIP3    H2  424   1.907   2.143   3.221
  161TIP3   OH2  425   3.219   1.236   5.427
  161TIP3    H1  426   3.275   1.199   5.359
  161TIP3    H2  427   3.227   1.330   5.417
  162TIP3   OH2  428   6.757   5.282   3.061
  162TIP3    H1  429   6.728   5.226   2.989
  162TIP3    H2  430   6.676   5.306   3.107
  163TIP3   OH2  431   0.333   3.777   2.061
  163TIP3    H1  432   0.352   3.698   2.010
  163TIP3    H2  433   0.291   3.745   2.140
  164TIP3   OH2  434   7.789   3.443   5.373
  164TIP3    H1  435   7.872   3.477   5.408
  164TIP3    H2  436   7.808   3.427   5.280
  165TIP3   OH2  437   1.962   1.306   0.847
  165TIP3    H1  438   1.917   1.223   0.863
  165TIP3    H2  439   1.914   1.370   0.901
  166TIP3   OH2  440   3.129   0.522   1.305
  166TIP3    H1  441   3.164   0.597   1.353
  166TIP3    H2  442   3.192   0.452   1.322
  167TIP3   OH2  443   0.649   0.766   0.752
  167TIP3    H1  444   0.694   0.681   0.755
  167TIP3    H2  445   0.667   0.805   0.838
  168TIP3   OH2  446   5.854   2.829   1.002
  168TIP3    H1  447   5.917   2.873   1.059
  168TIP3    H2  448   5.906   2.799   0.928
  169TIP3   OH2  449   6.673   0.283   6.416
  169TIP3    H1  450   6.658   0.237   6.334
  169TIP3    H2  451   6.768   0.294   6.420
  170TIP3   OH2  452   4.173   0.723   0.579
  170TIP3    H1  453   4.240   0.786   0.604
  170TIP3    H2  454   4.164   0.666   0.655
  171TIP3   OH2  455   5.904   0.281   5.505
  171TIP3    H1  456   5.959   0.207   5.478
  171TIP3    H2  457   5.856   0.305   5.426
  172TIP3   OH2  458   8.065   0.018   5.066
  172TIP3    H1  459   8.016   0.013   4.984
  172TIP3    H2  460   8.147   0.060   5.043
  173TIP3   OH2  461   3.300   0.818   1.441
  173TIP3    H1  462   3.302   0.820   1.345
  173TIP3    H2  463   3.209   0.797   1.463
  174TIP3   OH2  464   6.252   0.968   4.265
  174TIP3    H1  465   6.275   1.004   4.351
  174TIP3    H2  466   6.157   0.981   4.258
  175TIP3   OH2  467   3.329   2.174   6.460
  175TIP3    H1  468   3.399   2.154   6.521
  175TIP3    H2  469   3.278   2.243   6.503
  176TIP3   OH2  470   4.086   0.193   4.566
  176TIP3    H1  471   4.170   0.240   4.559
  176TIP3    H2  472   4.034   0.245   4.626
  177TIP3   OH2  473   7.826   2.434   1.678
  177TIP3    H1  474   7.895   2.476   1.626
  177TIP3    H2  475   7.821   2.487   1.758
  178TIP3   OH2  476   7.463   5.327   5.305
  178TIP3    H1  477   7.405   5.258   5.335
  178TIP3    H2  478   7.538   5.324   5.364
  179TIP3   OH2  479   5.486   6.631   1.487
  179TIP3    H1  480   5.522   6.551   1.525
  179TIP3    H2  481   5.449   6.678   1.561
  180TIP3   OH2  482   2.761   7.831   5.622
  180TIP3    H1  483   2.752   7.756   5.563
  180TIP3    H2  484   2.856   7.842   5.633
  181TIP3   OH2  485   3.959   1.668   3.390
  181TIP3    H1  486   3.947   1.729   3.463
  181TIP3    H2  487   3.931   1.717   3.313
  182TIP3   OH2  488   7.759   4.234   6.549
  182TIP3    H1  489   7.770   4.219   6.455
  182TIP3    H2  490   7.683   4.292   6.555
  183TIP3   OH2  491   5.271   2.337   3.033
  183TIP3    H1  492   5.185   2.318   2.998
  183TIP3    H2  493   5.256   2.355   3.126
  184TIP3   OH2  494   1.915   7.525   2.021
  184TIP3    H1  495   2.011   7.524   2.012
  184TIP3    H2  496   1.900   7.506   2.114
  185TIP3   OH2  497   6.304   1.268   0.583
  185TIP3    H1  498   6.392   1.293   0.555
  185TIP3    H2  499   6.250   1.275   0.504
  186TIP3   OH2  500   4.728   1.561   2.675
  186TIP3    H1  501   4.741   1.572   2.581
  186TIP3    H2  502   4.806   1.513   2.705
  187TIP3   OH2  503   2.631   5.644   6.000
  187TIP3    H1  504   2.681   5.684   5.929
  187TIP3    H2  505   2.694   5.631   6.071
  188TIP3   OH2  506   3.559   0.232   4.166
  188TIP3    H1  507   3.495   0.175   4.209
  188TIP3    H2  508   3.519   0.319   4.168
  189TIP3   OH2  509   3.389   0.835   0.612
  189TIP3    H1  510   3.334   0.869   0.542
  189TIP3    H2  511   3.354   0.874   0.692
  190TIP3   OH2  512   0.958   5.789   0.932
  190TIP3    H1  513   0.950   5.724   0.862
  190TIP3    H2  514   0.926   5.871   0.893
  191TIP3   OH2  515   1.426   4.270   0.519
  191TIP3    H1  516   1.360   4.204   0.493
  191TIP3    H2  517   1.406   4.346   0.465
  192TIP3   OH2  518   0.988   7.780   6.323
  192TIP3    H1  519   0.930   7.704   6.314
  192TIP3    H2  520   1.054   7.753   6.387
  193TIP3   OH2  521   1.605   6.025   3.633
  193TIP3    H1  522   1.610   6.108   3.586
  193TIP3    H2  523   1.574   5.962   3.568
  194TIP3   OH2  524   4.421   3.514   2.720
  194TIP3    H1  525   4.455   3.443   2.774
  194TIP3    H2  526   4.476   3.514   2.642
  195TIP3   OH2  527   1.547   2.639   4.307
  195TIP3    H1  528   1.595   2.719   4.286
  195TIP3    H2  529   1.555   2.585   4.229
  196TIP3   OH2  530   8.106   4.717   5.413
  196TIP3    H1  531   8.161   4.677   5.481
  196TIP3    H2  532   8.041   4.650   5.391
  197TIP3   OH2  533   6.162   6.703   0.129
  197TIP3    H1  534   6.156   6.609   0.144
  197TIP3    H2  535   6.244   6.729   0.171
  198TIP3   OH2  536   5.173   7.349   4.841
  198TIP3    H1  537   5.204   7.262   4.816
  198TIP3    H2  538   5.199   7.359   4.932
  199TIP3   OH2  539   8.138   5.954   5.562
  199TIP3    H1  540   8.141   5.938   5.656
  199TIP3    H2  541   8.101   6.042   5.554
  200TIP3   OH2  542   1.606   7.674   6.384
  200TIP3    H1  543   1.686   7.676   6.436
  200TIP3    H2  544   1.601   7.585   6.350
  201TIP3   OH2  545   3.343   5.931   3.032
  201TIP3    H1  546   3.322   5.847   2.992
  201TIP3    H2  547   3.402   5.910   3.104
  202TIP3   OH2  548   7.115   2.105   5.828
  202TIP3    H1  549   7.113   2.193   5.866
  202TIP3    H2  550   7.189   2.063   5.871
  203TIP3   OH2  551   7.374   4.122   3.074
  203TIP3    H1  552   7.416   4.205   3.050
  203TIP3    H2  553   7.339   4.137   3.162
  204TIP3   OH2  554   5.971   0.434   4.267
  204TIP3    H1  555   5.951   0.434   4.173
  204TIP3    H2  556   5.894   0.394   4.307
  205TIP3   OH2  557   2.288   0.576   5.774
  205TIP3    H1  558   2.331   0.631   5.709
  205TIP3    H2  559   2.276   0.634   5.850
  206TIP3   OH2  560   6.047   2.285   4.789
  206TIP3    H1  561   6.030   2.277   4.695
  206TIP3    H2  562   6.070   2.196   4.816
  207TIP3   OH2  563   7.029   1.219   5.935
  207TIP3    H1  564   6.933   1.227   5.928
  207TIP3    H2  565   7.043   1.138   5.983
  208TIP3   OH2  566   3.112   5.958   2.398
  208TIP3    H1  567   3.042   5.921   2.452
  208TIP3    H2  568   3.192   5.942   2.448
  209TIP3   OH2  569   4.988   3.035   3.872
  209TIP3    H1  570   5.028   2.956   3.910
  209TIP3    H2  571   5.044   3.107   3.901
  210TIP3   OH2  572   2.537   7.304   3.638
  210TIP3    H1  573   2.499   7.294   3.725
  210TIP3    H2  574   2.462   7.319   3.581
  211TIP3   OH2  575   1.904   3.372   6.087
  211TIP3    H1  576   1.835   3.306   6.093
  211TIP3    H2  577   1.962   3.339   6.018
  212TIP3   OH2  578   3.604   4.077   0.635
  212TIP3    H1  579   3.554   4.056   0.556
  212TIP3    H2  580   3.694   4.057   0.612
  213TIP3   OH2  581   6.091   3.923   2.663
  213TIP3    H1  582   6.024   3.885   2.605
  213TIP3    H2  583   6.051   3.921   2.750
  214TIP3   OH2  584   7.490   5.455   6.293
  214TIP3    H1  585   7.460   5.388   6.354
  214TIP3    H2  586   7.412   5.482   6.246
  215TIP3   OH2  587   7.656   6.438   4.673
  215TIP3    H1  588   7.668   6.483   4.589
  215TIP3    H2  589   7.679   6.503   4.739
  216TIP3   OH2  590   2.230   0.450   5.483
  216TIP3    H1  591   2.202   0.456   5.392
  216TIP3    H2  592   2.303   0.388   5.482
  217TIP3   OH2  593   6.865   4.745   6.568
  217TIP3    H1  594   6.927   4.817   6.558
  217TIP3    H2  595   6.781   4.787   6.581
  218TIP3   OH2  596   5.126   2.294   3.573
  218TIP3    H1  597   5.142   2.386   3.552
  218TIP3    H2  598   5.031   2.288   3.587
  219TIP3   OH2  599   0.023   5.659   5.638
  219TIP3    H1  600   0.012   5.572   5.600
  219TIP3    H2  601   0.065   5.710   5.569
  220TIP3   OH2  602   5.286   7.023   0.044
  220TIP3    H1  603   5.342   7.075  -0.015
  220TIP3    H2  604   5.346   6.989   0.110
  221TIP3   OH2  605   5.244   2.076   3.453
  221TIP3    H1  606   5.204   2.149   3.500
  221TIP3    H2  607   5.171   2.017   3.434
  222TIP3   OH2  608   4.429   2.731   2.903
  222TIP3    H1  609   4.416   2.822   2.878
  222TIP3    H2  610   4.341   2.697   2.920
  223TIP3   OH2  611   4.670   7.132   3.331
  223TIP3    H1  612   4.624   7.214   3.317
  223TIP3    H2  613   4.734   7.128   3.260
  224TIP3   OH2  614   0.244   2.807   2.036
  224TIP3    H1  615   0.314   2.869   2.016
  224TIP3    H2  616   0.260   2.781   2.127
  225TIP3   OH2  617   0.641   1.427   1.189
  225TIP3    H1  618   0.712   1.383   1.236
  225TIP3    H2  619   0.629   1.376   1.109
  226TIP3   OH2  620   4.797   2.233   4.922
  226TIP3    H1  621   4.826   2.142   4.920
  226TIP3    H2  622   4.851   2.277   4.856
  227TIP3   OH2  623   4.828   7.253   1.092
  227TIP3    H1  624   4.758   7.301   1.137
  227TIP3    H2  625   4.799   7.248   1.001
  228TIP3   OH2  626   0.419   2.557   5.673
  228TIP3    H1  627   0.354   2.486   5.673
  228TIP3    H2  628   0.472   2.541   5.594
  229TIP3   OH2  629   7.146   1.900   4.213
  229TIP3    H1  630   7.212   1.847   4.169
  229TIP3    H2  631   7.067   1.888   4.161
  230TIP3   OH2  632   3.135   4.621   4.798
  230TIP3    H1  633   3.050   4.649   4.833
  230TIP3    H2  634   3.135   4.526   4.809
  231TIP3   OH2  635   8.262   4.579   6.453
  231TIP3    H1  636   8.251   4.498   6.402
  231TIP3    H2  637   8.221   4.559   6.538
  232TIP3   OH2  638   5.428   1.244   5.189
  232TIP3    H1  639   5.455   1.157   5.219
  232TIP3    H2  640   5.363   1.272   5.254
  233TIP3   OH2  641   0.976   4.135   3.967
  233TIP3    H1  642   0.970   4.043   3.992
  233TIP3    H2  643   1.013   4.178   4.044
  234TIP3   OH2  644   1.016   6.971   5.841
  234TIP3    H1  645   0.999   6.917   5.919
  234TIP3    H2  646   0.974   6.924   5.770
  235TIP3   OH2  647   7.381   5.234   1.606
  235TIP3    H1  648   7.440   5.306   1.584
  235TIP3    H2  649   7.376   5.234   1.701
  236TIP3   OH2  650   0.762   4.027   0.241
  236TIP3    H1  651   0.846   4.070   0.256
  236TIP3    H2  652   0.700   4.100   0.232
  237TIP3   OH2  653   3.786   4.604   5.050
  237TIP3    H1  654   3.796   4.680   4.994
  237TIP3    H2  655   3.744   4.638   5.129
  238TIP3   OH2  656   5.132   6.464   1.504
  238TIP3    H1  657   5.217   6.467   1.461
  238TIP3    H2  658   5.074   6.422   1.441
  239TIP3   OH2  659   8.295   4.343   6.327
  239TIP3    H1  660   8.310   4.255   6.362
  239TIP3    H2  661   8.205   4.341   6.295
  240TIP3   OH2  662   0.770   0.686   0.322
  240TIP3    H1  663   0.771   0.764   0.377
  240TIP3    H2  664   0.802   0.616   0.378
  241TIP3   OH2  665   6.836   3.219   1.407
  241TIP3    H1  666   6.769   3.270   1.361
  241TIP3    H2  667   6.807   3.219   1.498
  242TIP3   OH2  668   0.426   3.105   0.785
  242TIP3    H1  669   0.382   3.020   0.794
  242TIP3    H2  670   0.435   3.117   0.690
  243TIP3   OH2  671   7.631   6.459   6.361
  243TIP3    H1  672   7.590   6.373   6.355
  243TIP3    H2  673   7.571   6.517   6.313
  244TIP3   OH2  674   7.121   6.985   3.040
  244TIP3    H1  675   7.062   6.910   3.047
  244TIP3    H2  676   7.063   7.060   3.025
  245TIP3   OH2  677   4.927   5.630   4.110
  245TIP3    H1  678   4.962   5.676   4.186
  245TIP3    H2  679   4.989   5.559   4.094
  246TIP3   OH2  680   2.675   3.040   2.570
  246TIP3    H1  681   2.712   2.988   2.498
  246TIP3    H2  682   2.731   3.117   2.574
  247TIP3   OH2  683   7.218   6.421   6.040
  247TIP3    H1  684   7.225   6.516   6.030
  247TIP3    H2  685   7.234   6.386   5.952
  248TIP3   OH2  686   3.869   2.014   1.352
  248TIP3    H1  687   3.861   2.087   1.413
  248TIP3    H2  688   3.808   2.035   1.281
  249TIP3   OH2  689   1.799   5.684   1.477
  249TIP3    H1  690   1.753   5.676   1.561
  249TIP3    H2  691   1.745   5.744   1.426
  250TIP3   OH2  692   2.586   0.075   4.812
  250TIP3    H1  693   2.613   0.007   4.874
  250TIP3    H2  694   2.546   0.142   4.866
  251TIP3   OH2  695   5.754   0.799   0.991
  251TIP3    H1  696   5.836   0.807   1.041
  251TIP3    H2  697   5.727   0.890   0.976
  252TIP3   OH2  698   3.017   5.617   3.247
  252TIP3    H1  699   3.055   5.577   3.326
  252TIP3    H2  700   3.034   5.553   3.178
  253TIP3   OH2  701   6.842   3.890   0.592
  253TIP3    H1  702   6.860   3.944   0.515
  253TIP3    H2  703   6.783   3.942   0.646
  254TIP3   OH2  704   6.930   4.601   1.638
  254TIP3    H1  705   6.872   4.535   1.602
  254TIP3    H2  706   6.967   4.561   1.717
  255TIP3   OH2  707   1.601   6.055   5.686
  255TIP3    H1  708   1.600   6.026   5.595
  255TIP3    H2  709   1.692   6.081   5.702
  256TIP3   OH2  710   3.652   7.710   1.627
  256TIP3    H1  711   3.677   7.621   1.653
  256TIP3    H2  712   3.717   7.766   1.669
  257TIP3   OH2  713   5.733   4.970   0.085
  257TIP3    H1  714   5.795   4.945   0.017
  257TIP3    H2  715   5.715   4.889   0.133
  258TIP3   OH2  716   2.280   6.234   3.409
  258TIP3    H1  717   2.323   6.302   3.357
  258TIP3    H2  718   2.325   6.236   3.493
  259TIP3   OH2  719   5.704   4.845   1.066
  259TIP3    H1  720   5.629   4.787   1.077
  259TIP3    H2  721   5.699   4.905   1.140
  260TIP3   OH2  722   1.732   2.284   5.550
  260TIP3    H1  723   1.803   2.342   5.577
  260TIP3    H2  724   1.696   2.326   5.471
  261TIP3   OH2  725   6.780   2.120   0.554
  261TIP3    H1  726   6.763   2.027   0.564
  261TIP3    H2  727   6.697   2.162   0.574
  262TIP3   OH2  728   7.243   0.144  -0.011
  262TIP3    H1  729   7.271   0.062   0.029
  262TIP3    H2  730   7.209   0.196   0.061
  263TIP3   OH2  731   4.859   3.227   4.379
  263TIP3    H1  732   4.831   3.312   4.346
  263TIP3    H2  733   4.812   3.163   4.326
  264TIP3   OH2  734   3.576   2.894   6.670
  264TIP3    H1  735   3.554   2.857   6.585
  264TIP3    H2  736   3.496   2.940   6.698
  265TIP3   OH2  737   1.707   4.155   2.224
  265TIP3    H1  738   1.746   4.204   2.151
  265TIP3    H2  739   1.704   4.065   2.193
  266TIP3   OH2  740   0.842   2.421   3.430
  266TIP3    H1  741   0.750   2.442   3.440
  266TIP3    H2  742   0.848   2.328   3.452
  267TIP3   OH2  743   2.539   5.989   4.436
  267TIP3    H1  744   2.597   5.934   4.490
  267TIP3    H2  745   2.585   6.073   4.431
  268TIP3   OH2  746   7.729   5.777   4.872
  268TIP3    H1  747   7.791   5.777   4.799
  268TIP3    H2  748   7.722   5.685   4.898
  269TIP3   OH2  749   1.532   7.415   6.353
  269TIP3    H1  750   1.532   7.372   6.439
  269TIP3    H2  751   1.452   7.467   6.352
  270TIP3   OH2  752   8.033   1.673   1.455
  270TIP3    H1  753   8.038   1.653   1.362
  270TIP3    H2  754   8.071   1.761   1.463
  271TIP3   OH2  755   6.650   3.563   5.412
  271TIP3    H1  756   6.629   3.592   5.324
  271TIP3    H2  757   6.744   3.578   5.420
  272TIP3   OH2  758   4.024   0.906   6.156
  272TIP3    H1  759   3.981   0.822   6.142
  272TIP3    H2  760   3.967   0.970   6.113
  273TIP3   OH2  761   8.180   1.347   1.495
  273TIP3    H1  762   8.167   1.258   1.528
  273TIP3    H2  763   8.159   1.342   1.402
  274TIP3   OH2  764   3.767   6.782   3.506
  274TIP3    H1  765   3.856   6.815   3.491
  274TIP3    H2  766   3.748   6.804   3.597
  275TIP3   OH2  767   2.348   1.666   6.307
  275TIP3    H1  768   2.442   1.646   6.317
  275TIP3    H2  769   2.309   1.583   6.280
  276TIP3   OH2  770   2.388   7.675  -0.010
  276TIP3    H1  771   2.465   7.627   0.019
  276TIP3    H2  772   2.315   7.635   0.038
  277TIP3   OH2  773   1.320   0.440   4.031
  277TIP3    H1  774   1.238   0.468   3.991
  277TIP3    H2  775   1.349   0.367   3.977
  278TIP3   OH2  776   2.704   7.704   6.530
  278TIP3    H1  777   2.609   7.711   6.525
  278TIP3    H2  778   2.729   7.764   6.601
  279TIP3   OH2  779   4.816   1.949   2.699
  279TIP3    H1  780   4.755   1.878   2.681
  279TIP3    H2  781   4.885   1.939   2.633
  280TIP3   OH2  782   0.361   2.000   3.895
  280TIP3    H1  783   0.279   2.034   3.858
  280TIP3    H2  784   0.373   2.051   3.976
  281TIP3   OH2  785   0.044   4.699   5.986
  281TIP3    H1  786   0.001   4.764   6.041
  281TIP3    H2  787   0.138   4.711   6.003
  282TIP3   OH2  788   3.788   0.529   3.572
  282TIP3    H1  789   3.831   0.611   3.548
  282TIP3    H2  790   3.710   0.525   3.517
  283TIP3   OH2  791   6.171   2.608   1.065
  283TIP3    H1  792   6.188   2.514   1.052
  283TIP3    H2  793   6.258   2.646   1.081
  284TIP3   OH2  794   8.108   3.882   3.909
  284TIP3    H1  795   8.052   3.921   3.842
  284TIP3    H2  796   8.048   3.849   3.975
  285TIP3   OH2  797   2.780   4.375   1.646
  285TIP3    H1  798   2.758   4.282   1.642
  285TIP3    H2  799   2.714   4.413   1.704
  286TIP3   OH2  800   6.443   5.651   6.162
  286TIP3    H1  801   6.503   5.610   6.101
  286TIP3    H2  802   6.396   5.577   6.203
  287TIP3   OH2  803   6.256   0.502   4.872
  287TIP3    H1  804   6.190   0.572   4.877
  287TIP3    H2  805   6.324   0.539   4.816
  288TIP3   OH2  806   5.238   4.237   5.008
  288TIP3    H1  807   5.261   4.172   4.942
  288TIP3    H2  808   5.322   4.267   5.043
  289TIP3   OH2  809   5.153   7.080   0.970
  289TIP3    H1  810   5.138   7.015   0.901
  289TIP3    H2  811   5.164   7.028   1.050
  290TIP3   OH2  812   6.297   5.820   4.881
  290TIP3    H1  813   6.363   5.858   4.938
  290TIP3    H2  814   6.316   5.726   4.881
  291TIP3   OH2  815   7.297   3.882   0.129
  291TIP3    H1  816   7.219   3.865   0.181
  291TIP3    H2  817   7.266   3.881   0.038
  292TIP3   OH2  818   7.473   0.434   4.559
  292TIP3    H1  819   7.444   0.508   4.507
  292TIP3    H2  820   7.482   0.362   4.496
  293TIP3   OH2  821   7.789   4.922   2.193
  293TIP3    H1  822   7.796   4.952   2.284
  293TIP3    H2  823   7.863   4.964   2.149
  294TIP3   OH2  824   1.263   4.680   0.103
  294TIP3    H1  825   1.169   4.665   0.089
  294TIP3    H2  826   1.304   4.599   0.075
  295TIP3   OH2  827   1.814   7.775   5.541
  295TIP3    H1  828   1.729   7.797   5.502
  295TIP3    H2  829   1.874   7.772   5.467
  296TIP3   OH2  830   4.099   2.015   3.090
  296TIP3    H1  831   4.130   1.945   3.147
  296TIP3    H2  832   4.146   2.001   3.007
  297TIP3   OH2  833   0.853   7.421   0.893
  297TIP3    H1  834   0.937   7.415   0.939
  297TIP3    H2  835   0.798   7.474   0.952
  298TIP3   OH2  836   4.545   6.325   4.437
  298TIP3    H1  837   4.525   6.270   4.513
  298TIP3    H2  838   4.471   6.385   4.431
  299TIP3   OH2  839   5.497   3.419   2.998
  299TIP3    H1  840   5.430   3.350   2.996
  299TIP3    H2  841   5.500   3.452   2.909
  300TIP3   OH2  842   5.285   0.117   2.979
  300TIP3    H1  843   5.220   0.164   3.031
  300TIP3    H2  844   5.363   0.115   3.035
  301TIP3   OH2  845   5.837   6.049   3.833
  301TIP3    H1  846   5.899   5.988   3.873
  301TIP3    H2  847   5.798   5.999   3.762
  302TIP3   OH2  848   0.404   0.177   4.107
  302TIP3    H1  849   0.359   0.259   4.087
  302TIP3    H2  850   0.444   0.193   4.193
  303TIP3   OH2  851   6.230   6.828   5.502
  303TIP3    H1  852   6.298   6.895   5.503
  303TIP3    H2  853   6.279   6.745   5.500
  304TIP3   OH2  854   3.748   3.241   0.388
  304TIP3    H1  855   3.732   3.287   0.306
  304TIP3    H2  856   3.825   3.188   0.372
  305TIP3   OH2  857   7.277   6.128   2.807
  305TIP3    H1  858   7.185   6.154   2.803
  305TIP3    H2  859   7.312   6.145   2.720
  306TIP3   OH2  860   0.746   5.531   6.050
  306TIP3    H1  861   0.731   5.623   6.074
  306TIP3    H2  862   0.776   5.535   5.959
  307TIP3   OH2  863   4.604   6.638   5.426
  307TIP3    H1  864   4.633   6.608   5.512
  307TIP3    H2  865   4.682   6.677   5.387
  308TIP3   OH2  866   0.375   6.124   4.022
  308TIP3    H1  867   0.341   6.059   3.960
  308TIP3    H2  868   0.321   6.112   4.100
  309TIP3   OH2  869   3.063   7.611   1.952
  309TIP3    H1  870   3.052   7.637   1.860
  309TIP3    H2  871   3.157   7.614   1.967
  310TIP3   OH2  872   5.430   4.926   1.450
  310TIP3    H1  873   5.392   4.989   1.512
  310TIP3    H2  874   5.518   4.959   1.433
  311TIP3   OH2  875   0.636   3.297   2.474
  311TIP3    H1  876   0.666   3.336   2.556
  311TIP3    H2  877   0.544   3.277   2.489
  312TIP3   OH2  878   0.856   1.552   1.814
  312TIP3    H1  879   0.943   1.528   1.847
  312TIP3    H2  880   0.808   1.580   1.893
  313TIP3   OH2  881   3.429   4.613   0.466
  313TIP3    H1  882   3.408   4.527   0.501
  313TIP3    H2  883   3.525   4.614   0.459
  314TIP3   OH2  884   1.893   0.696   5.132
  314TIP3    H1  885   1.987   0.678   5.129
  314TIP3    H2  886   1.852   0.617   5.099
  315TIP3   OH2  887   3.830   3.978   0.542
  315TIP3    H1  888   3.892   3.979   0.615
  315TIP3    H2  889   3.885   3.984   0.464
  316TIP3   OH2  890   5.186   7.787   0.468
  316TIP3    H1  891   5.207   7.791   0.561
  316TIP3    H2  892   5.262   7.745   0.428
  317TIP3   OH2  893   4.838   3.617   5.972
  317TIP3    H1  894   4.758   3.663   5.996
  317TIP3    H2  895   4.818   3.574   5.889
  318TIP3   OH2  896   7.508   4.849   4.413
  318TIP3    H1  897   7.548   4.883   4.333
  318TIP3    H2  898   7.541   4.759   4.420
  319TIP3   OH2  899   1.187   6.796   0.221
  319TIP3    H1  900   1.135   6.875   0.212
  319TIP3    H2  901   1.275   6.827   0.243
  320TIP3   OH2  902   3.339   0.026   3.991
  320TIP3    H1  903   3.399   0.098   3.973
  320TIP3    H2  904   3.367  -0.009   4.076
  321TIP3   OH2  905   7.121   2.858   3.127
  321TIP3    H1  906   7.194   2.913   3.100
  321TIP3    H2  907   7.104   2.884   3.218
  322TIP3   OH2  908   6.210   0.321   4.353
  322TIP3    H1  909   6.137   0.370   4.317
  322TIP3    H2  910   6.288   0.372   4.327
  323TIP3   OH2  911   5.306   5.131   1.614
  323TIP3    H1  912   5.346   5.212   1.582
  323TIP3    H2  913   5.271   5.153   1.700
  324TIP3   OH2  914   6.987   0.509   0.759
  324TIP3    H1  915   6.902   0.484   0.795
  324TIP3    H2  916   6.974   0.599   0.728
  325TIP3   OH2  917   3.698   3.746   0.446
  325TIP3    H1  918   3.713   3.829   0.490
  325TIP3    H2  919   3.723   3.761   0.355
  326TIP3   OH2  920   5.865   7.694   0.464
  326TIP3    H1  921   5.945   7.641   0.470
  326TIP3    H2  922   5.820   7.679   0.547
  327TIP3   OH2  923   1.554   0.237   3.321
  327TIP3    H1  924   1.519   0.314   3.276
  327TIP3    H2  925   1.648   0.242   3.308
  328TIP3   OH2  926   1.802   0.282   1.606
  328TIP3    H1  927   1.792   0.222   1.532
  328TIP3    H2  928   1.875   0.339   1.581
  329TIP3   OH2  929   6.193   4.715   5.402
  329TIP3    H1  930   6.207   4.621   5.417
  329TIP3    H2  931   6.208   4.727   5.308
  330TIP3   OH2  932   5.750   3.076   4.331
  330TIP3    H1  933   5.792   3.063   4.416
  330TIP3    H2  934   5.784   3.160   4.300
  331TIP3   OH2  935   1.578   6.786   6.419
  331TIP3    H1  936   1.544   6.817   6.503
  331TIP3    H2  937   1.673   6.791   6.427
  332TIP3   OH2  938   1.821   5.847   1.164
  332TIP3    H1  939   1.843   5.925   1.114
  332TIP3    H2  940   1.883   5.781   1.132
  333TIP3   OH2  941   5.756   6.309   2.430
  333TIP3    H1  942   5.751   6.223   2.471
  333TIP3    H2  943   5.806   6.362   2.492
  334TIP3   OH2  944   5.610   1.205   2.853
  334TIP3    H1  945   5.641   1.162   2.773
  334TIP3    H2  946   5.687   1.249   2.888
  335TIP3   OH2  947   1.981   5.541   6.182
  335TIP3    H1  948   1.886   5.539   6.175
  335TIP3    H2  949   1.999   5.605   6.251
  336TIP3   OH2  950   6.634   2.673   5.557
  336TIP3    H1  951   6.638   2.764   5.586
  336TIP3    H2  952   6.616   2.623   5.636
  337TIP3   OH2  953   0.530   6.657   1.093
  337TIP3    H1  954   0.557   6.734   1.043
  337TIP3    H2  955   0.490   6.693   1.172
  338TIP3   OH2  956   1.992   6.700   1.771
  338TIP3    H1  957   1.991   6.793   1.796
  338TIP3    H2  958   1.924   6.693   1.704
  339TIP3   OH2  959   0.393   0.134   0.493
  339TIP3    H1  960   0.394   0.039   0.499
  339TIP3    H2  961   0.463   0.155   0.431
  340TIP3   OH2  962   6.526   6.867   1.073
  340TIP3    H1  963   6.538   6.938   1.136
  340TIP3    H2  964   6.519   6.788   1.127
  341TIP3   OH2  965   2.498   7.155   0.974
  341TIP3    H1  966   2.560   7.103   1.024
  341TIP3    H2  967   2.514   7.131   0.883
  342TIP3   OH2  968   0.936   5.917   5.514
  342TIP3    H1  969   0.927   5.850   5.581
  342TIP3    H2  970   0.847   5.947   5.499
  343TIP3   OH2  971   1.095   3.902   1.531
  343TIP3    H1  972   1.017   3.957   1.528
  343TIP3    H2  973   1.157   3.950   1.585
  344TIP3   OH2  974   4.220   1.201   1.688
  344TIP3    H1  975   4.136   1.246   1.681
  344TIP3    H2  976   4.281   1.268   1.718
  345TIP3   OH2  977   0.378   3.484   3.822
  345TIP3    H1  978   0.474   3.481   3.816
  345TIP3    H2  979   0.357   3.577   3.820
  346TIP3   OH2  980   1.045   1.684   5.495
  346TIP3    H1  981   1.128   1.729   5.479
  346TIP3    H2  982   1.044   1.667   5.589
  347TIP3   OH2  983   5.593   2.519   3.942
  347TIP3    H1  984   5.654   2.567   3.886
  347TIP3    H2  985   5.523   2.491   3.884
  348TIP3   OH2  986   4.977   1.434   5.623
  348TIP3    H1  987   4.889   1.461   5.646
  348TIP3    H2  988   4.965   1.363   5.559
  349TIP3   OH2  989   7.746   4.194   2.738
  349TIP3    H1  990   7.721   4.254   2.667
  349TIP3    H2  991   7.671   4.135   2.746
  350TIP3   OH2  992   4.805   4.684   0.193
  350TIP3    H1  993   4.772   4.753   0.251
  350TIP3    H2  994   4.759   4.605   0.221
  351TIP3   OH2  995   0.429   7.168   4.850
  351TIP3    H1  996   0.359   7.187   4.912
  351TIP3    H2  997   0.447   7.075   4.861
  352TIP3   OH2  998   1.402   4.043   6.211
  352TIP3    H1  999   1.318   4.008   6.182
  352TIP3    H2 1000   1.468   3.987   6.171
  353TIP3   OH2 1001   6.413   3.169   0.337
  353TIP3    H1 1002   6.487   3.114   0.362
  353TIP3    H2 1003   6.360   3.114   0.280
  354TIP3   OH2 1004   7.590   6.144   0.636
  354TIP3    H1 1005   7.559   6.228   0.670
  354TIP3    H2 1006   7.599   6.159   0.542
  355TIP3   OH2 1007   7.943   0.842   3.148
  355TIP3    H1 1008   7.857   0.799   3.155
  355TIP3    H2 1009   7.931   0.926   3.193
  356TIP3   OH2 1010   1.110   3.293   2.433
  356TIP3    H1 1011   1.080   3.383   2.440
  356TIP3    H2 1012   1.106   3.273   2.339
  357TIP3   OH2 1013   6.502   5.806   3.851
  357TIP3    H1 1014   6.427   5.856   3.882
  357TIP3    H2 1015   6.468   5.718   3.835
  358TIP3   OH2 1016   3.678   4.417   2.143
  358TIP3    H1 1017   3.720   4.410   2.057
  358TIP3    H2 1018   3.744   4.459   2.198
  359TIP3   OH2 1019   2.735   2.239   4.478
  359TIP3    H1 1020   2.723   2.292   4.557
  359TIP3    H2 1021   2.829   2.223   4.474
  360TIP3   OH2 1022   4.306   2.150   3.584
  360TIP3    H1 1023   4.260   2.132   3.501
  360TIP3    H2 1024   4.283   2.241   3.604
  361TIP3   OH2 1025   1.582   6.341   6.369
  361TIP3    H1 1026   1.607   6.424   6.327
  361TIP3    H2 1027   1.645   6.277   6.335
  362TIP3   OH2 1028   6.307   4.009   3.968
  362TIP3    H1 1029   6.258   4.084   3.936
  362TIP3    H2 1030   6.243   3.937   3.969
  363TIP3   OH2 1031   4.607   3.547   5.326
  363TIP3    H1 1032   4.573   3.624   5.281
  363TIP3    H2 1033   4.580   3.473   5.272
  364TIP3   OH2 1034   5.565   6.155   2.711
  364TIP3    H1 1035   5.615   6.141   2.630
  364TIP3    H2 1036   5.500   6.221   2.688
  365TIP3   OH2 1037   3.233   6.106   0.346
  365TIP3    H1 1038   3.166   6.159   0.303
  365TIP3    H2 1039   3.315   6.154   0.332
  366TIP3   OH2 1040   2.455   0.124   1.658
  366TIP3    H1 1041   2.481   0.037   1.688
  366TIP3    H2 1042   2.370   0.111   1.617
  367TIP3   OH2 1043   2.227   6.049   3.230
  367TIP3    H1 1044   2.238   6.110   3.303
  367TIP3    H2 1045   2.307   6.058   3.179
  368TIP3   OH2 1046   1.582   5.888   4.436
  368TIP3    H1 1047   1.507   5.948   4.440
  368TIP3    H2 1048   1.602   5.883   4.343
  369TIP3   OH2 1049   3.225   5.079   2.064
  369TIP3    H1 1050   3.230   5.169   2.032
  369TIP3    H2 1051   3.260   5.027   1.993
  370TIP3   OH2 1052   0.945   3.047   2.466
  370TIP3    H1 1053   1.017   3.022   2.408
  370TIP3    H2 1054   0.965   3.138   2.490
  371TIP3   OH2 1055   4.576   0.323   2.817
  371TIP3    H1 1056   4.619   0.368   2.745
  371TIP3    H2 1057   4.487   0.357   2.818
  372TIP3   OH2 1058   0.683   1.035   1.902
  372TIP3    H1 1059   0.628   0.966   1.938
  372TIP3    H2 1060   0.637   1.116   1.923
  373TIP3   OH2 1061   1.762   2.547   6.214
  373TIP3    H1 1062   1.698   2.489   6.254
  373TIP3    H2 1063   1.839   2.540   6.270
  374TIP3   OH2 1064   2.947   0.069   4.887
  374TIP3    H1 1065   2.908   0.054   4.972
  374TIP3    H2 1066   3.020   0.007   4.883
  375TIP3   OH2 1067   8.061   5.072   2.072
  375TIP3    H1 1068   8.010   5.079   1.992
  375TIP3    H2 1069   8.141   5.122   2.053
  376TIP3   OH2 1070   8.115   6.118   3.063
  376TIP3    H1 1071   8.209   6.132   3.053
  376TIP3    H2 1072   8.076   6.198   3.028
  377TIP3   OH2 1073   7.722   3.521   2.831
  377TIP3    H1 1074   7.739   3.507   2.738
  377TIP3    H2 1075   7.692   3.612   2.836
  378TIP3   OH2 1076   7.196   6.843   2.291
  378TIP3    H1 1077   7.121   6.835   2.232
  378TIP3    H2 1078   7.272   6.824   2.236
  379TIP3   OH2 1079   5.075   1.996   6.394
  379TIP3    H1 1080   4.992   1.972   6.435
  379TIP3    H2 1081   5.090   1.929   6.328
  380TIP3   OH2 1082   6.577   4.938   1.755
  380TIP3    H1 1083   6.586   4.944   1.660
  380TIP3    H2 1084   6.486   4.962   1.773
  381TIP3   OH2 1085   4.700   3.733   4.275
  381TIP3    H1 1086   4.764   3.737   4.346
  381TIP3    H2 1087   4.725   3.656   4.224
  382TIP3   OH2 1088   0.460   3.298   3.375
  382TIP3    H1 1089   0.504   3.336   3.300
  382TIP3    H2 1090   0.368   3.290   3.348
  383TIP3   OH2 1091   7.299   3.100   2.119
  383TIP3    H1 1092   7.382   3.140   2.093
  383TIP3    H2 1093   7.246   3.101   2.039
  384TIP3   OH2 1094   6.777   7.604   6.797
  384TIP3    H1 1095   6.843   7.673   6.789
  384TIP3    H2 1096   6.702   7.637   6.746
  385TIP3   OH2 1097   1.953   0.985   5.123
  385TIP3    H1 1098   1.945   0.903   5.172
  385TIP3    H2 1099   1.864   1.020   5.120
  386TIP3   OH2 1100   4.900   6.533   5.839
  386TIP3    H1 1101   4.985   6.497   5.865
  386TIP3    H2 1102   4.853   6.545   5.921
  387TIP3   OH2 1103   3.059   2.516   1.377
  387TIP3    H1 1104   3.028   2.598   1.415
  387TIP3    H2 1105   3.100   2.543   1.294
  388TIP3   OH2 1106   7.986   0.486   2.402
  388TIP3    H1 1107   8.045   0.544   2.451
  388TIP3    H2 1108   8.030   0.474   2.318
  389TIP3   OH2 1109   4.271   3.595   1.908
  389TIP3    H1 1110   4.303   3.530   1.846
  389TIP3    H2 1111   4.288   3.557   1.995
  390TIP3   OH2 1112   1.257   1.939   4.848
  390TIP3    H1 1113   1.317   1.889   4.904
  390TIP3    H2 1114   1.281   1.913   4.759
  391TIP3   OH2 1115   7.795   5.235   3.883
  391TIP3    H1 1116   7.727   5.285   3.928
  391TIP3    H2 1117   7.865   5.299   3.867
  392TIP3   OH2 1118   7.132   2.889   1.136
  392TIP3    H1 1119   7.177   2.838   1.069
  392TIP3    H2 1120   7.191   2.963   1.154
  393TIP3   OH2 1121   1.170   7.424   6.651
  393TIP3    H1 1122   1.097   7.414   6.711
  393TIP3    H2 1123   1.139   7.385   6.569
  394TIP3   OH2 1124   5.786   3.144   5.594
  394TIP3    H1 1125   5.862   3.087   5.609
  394TIP3    H2 1126   5.771   3.186   5.679
  395TIP3   OH2 1127   2.976   5.179   2.049
  395TIP3    H1 1128   2.942   5.149   1.964
  395TIP3    H2 1129   3.054   5.125   2.063
  396TIP3   OH2 1130   1.429   7.484   0.005
  396TIP3    H1 1131   1.436   7.389  -0.009
  396TIP3    H2 1132   1.342   7.496   0.044
  397TIP3   OH2 1133   3.641   3.434   0.933
  397TIP3    H1 1134   3.582   3.406   0.863
  397TIP3    H2 1135   3.654   3.354   0.986
  398TIP3   OH2 1136   4.569   1.440   1.288
  398TIP3    H1 1137   4.615   1.356   1.285
  398TIP3    H2 1138   4.547   1.453   1.380
  399TIP3   OH2 1139   7.098   4.846   2.762
  399TIP3    H1 1140   7.019   4.795   2.775
  399TIP3    H2 1141   7.143   4.844   2.846
  400TIP3   OH2 1142   0.283   3.760   3.769
  400TIP3    H1 1143   0.203   3.744   3.719
  400TIP3    H2 1144   0.256   3.818   3.840
  401TIP3   OH2 1145   7.969   6.010   4.189
  401TIP3    H1 1146   8.029   5.939   4.211
  401TIP3    H2 1147   7.968   6.065   4.267
  402TIP3   OH2 1148   7.959   2.793   6.501
  402TIP3    H1 1149   8.027   2.747   6.551
  402TIP3    H2 1150   7.938   2.870   6.553
  403TIP3   OH2 1151   7.719   3.358   0.648
  403TIP3    H1 1152   7.806   3.396   0.651
  403TIP3    H2 1153   7.734   3.264   0.635
  404TIP3   OH2 1154   6.908  -0.001   2.147
  404TIP3    H1 1155   6.992   0.040   2.167
  404TIP3    H2 1156   6.845   0.044   2.203
  405TIP3   OH2 1157   0.964   4.575   0.928
  405TIP3    H1 1158   0.953   4.504   0.992
  405TIP3    H2 1159   1.038   4.626   0.961
  406TIP3   OH2 1160   2.920   4.709   4.943
  406TIP3    H1 1161   2.987   4.764   4.983
  406TIP3    H2 1162   2.858   4.690   5.013
  407TIP3   OH2 1163   1.567   4.919   3.820
  407TIP3    H1 1164   1.572   4.835   3.865
  407TIP3    H2 1165   1.495   4.965   3.863
  408TIP3   OH2 1166   0.700   4.798   2.546
  408TIP3    H1 1167   0.752   4.770   2.471
  408TIP3    H2 1168   0.740   4.880   2.575
  409TIP3   OH2 1169   0.457   4.424   2.690
  409TIP3    H1 1170   0.544   4.456   2.664
  409TIP3    H2 1171   0.432   4.363   2.621
  410TIP3   OH2 1172   4.298   6.859   4.875
  410TIP3    H1 1173   4.376   6.907   4.903
  410TIP3    H2 1174   4.232   6.881   4.941
  411TIP3   OH2 1175   8.010   7.082   2.178
  411TIP3    H1 1176   8.092   7.122   2.149
  411TIP3    H2 1177   8.036   6.997   2.213
  412TIP3   OH2 1178   6.423   4.052   1.188
  412TIP3    H1 1179   6.412   4.035   1.282
  412TIP3    H2 1180   6.417   3.965   1.148
  413TIP3   OH2 1181   3.733   4.303   0.332
  413TIP3    H1 1182   3.789   4.297   0.409
  413TIP3    H2 1183   3.646   4.281   0.364
  414TIP3   OH2 1184   3.710   5.103   6.454
  414TIP3    H1 1185   3.615   5.104   6.457
  414TIP3    H2 1186   3.738   5.150   6.532
  415TIP3   OH2 1187   8.263   0.542   1.142
  415TIP3    H1 1188   8.259   0.513   1.233
  415TIP3    H2 1189   8.215   0.475   1.094
  416TIP3   OH2 1190   0.168   1.757   6.201
  416TIP3    H1 1191   0.102   1.817   6.233
  416TIP3    H2 1192   0.161   1.761   6.106
  417TIP3   OH2 1193   7.025   2.866   3.432
  417TIP3    H1 1194   7.023   2.828   3.520
  417TIP3    H2 1195   6.944   2.834   3.391
  418TIP3   OH2 1196   4.525   0.370   6.489
  418TIP3    H1 1197   4.497   0.400   6.576
  418TIP3    H2 1198   4.470   0.420   6.428
  419TIP3   OH2 1199   1.895   1.857   6.441
  419TIP3    H1 1200   1.981   1.873   6.403
  419TIP3    H2 1201   1.856   1.943   6.450
  420TIP3   OH2 1202   5.191   0.512   0.782
  420TIP3    H1 1203   5.137   0.435   0.767
  420TIP3    H2 1204   5.281   0.480   0.772
  421TIP3   OH2 1205   2.538   1.860   0.254
  421TIP3    H1 1206   2.514   1.824   0.168
  421TIP3    H2 1207   2.492   1.804   0.317
  422TIP3   OH2 1208   7.484   7.467   4.302
  422TIP3    H1 1209   7.530   7.394   4.342
  422TIP3    H2 1210   7.428   7.502   4.372
  423TIP3   OH2 1211   4.656   0.677   1.048
  423TIP3    H1 1212   4.726   0.642   0.993
  423TIP3    H2 1213   4.625   0.602   1.099
  424TIP3   OH2 1214   2.608   7.560   6.249
  424TIP3    H1 1215   2.692   7.563   6.203
  424TIP3    H2 1216   2.590   7.467   6.261
  425TIP3   OH2 1217   1.448   5.558   6.771
  425TIP3    H1 1218   1.397   5.481   6.745
  425TIP3    H2 1219   1.429   5.623   6.704
  426TIP3   OH2 1220   5.688   6.466   1.681
  426TIP3    H1 1221   5.713   6.455   1.772
  426TIP3    H2 1222   5.694   6.379   1.643
  427TIP3   OH2 1223   1.814   0.326   3.236
  427TIP3    H1 1224   1.855   0.363   3.158
  427TIP3    H2 1225   1.882   0.269   3.273
  428TIP3   OH2 1226   0.215   5.207   3.787
  428TIP3    H1 1227   0.194   5.120   3.751
  428TIP3    H2 1228   0.234   5.191   3.879
  429TIP3   OH2 1229   7.343   6.383   6.614
  429TIP3    H1 1230   7.330   6.305   6.669
  429TIP3    H2 1231   7.281   6.371   6.542
  430TIP3   OH2 1232   5.232   6.248   1.907
  430TIP3    H1 1233   5.309   6.304   1.898
  430TIP3    H2 1234   5.259   6.163   1.874
  431TIP3   OH2 1235   6.331   4.784   2.678
  431TIP3    H1 1236   6.244   4.747   2.664
  431TIP3    H2 1237   6.382   4.755   2.603
  432TIP3   OH2 1238   3.033   3.295   3.851
  432TIP3    H1 1239   2.951   3.246   3.855
  432TIP3    H2 1240   3.074   3.266   3.769
  433TIP3   OH2 1241   6.459   7.787   4.033
  433TIP3    H1 1242   6.434   7.835   3.954
  433TIP3    H2 1243   6.547   7.755   4.014
  434TIP3   OH2 1244   2.911   2.973   1.348
  434TIP3    H1 1245   2.955   3.007   1.426
  434TIP3    H2 1246   2.877   3.050   1.304
  435TIP3   OH2 1247   7.449   2.020   4.167
  435TIP3    H1 1248   7.370   1.968   4.148
  435TIP3    H2 1249   7.437   2.100   4.116
  436TIP3   OH2 1250   4.590   4.970   6.175
  436TIP3    H1 1251   4.540   4.907   6.124
  436TIP3    H2 1252   4.573   4.946   6.266
  437TIP3   OH2 1253   4.077   1.168   0.926
  437TIP3    H1 1254   4.127   1.094   0.892
  437TIP3    H2 1255   4.112   1.244   0.880
  438TIP3   OH2 1256   8.139   3.568   2.839
  438TIP3    H1 1257   8.197   3.554   2.914
  438TIP3    H2 1258   8.075   3.632   2.870
  439TIP3   OH2 1259   3.614   3.713   1.406
  439TIP3    H1 1260   3.625   3.807   1.391
  439TIP3    H2 1261   3.615   3.675   1.318
  440TIP3   OH2 1262   2.289   6.175   1.372
  440TIP3    H1 1263   2.209   6.179   1.424
  440TIP3    H2 1264   2.283   6.094   1.323
  441TIP3   OH2 1265   3.759   0.058   4.600
  441TIP3    H1 1266   3.724   0.117   4.667
  441TIP3    H2 1267   3.785   0.116   4.528
  442TIP3   OH2 1268   8.052   3.163   1.443
  442TIP3    H1 1269   8.118   3.109   1.401
  442TIP3    H2 1270   8.099   3.241   1.472
  443TIP3   OH2 1271   4.483   1.384   2.494
  443TIP3    H1 1272   4.463   1.419   2.580
  443TIP3    H2 1273   4.575   1.407   2.479
  444TIP3   OH2 1274   6.789   6.782   1.838
  444TIP3    H1 1275   6.884   6.786   1.841
  444TIP3    H2 1276   6.761   6.806   1.926
  445TIP3   OH2 1277   4.085   6.407   1.290
  445TIP3    H1 1278   3.993   6.393   1.269
  445TIP3    H2 1279   4.117   6.464   1.219
  446TIP3   OH2 1280   6.202   4.668   1.237
  446TIP3    H1 1281   6.138   4.690   1.170
  446TIP3    H2 1282   6.271   4.733   1.227
  447TIP3   OH2 1283   0.773   0.259   1.797
  447TIP3    H1 1284   0.724   0.207   1.860
  447TIP3    H2 1285   0.862   0.224   1.801
  448TIP3   OH2 1286   2.564   2.179   3.419
  448TIP3    H1 1287   2.540   2.118   3.489
  448TIP3    H2 1288   2.587   2.122   3.345
  449TIP3   OH2 1289   6.655   5.975   6.063
  449TIP3    H1 1290   6.688   5.972   5.973
  449TIP3    H2 1291   6.560   5.968   6.055
  450TIP3   OH2 1292   4.391   7.603   1.735
  450TIP3    H1 1293   4.481   7.584   1.763
  450TIP3    H2 1294   4.400   7.666   1.665
  451TIP3   OH2 1295   3.565   5.919   5.915
  451TIP3    H1 1296   3.514   5.872   5.848
  451TIP3    H2 1297   3.656   5.899   5.894
  452TIP3   OH2 1298   4.140   3.156   2.134
  452TIP3    H1 1299   4.084   3.089   2.095
  452TIP3    H2 1300   4.079   3.224   2.162
  453TIP3   OH2 1301   4.193   1.703   2.757
  453TIP3    H1 1302   4.145   1.673   2.834
  453TIP3    H2 1303   4.163   1.793   2.743
  454TIP3   OH2 1304   2.315   7.135   6.103
  454TIP3    H1 1305   2.287   7.157   6.014
  454TIP3    H2 1306   2.242   7.161   6.159
  455TIP3   OH2 1307   2.316   6.963   3.296
  455TIP3    H1 1308   2.233   7.007   3.282
  455TIP3    H2 1309   2.373   6.997   3.227
  456TIP3   OH2 1310   3.829   5.231   0.467
  456TIP3    H1 1311   3.810   5.149   0.513
  456TIP3    H2 1312   3.921   5.249   0.487
  457TIP3   OH2 1313   7.048   1.881   3.168
  457TIP3    H1 1314   7.025   1.933   3.245
  457TIP3    H2 1315   7.031   1.939   3.094
  458TIP3   OH2 1316   6.146   1.411   6.004
  458TIP3    H1 1317   6.192   1.494   6.003
  458TIP3    H2 1318   6.129   1.394   6.097
  459TIP3   OH2 1319   7.733   5.628   1.534
  459TIP3    H1 1320   7.799   5.647   1.601
  459TIP3    H2 1321   7.764   5.675   1.456
  460TIP3   OH2 1322   6.402   6.522   2.305
  460TIP3    H1 1323   6.313   6.488   2.298
  460TIP3    H2 1324   6.415   6.572   2.225
  461TIP3   OH2 1325   2.983   2.450   4.422
  461TIP3    H1 1326   3.037   2.528   4.434
  461TIP3    H2 1327   2.894   2.479   4.442
  462TIP3   OH2 1328   4.456   5.661   1.298
  462TIP3    H1 1329   4.389   5.601   1.265
  462TIP3    H2 1330   4.414   5.705   1.372
  463TIP3   OH2 1331   3.713   3.570   5.527
  463TIP3    H1 1332   3.708   3.480   5.558
  463TIP3    H2 1333   3.653   3.572   5.452
  464TIP3   OH2 1334   7.968   6.007   1.694
  464TIP3    H1 1335   8.052   6.040   1.726
  464TIP3    H2 1336   7.973   5.912   1.707
  465TIP3   OH2 1337   3.843   1.267   2.776
  465TIP3    H1 1338   3.816   1.219   2.854
  465TIP3    H2 1339   3.764   1.312   2.747
  466TIP3   OH2 1340   7.165   0.968   0.544
  466TIP3    H1 1341   7.225   0.953   0.617
  466TIP3    H2 1342   7.136   1.059   0.555
  467TIP3   OH2 1343   3.635   1.574   6.450
  467TIP3    H1 1344   3.711   1.529   6.412
  467TIP3    H2 1345   3.673   1.630   6.518
  468TIP3   OH2 1346   1.419   6.247   5.140
  468TIP3    H1 1347   1.380   6.181   5.196
  468TIP3    H2 1348   1.344   6.295   5.104
  469TIP3   OH2 1349   2.965   2.296   5.555
  469TIP3    H1 1350   2.915   2.255   5.484
  469TIP3    H2 1351   2.915   2.275   5.634
  470TIP3   OH2 1352   2.594   0.760   1.768
  470TIP3    H1 1353   2.554   0.844   1.746
  470TIP3    H2 1354   2.680   0.763   1.725
  471TIP3   OH2 1355   5.434   2.217   6.411
  471TIP3    H1 1356   5.418   2.126   6.389
  471TIP3    H2 1357   5.424   2.222   6.506
  472TIP3   OH2 1358   1.536   1.587   1.127
  472TIP3    H1 1359   1.551   1.611   1.035
  472TIP3    H2 1360   1.580   1.655   1.178
  473TIP3   OH2 1361   3.448   1.704   4.352
  473TIP3    H1 1362   3.444   1.763   4.276
  473TIP3    H2 1363   3.401   1.751   4.421
  474TIP3   OH2 1364   4.522   6.385   1.950
  474TIP3    H1 1365   4.565   6.307   1.984
  474TIP3    H2 1366   4.532   6.378   1.855
  475TIP3   OH2 1367   2.326   3.730   2.779
  475TIP3    H1 1368   2.394   3.708   2.842
  475TIP3    H2 1369   2.247   3.743   2.833
  476TIP3   OH2 1370   3.049   5.039   1.763
  476TIP3    H1 1371   2.967   5.086   1.776
  476TIP3    H2 1372   3.112   5.106   1.739
  477TIP3   OH2 1373   0.625   0.486   5.221
  477TIP3    H1 1374   0.561   0.441   5.165
  477TIP3    H2 1375   0.663   0.553   5.164
  478TIP3   OH2 1376   0.242   3.737   1.744
  478TIP3    H1 1377   0.326   3.706   1.709
  478TIP3    H2 1378   0.179   3.717   1.676
  479TIP3   OH2 1379   6.328   6.883   3.524
  479TIP3    H1 1380   6.301   6.892   3.432
  479TIP3    H2 1381   6.375   6.800   3.526
  480TIP3   OH2 1382   3.296   1.593   3.420
  480TIP3    H1 1383   3.354   1.608   3.495
  480TIP3    H2 1384   3.207   1.599   3.456
  481TIP3   OH2 1385   0.721   4.025   2.251
  481TIP3    H1 1386   0.645   3.992   2.204
  481TIP3    H2 1387   0.735   4.113   2.216
  482TIP3   OH2 1388   4.616   3.205   2.419
  482TIP3    H1 1389   4.531   3.189   2.378
  482TIP3    H2 1390   4.620   3.144   2.492
  483TIP3   OH2 1391   3.982   5.018   1.322
  483TIP3    H1 1392   3.974   4.947   1.258
  483TIP3    H2 1393   4.001   5.095   1.270
  484TIP3   OH2 1394   3.599   0.295   1.812
  484TIP3    H1 1395   3.641   0.358   1.754
  484TIP3    H2 1396   3.516   0.273   1.769
  485TIP3   OH2 1397   4.587   4.491   3.978
  485TIP3    H1 1398   4.679   4.517   3.968
  485TIP3    H2 1399   4.545   4.567   4.019
  486TIP3   OH2 1400   4.499   0.813   6.004
  486TIP3    H1 1401   4.421   0.863   5.978
  486TIP3    H2 1402   4.538   0.864   6.075
  487TIP3   OH2 1403   4.444   2.610   5.989
  487TIP3    H1 1404   4.528   2.601   6.034
  487TIP3    H2 1405   4.395   2.671   6.043
  488TIP3   OH2 1406   1.080   7.507   4.429
  488TIP3    H1 1407   1.000   7.552   4.456
  488TIP3    H2 1408   1.151   7.557   4.470
  489TIP3   OH2 1409   0.782   5.800   3.749
  489TIP3    H1 1410   0.800   5.801   3.655
  489TIP3    H2 1411   0.861   5.837   3.789
  490TIP3   OH2 1412   1.872   3.091   2.323
  490TIP3    H1 1413   1.890   3.158   2.257
  490TIP3    H2 1414   1.939   3.025   2.309
  491TIP3   OH2 1415   4.775   2.303   1.139
  491TIP3    H1 1416   4.852   2.246   1.138
  491TIP3    H2 1417   4.807   2.387   1.109
  492TIP3   OH2 1418   5.482   2.907   1.335
  492TIP3    H1 1419   5.515   2.879   1.250
  492TIP3    H2 1420   5.560   2.918   1.389
  493TIP3   OH2 1421   4.385   5.086   4.042
  493TIP3    H1 1422   4.467   5.134   4.052
  493TIP3    H2 1423   4.335   5.109   4.121
  494TIP3   OH2 1424   2.207   7.460   2.797
  494TIP3    H1 1425   2.151   7.482   2.872
  494TIP3    H2 1426   2.279   7.410   2.835
  495TIP3   OH2 1427   1.631   0.106   2.086
  495TIP3    H1 1428   1.723   0.079   2.080
  495TIP3    H2 1429   1.635   0.201   2.099
  496TIP3   OH2 1430   1.075   7.253   4.068
  496TIP3    H1 1431   1.108   7.184   4.126
  496TIP3    H2 1432   1.070   7.330   4.124
  497TIP3   OH2 1433   4.722   2.360   2.106
  497TIP3    H1 1434   4.752   2.379   2.195
  497TIP3    H2 1435   4.642   2.308   2.119
  498TIP3   OH2 1436   6.103   2.335   6.024
  498TIP3    H1 1437   6.056   2.395   6.082
  498TIP3    H2 1438   6.095   2.250   6.067
  499TIP3   OH2 1439   6.338   4.377   0.592
  499TIP3    H1 1440   6.360   4.320   0.518
  499TIP3    H2 1441   6.329   4.464   0.554
  500TIP3   OH2 1442   7.038   0.748   1.706
  500TIP3    H1 1443   7.001   0.827   1.666
  500TIP3    H2 1444   7.112   0.724   1.650
  501TIP3   OH2 1445   5.641   2.152   2.327
  501TIP3    H1 1446   5.644   2.073   2.273
  501TIP3    H2 1447   5.560   2.143   2.378
  502TIP3   OH2 1448   3.157   4.356   3.246
  502TIP3    H1 1449   3.073   4.401   3.249
  502TIP3    H2 1450   3.199   4.376   3.329
  503TIP3   OH2 1451   2.661   4.413   6.599
  503TIP3    H1 1452   2.657   4.358   6.677
  503TIP3    H2 1453   2.754   4.414   6.575
  504TIP3   OH2 1454   2.951   2.231   2.142
  504TIP3    H1 1455   2.963   2.283   2.222
  504TIP3    H2 1456   2.941   2.295   2.072
  505TIP3   OH2 1457   3.042   4.910   5.139
  505TIP3    H1 1458   2.968   4.967   5.120
  505TIP3    H2 1459   3.068   4.932   5.229
  506TIP3   OH2 1460   5.438   0.941   2.266
  506TIP3    H1 1461   5.454   0.862   2.318
  506TIP3    H2 1462   5.358   0.922   2.217
  507TIP3   OH2 1463   3.700   5.562   4.052
  507TIP3    H1 1464   3.687   5.489   4.112
  507TIP3    H2 1465   3.780   5.541   4.005
  508TIP3   OH2 1466   8.327   7.622   0.251
  508TIP3    H1 1467   8.319   7.704   0.203
  508TIP3    H2 1468   8.253   7.623   0.312
  509TIP3   OH2 1469   6.626   5.244   5.693
  509TIP3    H1 1470   6.630   5.177   5.625
  509TIP3    H2 1471   6.571   5.313   5.656
  510TIP3   OH2 1472   4.982   2.893   1.519
  510TIP3    H1 1473   5.074   2.920   1.526
  510TIP3    H2 1474   4.986   2.806   1.479
  511TIP3   OH2 1475   6.007   3.507   6.146
  511TIP3    H1 1476   6.069   3.578   6.160
  511TIP3    H2 1477   5.939   3.521   6.212
  512TIP3   OH2 1478   4.922   5.458   5.465
  512TIP3    H1 1479   4.831   5.467   5.491
  512TIP3    H2 1480   4.970   5.514   5.526
  513TIP3   OH2 1481   0.081   4.331   1.094
  513TIP3    H1 1482   0.061   4.403   1.154
  513TIP3    H2 1483   0.149   4.281   1.139
  514TIP3   OH2 1484   7.360   5.224   1.876
  514TIP3    H1 1485   7.420   5.286   1.917
  514TIP3    H2 1486   7.274   5.250   1.907
  515TIP3   OH2 1487   4.993   7.412   5.811
  515TIP3    H1 1488   4.965   7.412   5.720
  515TIP3    H2 1489   5.067   7.473   5.814
  516TIP3   OH2 1490   4.327   3.473   5.925
  516TIP3    H1 1491   4.403   3.463   5.982
  516TIP3    H2 1492   4.363   3.500   5.841
  517TIP3   OH2 1493   3.199   3.699   2.974
  517TIP3    H1 1494   3.173   3.607   2.984
  517TIP3    H2 1495   3.257   3.698   2.898
  518TIP3   OH2 1496   6.253   6.390   4.715
  518TIP3    H1 1497   6.174   6.336   4.725
  518TIP3    H2 1498   6.319   6.329   4.683
  519TIP3   OH2 1499   7.316   1.451   5.924
  519TIP3    H1 1500   7.271   1.412   5.849
  519TIP3    H2 1501   7.360   1.528   5.889
  520TIP3   OH2 1502   5.209   0.400   4.817
  520TIP3    H1 1503   5.217   0.414   4.911
  520TIP3    H2 1504   5.215   0.305   4.806
  521TIP3   OH2 1505   3.400   5.074   1.311
  521TIP3    H1 1506   3.379   5.159   1.349
  521TIP3    H2 1507   3.321   5.049   1.264
  522TIP3   OH2 1508   2.247   0.876   2.967
  522TIP3    H1 1509   2.205   0.962   2.973
  522TIP3    H2 1510   2.305   0.873   3.043
  523TIP3   OH2 1511   3.825   0.290   4.081
  523TIP3    H1 1512   3.748   0.237   4.101
  523TIP3    H2 1513   3.829   0.290   3.985
  524TIP3   OH2 1514   5.669   5.664   1.938
  524TIP3    H1 1515   5.689   5.621   2.021
  524TIP3    H2 1516   5.642   5.593   1.880
  525TIP3   OH2 1517   5.266   3.547   3.410
  525TIP3    H1 1518   5.355   3.511   3.404
  525TIP3    H2 1519   5.216   3.497   3.346
  526TIP3   OH2 1520   1.887   5.370   4.714
  526TIP3    H1 1521   1.824   5.327   4.772
  526TIP3    H2 1522   1.971   5.363   4.761
  527TIP3   OH2 1523   1.773   6.849   2.729
  527TIP3    H1 1524   1.857   6.806   2.742
  527TIP3    H2 1525   1.790   6.913   2.660
  528TIP3   OH2 1526   0.644   2.284   6.585
  528TIP3    H1 1527   0.579   2.267   6.517
  528TIP3    H2 1528   0.595   2.282   6.666
  529TIP3   OH2 1529   6.399   0.960   3.818
  529TIP3    H1 1530   6.438   0.986   3.902
  529TIP3    H2 1531   6.430   1.026   3.756
  530TIP3   OH2 1532   1.164   0.287   3.589
  530TIP3    H1 1533   1.254   0.261   3.570
  530TIP3    H2 1534   1.159   0.379   3.562
  531TIP3   OH2 1535   1.833   2.103   0.992
  531TIP3    H1 1536   1.846   2.175   0.930
  531TIP3    H2 1537   1.905   2.112   1.055
  532TIP3   OH2 1538   4.035   4.206   3.105
  532TIP3    H1 1539   4.058   4.296   3.127
  532TIP3    H2 1540   4.036   4.159   3.188
  533TIP3   OH2 1541   0.658   4.149   2.608
  533TIP3    H1 1542   0.598   4.212   2.569
  533TIP3    H2 1543   0.682   4.090   2.537
  534TIP3   OH2 1544   2.213   1.204   5.597
  534TIP3    H1 1545   2.210   1.268   5.525
  534TIP3    H2 1546   2.190   1.121   5.555
  535TIP3   OH2 1547   2.565   1.876   4.977
  535TIP3    H1 1548   2.585   1.870   4.883
  535TIP3    H2 1549   2.537   1.967   4.989
  536TIP3   OH2 1550   5.564   0.277   5.777
  536TIP3    H1 1551   5.470   0.286   5.790
  536TIP3    H2 1552   5.587   0.194   5.819
  537TIP3   OH2 1553   6.515   2.900   1.881
  537TIP3    H1 1554   6.537   2.829   1.820
  537TIP3    H2 1555   6.436   2.939   1.845
  538TIP3   OH2 1556   4.979   7.599   1.625
  538TIP3    H1 1557   5.000   7.557   1.708
  538TIP3    H2 1558   4.932   7.679   1.649
  539TIP3   OH2 1559   1.978   1.381   3.410
  539TIP3    H1 1560   1.999   1.461   3.362
  539TIP3    H2 1561   2.063   1.343   3.432
  540TIP3   OH2 1562   4.139   6.596   5.450
  540TIP3    H1 1563   4.197   6.590   5.374
  540TIP3    H2 1564   4.199   6.598   5.525
  541TIP3   OH2 1565   1.607   7.430   4.549
  541TIP3    H1 1566   1.574   7.366   4.487
  541TIP3    H2 1567   1.649   7.496   4.494
  542TIP3   OH2 1568   4.655   4.532   6.650
  542TIP3    H1 1569   4.692   4.581   6.724
  542TIP3    H2 1570   4.565   4.512   6.677
  543TIP3   OH2 1571   2.853   0.119   5.974
  543TIP3    H1 1572   2.913   0.159   5.912
  543TIP3    H2 1573   2.777   0.177   5.976
  544TIP3   OH2 1574   4.633   1.166   3.039
  544TIP3    H1 1575   4.638   1.246   2.986
  544TIP3    H2 1576   4.714   1.119   3.019
  545TIP3   OH2 1577   5.812   7.725   2.735
  545TIP3    H1 1578   5.889   7.772   2.703
  545TIP3    H2 1579   5.743   7.746   2.672
  546TIP3   OH2 1580   6.204   7.745   3.118
  546TIP3    H1 1581   6.204   7.680   3.189
  546TIP3    H2 1582   6.127   7.799   3.136
  547TIP3   OH2 1583   7.774   7.549   0.114
  547TIP3    H1 1584   7.835   7.553   0.040
  547TIP3    H2 1585   7.819   7.495   0.179
  548TIP3   OH2 1586   0.218   3.281   0.597
  548TIP3    H1 1587   0.198   3.264   0.689
  548TIP3    H2 1588   0.242   3.373   0.595
  549TIP3   OH2 1589   5.438   3.685   3.754
  549TIP3    H1 1590   5.503   3.747   3.788
  549TIP3    H2 1591   5.488   3.605   3.739
  550TIP3   OH2 1592   7.002   4.536   3.982
  550TIP3    H1 1593   6.996   4.566   4.073
  550TIP3    H2 1594   6.952   4.601   3.932
  551TIP3   OH2 1595   0.057   4.453   2.721
  551TIP3    H1 1596   0.053   4.385   2.653
  551TIP3    H2 1597  -0.034   4.474   2.739
  552TIP3   OH2 1598   2.914   3.204   3.473
  552TIP3    H1 1599   2.859   3.273   3.436
  552TIP3    H2 1600   3.003   3.235   3.460
  553TIP3   OH2 1601   2.919   0.743   1.821
  553TIP3    H1 1602   3.010   0.719   1.804
  553TIP3    H2 1603   2.869   0.699   1.752
  554TIP3   OH2 1604   6.438   5.015   6.253
  554TIP3    H1 1605   6.387   4.999   6.174
  554TIP3    H2 1606   6.510   5.071   6.224
  555TIP3   OH2 1607   7.025   5.596   5.260
  555TIP3    H1 1608   7.019   5.687   5.232
  555TIP3    H2 1609   7.116   5.585   5.287
  556TIP3   OH2 1610   0.739   6.185   5.938
  556TIP3    H1 1611   0.649   6.216   5.950
  556TIP3    H2 1612   0.744   6.106   5.991
  557TIP3   OH2 1613   5.498   0.438   5.281
  557TIP3    H1 1614   5.457   0.481   5.356
  557TIP3    H2 1615   5.540   0.361   5.318
  558TIP3   OH2 1616   7.850   6.541   5.584
  558TIP3    H1 1617   7.832   6.469   5.524
  558TIP3    H2 1618   7.923   6.510   5.638
  559TIP3   OH2 1619   3.425   1.841   2.251
  559TIP3    H1 1620   3.367   1.824   2.177
  559TIP3    H2 1621   3.513   1.818   2.219
  560TIP3   OH2 1622   6.915   0.230   1.104
  560TIP3    H1 1623   6.904   0.325   1.095
  560TIP3    H2 1624   6.878   0.210   1.190
  561TIP3   OH2 1625   3.148   2.896   2.877
  561TIP3    H1 1626   3.199   2.970   2.844
  561TIP3    H2 1627   3.059   2.912   2.845
  562TIP3   OH2 1628   2.426   7.301   2.112
  562TIP3    H1 1629   2.412   7.291   2.018
  562TIP3    H2 1630   2.478   7.382   2.119
  563TIP3   OH2 1631   5.881   1.082   1.345
  563TIP3    H1 1632   5.938   1.102   1.419
  563TIP3    H2 1633   5.923   1.126   1.271
  564TIP3   OH2 1634   4.349   4.523   3.457
  564TIP3    H1 1635   4.391   4.518   3.543
  564TIP3    H2 1636   4.347   4.616   3.437
  565TIP3   OH2 1637   6.753   4.003   5.110
  565TIP3    H1 1638   6.762   4.055   5.190
  565TIP3    H2 1639   6.663   3.971   5.113
  566TIP3   OH2 1640   6.820   5.536   5.090
  566TIP3    H1 1641   6.852   5.523   5.001
  566TIP3    H2 1642   6.900   5.535   5.144
  567TIP3   OH2 1643   0.972   3.190   0.960
  567TIP3    H1 1644   0.990   3.277   0.995
  567TIP3    H2 1645   0.952   3.205   0.868
  568TIP3   OH2 1646   6.864   4.267   2.873
  568TIP3    H1 1647   6.863   4.350   2.919
  568TIP3    H2 1648   6.951   4.230   2.893
  569TIP3   OH2 1649   2.837   4.721   5.461
  569TIP3    H1 1650   2.910   4.678   5.506
  569TIP3    H2 1651   2.781   4.753   5.531
  570TIP3   OH2 1652   4.951   6.224   0.691
  570TIP3    H1 1653   4.869   6.271   0.674
  570TIP3    H2 1654   5.016   6.271   0.639
  571TIP3   OH2 1655   5.227   2.654   0.732
  571TIP3    H1 1656   5.287   2.587   0.763
  571TIP3    H2 1657   5.245   2.660   0.638
  572TIP3   OH2 1658   0.237   4.095   6.555
  572TIP3    H1 1659   0.275   4.094   6.642
  572TIP3    H2 1660   0.226   4.187   6.533
  573TIP3   OH2 1661   4.125   2.578   3.892
  573TIP3    H1 1662   4.145   2.540   3.807
  573TIP3    H2 1663   4.209   2.584   3.936
  574TIP3   OH2 1664   6.799   2.684   2.854
  574TIP3    H1 1665   6.823   2.765   2.899
  574TIP3    H2 1666   6.828   2.614   2.913
  575TIP3   OH2 1667   2.850   3.131   5.735
  575TIP3    H1 1668   2.828   3.224   5.723
  575TIP3    H2 1669   2.768   3.090   5.762
  576TIP3   OH2 1670   0.240   4.792   6.738
  576TIP3    H1 1671   0.204   4.875   6.707
  576TIP3    H2 1672   0.163   4.741   6.763
  577TIP3   OH2 1673   5.450   2.897   3.198
  577TIP3    H1 1674   5.483   2.931   3.115
  577TIP3    H2 1675   5.439   2.804   3.183
  578TIP3   OH2 1676   1.221   3.207   3.341
  578TIP3    H1 1677   1.170   3.161   3.275
  578TIP3    H2 1678   1.161   3.216   3.415
  579TIP3   OH2 1679   4.484   4.301   2.708
  579TIP3    H1 1680   4.533   4.219   2.717
  579TIP3    H2 1681   4.397   4.273   2.680
  580TIP3   OH2 1682   1.840   6.101   2.854
  580TIP3    H1 1683   1.789   6.041   2.908
  580TIP3    H2 1684   1.801   6.094   2.767
  581TIP3   OH2 1685   6.030   2.341   1.606
  581TIP3    H1 1686   6.116   2.321   1.645
  581TIP3    H2 1687   6.038   2.431   1.575
  582TIP3   OH2 1688   6.290   5.963   3.985
  582TIP3    H1 1689   6.305   6.050   3.948
  582TIP3    H2 1690   6.202   5.939   3.956
  583TIP3   OH2 1691   6.883   3.175   0.020
  583TIP3    H1 1692   6.872   3.097   0.074
  583TIP3    H2 1693   6.814   3.234   0.049
  584TIP3   OH2 1694   2.926   5.827   2.610
  584TIP3    H1 1695   2.846   5.812   2.560
  584TIP3    H2 1696   2.956   5.739   2.634
  585TIP3   OH2 1697   8.180   5.946   3.789
  585TIP3    H1 1698   8.115   5.988   3.845
  585TIP3    H2 1699   8.240   5.903   3.850
  586TIP3   OH2 1700   0.901   0.331   0.643
  586TIP3    H1 1701   0.920   0.377   0.562
  586TIP3    H2 1702   0.882   0.241   0.617
  587TIP3   OH2 1703   6.668   3.861   6.738
  587TIP3    H1 1704   6.632   3.944   6.708
  587TIP3    H2 1705   6.679   3.873   6.833
  588TIP3   OH2 1706   3.900   3.023   0.172
  588TIP3    H1 1707   3.856   2.941   0.146
  588TIP3    H2 1708   3.841   3.092   0.143
  589TIP3   OH2 1709   2.083   7.044   6.389
  589TIP3    H1 1710   2.063   7.119   6.445
  589TIP3    H2 1711   2.027   7.056   6.312
  590TIP3   OH2 1712   1.005   6.813   5.040
  590TIP3    H1 1713   1.074   6.834   5.103
  590TIP3    H2 1714   0.954   6.744   5.083
  591TIP3   OH2 1715   4.601   4.061   3.171
  591TIP3    H1 1716   4.646   4.082   3.089
  591TIP3    H2 1717   4.669   4.021   3.225
  592TIP3   OH2 1718   6.276   3.703   5.196
  592TIP3    H1 1719   6.314   3.623   5.234
  592TIP3    H2 1720   6.195   3.673   5.155
  593TIP3   OH2 1721   5.053   4.744   4.234
  593TIP3    H1 1722   5.145   4.753   4.208
  593TIP3    H2 1723   5.038   4.650   4.237
  594TIP3   OH2 1724   2.318   5.307   5.500
  594TIP3    H1 1725   2.228   5.315   5.470
  594TIP3    H2 1726   2.329   5.214   5.519
  595TIP3   OH2 1727   6.501   5.180   0.049
  595TIP3    H1 1728   6.549   5.259   0.027
  595TIP3    H2 1729   6.429   5.177  -0.014
  596TIP3   OH2 1730   0.292   2.500   0.064
  596TIP3    H1 1731   0.200   2.522   0.047
  596TIP3    H2 1732   0.324   2.570   0.120
  597TIP3   OH2 1733   7.434   2.204   3.223
  597TIP3    H1 1734   7.388   2.127   3.190
  597TIP3    H2 1735   7.398   2.277   3.173
  598TIP3   OH2 1736   7.752   7.538   5.893
  598TIP3    H1 1737   7.730   7.511   5.982
  598TIP3    H2 1738   7.833   7.491   5.873
  599TIP3   OH2 1739   8.119   5.640   3.898
  599TIP3    H1 1740   8.083   5.645   3.809
  599TIP3    H2 1741   8.213   5.652   3.887
  600TIP3   OH2 1742   0.210   0.447   5.235
  600TIP3    H1 1743   0.271   0.464   5.164
  600TIP3    H2 1744   0.255   0.477   5.314
  601TIP3   OH2 1745   6.604   6.765   4.630
  601TIP3    H1 1746   6.591   6.785   4.538
  601TIP3    H2 1747   6.653   6.840   4.664
  602TIP3   OH2 1748   4.161   0.954   2.525
  602TIP3    H1 1749   4.203   0.964   2.440
  602TIP3    H2 1750   4.099   1.026   2.530
  603TIP3   OH2 1751   1.907   6.692   3.286
  603TIP3    H1 1752   1.968   6.661   3.352
  603TIP3    H2 1753   1.937   6.651   3.204
  604TIP3   OH2 1754   2.513   6.614   5.904
  604TIP3    H1 1755   2.569   6.664   5.963
  604TIP3    H2 1756   2.467   6.553   5.962
  605TIP3   OH2 1757   0.796   3.090   3.747
  605TIP3    H1 1758   0.729   3.130   3.690
  605TIP3    H2 1759   0.748   3.026   3.799
  606TIP3   OH2 1760   0.178   6.308   4.734
  606TIP3    H1 1761   0.200   6.398   4.708
  606TIP3    H2 1762   0.262   6.269   4.759
  607TIP3   OH2 1763   4.716   0.073   3.368
  607TIP3    H1 1764   4.687   0.010   3.302
  607TIP3    H2 1765   4.638   0.127   3.384
  608TIP3   OH2 1766   4.591   4.219   0.558
  608TIP3    H1 1767   4.664   4.196   0.501
  608TIP3    H2 1768   4.625   4.207   0.647
  609TIP3   OH2 1769   6.570   0.351   4.877
  609TIP3    H1 1770   6.521   0.401   4.812
  609TIP3    H2 1771   6.658   0.343   4.839
  610TIP3   OH2 1772   5.189   1.861   0.896
  610TIP3    H1 1773   5.202   1.951   0.926
  610TIP3    H2 1774   5.277   1.826   0.887
  611TIP3   OH2 1775   5.586   7.130   5.782
  611TIP3    H1 1776   5.670   7.154   5.742
  611TIP3    H2 1777   5.586   7.035   5.781
  612TIP3   OH2 1778   5.614   6.487   6.654
  612TIP3    H1 1779   5.592   6.493   6.561
  612TIP3    H2 1780   5.710   6.495   6.656
  613TIP3   OH2 1781   4.403   0.399   1.416
  613TIP3    H1 1782   4.312   0.386   1.391
  613TIP3    H2 1783   4.403   0.477   1.471
  614TIP3   OH2 1784   2.970   6.785   6.329
  614TIP3    H1 1785   2.917   6.845   6.278
  614TIP3    H2 1786   2.908   6.722   6.366
  615TIP3   OH2 1787   0.898   1.337   1.271
  615TIP3    H1 1788   0.953   1.416   1.266
  615TIP3    H2 1789   0.939   1.276   1.211
  616TIP3   OH2 1790   6.195   6.596   3.525
  616TIP3    H1 1791   6.166   6.624   3.438
  616TIP3    H2 1792   6.141   6.519   3.544
  617TIP3   OH2 1793   0.239   6.340   0.730
  617TIP3    H1 1794   0.330   6.368   0.729
  617TIP3    H2 1795   0.233   6.276   0.658
  618TIP3   OH2 1796   8.209   3.686   6.245
  618TIP3    H1 1797   8.214   3.620   6.176
  618TIP3    H2 1798   8.175   3.764   6.202
  619TIP3   OH2 1799   1.470   4.900   2.566
  619TIP3    H1 1800   1.538   4.839   2.594
  619TIP3    H2 1801   1.469   4.968   2.633
  620TIP3   OH2 1802   7.412   2.300   5.803
  620TIP3    H1 1803   7.375   2.240   5.867
  620TIP3    H2 1804   7.412   2.386   5.846
  621TIP3   OH2 1805   0.753   3.061   5.640
  621TIP3    H1 1806   0.794   3.048   5.554
  621TIP3    H2 1807   0.807   3.009   5.700
  622TIP3   OH2 1808   1.213   5.172   2.211
  622TIP3    H1 1809   1.264   5.253   2.203
  622TIP3    H2 1810   1.230   5.141   2.300
  623TIP3   OH2 1811   8.318   0.809   1.473
  623TIP3    H1 1812   8.260   0.817   1.397
  623TIP3    H2 1813   8.372   0.887   1.470
  624TIP3   OH2 1814   0.300   2.720   0.224
  624TIP3    H1 1815   0.362   2.793   0.228
  624TIP3    H2 1816   0.286   2.697   0.316
  625TIP3   OH2 1817   0.446   3.517   5.124
  625TIP3    H1 1818   0.352   3.536   5.134
  625TIP3    H2 1819   0.453   3.424   5.147
  626TIP3   OH2 1820   1.843   7.683   6.133
  626TIP3    H1 1821   1.828   7.674   6.227
  626TIP3    H2 1822   1.759   7.716   6.099
  627TIP3   OH2 1823   0.615   5.713   0.127
  627TIP3    H1 1824   0.677   5.647   0.158
  627TIP3    H2 1825   0.545   5.713   0.192
  628TIP3   OH2 1826   0.244   2.156   6.257
  628TIP3    H1 1827   0.170   2.100   6.234
  628TIP3    H2 1828   0.223   2.241   6.218
  629TIP3   OH2 1829   2.419   1.660   3.163
  629TIP3    H1 1830   2.401   1.741   3.115
  629TIP3    H2 1831   2.387   1.677   3.252
  630TIP3   OH2 1832   5.762   0.313   3.037
  630TIP3    H1 1833   5.762   0.405   3.011
  630TIP3    H2 1834   5.700   0.309   3.110
  631TIP3   OH2 1835   1.742   7.283   1.395
  631TIP3    H1 1836   1.668   7.235   1.433
  631TIP3    H2 1837   1.810   7.280   1.462
  632TIP3   OH2 1838   4.638   7.714   6.723
  632TIP3    H1 1839   4.638   7.650   6.795
  632TIP3    H2 1840   4.630   7.799   6.767
  633TIP3   OH2 1841   4.702   5.645   0.000
  633TIP3    H1 1842   4.664   5.647   0.088
  633TIP3    H2 1843   4.628   5.667  -0.058
  634TIP3   OH2 1844   3.718   7.302   5.754
  634TIP3    H1 1845   3.632   7.293   5.712
  634TIP3    H2 1846   3.713   7.382   5.804
  635TIP3   OH2 1847   1.331   6.877   3.079
  635TIP3    H1 1848   1.339   6.889   3.174
  635TIP3    H2 1849   1.399   6.813   3.058
  636TIP3   OH2 1850   2.589   3.252   6.026
  636TIP3    H1 1851   2.667   3.266   6.079
  636TIP3    H2 1852   2.586   3.157   6.013
  637TIP3   OH2 1853   0.699   0.181   5.001
  637TIP3    H1 1854   0.733   0.101   4.961
  637TIP3    H2 1855   0.704   0.247   4.932
  638TIP3   OH2 1856   3.455   6.256   1.898
  638TIP3    H1 1857   3.544   6.277   1.871
  638TIP3    H2 1858   3.447   6.293   1.986
  639TIP3   OH2 1859   2.958   2.813   3.943
  639TIP3    H1 1860   3.023   2.748   3.973
  639TIP3    H2 1861   2.909   2.767   3.875
  640TIP3   OH2 1862   1.497   4.567   5.680
  640TIP3    H1 1863   1.542   4.484   5.668
  640TIP3    H2 1864   1.544   4.610   5.751
  641TIP3   OH2 1865   5.465   2.611   0.257
  641TIP3    H1 1866   5.447   2.655   0.340
  641TIP3    H2 1867   5.456   2.680   0.191
  642TIP3   OH2 1868   0.760   0.007   6.365
  642TIP3    H1 1869   0.763   0.063   6.287
  642TIP3    H2 1870   0.828   0.042   6.422
  643TIP3   OH2 1871   3.616   7.304   0.916
  643TIP3    H1 1872   3.583   7.236   0.857
  643TIP3    H2 1873   3.565   7.382   0.892
  644TIP3   OH2 1874   3.817   6.421   6.605
  644TIP3    H1 1875   3.878   6.394   6.674
  644TIP3    H2 1876   3.731   6.394   6.638
  645TIP3   OH2 1877   5.392   1.715   4.243
  645TIP3    H1 1878   5.456   1.658   4.201
  645TIP3    H2 1879   5.444   1.784   4.284
  646TIP3   OH2 1880   8.057   0.872   2.312
  646TIP3    H1 1881   8.001   0.851   2.236
  646TIP3    H2 1882   8.141   0.833   2.291
  647TIP3   OH2 1883   4.779   5.179   0.907
  647TIP3    H1 1884   4.873   5.184   0.920
  647TIP3    H2 1885   4.742   5.189   0.995
  648TIP3   OH2 1886   4.667   2.544   1.869
  648TIP3    H1 1887   4.589   2.588   1.903
  648TIP3    H2 1888   4.675   2.465   1.922
  649TIP3   OH2 1889   5.961   4.478   2.988
  649TIP3    H1 1890   5.872   4.463   2.956
  649TIP3    H2 1891   5.984   4.565   2.955
  650TIP3   OH2 1892   3.017   2.345   0.876
  650TIP3    H1 1893   3.039   2.252   0.865
  650TIP3    H2 1894   2.957   2.347   0.951
  651TIP3   OH2 1895   6.886   2.923   5.193
  651TIP3    H1 1896   6.806   2.870   5.200
  651TIP3    H2 1897   6.887   2.974   5.274
  652TIP3   OH2 1898   3.691   4.204   1.809
  652TIP3    H1 1899   3.615   4.185   1.863
  652TIP3    H2 1900   3.746   4.260   1.864
  653TIP3   OH2 1901   0.326   2.307   4.499
  653TIP3    H1 1902   0.399   2.364   4.522
  653TIP3    H2 1903   0.253   2.366   4.485
  654TIP3   OH2 1904   3.295   1.766   0.638
  654TIP3    H1 1905   3.315   1.761   0.731
  654TIP3    H2 1906   3.245   1.847   0.628
  655TIP3   OH2 1907   7.604   2.652   2.914
  655TIP3    H1 1908   7.601   2.677   2.821
  655TIP3    H2 1909   7.676   2.704   2.951
  656TIP3   OH2 1910   0.997   5.282   2.007
  656TIP3    H1 1911   1.050   5.330   2.070
  656TIP3    H2 1912   0.911   5.323   2.012
  657TIP3   OH2 1913   5.283   4.034   4.758
  657TIP3    H1 1914   5.285   3.993   4.844
  657TIP3    H2 1915   5.368   4.015   4.719
  658TIP3   OH2 1916   4.709   6.757   5.029
  658TIP3    H1 1917   4.790   6.707   5.026
  658TIP3    H2 1918   4.698   6.792   4.941
  659TIP3   OH2 1919   5.564   1.610   6.400
  659TIP3    H1 1920   5.531   1.643   6.316
  659TIP3    H2 1921   5.654   1.582   6.382
  660TIP3   OH2 1922   7.701   0.004   5.957
  660TIP3    H1 1923   7.675   0.013   5.865
  660TIP3    H2 1924   7.722   0.093   5.985
  661TIP3   OH2 1925   5.964   3.519   3.998
  661TIP3    H1 1926   5.924   3.432   4.001
  661TIP3    H2 1927   6.038   3.514   4.058
  662TIP3   OH2 1928   4.059   4.084   5.938
  662TIP3    H1 1929   4.147   4.116   5.917
  662TIP3    H2 1930   4.032   4.136   6.014
  663TIP3   OH2 1931   7.410   3.678   6.725
  663TIP3    H1 1932   7.324   3.669   6.683
  663TIP3    H2 1933   7.419   3.772   6.739
  664TIP3   OH2 1934   5.111   1.050   4.625
  664TIP3    H1 1935   5.146   0.962   4.642
  664TIP3    H2 1936   5.185   1.099   4.589
  665TIP3   OH2 1937   4.729   1.075   1.620
  665TIP3    H1 1938   4.637   1.098   1.610
  665TIP3    H2 1939   4.729   0.997   1.676
  666TIP3   OH2 1940   1.514   6.101   2.697
  666TIP3    H1 1941   1.475   6.017   2.674
  666TIP3    H2 1942   1.596   6.104   2.648
  667TIP3   OH2 1943   0.996   1.968   1.043
  667TIP3    H1 1944   0.978   2.037   1.106
  667TIP3    H2 1945   1.055   2.009   0.979
  668TIP3   OH2 1946   3.440   7.009   6.072
  668TIP3    H1 1947   3.472   7.037   6.157
  668TIP3    H2 1948   3.426   6.915   6.081
  669TIP3   OH2 1949   6.733   3.710   2.127
  669TIP3    H1 1950   6.746   3.752   2.212
  669TIP3    H2 1951   6.639   3.715   2.112
  670TIP3   OH2 1952   3.382   0.802   2.975
  670TIP3    H1 1953   3.353   0.884   2.935
  670TIP3    H2 1954   3.338   0.799   3.059
  671TIP3   OH2 1955   0.139   0.751   2.600
  671TIP3    H1 1956   0.066   0.692   2.581
  671TIP3    H2 1957   0.201   0.697   2.650
  672TIP3   OH2 1958   4.803   2.111   3.965
  672TIP3    H1 1959   4.746   2.188   3.974
  672TIP3    H2 1960   4.832   2.114   3.873
  673TIP3   OH2 1961   2.789   1.039   0.299
  673TIP3    H1 1962   2.737   1.051   0.378
  673TIP3    H2 1963   2.830   1.125   0.284
  674TIP3   OH2 1964   3.353   2.185   4.639
  674TIP3    H1 1965   3.356   2.268   4.591
  674TIP3    H2 1966   3.422   2.132   4.598
  675TIP3   OH2 1967   6.182   2.347   2.215
  675TIP3    H1 1968   6.133   2.419   2.253
  675TIP3    H2 1969   6.148   2.339   2.126
  676TIP3   OH2 1970   5.053   0.133   4.491
  676TIP3    H1 1971   5.030   0.225   4.506
  676TIP3    H2 1972   4.976   0.096   4.447
  677TIP3   OH2 1973   4.851   5.560   6.086
  677TIP3    H1 1974   4.922   5.514   6.130
  677TIP3    H2 1975   4.858   5.650   6.119
  678TIP3   OH2 1976   3.003   3.333   6.384
  678TIP3    H1 1977   3.076   3.364   6.330
  678TIP3    H2 1978   3.045   3.297   6.463
  679TIP3   OH2 1979   3.009   1.985   2.968
  679TIP3    H1 1980   2.922   1.990   3.009
  679TIP3    H2 1981   2.994   2.008   2.877
  680TIP3   OH2 1982   0.539   5.196   3.705
  680TIP3    H1 1983   0.600   5.138   3.659
  680TIP3    H2 1984   0.461   5.197   3.650
  681TIP3   OH2 1985   2.349   2.820   4.837
  681TIP3    H1 1986   2.418   2.829   4.771
  681TIP3    H2 1987   2.396   2.795   4.917
  682TIP3   OH2 1988   1.098   3.195   0.683
  682TIP3    H1 1989   1.158   3.190   0.758
  682TIP3    H2 1990   1.067   3.105   0.672
  683TIP3   OH2 1991   6.706   1.714   3.179
  683TIP3    H1 1992   6.780   1.696   3.237
  683TIP3    H2 1993   6.633   1.734   3.238
  684TIP3   OH2 1994   5.650   0.114   4.926
  684TIP3    H1 1995   5.575   0.105   4.985
  684TIP3    H2 1996   5.707   0.041   4.949
  685TIP3   OH2 1997   3.822   2.435   4.389
  685TIP3    H1 1998   3.747   2.482   4.351
  685TIP3    H2 1999   3.804   2.434   4.483
  686TIP3   OH2 2000   1.162   3.890   5.114
  686TIP3    H1 2001   1.239   3.869   5.166
  686TIP3    H2 2002   1.196   3.929   5.033
  687TIP3   OH2 2003   4.236   4.626   0.894
  687TIP3    H1 2004   4.209   4.636   0.985
  687TIP3    H2 2005   4.310   4.565   0.898
  688TIP3   OH2 2006   5.469   2.094   4.182
  688TIP3    H1 2007   5.525   2.070   4.256
  688TIP3    H2 2008   5.382   2.065   4.208
  689TIP3   OH2 2009   7.294   5.953   0.038
  689TIP3    H1 2010   7.302   5.864   0.004
  689TIP3    H2 2011   7.301   5.944   0.133
  690TIP3   OH2 2012   7.617   5.028   6.018
  690TIP3    H1 2013   7.628   5.100   6.080
  690TIP3    H2 2014   7.707   5.002   5.995
  691TIP3   OH2 2015   2.620   4.280   2.422
  691TIP3    H1 2016   2.607   4.185   2.418
  691TIP3    H2 2017   2.647   4.297   2.512
  692TIP3   OH2 2018   1.192   2.190   5.050
  692TIP3    H1 2019   1.271   2.235   5.079
  692TIP3    H2 2020   1.121   2.249   5.072
  693TIP3   OH2 2021   5.074   0.630   2.248
  693TIP3    H1 2022   5.057   0.612   2.341
  693TIP3    H2 2023   4.995   0.674   2.217
  694TIP3   OH2 2024   4.207   1.088   3.284
  694TIP3    H1 2025   4.162   1.172   3.284
  694TIP3    H2 2026   4.194   1.054   3.195
  695TIP3   OH2 2027   7.706   2.280   4.201
  695TIP3    H1 2028   7.676   2.321   4.282
  695TIP3    H2 2029   7.634   2.293   4.139
  696TIP3   OH2 2030   4.984   5.564   6.604
  696TIP3    H1 2031   4.985   5.641   6.548
  696TIP3    H2 2032   4.895   5.529   6.596
  697TIP3   OH2 2033   5.164   5.886   6.150
  697TIP3    H1 2034   5.237   5.945   6.170
  697TIP3    H2 2035   5.200   5.826   6.084
  698TIP3   OH2 2036   1.701   0.792   4.031
  698TIP3    H1 2037   1.766   0.746   4.084
  698TIP3    H2 2038   1.628   0.730   4.024
  699TIP3   OH2 2039   6.043   1.234  -0.033
  699TIP3    H1 2040   6.041   1.329  -0.020
  699TIP3    H2 2041   5.991   1.199   0.039
  700TIP3   OH2 2042   7.135   4.035   4.944
  700TIP3    H1 2043   7.189   3.956   4.951
  700TIP3    H2 2044   7.179   4.098   5.001
  701TIP3   OH2 2045   3.406   3.974   1.668
  701TIP3    H1 2046   3.436   4.021   1.591
  701TIP3    H2 2047   3.423   4.033   1.741
  702TIP3   OH2 2048   3.469   4.267   4.069
  702TIP3    H1 2049   3.444   4.336   4.007
  702TIP3    H2 2050   3.385   4.229   4.096
  703TIP3   OH2 2051   2.050   3.709   1.595
  703TIP3    H1 2052   2.081   3.631   1.640
  703TIP3    H2 2053   1.988   3.750   1.656
  704TIP3   OH2 2054   7.007   7.481   2.827
  704TIP3    H1 2055   7.060   7.407   2.798
  704TIP3    H2 2056   7.070   7.551   2.844
  705TIP3   OH2 2057   0.857   0.939   3.127
  705TIP3    H1 2058   0.811   1.015   3.162
  705TIP3    H2 2059   0.841   0.869   3.190
  706TIP3   OH2 2060   8.030   5.048   0.883
  706TIP3    H1 2061   7.949   5.012   0.921
  706TIP3    H2 2062   8.089   5.058   0.958
  707TIP3   OH2 2063   2.298   7.297   3.504
  707TIP3    H1 2064   2.278   7.274   3.413
  707TIP3    H2 2065   2.244   7.237   3.556
  708TIP3   OH2 2066   1.804   6.508   2.684
  708TIP3    H1 2067   1.827   6.457   2.761
  708TIP3    H2 2068   1.730   6.562   2.713
  709TIP3   OH2 2069   2.715   1.343   2.822
  709TIP3    H1 2070   2.650   1.305   2.881
  709TIP3    H2 2071   2.669   1.354   2.739
  710TIP3   OH2 2072   2.945   2.873   1.100
  710TIP3    H1 2073   2.995   2.928   1.040
  710TIP3    H2 2074   2.954   2.916   1.185
  711TIP3   OH2 2075   3.171   1.487   2.980
  711TIP3    H1 2076   3.081   1.517   2.986
  711TIP3    H2 2077   3.218   1.538   3.046
  712TIP3   OH2 2078   3.364   7.603   3.480
  712TIP3    H1 2079   3.429   7.551   3.527
  712TIP3    H2 2080   3.339   7.550   3.405
  713TIP3   OH2 2081   6.188   5.749   1.000
  713TIP3    H1 2082   6.219   5.774   1.087
  713TIP3    H2 2083   6.093   5.744   1.008
  714TIP3   OH2 2084   4.300   0.982   6.401
  714TIP3    H1 2085   4.253   1.037   6.338
  714TIP3    H2 2086   4.264   1.008   6.486
  715TIP3   OH2 2087   5.103   6.946   0.695
  715TIP3    H1 2088   5.135   6.857   0.684
  715TIP3    H2 2089   5.143   6.994   0.622
  716TIP3   OH2 2090   2.426   0.887   0.573
  716TIP3    H1 2091   2.370   0.937   0.632
  716TIP3    H2 2092   2.365   0.834   0.522
  717TIP3   OH2 2093   0.834   2.288   1.876
  717TIP3    H1 2094   0.912   2.326   1.836
  717TIP3    H2 2095   0.761   2.326   1.827
  718TIP3   OH2 2096   2.468   0.714   6.285
  718TIP3    H1 2097   2.530   0.728   6.357
  718TIP3    H2 2098   2.384   0.698   6.327
  719TIP3   OH2 2099   5.559   2.419   6.265
  719TIP3    H1 2100   5.566   2.461   6.351
  719TIP3    H2 2101   5.527   2.331   6.284
  720TIP3   OH2 2102   2.933   2.132   1.523
  720TIP3    H1 2103   3.003   2.085   1.478
  720TIP3    H2 2104   2.921   2.084   1.605
  721TIP3   OH2 2105   6.199   7.109   4.676
  721TIP3    H1 2106   6.149   7.029   4.694
  721TIP3    H2 2107   6.138   7.164   4.626
  722TIP3   OH2 2108   0.509   6.865   6.186
  722TIP3    H1 2109   0.546   6.850   6.273
  722TIP3    H2 2110   0.580   6.846   6.126
  723TIP3   OH2 2111   6.353   4.403   4.710
  723TIP3    H1 2112   6.259   4.406   4.729
  723TIP3    H2 2113   6.370   4.311   4.687
  724TIP3   OH2 2114   7.708   4.759   5.073
  724TIP3    H1 2115   7.699   4.836   5.018
  724TIP3    H2 2116   7.782   4.778   5.131
  725TIP3   OH2 2117   6.050   4.608   4.786
  725TIP3    H1 2118   6.045   4.544   4.715
  725TIP3    H2 2119   5.963   4.647   4.789
  726TIP3   OH2 2120   2.303   0.230   4.379
  726TIP3    H1 2121   2.265   0.201   4.296
  726TIP3    H2 2122   2.288   0.324   4.381
  727TIP3   OH2 2123   5.351   1.904   0.437
  727TIP3    H1 2124   5.430   1.958   0.427
  727TIP3    H2 2125   5.304   1.945   0.510
  728TIP3   OH2 2126   0.498   0.305   0.005
  728TIP3    H1 2127   0.498   0.388   0.052
  728TIP3    H2 2128   0.517   0.329  -0.086
  729TIP3   OH2 2129   2.985   2.690   4.215
  729TIP3    H1 2130   2.911   2.649   4.169
  729TIP3    H2 2131   2.960   2.782   4.224
  730TIP3   OH2 2132   6.120   7.095   2.696
  730TIP3    H1 2133   6.172   7.064   2.770
  730TIP3    H2 2134   6.055   7.027   2.682
  731TIP3   OH2 2135   7.155   1.412   4.645
  731TIP3    H1 2136   7.106   1.494   4.642
  731TIP3    H2 2137   7.102   1.354   4.699
  732TIP3   OH2 2138   3.225   4.496   2.401
  732TIP3    H1 2139   3.174   4.576   2.411
  732TIP3    H2 2140   3.228   4.458   2.489
  733TIP3   OH2 2141   7.086   1.456   3.510
  733TIP3    H1 2142   7.029   1.448   3.433
  733TIP3    H2 2143   7.068   1.378   3.562
  734TIP3   OH2 2144   7.844   3.973   3.812
  734TIP3    H1 2145   7.790   4.015   3.879
  734TIP3    H2 2146   7.891   4.044   3.770
  735TIP3   OH2 2147   2.046   1.780   2.596
  735TIP3    H1 2148   2.121   1.734   2.634
  735TIP3    H2 2149   2.054   1.869   2.628
  736TIP3   OH2 2150   7.008   6.032   3.072
  736TIP3    H1 2151   7.004   6.090   2.996
  736TIP3    H2 2152   7.044   5.950   3.038
  737TIP3   OH2 2153   7.116   4.877   6.735
  737TIP3    H1 2154   7.133   4.832   6.818
  737TIP3    H2 2155   7.045   4.938   6.755
  738TIP3   OH2 2156   2.687   2.029   1.500
  738TIP3    H1 2157   2.758   2.093   1.497
  738TIP3    H2 2158   2.684   2.001   1.592
  739TIP3   OH2 2159   1.548   0.155   0.581
  739TIP3    H1 2160   1.517   0.132   0.669
  739TIP3    H2 2161   1.547   0.073   0.533
  740TIP3   OH2 2162   4.193   5.183   4.528
  740TIP3    H1 2163   4.115   5.179   4.473
  740TIP3    H2 2164   4.206   5.276   4.546
  741TIP3   OH2 2165   5.181   3.323   3.215
  741TIP3    H1 2166   5.102   3.345   3.265
  741TIP3    H2 2167   5.218   3.247   3.261
  742TIP3   OH2 2168   4.551   4.864   0.526
  742TIP3    H1 2169   4.593   4.898   0.448
  742TIP3    H2 2170   4.597   4.907   0.599
  743TIP3   OH2 2171   2.818   0.221   2.939
  743TIP3    H1 2172   2.905   0.183   2.953
  743TIP3    H2 2173   2.816   0.243   2.846
  744TIP3   OH2 2174   2.384   7.475   1.821
  744TIP3    H1 2175   2.387   7.435   1.734
  744TIP3    H2 2176   2.476   7.491   1.843
  745TIP3   OH2 2177   5.987   6.274   3.931
  745TIP3    H1 2178   6.003   6.188   3.969
  745TIP3    H2 2179   5.895   6.272   3.906
  746TIP3   OH2 2180   5.159   4.708   5.550
  746TIP3    H1 2181   5.161   4.698   5.454
  746TIP3    H2 2182   5.123   4.626   5.582
  747TIP3   OH2 2183   3.321   7.509   0.973
  747TIP3    H1 2184   3.272   7.447   0.920
  747TIP3    H2 2185   3.284   7.500   1.061
  748TIP3   OH2 2186   1.779   3.105   0.446
  748TIP3    H1 2187   1.745   3.127   0.359
  748TIP3    H2 2188   1.729   3.028   0.473
  749TIP3   OH2 2189   4.854   4.568   4.006
  749TIP3    H1 2190   4.936   4.527   3.982
  749TIP3    H2 2191   4.855   4.654   3.962
  750TIP3   OH2 2192   1.570   1.687   0.884
  750TIP3    H1 2193   1.594   1.778   0.868
  750TIP3    H2 2194   1.540   1.655   0.798
  751TIP3   OH2 2195   6.015   3.331   2.390
  751TIP3    H1 2196   6.036   3.278   2.467
  751TIP3    H2 2197   6.062   3.289   2.318
  752TIP3   OH2 2198   4.207   0.692   3.730
  752TIP3    H1 2199   4.120   0.654   3.743
  752TIP3    H2 2200   4.198   0.743   3.650
  753TIP3   OH2 2201   4.509   1.385   4.163
  753TIP3    H1 2202   4.429   1.380   4.215
  753TIP3    H2 2203   4.492   1.458   4.102
  754TIP3   OH2 2204   2.156   0.521   1.163
  754TIP3    H1 2205   2.198   0.481   1.087
  754TIP3    H2 2206   2.079   0.466   1.178
  755TIP3   OH2 2207   2.856   1.676   1.593
  755TIP3    H1 2208   2.764   1.679   1.622
  755TIP3    H2 2209   2.905   1.712   1.666
  756TIP3   OH2 2210   3.222   6.498   0.806
  756TIP3    H1 2211   3.187   6.496   0.895
  756TIP3    H2 2212   3.147   6.525   0.752
  757TIP3   OH2 2213   5.239   6.050   0.428
  757TIP3    H1 2214   5.263   6.070   0.518
  757TIP3    H2 2215   5.237   5.955   0.424
  758TIP3   OH2 2216   4.800   0.689   2.961
  758TIP3    H1 2217   4.751   0.688   3.043
  758TIP3    H2 2218   4.736   0.664   2.895
  759TIP3   OH2 2219   3.455   4.285   6.039
  759TIP3    H1 2220   3.411   4.327   6.113
  759TIP3    H2 2221   3.454   4.350   5.970
  760TIP3   OH2 2222   5.687   1.349   6.047
  760TIP3    H1 2223   5.670   1.309   6.132
  760TIP3    H2 2224   5.602   1.384   6.019
  761TIP3   OH2 2225   5.740   0.291   2.491
  761TIP3    H1 2226   5.770   0.219   2.547
  761TIP3    H2 2227   5.682   0.248   2.428
  762TIP3   OH2 2228   0.799   1.962   1.298
  762TIP3    H1 2229   0.761   1.901   1.234
  762TIP3    H2 2230   0.784   1.920   1.383
  763TIP3   OH2 2231   0.531   1.214   1.001
  763TIP3    H1 2232   0.456   1.191   0.946
  763TIP3    H2 2233   0.607   1.207   0.943
  764TIP3   OH2 2234   6.453   0.096   4.234
  764TIP3    H1 2235   6.489   0.017   4.194
  764TIP3    H2 2236   6.372   0.113   4.186
  765TIP3   OH2 2237   0.299   1.782   1.047
  765TIP3    H1 2238   0.379   1.786   0.995
  765TIP3    H2 2239   0.313   1.842   1.120
  766TIP3   OH2 2240   2.335   1.942   2.740
  766TIP3    H1 2241   2.378   1.984   2.665
  766TIP3    H2 2242   2.307   2.015   2.795
  767TIP3   OH2 2243   6.812   3.665   6.571
  767TIP3    H1 2244   6.751   3.731   6.604
  767TIP3    H2 2245   6.887   3.670   6.629
  768TIP3   OH2 2246   0.032   5.502   0.588
  768TIP3    H1 2247   0.093   5.547   0.646
  768TIP3    H2 2248   0.008   5.423   0.635
  769TIP3   OH2 2249   7.512   5.205   1.302
  769TIP3    H1 2250   7.463   5.219   1.221
  769TIP3    H2 2251   7.558   5.287   1.318
  770TIP3   OH2 2252   7.463   0.033   1.761
  770TIP3    H1 2253   7.499   0.119   1.778
  770TIP3    H2 2254   7.391   0.024   1.824
  771TIP3   OH2 2255   4.140   6.190   3.501
  771TIP3    H1 2256   4.153   6.233   3.585
  771TIP3    H2 2257   4.204   6.120   3.499
  772TIP3   OH2 2258   3.193   1.977   5.746
  772TIP3    H1 2259   3.212   2.069   5.728
  772TIP3    H2 2260   3.276   1.940   5.776
  773TIP3   OH2 2261   7.777   6.977   6.370
  773TIP3    H1 2262   7.854   6.928   6.399
  773TIP3    H2 2263   7.749   7.025   6.448
  774TIP3   OH2 2264  -0.015   6.917   3.953
  774TIP3    H1 2265   0.013   6.995   4.000
  774TIP3    H2 2266   0.060   6.894   3.897
  775TIP3   OH2 2267   5.796   4.367   1.743
  775TIP3    H1 2268   5.743   4.319   1.679
  775TIP3    H2 2269   5.823   4.301   1.807
  776TIP3   OH2 2270   1.629   4.267   5.977
  776TIP3    H1 2271   1.704   4.315   6.012
  776TIP3    H2 2272   1.553   4.306   6.021
  777TIP3   OH2 2273   6.674   7.252   6.047
  777TIP3    H1 2274   6.586   7.285   6.067
  777TIP3    H2 2275   6.687   7.180   6.107
  778TIP3   OH2 2276   4.870   5.209   5.341
  778TIP3    H1 2277   4.792   5.177   5.297
  778TIP3    H2 2278   4.858   5.184   5.433
  779TIP3   OH2 2279   2.574   7.388   5.452
  779TIP3    H1 2280   2.589   7.344   5.536
  779TIP3    H2 2281   2.537   7.473   5.476
  780TIP3   OH2 2282   6.211   5.114   5.748
  780TIP3    H1 2283   6.233   5.103   5.655
  780TIP3    H2 2284   6.154   5.191   5.750
  781TIP3   OH2 2285   1.957   3.543   6.721
  781TIP3    H1 2286   1.877   3.511   6.678
  781TIP3    H2 2287   1.954   3.638   6.710
  782TIP3   OH2 2288   7.089   3.509   3.387
  782TIP3    H1 2289   7.113   3.598   3.412
  782TIP3    H2 2290   7.007   3.519   3.338
  783TIP3   OH2 2291   8.159   2.850   3.430
  783TIP3    H1 2292   8.236   2.863   3.374
  783TIP3    H2 2293   8.194   2.856   3.519
  784TIP3   OH2 2294   6.846   0.113   0.113
  784TIP3    H1 2295   6.859   0.023   0.082
  784TIP3    H2 2296   6.885   0.168   0.045
  785TIP3   OH2 2297   0.824   6.517   2.000
  785TIP3    H1 2298   0.762   6.503   2.071
  785TIP3    H2 2299   0.883   6.441   2.003
  786TIP3   OH2 2300   8.095   1.209   0.602
  786TIP3    H1 2301   8.144   1.154   0.664
  786TIP3    H2 2302   8.110   1.168   0.517
  787TIP3   OH2 2303   0.951   1.648   4.529
  787TIP3    H1 2304   1.043   1.620   4.529
  787TIP3    H2 2305   0.930   1.662   4.621
  788TIP3   OH2 2306   0.279   0.436   1.652
  788TIP3    H1 2307   0.266   0.501   1.583
  788TIP3    H2 2308   0.354   0.384   1.622
  789TIP3   OH2 2309   7.803   5.419   0.377
  789TIP3    H1 2310   7.783   5.449   0.466
  789TIP3    H2 2311   7.873   5.354   0.389
  790TIP3   OH2 2312   1.566   6.125   4.056
  790TIP3    H1 2313   1.473   6.140   4.073
  790TIP3    H2 2314   1.570   6.038   4.015
  791TIP3   OH2 2315   4.530   5.627   1.039
  791TIP3    H1 2316   4.625   5.619   1.047
  791TIP3    H2 2317   4.501   5.650   1.127
  792TIP3   OH2 2318   8.013   4.462   2.315
  792TIP3    H1 2319   8.088   4.518   2.295
  792TIP3    H2 2320   8.009   4.401   2.241
  793TIP3   OH2 2321   7.941   5.994   1.298
  793TIP3    H1 2322   7.984   6.005   1.214
  793TIP3    H2 2323   8.012   5.994   1.362
  794TIP3   OH2 2324   3.343   7.461   3.832
  794TIP3    H1 2325   3.252   7.492   3.829
  794TIP3    H2 2326   3.347   7.391   3.767
  795TIP3   OH2 2327   3.259   0.398   3.532
  795TIP3    H1 2328   3.212   0.475   3.564
  795TIP3    H2 2329   3.251   0.333   3.603
  796TIP3   OH2 2330   2.194   5.515   1.568
  796TIP3    H1 2331   2.186   5.436   1.621
  796TIP3    H2 2332   2.288   5.532   1.564
  797TIP3   OH2 2333   2.173   0.693   5.134
  797TIP3    H1 2334   2.204   0.607   5.107
  797TIP3    H2 2335   2.222   0.754   5.079
  798TIP3   OH2 2336   0.774   5.193   6.701
  798TIP3    H1 2337   0.684   5.167   6.717
  798TIP3    H2 2338   0.788   5.175   6.608
  799TIP3   OH2 2339   0.993   2.942   4.705
  799TIP3    H1 2340   1.016   2.899   4.787
  799TIP3    H2 2341   0.899   2.961   4.713
  800TIP3   OH2 2342   1.834   5.820   5.937
  800TIP3    H1 2343   1.919   5.788   5.909
  800TIP3    H2 2344   1.771   5.759   5.899
  801TIP3   OH2 2345   8.048   4.793   3.048
  801TIP3    H1 2346   8.116   4.855   3.074
  801TIP3    H2 2347   8.082   4.752   2.969
  802TIP3   OH2 2348   7.958   5.468   5.554
  802TIP3    H1 2349   7.987   5.378   5.535
  802TIP3    H2 2350   8.003   5.491   5.635
  803TIP3   OH2 2351   7.662   2.232   5.908
  803TIP3    H1 2352   7.587   2.279   5.871
  803TIP3    H2 2353   7.635   2.140   5.910
  804TIP3   OH2 2354   2.194   5.379   1.286
  804TIP3    H1 2355   2.119   5.323   1.265
  804TIP3    H2 2356   2.191   5.389   1.381
  805TIP3   OH2 2357   1.463   7.680   3.910
  805TIP3    H1 2358   1.500   7.592   3.907
  805TIP3    H2 2359   1.414   7.683   3.993
  806TIP3   OH2 2360   0.773   3.103   1.101
  806TIP3    H1 2361   0.853   3.123   1.053
  806TIP3    H2 2362   0.714   3.065   1.035
  807TIP3   OH2 2363   0.035   7.673   3.235
  807TIP3    H1 2364   0.027   7.763   3.267
  807TIP3    H2 2365  -0.034   7.625   3.280
  808TIP3   OH2 2366   6.696   1.092   2.094
  808TIP3    H1 2367   6.788   1.067   2.100
  808TIP3    H2 2368   6.691   1.177   2.137
  809TIP3   OH2 2369   6.702   4.317   0.405
  809TIP3    H1 2370   6.609   4.314   0.380
  809TIP3    H2 2371   6.747   4.343   0.325
  810TIP3   OH2 2372   4.705   0.184   6.082
  810TIP3    H1 2373   4.666   0.195   5.995
  810TIP3    H2 2374   4.631   0.168   6.140
  811TIP3   OH2 2375   1.763   0.235   2.670
  811TIP3    H1 2376   1.687   0.265   2.720
  811TIP3    H2 2377   1.804   0.315   2.637
  812TIP3   OH2 2378   6.005   2.302   4.507
  812TIP3    H1 2379   5.921   2.265   4.480
  812TIP3    H2 2380   6.006   2.390   4.469
  813TIP3   OH2 2381   3.311   2.320   4.244
  813TIP3    H1 2382   3.255   2.376   4.191
  813TIP3    H2 2383   3.252   2.254   4.280
  814TIP3   OH2 2384   8.181   7.514   5.982
  814TIP3    H1 2385   8.206   7.584   5.922
  814TIP3    H2 2386   8.173   7.557   6.067
  815TIP3   OH2 2387   4.688   4.309   4.523
  815TIP3    H1 2388   4.640   4.239   4.568
  815TIP3    H2 2389   4.657   4.306   4.432
  816TIP3   OH2 2390   6.206   2.101   2.732
  816TIP3    H1 2391   6.184   2.015   2.769
  816TIP3    H2 2392   6.290   2.086   2.688
  817TIP3   OH2 2393   4.688   5.267   0.465
  817TIP3    H1 2394   4.617   5.324   0.494
  817TIP3    H2 2395   4.768   5.309   0.498
  818TIP3   OH2 2396   5.956   5.204   1.211
  818TIP3    H1 2397   5.879   5.149   1.220
  818TIP3    H2 2398   5.922   5.293   1.200
  819TIP3   OH2 2399   2.335   4.874   4.567
  819TIP3    H1 2400   2.411   4.861   4.511
  819TIP3    H2 2401   2.361   4.839   4.652
  820TIP3   OH2 2402   7.080   3.740   1.033
  820TIP3    H1 2403   7.063   3.747   0.939
  820TIP3    H2 2404   7.027   3.666   1.062
  821TIP3   OH2 2405   7.521   2.790   1.725
  821TIP3    H1 2406   7.510   2.699   1.697
  821TIP3    H2 2407   7.503   2.841   1.646
  822TIP3   OH2 2408   1.259   6.563   6.682
  822TIP3    H1 2409   1.207   6.497   6.729
  822TIP3    H2 2410   1.329   6.586   6.743
  823TIP3   OH2 2411   0.305   2.783   1.289
  823TIP3    H1 2412   0.213   2.796   1.269
  823TIP3    H2 2413   0.351   2.846   1.234
  824TIP3   OH2 2414   3.516   5.772   3.577
  824TIP3    H1 2415   3.600   5.805   3.607
  824TIP3    H2 2416   3.535   5.685   3.542
  825TIP3   OH2 2417   1.293   6.185   0.512
  825TIP3    H1 2418   1.344   6.104   0.518
  825TIP3    H2 2419   1.254   6.195   0.600
  826TIP3   OH2 2420   1.137   7.429   1.724
  826TIP3    H1 2421   1.223   7.470   1.712
  826TIP3    H2 2422   1.077   7.486   1.676
  827TIP3   OH2 2423   7.100   0.323   5.693
  827TIP3    H1 2424   7.107   0.352   5.784
  827TIP3    H2 2425   7.157   0.246   5.687
  828TIP3   OH2 2426   0.662   0.293   2.866
  828TIP3    H1 2427   0.679   0.351   2.941
  828TIP3    H2 2428   0.748   0.280   2.826
  829TIP3   OH2 2429   7.513   1.055   6.788
  829TIP3    H1 2430   7.533   1.148   6.781
  829TIP3    H2 2431   7.590   1.011   6.750
  830TIP3   OH2 2432   5.290   0.692   4.304
  830TIP3    H1 2433   5.374   0.695   4.349
  830TIP3    H2 2434   5.246   0.616   4.340
  831TIP3   OH2 2435   5.607   4.806   5.772
  831TIP3    H1 2436   5.590   4.861   5.848
  831TIP3    H2 2437   5.575   4.856   5.697
  832TIP3   OH2 2438   5.378   3.555   4.533
  832TIP3    H1 2439   5.312   3.577   4.468
  832TIP3    H2 2440   5.368   3.461   4.547
  833TIP3   OH2 2441   6.772   2.152   1.598
  833TIP3    H1 2442   6.721   2.073   1.580
  833TIP3    H2 2443   6.860   2.120   1.615
  834TIP3   OH2 2444   0.097   2.785   3.056
  834TIP3    H1 2445   0.051   2.775   2.972
  834TIP3    H2 2446   0.182   2.743   3.042
  835TIP3   OH2 2447   3.283   4.303   0.157
  835TIP3    H1 2448   3.264   4.327   0.066
  835TIP3    H2 2449   3.213   4.344   0.208
  836TIP3   OH2 2450   0.727   0.129   1.561
  836TIP3    H1 2451   0.730   0.150   1.654
  836TIP3    H2 2452   0.724   0.034   1.558
  837TIP3   OH2 2453   7.002   3.756   1.604
  837TIP3    H1 2454   7.068   3.814   1.565
  837TIP3    H2 2455   6.970   3.704   1.531
  838TIP3   OH2 2456   1.253   1.872   0.718
  838TIP3    H1 2457   1.262   1.903   0.628
  838TIP3    H2 2458   1.250   1.951   0.771
  839TIP3   OH2 2459   5.531   7.174   4.090
  839TIP3    H1 2460   5.482   7.239   4.141
  839TIP3    H2 2461   5.472   7.149   4.019
  840TIP3   OH2 2462   1.476   2.775   3.582
  840TIP3    H1 2463   1.452   2.834   3.511
  840TIP3    H2 2464   1.544   2.718   3.544
  841TIP3   OH2 2465   5.887   5.250   4.551
  841TIP3    H1 2466   5.924   5.240   4.639
  841TIP3    H2 2467   5.800   5.211   4.557
  842TIP3   OH2 2468   3.305   5.928   6.334
  842TIP3    H1 2469   3.228   5.984   6.333
  842TIP3    H2 2470   3.378   5.987   6.352
  843TIP3   OH2 2471   5.162   4.983   5.166
  843TIP3    H1 2472   5.094   4.932   5.210
  843TIP3    H2 2473   5.170   4.943   5.080
  844TIP3   OH2 2474   6.213   3.158   1.053
  844TIP3    H1 2475   6.273   3.150   0.979
  844TIP3    H2 2476   6.267   3.194   1.124
  845TIP3   OH2 2477   1.251   4.365   4.778
  845TIP3    H1 2478   1.182   4.349   4.842
  845TIP3    H2 2479   1.332   4.348   4.826
  846TIP3   OH2 2480   3.677   6.852   0.998
  846TIP3    H1 2481   3.585   6.828   0.993
  846TIP3    H2 2482   3.676   6.942   1.030
  847TIP3   OH2 2483   3.317   2.387   1.390
  847TIP3    H1 2484   3.233   2.410   1.428
  847TIP3    H2 2485   3.295   2.353   1.303
  848TIP3   OH2 2486   8.138   1.398   3.313
  848TIP3    H1 2487   8.068   1.378   3.251
  848TIP3    H2 2488   8.093   1.435   3.388
  849TIP3   OH2 2489   6.467   7.484   1.987
  849TIP3    H1 2490   6.436   7.451   1.903
  849TIP3    H2 2491   6.435   7.421   2.052
  850TIP3   OH2 2492   2.431   1.816   2.469
  850TIP3    H1 2493   2.401   1.905   2.484
  850TIP3    H2 2494   2.524   1.818   2.491
  851TIP3   OH2 2495   6.122   3.670   5.813
  851TIP3    H1 2496   6.038   3.674   5.767
  851TIP3    H2 2497   6.179   3.619   5.755
  852TIP3   OH2 2498   0.966   3.659   5.101
  852TIP3    H1 2499   1.017   3.594   5.052
  852TIP3    H2 2500   1.020   3.738   5.101
  853TIP3   OH2 2501   5.484   5.330   1.557
  853TIP3    H1 2502   5.553   5.365   1.501
  853TIP3    H2 2503   5.525   5.257   1.604
  854TIP3   OH2 2504   5.074   0.706   1.223
  854TIP3    H1 2505   5.136   0.727   1.293
  854TIP3    H2 2506   5.010   0.777   1.226
  855TIP3   OH2 2507   6.700   3.438   2.833
  855TIP3    H1 2508   6.731   3.450   2.743
  855TIP3    H2 2509   6.772   3.393   2.877
  856TIP3   OH2 2510   2.456   7.726   6.606
  856TIP3    H1 2511   2.365   7.756   6.601
  856TIP3    H2 2512   2.465   7.694   6.696
  857TIP3   OH2 2513   7.147   3.842   2.983
  857TIP3    H1 2514   7.099   3.921   3.007
  857TIP3    H2 2515   7.089   3.797   2.921
  858TIP3   OH2 2516   0.369   1.152   1.776
  858TIP3    H1 2517   0.454   1.110   1.762
  858TIP3    H2 2518   0.364   1.219   1.708
  859TIP3   OH2 2519   6.153   6.534   5.267
  859TIP3    H1 2520   6.155   6.524   5.172
  859TIP3    H2 2521   6.077   6.591   5.284
  860TIP3   OH2 2522   3.659   1.041   2.170
  860TIP3    H1 2523   3.691   1.039   2.260
  860TIP3    H2 2524   3.603   1.119   2.165
  861TIP3   OH2 2525   6.935   6.273   5.815
  861TIP3    H1 2526   6.907   6.287   5.724
  861TIP3    H2 2527   7.029   6.291   5.815
  862TIP3   OH2 2528   4.252   1.098   1.284
  862TIP3    H1 2529   4.239   1.008   1.315
  862TIP3    H2 2530   4.336   1.124   1.321
  863TIP3   OH2 2531   0.773   0.651   1.575
  863TIP3    H1 2532   0.736   0.568   1.607
  863TIP3    H2 2533   0.705   0.686   1.517
  864TIP3   OH2 2534   1.991   4.992   1.151
  864TIP3    H1 2535   2.001   5.083   1.178
  864TIP3    H2 2536   1.911   4.991   1.098
  865TIP3   OH2 2537   3.244   7.110   0.640
  865TIP3    H1 2538   3.263   7.140   0.551
  865TIP3    H2 2539   3.296   7.031   0.650
  866TIP3   OH2 2540   5.096   6.611   0.387
  866TIP3    H1 2541   5.158   6.681   0.368
  866TIP3    H2 2542   5.040   6.606   0.310
  867TIP3   OH2 2543   2.384   3.148   1.486
  867TIP3    H1 2544   2.459   3.088   1.486
  867TIP3    H2 2545   2.417   3.229   1.449
  868TIP3   OH2 2546   8.093   1.068   3.286
  868TIP3    H1 2547   8.064   1.152   3.249
  868TIP3    H2 2548   8.044   1.060   3.367
  869TIP3   OH2 2549   3.917   0.948   2.801
  869TIP3    H1 2550   3.884   1.002   2.873
  869TIP3    H2 2551   3.963   1.009   2.744
  870TIP3   OH2 2552   5.807   2.991   1.726
  870TIP3    H1 2553   5.794   3.071   1.777
  870TIP3    H2 2554   5.836   3.023   1.640
  871TIP3   OH2 2555   2.224   5.453   5.039
  871TIP3    H1 2556   2.250   5.474   4.950
  871TIP3    H2 2557   2.229   5.536   5.086
  872TIP3   OH2 2558   5.436   0.236   3.394
  872TIP3    H1 2559   5.347   0.222   3.360
  872TIP3    H2 2560   5.446   0.171   3.464
  873TIP3   OH2 2561   4.797   5.651   1.103
  873TIP3    H1 2562   4.893   5.651   1.096
  873TIP3    H2 2563   4.778   5.724   1.162
  874TIP3   OH2 2564   2.912   5.631   2.331
  874TIP3    H1 2565   2.960   5.549   2.316
  874TIP3    H2 2566   2.821   5.610   2.311
  875TIP3   OH2 2567   0.849   2.794   6.533
  875TIP3    H1 2568   0.848   2.890   6.530
  875TIP3    H2 2569   0.902   2.768   6.458
  876TIP3   OH2 2570   7.186   4.677   0.134
  876TIP3    H1 2571   7.208   4.603   0.190
  876TIP3    H2 2572   7.247   4.747   0.160
  877TIP3   OH2 2573   5.042   5.510   5.201
  877TIP3    H1 2574   5.014   5.592   5.243
  877TIP3    H2 2575   5.117   5.536   5.147
  878TIP3   OH2 2576   7.508   6.063   3.468
  878TIP3    H1 2577   7.582   6.123   3.472
  878TIP3    H2 2578   7.432   6.116   3.491
  879TIP3   OH2 2579   1.007   2.151   2.088
  879TIP3    H1 2580   1.089   2.186   2.052
  879TIP3    H2 2581   1.026   2.140   2.182
  880TIP3   OH2 2582   5.914   5.370   4.289
  880TIP3    H1 2583   5.846   5.333   4.233
  880TIP3    H2 2584   5.874   5.371   4.376
  881TIP3   OH2 2585   1.523   7.637   3.345
  881TIP3    H1 2586   1.567   7.683   3.416
  881TIP3    H2 2587   1.592   7.584   3.304
  882TIP3   OH2 2588   7.232   2.754   4.610
  882TIP3    H1 2589   7.159   2.788   4.558
  882TIP3    H2 2590   7.211   2.779   4.700
  883TIP3   OH2 2591   7.225   0.882  -0.003
  883TIP3    H1 2592   7.311   0.875  -0.043
  883TIP3    H2 2593   7.231   0.829   0.076
  884TIP3   OH2 2594   1.700   3.831   4.515
  884TIP3    H1 2595   1.760   3.876   4.575
  884TIP3    H2 2596   1.741   3.745   4.501
  885TIP3   OH2 2597   7.412   5.802   0.874
  885TIP3    H1 2598   7.488   5.861   0.881
  885TIP3    H2 2599   7.367   5.832   0.795
  886TIP3   OH2 2600   1.972   7.346   0.289
  886TIP3    H1 2601   1.936   7.315   0.373
  886TIP3    H2 2602   1.908   7.411   0.259
  887TIP3   OH2 2603   2.585   1.538   3.851
  887TIP3    H1 2604   2.536   1.469   3.806
  887TIP3    H2 2605   2.669   1.541   3.807
  888TIP3   OH2 2606   5.191   6.847   2.223
  888TIP3    H1 2607   5.157   6.886   2.143
  888TIP3    H2 2608   5.116   6.799   2.259
  889TIP3   OH2 2609   2.623   7.132   2.488
  889TIP3    H1 2610   2.692   7.179   2.441
  889TIP3    H2 2611   2.643   7.040   2.473
  890TIP3   OH2 2612   2.381   5.141   1.856
  890TIP3    H1 2613   2.346   5.115   1.941
  890TIP3    H2 2614   2.322   5.100   1.793
  891TIP3   OH2 2615   1.458   2.908   4.601
  891TIP3    H1 2616   1.430   2.919   4.510
  891TIP3    H2 2617   1.543   2.951   4.605
  892TIP3   OH2 2618   4.436   3.312   4.296
  892TIP3    H1 2619   4.384   3.289   4.219
  892TIP3    H2 2620   4.448   3.406   4.290
  893TIP3   OH2 2621   7.121   4.414   3.618
  893TIP3    H1 2622   7.025   4.407   3.613
  893TIP3    H2 2623   7.140   4.502   3.587
  894TIP3   OH2 2624   1.403   6.584   4.241
  894TIP3    H1 2625   1.461   6.541   4.304
  894TIP3    H2 2626   1.354   6.513   4.200
  895TIP3   OH2 2627   1.022   6.746   5.359
  895TIP3    H1 2628   1.015   6.663   5.313
  895TIP3    H2 2629   1.116   6.766   5.357
  896TIP3   OH2 2630   1.143   4.604   0.583
  896TIP3    H1 2631   1.191   4.559   0.513
  896TIP3    H2 2632   1.085   4.664   0.537
  897TIP3   OH2 2633   6.472   4.091   4.943
  897TIP3    H1 2634   6.524   4.036   4.885
  897TIP3    H2 2635   6.443   4.032   5.013
  898TIP3   OH2 2636   2.900   4.358   2.827
  898TIP3    H1 2637   2.992   4.344   2.852
  898TIP3    H2 2638   2.904   4.416   2.751
  899TIP3   OH2 2639   3.530   1.019   0.114
  899TIP3    H1 2640   3.525   1.013   0.019
  899TIP3    H2 2641   3.484   0.942   0.146
  900TIP3   OH2 2642   5.794   3.175   2.181
  900TIP3    H1 2643   5.751   3.091   2.199
  900TIP3    H2 2644   5.777   3.227   2.260
  901TIP3   OH2 2645   2.509   7.569   5.664
  901TIP3    H1 2646   2.497   7.529   5.751
  901TIP3    H2 2647   2.495   7.663   5.679
  902TIP3   OH2 2648   5.784   3.418   6.744
  902TIP3    H1 2649   5.722   3.484   6.713
  902TIP3    H2 2650   5.870   3.454   6.721
  903TIP3   OH2 2651   0.075   5.131   1.929
  903TIP3    H1 2652   0.076   5.035   1.930
  903TIP3    H2 2653   0.085   5.156   2.021
  904TIP3   OH2 2654   0.762   7.457   2.107
  904TIP3    H1 2655   0.731   7.542   2.075
  904TIP3    H2 2656   0.691   7.423   2.161
  905TIP3   OH2 2657   2.786   1.318   1.712
  905TIP3    H1 2658   2.832   1.390   1.668
  905TIP3    H2 2659   2.842   1.242   1.700
  906TIP3   OH2 2660   2.744   6.165   0.797
  906TIP3    H1 2661   2.704   6.085   0.763
  906TIP3    H2 2662   2.671   6.227   0.805
  907TIP3   OH2 2663   4.281   5.207   3.794
  907TIP3    H1 2664   4.306   5.226   3.884
  907TIP3    H2 2665   4.360   5.171   3.754
  908TIP3   OH2 2666   2.202   2.771   3.454
  908TIP3    H1 2667   2.184   2.848   3.508
  908TIP3    H2 2668   2.293   2.748   3.474
  909TIP3   OH2 2669   2.136   1.672   0.545
  909TIP3    H1 2670   2.079   1.740   0.581
  909TIP3    H2 2671   2.131   1.684   0.450
  910TIP3   OH2 2672   3.119   0.342   0.826
  910TIP3    H1 2673   3.205   0.313   0.795
  910TIP3    H2 2674   3.057   0.303   0.765
  911TIP3   OH2 2675   6.433   2.556   5.320
  911TIP3    H1 2676   6.422   2.463   5.297
  911TIP3    H2 2677   6.383   2.567   5.401
  912TIP3   OH2 2678   3.097   6.234   2.329
  912TIP3    H1 2679   3.121   6.157   2.382
  912TIP3    H2 2680   3.055   6.198   2.252
  913TIP3   OH2 2681   5.114   5.363   3.253
  913TIP3    H1 2682   5.189   5.408   3.216
  913TIP3    H2 2683   5.058   5.433   3.288
  914TIP3   OH2 2684   3.856   7.797   1.289
  914TIP3    H1 2685   3.881   7.708   1.263
  914TIP3    H2 2686   3.939   7.839   1.311
  915TIP3   OH2 2687   2.790   6.978   6.144
  915TIP3    H1 2688   2.794   7.041   6.072
  915TIP3    H2 2689   2.711   7.001   6.193
  916TIP3   OH2 2690   7.776   2.474   2.579
  916TIP3    H1 2691   7.801   2.499   2.668
  916TIP3    H2 2692   7.857   2.482   2.528
  917TIP3   OH2 2693   2.391   5.337   6.705
  917TIP3    H1 2694   2.312   5.284   6.701
  917TIP3    H2 2695   2.373   5.401   6.774
  918TIP3   OH2 2696   0.419   3.485   1.976
  918TIP3    H1 2697   0.474   3.511   1.902
  918TIP3    H2 2698   0.474   3.424   2.026
  919TIP3   OH2 2699   7.171   4.544   2.015
  919TIP3    H1 2700   7.232   4.550   2.088
  919TIP3    H2 2701   7.200   4.612   1.954
  920TIP3   OH2 2702   5.207   6.751   6.456
  920TIP3    H1 2703   5.239   6.684   6.396
  920TIP3    H2 2704   5.239   6.723   6.542
  921TIP3   OH2 2705   2.436   2.614   0.480
  921TIP3    H1 2706   2.400   2.592   0.394
  921TIP3    H2 2707   2.442   2.530   0.526
  922TIP3   OH2 2708   7.371   3.007   1.200
  922TIP3    H1 2709   7.433   2.939   1.222
  922TIP3    H2 2710   7.420   3.067   1.143
  923TIP3   OH2 2711   0.928   5.358   1.197
  923TIP3    H1 2712   0.933   5.442   1.153
  923TIP3    H2 2713   0.836   5.347   1.218
  924TIP3   OH2 2714   7.257   2.654   2.196
  924TIP3    H1 2715   7.290   2.738   2.164
  924TIP3    H2 2716   7.262   2.596   2.120
  925TIP3   OH2 2717   7.743   2.676   4.093
  925TIP3    H1 2718   7.678   2.633   4.149
  925TIP3    H2 2719   7.757   2.614   4.022
  926TIP3   OH2 2720   2.169   2.124   0.333
  926TIP3    H1 2721   2.230   2.080   0.392
  926TIP3    H2 2722   2.213   2.206   0.310
  927TIP3   OH2 2723   7.488   3.709   5.099
  927TIP3    H1 2724   7.573   3.670   5.080
  927TIP3    H2 2725   7.446   3.647   5.159
  928TIP3   OH2 2726   7.188   1.299   5.723
  928TIP3    H1 2727   7.154   1.263   5.805
  928TIP3    H2 2728   7.173   1.230   5.658
  929TIP3   OH2 2729   4.399   6.094   1.887
  929TIP3    H1 2730   4.355   6.018   1.848
  929TIP3    H2 2731   4.480   6.103   1.837
  930TIP3   OH2 2732   5.228   7.171   0.285
  930TIP3    H1 2733   5.241   7.112   0.211
  930TIP3    H2 2734   5.185   7.117   0.351
  931TIP3   OH2 2735   7.470   3.121   5.774
  931TIP3    H1 2736   7.541   3.060   5.754
  931TIP3    H2 2737   7.514   3.198   5.810
  932TIP3   OH2 2738   5.037   5.976   4.589
  932TIP3    H1 2739   4.994   5.891   4.578
  932TIP3    H2 2740   4.966   6.037   4.606
  933TIP3   OH2 2741   2.181   6.048   6.399
  933TIP3    H1 2742   2.118   6.114   6.370
  933TIP3    H2 2743   2.131   5.994   6.460
  934TIP3   OH2 2744   6.003   6.293   5.820
  934TIP3    H1 2745   5.975   6.207   5.852
  934TIP3    H2 2746   6.059   6.274   5.745
  935TIP3   OH2 2747   8.037   5.635   6.116
  935TIP3    H1 2748   8.080   5.716   6.090
  935TIP3    H2 2749   7.957   5.663   6.160
  936TIP3   OH2 2750   1.483   1.631   6.114
  936TIP3    H1 2751   1.567   1.593   6.090
  936TIP3    H2 2752   1.487   1.639   6.209
  937TIP3   OH2 2753   7.412   5.064   6.702
  937TIP3    H1 2754   7.330   5.032   6.665
  937TIP3    H2 2755   7.476   5.051   6.632
  938TIP3   OH2 2756   8.117   1.708   3.502
  938TIP3    H1 2757   8.075   1.627   3.530
  938TIP3    H2 2758   8.061   1.742   3.432
  939TIP3   OH2 2759   1.465   1.646   5.558
  939TIP3    H1 2760   1.458   1.635   5.653
  939TIP3    H2 2761   1.393   1.594   5.522
  940TIP3   OH2 2762   7.363   5.376   4.007
  940TIP3    H1 2763   7.283   5.329   4.029
  940TIP3    H2 2764   7.354   5.462   4.048
  941TIP3   OH2 2765   2.452   5.469   3.940
  941TIP3    H1 2766   2.361   5.466   3.910
  941TIP3    H2 2767   2.495   5.530   3.881
  942TIP3   OH2 2768   7.022   6.272   2.909
  942TIP3    H1 2769   7.029   6.304   2.820
  942TIP3    H2 2770   6.946   6.317   2.945
  943TIP3   OH2 2771   4.788   1.820   4.672
  943TIP3    H1 2772   4.831   1.753   4.619
  943TIP3    H2 2773   4.792   1.900   4.618
  944TIP3   OH2 2774   1.021   2.438   5.830
  944TIP3    H1 2775   0.962   2.419   5.756
  944TIP3    H2 2776   0.995   2.525   5.860
  945TIP3   OH2 2777   2.568   6.001   4.148
  945TIP3    H1 2778   2.604   6.007   4.237
  945TIP3    H2 2779   2.479   5.968   4.161
  946TIP3   OH2 2780   3.645   2.542   2.985
  946TIP3    H1 2781   3.722   2.517   3.037
  946TIP3    H2 2782   3.571   2.507   3.035
  947TIP3   OH2 2783   1.122   4.760   1.603
  947TIP3    H1 2784   1.139   4.851   1.626
  947TIP3    H2 2785   1.035   4.762   1.563
  948TIP3   OH2 2786   0.075   7.052   0.724
  948TIP3    H1 2787   0.144   6.996   0.687
  948TIP3    H2 2788   0.000   7.039   0.667
  949TIP3   OH2 2789   0.708   5.468   3.478
  949TIP3    H1 2790   0.669   5.523   3.410
  949TIP3    H2 2791   0.688   5.378   3.450
  950TIP3   OH2 2792   1.873   4.600   3.413
  950TIP3    H1 2793   1.929   4.671   3.446
  950TIP3    H2 2794   1.878   4.533   3.481
  951TIP3   OH2 2795   4.864   7.075   0.806
  951TIP3    H1 2796   4.942   7.019   0.804
  951TIP3    H2 2797   4.899   7.164   0.804
  952TIP3   OH2 2798   5.509   2.998   3.940
  952TIP3    H1 2799   5.455   3.024   4.014
  952TIP3    H2 2800   5.449   3.001   3.865
  953TIP3   OH2 2801   2.695   1.604   3.158
  953TIP3    H1 2802   2.604   1.634   3.168
  953TIP3    H2 2803   2.690   1.509   3.169
  954TIP3   OH2 2804   2.394   0.790   5.625
  954TIP3    H1 2805   2.452   0.860   5.653
  954TIP3    H2 2806   2.395   0.794   5.529
  955TIP3   OH2 2807   4.025   1.355   1.107
  955TIP3    H1 2808   4.113   1.389   1.123
  955TIP3    H2 2809   4.038   1.276   1.055
  956TIP3   OH2 2810   1.287   2.224   3.146
  956TIP3    H1 2811   1.210   2.186   3.104
  956TIP3    H2 2812   1.258   2.244   3.235
  957TIP3   OH2 2813   6.946   6.550   4.240
  957TIP3    H1 2814   6.872   6.489   4.243
  957TIP3    H2 2815   6.951   6.586   4.328
  958TIP3   OH2 2816   7.163   2.104   0.652
  958TIP3    H1 2817   7.091   2.117   0.714
  958TIP3    H2 2818   7.242   2.102   0.706
  959TIP3   OH2 2819   4.377   7.775   2.862
  959TIP3    H1 2820   4.453   7.765   2.918
  959TIP3    H2 2821   4.365   7.870   2.854
  960TIP3   OH2 2822   0.964   6.441   0.664
  960TIP3    H1 2823   0.925   6.520   0.627
  960TIP3    H2 2824   0.894   6.401   0.716
  961TIP3   OH2 2825   0.846   5.911   2.447
  961TIP3    H1 2826   0.830   5.977   2.515
  961TIP3    H2 2827   0.844   5.959   2.365
  962TIP3   OH2 2828   0.472   1.371   6.123
  962TIP3    H1 2829   0.497   1.460   6.098
  962TIP3    H2 2830   0.376   1.370   6.115
  963TIP3   OH2 2831   0.142   7.153   4.588
  963TIP3    H1 2832   0.201   7.154   4.513
  963TIP3    H2 2833   0.065   7.103   4.557
  964TIP3   OH2 2834   4.107   7.080   3.982
  964TIP3    H1 2835   4.081   7.014   4.047
  964TIP3    H2 2836   4.183   7.123   4.021
  965TIP3   OH2 2837   3.024   3.664   6.260
  965TIP3    H1 2838   2.985   3.645   6.174
  965TIP3    H2 2839   3.061   3.581   6.289
  966TIP3   OH2 2840   4.070   6.978   4.334
  966TIP3    H1 2841   4.047   6.971   4.426
  966TIP3    H2 2842   4.024   6.905   4.292
  967TIP3   OH2 2843   4.994   0.468   4.619
  967TIP3    H1 2844   4.976   0.561   4.611
  967TIP3    H2 2845   5.080   0.464   4.661
  968TIP3   OH2 2846   2.994   1.885   0.413
  968TIP3    H1 2847   2.920   1.940   0.385
  968TIP3    H2 2848   2.954   1.801   0.436
  969TIP3   OH2 2849   2.978   7.697   5.042
  969TIP3    H1 2850   2.890   7.661   5.037
  969TIP3    H2 2851   3.036   7.624   5.021
  970TIP3   OH2 2852   0.473   5.225   2.014
  970TIP3    H1 2853   0.412   5.153   2.026
  970TIP3    H2 2854   0.417   5.300   1.993
  971TIP3   OH2 2855   2.832   0.509   5.733
  971TIP3    H1 2856   2.793   0.525   5.647
  971TIP3    H2 2857   2.924   0.537   5.724
  972TIP3   OH2 2858   4.455   1.602   5.506
  972TIP3    H1 2859   4.417   1.571   5.589
  972TIP3    H2 2860   4.509   1.677   5.531
  973TIP3   OH2 2861   7.300   4.645   1.452
  973TIP3    H1 2862   7.308   4.660   1.358
  973TIP3    H2 2863   7.207   4.625   1.465
  974TIP3   OH2 2864   2.296   3.522   1.301
  974TIP3    H1 2865   2.253   3.607   1.310
  974TIP3    H2 2866   2.234   3.468   1.252
  975TIP3   OH2 2867   4.847   7.358   4.326
  975TIP3    H1 2868   4.871   7.271   4.356
  975TIP3    H2 2869   4.897   7.370   4.245
  976TIP3   OH2 2870   5.268   6.278   0.916
  976TIP3    H1 2871   5.305   6.332   0.846
  976TIP3    H2 2872   5.256   6.192   0.875
  977TIP3   OH2 2873   6.554   2.950   0.352
  977TIP3    H1 2874   6.582   2.927   0.263
  977TIP3    H2 2875   6.591   2.880   0.407
  978TIP3   OH2 2876   5.586   1.928   2.893
  978TIP3    H1 2877   5.492   1.923   2.912
  978TIP3    H2 2878   5.606   2.022   2.896
  979TIP3   OH2 2879   2.381   6.432   6.566
  979TIP3    H1 2880   2.333   6.502   6.610
  979TIP3    H2 2881   2.364   6.446   6.473
  980TIP3   OH2 2882   6.974   6.709   1.494
  980TIP3    H1 2883   6.896   6.657   1.515
  980TIP3    H2 2884   7.009   6.735   1.579
  981TIP3   OH2 2885   3.729   4.921   6.695
  981TIP3    H1 2886   3.813   4.968   6.696
  981TIP3    H2 2887   3.717   4.893   6.786
  982TIP3   OH2 2888   4.281   2.663   3.258
  982TIP3    H1 2889   4.211   2.692   3.316
  982TIP3    H2 2890   4.347   2.627   3.317
  983TIP3   OH2 2891   5.914   4.717   1.856
  983TIP3    H1 2892   5.952   4.732   1.769
  983TIP3    H2 2893   5.822   4.742   1.846
  984TIP3   OH2 2894   4.494   5.921   1.519
  984TIP3    H1 2895   4.543   5.990   1.564
  984TIP3    H2 2896   4.406   5.957   1.508
  985TIP3   OH2 2897   1.760   7.283   0.473
  985TIP3    H1 2898   1.695   7.334   0.521
  985TIP3    H2 2899   1.734   7.192   0.487
  986TIP3   OH2 2900   3.031   0.138   6.188
  986TIP3    H1 2901   2.970   0.110   6.119
  986TIP3    H2 2902   3.114   0.153   6.142
  987TIP3   OH2 2903   6.911   7.527   2.035
  987TIP3    H1 2904   6.914   7.590   1.963
  987TIP3    H2 2905   6.984   7.551   2.092
  988TIP3   OH2 2906   7.622   3.429   6.742
  988TIP3    H1 2907   7.539   3.382   6.750
  988TIP3    H2 2908   7.609   3.487   6.666
  989TIP3   OH2 2909   2.302   2.333   4.565
  989TIP3    H1 2910   2.235   2.401   4.564
  989TIP3    H2 2911   2.366   2.362   4.500
  990TIP3   OH2 2912   0.373   2.177   3.058
  990TIP3    H1 2913   0.322   2.245   3.102
  990TIP3    H2 2914   0.450   2.164   3.113
  991TIP3   OH2 2915   5.203   7.615   4.265
  991TIP3    H1 2916   5.230   7.700   4.231
  991TIP3    H2 2917   5.107   7.619   4.267
  992TIP3   OH2 2918   3.268   0.100   4.981
  992TIP3    H1 2919   3.298   0.009   4.990
  992TIP3    H2 2920   3.199   0.109   5.047
  993TIP3   OH2 2921   6.708   3.832   3.347
  993TIP3    H1 2922   6.681   3.742   3.334
  993TIP3    H2 2923   6.786   3.842   3.291
  994TIP3   OH2 2924   7.487   1.733   1.986
  994TIP3    H1 2925   7.469   1.655   2.040
  994TIP3    H2 2926   7.403   1.753   1.944
  995TIP3   OH2 2927   2.866   7.489   5.859
  995TIP3    H1 2928   2.954   7.457   5.881
  995TIP3    H2 2929   2.836   7.430   5.790
  996TIP3   OH2 2930   4.627   0.974   0.668
  996TIP3    H1 2931   4.610   0.994   0.760
  996TIP3    H2 2932   4.653   1.057   0.630
  997TIP3   OH2 2933   0.922   1.261   5.454
  997TIP3    H1 2934   0.854   1.292   5.515
  997TIP3    H2 2935   0.887   1.280   5.367
  998TIP3   OH2 2936   6.346   6.809   2.422
  998TIP3    H1 2937   6.350   6.740   2.356
  998TIP3    H2 2938   6.292   6.773   2.491
  999TIP3   OH2 2939   3.666   7.740   4.616
  999TIP3    H1 2940   3.646   7.833   4.626
  999TIP3    H2 2941   3.704   7.734   4.528
 1000TIP3   OH2 2942   7.707   0.312   3.332
 1000TIP3    H1 2943   7.651   0.373   3.284
 1000TIP3    H2 2944   7.693   0.334   3.424
 1001TIP3   OH2 2945   6.355   2.605   1.643
 1001TIP3    H1 2946   6.360   2.611   1.547
 1001TIP3    H2 2947   6.440   2.635   1.673
 1002TIP3   OH2 2948   3.635   4.068   5.254
 1002TIP3    H1 2949   3.683   4.023   5.185
 1002TIP3    H2 2950   3.545   4.073   5.222
 1003TIP3   OH2 2951   3.268   4.421   0.771
 1003TIP3    H1 2952   3.173   4.426   0.781
 1003TIP3    H2 2953   3.302   4.456   0.854
 1004TIP3   OH2 2954   6.475   6.262   4.643
 1004TIP3    H1 2955   6.522   6.341   4.619
 1004TIP3    H2 2956   6.536   6.213   4.699
 1005TIP3   OH2 2957   1.017   5.334   5.396
 1005TIP3    H1 2958   1.048   5.288   5.473
 1005TIP3    H2 2959   0.922   5.341   5.409
 1006TIP3   OH2 2960   0.951   1.770   3.407
 1006TIP3    H1 2961   0.993   1.685   3.425
 1006TIP3    H2 2962   0.941   1.810   3.493
 1007TIP3   OH2 2963   3.039   4.977   3.812
 1007TIP3    H1 2964   2.979   4.923   3.861
 1007TIP3    H2 2965   3.126   4.946   3.837
 1008TIP3   OH2 2966   2.081   4.721   0.550
 1008TIP3    H1 2967   2.146   4.654   0.570
 1008TIP3    H2 2968   2.115   4.765   0.472
 1009TIP3   OH2 2969   4.545   3.219   5.560
 1009TIP3    H1 2970   4.609   3.270   5.511
 1009TIP3    H2 2971   4.542   3.261   5.646
 1010TIP3   OH2 2972   5.264   4.392   2.112
 1010TIP3    H1 2973   5.358   4.372   2.112
 1010TIP3    H2 2974   5.227   4.332   2.177
 1011TIP3   OH2 2975   3.571   0.242   5.698
 1011TIP3    H1 2976   3.640   0.209   5.755
 1011TIP3    H2 2977   3.566   0.336   5.717
 1012TIP3   OH2 2978   5.113   3.147   5.320
 1012TIP3    H1 2979   5.058   3.069   5.312
 1012TIP3    H2 2980   5.190   3.118   5.368
 1013TIP3   OH2 2981   2.850   6.195   2.989
 1013TIP3    H1 2982   2.937   6.176   3.023
 1013TIP3    H2 2983   2.854   6.287   2.962
 1014TIP3   OH2 2984   0.811   6.339   4.057
 1014TIP3    H1 2985   0.751   6.400   4.015
 1014TIP3    H2 2986   0.865   6.394   4.114
 1015TIP3   OH2 2987   5.939   5.146   0.801
 1015TIP3    H1 2988   5.904   5.179   0.718
 1015TIP3    H2 2989   6.004   5.080   0.776
 1016TIP3   OH2 2990   1.919   0.632   6.480
 1016TIP3    H1 2991   1.980   0.561   6.461
 1016TIP3    H2 2992   1.951   0.670   6.562
 1017TIP3   OH2 2993   3.036   6.936   6.542
 1017TIP3    H1 2994   3.039   6.896   6.456
 1017TIP3    H2 2995   3.017   6.863   6.602
 1018TIP3   OH2 2996   6.953   6.978   1.495
 1018TIP3    H1 2997   6.948   6.885   1.472
 1018TIP3    H2 2998   6.881   7.018   1.447
 1019TIP3   OH2 2999   1.466   3.032   0.971
 1019TIP3    H1 3000   1.535   3.075   1.021
 1019TIP3    H2 3001   1.505   3.016   0.885
 1020TIP3   OH2 3002   0.089   6.297   1.683
 1020TIP3    H1 3003  -0.003   6.316   1.667
 1020TIP3    H2 3004   0.134   6.332   1.606
 1021TIP3   OH2 3005   2.204   7.000   2.357
 1021TIP3    H1 3006   2.292   7.035   2.348
 1021TIP3    H2 3007   2.147   7.076   2.345
 1022TIP3   OH2 3008   7.171   7.600   1.724
 1022TIP3    H1 3009   7.121   7.568   1.649
 1022TIP3    H2 3010   7.210   7.682   1.694
 1023TIP3   OH2 3011   0.514   7.397   2.872
 1023TIP3    H1 3012   0.564   7.427   2.948
 1023TIP3    H2 3013   0.573   7.336   2.826
 1024TIP3   OH2 3014   7.849   4.780   4.366
 1024TIP3    H1 3015   7.938   4.813   4.371
 1024TIP3    H2 3016   7.817   4.785   4.456
 1025TIP3   OH2 3017   2.682   1.222   3.586
 1025TIP3    H1 3018   2.701   1.224   3.493
 1025TIP3    H2 3019   2.744   1.159   3.622
 1026TIP3   OH2 3020   2.469   7.359   4.196
 1026TIP3    H1 3021   2.521   7.438   4.179
 1026TIP3    H2 3022   2.534   7.290   4.208
 1027TIP3   OH2 3023   2.544   2.001   6.274
 1027TIP3    H1 3024   2.591   2.054   6.210
 1027TIP3    H2 3025   2.454   2.033   6.271
 1028TIP3   OH2 3026   5.433   4.897   2.135
 1028TIP3    H1 3027   5.350   4.934   2.104
 1028TIP3    H2 3028   5.481   4.972   2.171
 1029TIP3   OH2 3029   0.678   3.565   0.615
 1029TIP3    H1 3030   0.610   3.632   0.629
 1029TIP3    H2 3031   0.723   3.593   0.535
 1030TIP3   OH2 3032   0.013   3.144   5.998
 1030TIP3    H1 3033   0.024   3.053   6.026
 1030TIP3    H2 3034   0.086   3.190   6.039
 1031TIP3   OH2 3035   0.909   1.023   4.692
 1031TIP3    H1 3036   0.909   1.096   4.630
 1031TIP3    H2 3037   0.826   0.977   4.676
 1032TIP3   OH2 3038   8.046   3.176   5.559
 1032TIP3    H1 3039   8.071   3.212   5.474
 1032TIP3    H2 3040   8.105   3.217   5.621
 1033TIP3   OH2 3041   5.544   3.607   6.210
 1033TIP3    H1 3042   5.608   3.652   6.154
 1033TIP3    H2 3043   5.527   3.670   6.280
 1034TIP3   OH2 3044   0.172   1.430   3.062
 1034TIP3    H1 3045   0.165   1.421   3.157
 1034TIP3    H2 3046   0.113   1.363   3.028
 1035TIP3   OH2 3047   0.276   2.393   6.757
 1035TIP3    H1 3048   0.289   2.328   6.688
 1035TIP3    H2 3049   0.187   2.425   6.743
 1036TIP3   OH2 3050   2.977   4.399   5.109
 1036TIP3    H1 3051   2.979   4.455   5.186
 1036TIP3    H2 3052   2.887   4.367   5.104
 1037TIP3   OH2 3053   5.111   2.093   5.459
 1037TIP3    H1 3054   5.076   2.023   5.405
 1037TIP3    H2 3055   5.190   2.121   5.413
 1038TIP3   OH2 3056   4.203   4.308   6.721
 1038TIP3    H1 3057   4.162   4.309   6.808
 1038TIP3    H2 3058   4.159   4.237   6.675
 1039TIP3   OH2 3059   5.609   6.180   3.413
 1039TIP3    H1 3060   5.657   6.140   3.341
 1039TIP3    H2 3061   5.677   6.214   3.471
 1040TIP3   OH2 3062   6.830   2.277   6.357
 1040TIP3    H1 3063   6.908   2.269   6.302
 1040TIP3    H2 3064   6.825   2.194   6.404
 1041TIP3   OH2 3065   4.160   1.988   2.479
 1041TIP3    H1 3066   4.147   2.080   2.458
 1041TIP3    H2 3067   4.214   1.988   2.558
 1042TIP3   OH2 3068   3.393   0.992   0.861
 1042TIP3    H1 3069   3.459   0.969   0.927
 1042TIP3    H2 3070   3.399   1.087   0.853
 1043TIP3   OH2 3071   5.344   4.499   6.631
 1043TIP3    H1 3072   5.375   4.523   6.544
 1043TIP3    H2 3073   5.283   4.427   6.616
 1044TIP3   OH2 3074   5.842   6.209   3.598
 1044TIP3    H1 3075   5.931   6.242   3.603
 1044TIP3    H2 3076   5.824   6.175   3.686
 1045TIP3   OH2 3077   4.599   4.873   1.150
 1045TIP3    H1 3078   4.505   4.869   1.161
 1045TIP3    H2 3079   4.615   4.956   1.105
 1046TIP3   OH2 3080   5.727   3.734   2.868
 1046TIP3    H1 3081   5.633   3.726   2.853
 1046TIP3    H2 3082   5.737   3.820   2.909
 1047TIP3   OH2 3083   1.296   6.407   6.442
 1047TIP3    H1 3084   1.296   6.478   6.506
 1047TIP3    H2 3085   1.389   6.388   6.427
 1048TIP3   OH2 3086   7.445   0.702   1.024
 1048TIP3    H1 3087   7.389   0.678   0.950
 1048TIP3    H2 3088   7.393   0.766   1.073
 1049TIP3   OH2 3089   4.279   1.911   6.250
 1049TIP3    H1 3090   4.305   1.981   6.190
 1049TIP3    H2 3091   4.344   1.842   6.236
 1050TIP3   OH2 3092   7.870   3.647   1.438
 1050TIP3    H1 3093   7.833   3.736   1.439
 1050TIP3    H2 3094   7.963   3.660   1.460
 1051TIP3   OH2 3095   3.641   1.706   4.585
 1051TIP3    H1 3096   3.589   1.747   4.654
 1051TIP3    H2 3097   3.576   1.669   4.525
 1052TIP3   OH2 3098   0.043   7.139   4.112
 1052TIP3    H1 3099   0.099   7.107   4.182
 1052TIP3    H2 3100   0.052   7.235   4.116
 1053TIP3   OH2 3101   5.345   0.793   6.050
 1053TIP3    H1 3102   5.372   0.880   6.022
 1053TIP3    H2 3103   5.348   0.796   6.145
 1054TIP3   OH2 3104   5.374   5.670   2.694
 1054TIP3    H1 3105   5.310   5.622   2.643
 1054TIP3    H2 3106   5.433   5.710   2.629
 1055TIP3   OH2 3107   0.259   3.547   0.672
 1055TIP3    H1 3108   0.194   3.609   0.705
 1055TIP3    H2 3109   0.339   3.598   0.665
 1056TIP3   OH2 3110   7.761   5.875   5.576
 1056TIP3    H1 3111   7.810   5.888   5.495
 1056TIP3    H2 3112   7.758   5.961   5.617
 1057TIP3   OH2 3113   8.083   4.802   1.588
 1057TIP3    H1 3114   8.080   4.895   1.607
 1057TIP3    H2 3115   8.134   4.764   1.659
 1058TIP3   OH2 3116   7.709   1.108   1.495
 1058TIP3    H1 3117   7.725   1.181   1.554
 1058TIP3    H2 3118   7.644   1.141   1.433
 1059TIP3   OH2 3119   5.789   2.803   6.422
 1059TIP3    H1 3120   5.778   2.845   6.508
 1059TIP3    H2 3121   5.700   2.777   6.397
 1060TIP3   OH2 3122   2.230   6.265   2.612
 1060TIP3    H1 3123   2.307   6.322   2.612
 1060TIP3    H2 3124   2.156   6.323   2.595
 1061TIP3   OH2 3125   2.987   2.656   6.634
 1061TIP3    H1 3126   2.926   2.688   6.568
 1061TIP3    H2 3127   3.071   2.697   6.610
 1062TIP3   OH2 3128   2.269   3.545   0.127
 1062TIP3    H1 3129   2.269   3.640   0.140
 1062TIP3    H2 3130   2.217   3.531   0.048
 1063TIP3   OH2 3131   6.040   6.381   2.761
 1063TIP3    H1 3132   5.983   6.424   2.697
 1063TIP3    H2 3133   6.009   6.290   2.764
 1064TIP3   OH2 3134   6.741   1.223   2.584
 1064TIP3    H1 3135   6.715   1.294   2.642
 1064TIP3    H2 3136   6.831   1.242   2.560
 1065TIP3   OH2 3137   3.724   4.635   6.573
 1065TIP3    H1 3138   3.704   4.600   6.660
 1065TIP3    H2 3139   3.753   4.724   6.589
 1066TIP3   OH2 3140   8.229   0.745   6.473
 1066TIP3    H1 3141   8.252   0.773   6.385
 1066TIP3    H2 3142   8.139   0.714   6.466
 1067TIP3   OH2 3143   5.056   5.020   5.582
 1067TIP3    H1 3144   5.064   4.934   5.623
 1067TIP3    H2 3145   5.004   5.005   5.503
 1068TIP3   OH2 3146   5.558   0.442   0.880
 1068TIP3    H1 3147   5.558   0.536   0.862
 1068TIP3    H2 3148   5.509   0.403   0.808
 1069TIP3   OH2 3149   4.364   5.268   3.374
 1069TIP3    H1 3150   4.381   5.344   3.319
 1069TIP3    H2 3151   4.274   5.242   3.353
 1070TIP3   OH2 3152   2.643   5.361   0.914
 1070TIP3    H1 3153   2.707   5.401   0.972
 1070TIP3    H2 3154   2.626   5.275   0.952
 1071TIP3   OH2 3155   0.930   4.134   5.493
 1071TIP3    H1 3156   0.951   4.043   5.516
 1071TIP3    H2 3157   0.872   4.126   5.416
 1072TIP3   OH2 3158   4.775   3.022   2.237
 1072TIP3    H1 3159   4.703   3.074   2.271
 1072TIP3    H2 3160   4.736   2.969   2.167
 1073TIP3   OH2 3161   7.263   4.270   4.271
 1073TIP3    H1 3162   7.205   4.217   4.326
 1073TIP3    H2 3163   7.220   4.355   4.265
 1074TIP3   OH2 3164   6.958   3.571   5.321
 1074TIP3    H1 3165   6.952   3.658   5.282
 1074TIP3    H2 3166   7.010   3.520   5.259
 1075TIP3   OH2 3167   5.237   0.192   5.358
 1075TIP3    H1 3168   5.192   0.239   5.429
 1075TIP3    H2 3169   5.214   0.100   5.372
 1076TIP3   OH2 3170   6.998   5.444   1.480
 1076TIP3    H1 3171   7.057   5.374   1.506
 1076TIP3    H2 3172   7.045   5.524   1.503
 1077TIP3   OH2 3173   4.398   3.754   2.902
 1077TIP3    H1 3174   4.446   3.717   2.976
 1077TIP3    H2 3175   4.400   3.685   2.835
 1078TIP3   OH2 3176   4.780   6.749   6.416
 1078TIP3    H1 3177   4.832   6.736   6.337
 1078TIP3    H2 3178   4.838   6.725   6.488
 1079TIP3   OH2 3179   0.307   7.232   1.539
 1079TIP3    H1 3180   0.271   7.249   1.452
 1079TIP3    H2 3181   0.370   7.302   1.554
 1080TIP3   OH2 3182   5.822   6.529   5.783
 1080TIP3    H1 3183   5.828   6.620   5.813
 1080TIP3    H2 3184   5.883   6.525   5.709
 1081TIP3   OH2 3185   6.332   5.032   1.764
 1081TIP3    H1 3186   6.255   5.017   1.709
 1081TIP3    H2 3187   6.336   5.127   1.774
 1082TIP3   OH2 3188   1.044   6.191   4.178
 1082TIP3    H1 3189   0.978   6.247   4.218
 1082TIP3    H2 3190   0.993   6.125   4.130
 1083TIP3   OH2 3191   4.233   3.372   5.567
 1083TIP3    H1 3192   4.253   3.393   5.476
 1083TIP3    H2 3193   4.138   3.386   5.574
 1084TIP3   OH2 3194   4.393   0.558   4.238
 1084TIP3    H1 3195   4.346   0.520   4.164
 1084TIP3    H2 3196   4.428   0.641   4.205
 1085TIP3   OH2 3197   5.275   4.996   3.387
 1085TIP3    H1 3198   5.335   4.923   3.401
 1085TIP3    H2 3199   5.322   5.072   3.422
 1086TIP3   OH2 3200   0.607   4.389   4.696
 1086TIP3    H1 3201   0.531   4.335   4.673
 1086TIP3    H2 3202   0.660   4.391   4.616
 1087TIP3   OH2 3203   4.084   5.643   2.117
 1087TIP3    H1 3204   4.140   5.613   2.046
 1087TIP3    H2 3205   4.047   5.563   2.154
 1088TIP3   OH2 3206   6.020   2.968   0.294
 1088TIP3    H1 3207   5.993   3.058   0.310
 1088TIP3    H2 3208   6.107   2.960   0.334
 1089TIP3   OH2 3209   3.372   3.811   3.162
 1089TIP3    H1 3210   3.389   3.904   3.174
 1089TIP3    H2 3211   3.287   3.807   3.119
 1090TIP3   OH2 3212   7.902   6.792   2.010
 1090TIP3    H1 3213   7.985   6.840   2.005
 1090TIP3    H2 3214   7.838   6.859   2.032
 1091TIP3   OH2 3215   6.951   7.131   6.741
 1091TIP3    H1 3216   7.030   7.177   6.768
 1091TIP3    H2 3217   6.950   7.051   6.793
 1092TIP3   OH2 3218   7.629   6.308   1.751
 1092TIP3    H1 3219   7.645   6.218   1.780
 1092TIP3    H2 3220   7.682   6.362   1.810
 1093TIP3   OH2 3221   4.627   1.881   1.129
 1093TIP3    H1 3222   4.605   1.968   1.163
 1093TIP3    H2 3223   4.590   1.820   1.193
 1094TIP3   OH2 3224   0.026   7.190   4.879
 1094TIP3    H1 3225  -0.059   7.230   4.892
 1094TIP3    H2 3226   0.086   7.263   4.865
 1095TIP3   OH2 3227   8.304   5.876   4.030
 1095TIP3    H1 3228   8.399   5.877   4.044
 1095TIP3    H2 3229   8.268   5.832   4.107
 1096TIP3   OH2 3230   6.124   3.769   6.233
 1096TIP3    H1 3231   6.206   3.758   6.281
 1096TIP3    H2 3232   6.131   3.855   6.192
 1097TIP3   OH2 3233   6.576   5.337   0.419
 1097TIP3    H1 3234   6.665   5.361   0.445
 1097TIP3    H2 3235   6.537   5.418   0.385
 1098TIP3   OH2 3236   3.165   2.024   0.593
 1098TIP3    H1 3237   3.086   2.018   0.646
 1098TIP3    H2 3238   3.134   2.020   0.502
 1099TIP3   OH2 3239   6.056   3.529   3.680
 1099TIP3    H1 3240   5.981   3.584   3.705
 1099TIP3    H2 3241   6.133   3.581   3.705
 1100TIP3   OH2 3242   0.155   1.066   3.940
 1100TIP3    H1 3243   0.146   1.063   4.035
 1100TIP3    H2 3244   0.104   1.143   3.913
 1101TIP3   OH2 3245   4.485   6.977   2.151
 1101TIP3    H1 3246   4.571   6.941   2.171
 1101TIP3    H2 3247   4.501   7.040   2.081
 1102TIP3   OH2 3248   8.051   0.598   0.682
 1102TIP3    H1 3249   8.042   0.606   0.777
 1102TIP3    H2 3250   7.984   0.534   0.657
 1103TIP3   OH2 3251   6.349   7.328   2.171
 1103TIP3    H1 3252   6.276   7.350   2.228
 1103TIP3    H2 3253   6.319   7.252   2.121
 1104TIP3   OH2 3254   2.618   4.160   5.441
 1104TIP3    H1 3255   2.635   4.247   5.477
 1104TIP3    H2 3256   2.605   4.104   5.518
 1105TIP3   OH2 3257   5.914   6.629   6.368
 1105TIP3    H1 3258   5.991   6.590   6.327
 1105TIP3    H2 3259   5.884   6.694   6.304
 1106TIP3   OH2 3260   4.952   3.328   5.929
 1106TIP3    H1 3261   4.969   3.250   5.876
 1106TIP3    H2 3262   4.885   3.376   5.880
 1107TIP3   OH2 3263   6.998   4.901   4.034
 1107TIP3    H1 3264   6.919   4.910   3.980
 1107TIP3    H2 3265   6.970   4.926   4.122
 1108TIP3   OH2 3266   5.623   7.634   4.355
 1108TIP3    H1 3267   5.605   7.544   4.381
 1108TIP3    H2 3268   5.712   7.632   4.320
 1109TIP3   OH2 3269   2.762   6.989  -0.005
 1109TIP3    H1 3270   2.678   7.026  -0.032
 1109TIP3    H2 3271   2.748   6.894  -0.011
 1110TIP3   OH2 3272   4.120   1.991   4.808
 1110TIP3    H1 3273   4.121   1.984   4.903
 1110TIP3    H2 3274   4.046   2.048   4.788
 1111TIP3   OH2 3275   3.922   3.759   1.741
 1111TIP3    H1 3276   3.927   3.732   1.833
 1111TIP3    H2 3277   3.843   3.717   1.708
 1112TIP3   OH2 3278   6.483   1.624   3.926
 1112TIP3    H1 3279   6.538   1.622   4.004
 1112TIP3    H2 3280   6.415   1.689   3.946
 1113TIP3   OH2 3281   6.053   2.854   1.985
 1113TIP3    H1 3282   5.970   2.842   2.031
 1113TIP3    H2 3283   6.119   2.820   2.045
 1114TIP3   OH2 3284   7.548   6.896   3.333
 1114TIP3    H1 3285   7.607   6.846   3.276
 1114TIP3    H2 3286   7.499   6.952   3.273
 1115TIP3   OH2 3287   4.285   1.194   2.891
 1115TIP3    H1 3288   4.223   1.251   2.845
 1115TIP3    H2 3289   4.328   1.251   2.955
 1116TIP3   OH2 3290   1.586   4.572   0.172
 1116TIP3    H1 3291   1.569   4.575   0.266
 1116TIP3    H2 3292   1.498   4.571   0.132
 1117TIP3   OH2 3293   6.146   6.090   6.679
 1117TIP3    H1 3294   6.241   6.097   6.667
 1117TIP3    H2 3295   6.133   6.005   6.720
 1118TIP3   OH2 3296   5.161   7.511   2.755
 1118TIP3    H1 3297   5.229   7.499   2.822
 1118TIP3    H2 3298   5.209   7.507   2.672
 1119TIP3   OH2 3299   5.692   4.265   0.295
 1119TIP3    H1 3300   5.689   4.188   0.237
 1119TIP3    H2 3301   5.635   4.329   0.253
 1120TIP3   OH2 3302   5.521   2.230   5.648
 1120TIP3    H1 3303   5.591   2.289   5.622
 1120TIP3    H2 3304   5.529   2.155   5.588
 1121TIP3   OH2 3305   4.252   3.890   6.094
 1121TIP3    H1 3306   4.229   3.864   6.004
 1121TIP3    H2 3307   4.291   3.811   6.132
 1122TIP3   OH2 3308   0.949   5.553   6.404
 1122TIP3    H1 3309   1.010   5.489   6.441
 1122TIP3    H2 3310   1.002   5.603   6.341
 1123TIP3   OH2 3311   0.443   3.050   0.518
 1123TIP3    H1 3312   0.440   3.146   0.513
 1123TIP3    H2 3313   0.352   3.022   0.510
 1124TIP3   OH2 3314   6.517   6.113   4.176
 1124TIP3    H1 3315   6.450   6.128   4.109
 1124TIP3    H2 3316   6.468   6.105   4.258
 1125TIP3   OH2 3317   2.990   1.767   4.859
 1125TIP3    H1 3318   3.019   1.705   4.792
 1125TIP3    H2 3319   3.008   1.853   4.822
 1126TIP3   OH2 3320   3.283   1.679   5.522
 1126TIP3    H1 3321   3.302   1.715   5.609
 1126TIP3    H2 3322   3.357   1.709   5.468
 1127TIP3   OH2 3323   2.473   5.240   4.169
 1127TIP3    H1 3324   2.457   5.328   4.135
 1127TIP3    H2 3325   2.475   5.184   4.091
 1128TIP3   OH2 3326   0.950   4.214   4.428
 1128TIP3    H1 3327   0.873   4.267   4.445
 1128TIP3    H2 3328   0.990   4.201   4.514
 1129TIP3   OH2 3329   6.127   1.096   5.593
 1129TIP3    H1 3330   6.194   1.128   5.654
 1129TIP3    H2 3331   6.065   1.168   5.585
 1130TIP3   OH2 3332   4.041   5.532   2.828
 1130TIP3    H1 3333   4.029   5.583   2.747
 1130TIP3    H2 3334   4.063   5.444   2.798
 1131TIP3   OH2 3335   3.034   5.405   4.713
 1131TIP3    H1 3336   2.978   5.378   4.785
 1131TIP3    H2 3337   3.085   5.327   4.691
 1132TIP3   OH2 3338   1.822   1.239   2.497
 1132TIP3    H1 3339   1.841   1.205   2.585
 1132TIP3    H2 3340   1.795   1.163   2.447
 1133TIP3   OH2 3341   2.698   7.014   4.866
 1133TIP3    H1 3342   2.734   6.969   4.790
 1133TIP3    H2 3343   2.774   7.056   4.907
 1134TIP3   OH2 3344   3.623   6.319   0.664
 1134TIP3    H1 3345   3.608   6.370   0.743
 1134TIP3    H2 3346   3.717   6.328   0.647
 1135TIP3   OH2 3347   3.861   3.700   1.096
 1135TIP3    H1 3348   3.904   3.663   1.174
 1135TIP3    H2 3349   3.915   3.776   1.074
 1136TIP3   OH2 3350   3.959   4.875   1.767
 1136TIP3    H1 3351   3.998   4.902   1.684
 1136TIP3    H2 3352   3.937   4.782   1.753
 1137TIP3   OH2 3353   5.920   3.324   3.234
 1137TIP3    H1 3354   5.920   3.334   3.329
 1137TIP3    H2 3355   5.860   3.251   3.218
 1138TIP3   OH2 3356   6.637   2.395   1.526
 1138TIP3    H1 3357   6.674   2.307   1.520
 1138TIP3    H2 3358   6.713   2.453   1.531
 1139TIP3   OH2 3359   3.768   4.160   6.543
 1139TIP3    H1 3360   3.779   4.234   6.603
 1139TIP3    H2 3361   3.741   4.087   6.599
 1140TIP3   OH2 3362   7.130   2.471   0.501
 1140TIP3    H1 3363   7.063   2.411   0.468
 1140TIP3    H2 3364   7.082   2.552   0.520
 1141TIP3   OH2 3365   1.978   2.959   4.534
 1141TIP3    H1 3366   2.028   2.923   4.607
 1141TIP3    H2 3367   1.904   3.003   4.576
 1142TIP3   OH2 3368   2.450   1.441   0.603
 1142TIP3    H1 3369   2.460   1.426   0.509
 1142TIP3    H2 3370   2.486   1.363   0.644
 1143TIP3   OH2 3371   5.180   7.768   1.519
 1143TIP3    H1 3372   5.115   7.699   1.531
 1143TIP3    H2 3373   5.224   7.775   1.604
 1144TIP3   OH2 3374   4.809   1.243   3.804
 1144TIP3    H1 3375   4.716   1.221   3.812
 1144TIP3    H2 3376   4.829   1.230   3.711
 1145TIP3   OH2 3377   6.603   4.022   1.985
 1145TIP3    H1 3378   6.573   4.048   2.072
 1145TIP3    H2 3379   6.656   4.095   1.955
 1146TIP3   OH2 3380   7.987   1.811   5.959
 1146TIP3    H1 3381   8.010   1.725   5.924
 1146TIP3    H2 3382   8.028   1.814   6.046
 1147TIP3   OH2 3383   7.996   4.446   0.337
 1147TIP3    H1 3384   8.052   4.522   0.355
 1147TIP3    H2 3385   8.035   4.376   0.388
 1148TIP3   OH2 3386   0.533   4.081   4.466
 1148TIP3    H1 3387   0.539   4.040   4.380
 1148TIP3    H2 3388   0.515   4.009   4.526
 1149TIP3   OH2 3389   0.627   5.239   4.152
 1149TIP3    H1 3390   0.698   5.299   4.177
 1149TIP3    H2 3391   0.610   5.261   4.060
 1150TIP3   OH2 3392   3.197   5.582   1.908
 1150TIP3    H1 3393   3.151   5.640   1.969
 1150TIP3    H2 3394   3.264   5.637   1.869
 1151TIP3   OH2 3395   0.771   4.971   6.288
 1151TIP3    H1 3396   0.865   4.990   6.282
 1151TIP3    H2 3397   0.729   5.056   6.272
 1152TIP3   OH2 3398   5.522   1.826   6.573
 1152TIP3    H1 3399   5.463   1.881   6.521
 1152TIP3    H2 3400   5.518   1.741   6.531
 1153TIP3   OH2 3401   0.764   6.277   5.458
 1153TIP3    H1 3402   0.835   6.214   5.471
 1153TIP3    H2 3403   0.753   6.318   5.543
 1154TIP3   OH2 3404   1.284   2.113   3.575
 1154TIP3    H1 3405   1.310   2.072   3.657
 1154TIP3    H2 3406   1.293   2.043   3.510
 1155TIP3   OH2 3407   7.440   4.541   0.485
 1155TIP3    H1 3408   7.516   4.502   0.528
 1155TIP3    H2 3409   7.380   4.564   0.556
 1156TIP3   OH2 3410   1.029   7.277   6.064
 1156TIP3    H1 3411   1.087   7.205   6.039
 1156TIP3    H2 3412   0.970   7.287   5.990
 1157TIP3   OH2 3413   6.032   4.535   3.687
 1157TIP3    H1 3414   5.952   4.482   3.689
 1157TIP3    H2 3415   6.091   4.487   3.629
 1158TIP3   OH2 3416   2.902   1.470   0.572
 1158TIP3    H1 3417   2.859   1.385   0.580
 1158TIP3    H2 3418   2.945   1.483   0.656
 1159TIP3   OH2 3419   6.084   3.512   1.273
 1159TIP3    H1 3420   6.053   3.603   1.266
 1159TIP3    H2 3421   6.132   3.510   1.356
 1160TIP3   OH2 3422   8.140   0.864   3.860
 1160TIP3    H1 3423   8.074   0.868   3.929
 1160TIP3    H2 3424   8.129   0.945   3.810
 1161TIP3   OH2 3425   0.791   1.288   4.235
 1161TIP3    H1 3426   0.832   1.373   4.219
 1161TIP3    H2 3427   0.720   1.283   4.171
 1162TIP3   OH2 3428   7.530   1.003   4.076
 1162TIP3    H1 3429   7.507   1.073   4.137
 1162TIP3    H2 3430   7.608   1.035   4.032
 1163TIP3   OH2 3431   3.423   0.080   3.628
 1163TIP3    H1 3432   3.504   0.034   3.606
 1163TIP3    H2 3433   3.443   0.126   3.710
 1164TIP3   OH2 3434  -0.021   5.315   5.748
 1164TIP3    H1 3435   0.007   5.325   5.658
 1164TIP3    H2 3436   0.049   5.265   5.790
 1165TIP3   OH2 3437   5.511   0.837   5.128
 1165TIP3    H1 3438   5.515   0.850   5.223
 1165TIP3    H2 3439   5.504   0.925   5.091
 1166TIP3   OH2 3440   6.669   5.026   3.587
 1166TIP3    H1 3441   6.689   4.950   3.531
 1166TIP3    H2 3442   6.583   5.055   3.558
 1167TIP3   OH2 3443   5.485   0.825   5.771
 1167TIP3    H1 3444   5.439   0.844   5.853
 1167TIP3    H2 3445   5.493   0.730   5.770
 1168TIP3   OH2 3446   7.392   6.272   0.356
 1168TIP3    H1 3447   7.483   6.246   0.343
 1168TIP3    H2 3448   7.379   6.267   0.451
 1169TIP3   OH2 3449   5.863   7.015   0.849
 1169TIP3    H1 3450   5.859   6.921   0.831
 1169TIP3    H2 3451   5.911   7.022   0.931
 1170TIP3   OH2 3452   7.808   0.820   6.255
 1170TIP3    H1 3453   7.879   0.757   6.265
 1170TIP3    H2 3454   7.847   0.905   6.274
 1171TIP3   OH2 3455   0.966   4.647   3.154
 1171TIP3    H1 3456   0.950   4.553   3.159
 1171TIP3    H2 3457   0.882   4.684   3.127
 1172TIP3   OH2 3458   5.950   3.765   1.201
 1172TIP3    H1 3459   5.909   3.737   1.119
 1172TIP3    H2 3460   5.985   3.852   1.181
 1173TIP3   OH2 3461   1.619   7.453   5.546
 1173TIP3    H1 3462   1.656   7.462   5.634
 1173TIP3    H2 3463   1.554   7.523   5.540
 1174TIP3   OH2 3464   0.127   2.225   2.140
 1174TIP3    H1 3465   0.098   2.219   2.048
 1174TIP3    H2 3466   0.222   2.230   2.135
 1175TIP3   OH2 3467   5.659   3.013   5.388
 1175TIP3    H1 3468   5.714   3.069   5.444
 1175TIP3    H2 3469   5.711   2.934   5.375
 1176TIP3   OH2 3470   5.548   6.148   0.335
 1176TIP3    H1 3471   5.611   6.103   0.391
 1176TIP3    H2 3472   5.504   6.211   0.393
 1177TIP3   OH2 3473   6.184   7.531   5.145
 1177TIP3    H1 3474   6.141   7.504   5.064
 1177TIP3    H2 3475   6.254   7.467   5.158
 1178TIP3   OH2 3476   3.905   1.734   4.699
 1178TIP3    H1 3477   3.857   1.811   4.730
 1178TIP3    H2 3478   3.837   1.678   4.661
 1179TIP3   OH2 3479   8.181   3.766   5.086
 1179TIP3    H1 3480   8.176   3.780   4.992
 1179TIP3    H2 3481   8.217   3.677   5.096
 1180TIP3   OH2 3482   7.590   7.271   0.712
 1180TIP3    H1 3483   7.658   7.264   0.779
 1180TIP3    H2 3484   7.549   7.356   0.728
 1181TIP3   OH2 3485   7.902   6.697   1.468
 1181TIP3    H1 3486   7.827   6.655   1.510
 1181TIP3    H2 3487   7.958   6.725   1.541
 1182TIP3   OH2 3488   2.120   4.519   2.325
 1182TIP3    H1 3489   2.206   4.477   2.329
 1182TIP3    H2 3490   2.103   4.530   2.232
 1183TIP3   OH2 3491   1.079   0.742   6.632
 1183TIP3    H1 3492   1.064   0.798   6.708
 1183TIP3    H2 3493   1.000   0.688   6.627
 1184TIP3   OH2 3494   5.254   3.665   0.230
 1184TIP3    H1 3495   5.321   3.733   0.238
 1184TIP3    H2 3496   5.247   3.649   0.136
 1185TIP3   OH2 3497   0.148   3.531   5.936
 1185TIP3    H1 3498   0.105   3.557   5.854
 1185TIP3    H2 3499   0.235   3.571   5.931
 1186TIP3   OH2 3500   4.996   5.253   6.651
 1186TIP3    H1 3501   5.074   5.206   6.620
 1186TIP3    H2 3502   5.010   5.344   6.623
 1187TIP3   OH2 3503   5.165   3.205   0.908
 1187TIP3    H1 3504   5.260   3.218   0.911
 1187TIP3    H2 3505   5.130   3.262   0.977
 1188TIP3   OH2 3506   1.077   2.487   2.044
 1188TIP3    H1 3507   1.149   2.529   2.091
 1188TIP3    H2 3508   1.022   2.448   2.112
 1189TIP3   OH2 3509   6.873   7.711   6.454
 1189TIP3    H1 3510   6.927   7.734   6.530
 1189TIP3    H2 3511   6.826   7.792   6.433
 1190TIP3   OH2 3512   0.513   3.817   1.518
 1190TIP3    H1 3513   0.451   3.883   1.548
 1190TIP3    H2 3514   0.597   3.862   1.518
 1191TIP3   OH2 3515   3.530   6.634   1.748
 1191TIP3    H1 3516   3.544   6.718   1.705
 1191TIP3    H2 3517   3.439   6.612   1.729
 1192TIP3   OH2 3518   4.058   2.677   5.735
 1192TIP3    H1 3519   4.003   2.608   5.772
 1192TIP3    H2 3520   4.039   2.675   5.642
 1193TIP3   OH2 3521   4.930   1.936   3.539
 1193TIP3    H1 3522   4.959   1.860   3.590
 1193TIP3    H2 3523   4.911   2.003   3.604
 1194TIP3   OH2 3524   5.132   1.721   0.046
 1194TIP3    H1 3525   5.220   1.708   0.082
 1194TIP3    H2 3526   5.076   1.664   0.099
 1195TIP3   OH2 3527   2.652   3.982   4.191
 1195TIP3    H1 3528   2.735   3.959   4.150
 1195TIP3    H2 3529   2.664   4.072   4.222
 1196TIP3   OH2 3530   1.338   0.290   1.420
 1196TIP3    H1 3531   1.272   0.233   1.458
 1196TIP3    H2 3532   1.421   0.260   1.458
 1197TIP3   OH2 3533   5.852   4.384   0.753
 1197TIP3    H1 3534   5.790   4.335   0.701
 1197TIP3    H2 3535   5.833   4.359   0.843
 1198TIP3   OH2 3536   0.127   6.513   6.639
 1198TIP3    H1 3537   0.146   6.469   6.556
 1198TIP3    H2 3538   0.089   6.444   6.694
 1199TIP3   OH2 3539   3.785   2.228   2.910
 1199TIP3    H1 3540   3.866   2.278   2.922
 1199TIP3    H2 3541   3.789   2.160   2.977
 1200TIP3   OH2 3542   1.268   2.002   1.761
 1200TIP3    H1 3543   1.282   2.056   1.838
 1200TIP3    H2 3544   1.226   2.061   1.698
 1201TIP3   OH2 3545   5.681   1.116   4.908
 1201TIP3    H1 3546   5.591   1.103   4.877
 1201TIP3    H2 3547   5.676   1.098   5.002
 1202TIP3   OH2 3548   1.903   5.295   6.309
 1202TIP3    H1 3549   1.944   5.349   6.241
 1202TIP3    H2 3550   1.812   5.286   6.280
 1203TIP3   OH2 3551   2.366   0.057   2.108
 1203TIP3    H1 3552   2.412  -0.002   2.168
 1203TIP3    H2 3553   2.436   0.104   2.062
 1204TIP3   OH2 3554   5.306   4.931   6.650
 1204TIP3    H1 3555   5.343   4.980   6.724
 1204TIP3    H2 3556   5.240   4.989   6.613
 1205TIP3   OH2 3557   3.606   6.082   5.413
 1205TIP3    H1 3558   3.570   5.994   5.404
 1205TIP3    H2 3559   3.627   6.090   5.506
 1206TIP3   OH2 3560   4.134   0.682   4.852
 1206TIP3    H1 3561   4.162   0.717   4.767
 1206TIP3    H2 3562   4.071   0.747   4.885
 1207TIP3   OH2 3563   0.117   2.116   3.779
 1207TIP3    H1 3564   0.033   2.077   3.803
 1207TIP3    H2 3565   0.152   2.058   3.712
 1208TIP3   OH2 3566   7.176   5.021   0.909
 1208TIP3    H1 3567   7.228   4.957   0.861
 1208TIP3    H2 3568   7.086   5.002   0.884
 1209TIP3   OH2 3569   1.848   4.790   4.411
 1209TIP3    H1 3570   1.909   4.863   4.421
 1209TIP3    H2 3571   1.889   4.733   4.346
 1210TIP3   OH2 3572   3.922   5.064   3.461
 1210TIP3    H1 3573   3.849   5.036   3.405
 1210TIP3    H2 3574   3.932   4.993   3.524
 1211TIP3   OH2 3575   3.228   1.826   6.077
 1211TIP3    H1 3576   3.272   1.742   6.068
 1211TIP3    H2 3577   3.229   1.843   6.171
 1212TIP3   OH2 3578   3.895   5.126   2.107
 1212TIP3    H1 3579   3.967   5.105   2.048
 1212TIP3    H2 3580   3.878   5.044   2.153
 1213TIP3   OH2 3581   0.328   5.782   6.788
 1213TIP3    H1 3582   0.279   5.775   6.707
 1213TIP3    H2 3583   0.416   5.751   6.766
 1214TIP3   OH2 3584   2.475   1.296   3.782
 1214TIP3    H1 3585   2.388   1.257   3.772
 1214TIP3    H2 3586   2.532   1.244   3.725
 1215TIP3   OH2 3587   0.414   1.923   6.199
 1215TIP3    H1 3588   0.350   1.867   6.155
 1215TIP3    H2 3589   0.369   2.007   6.210
 1216TIP3   OH2 3590   2.394   3.872   4.444
 1216TIP3    H1 3591   2.322   3.841   4.499
 1216TIP3    H2 3592   2.351   3.910   4.367
 1217TIP3   OH2 3593   2.443   5.245   1.223
 1217TIP3    H1 3594   2.350   5.263   1.235
 1217TIP3    H2 3595   2.476   5.319   1.173
 1218TIP3   OH2 3596   6.188   0.581   3.241
 1218TIP3    H1 3597   6.243   0.504   3.258
 1218TIP3    H2 3598   6.248   0.655   3.251
 1219TIP3   OH2 3599   1.605   1.390   0.835
 1219TIP3    H1 3600   1.611   1.483   0.813
 1219TIP3    H2 3601   1.521   1.381   0.880
 1220TIP3   OH2 3602   6.239   5.390   2.092
 1220TIP3    H1 3603   6.268   5.402   2.001
 1220TIP3    H2 3604   6.315   5.415   2.145
 1221TIP3   OH2 3605   0.774   7.347   0.286
 1221TIP3    H1 3606   0.827   7.426   0.290
 1221TIP3    H2 3607   0.741   7.344   0.196
 1222TIP3   OH2 3608   1.861   7.706   3.165
 1222TIP3    H1 3609   1.823   7.619   3.179
 1222TIP3    H2 3610   1.785   7.763   3.152
 1223TIP3   OH2 3611   6.770   0.548   2.474
 1223TIP3    H1 3612   6.833   0.502   2.530
 1223TIP3    H2 3613   6.688   0.501   2.486
 1224TIP3   OH2 3614   5.749   7.314   5.487
 1224TIP3    H1 3615   5.655   7.296   5.491
 1224TIP3    H2 3616   5.756   7.408   5.473
 1225TIP3   OH2 3617   3.928   3.056   1.815
 1225TIP3    H1 3618   3.983   3.133   1.805
 1225TIP3    H2 3619   3.839   3.091   1.826
 1226TIP3   OH2 3620   3.485   5.377   3.980
 1226TIP3    H1 3621   3.555   5.443   3.979
 1226TIP3    H2 3622   3.511   5.315   4.047
 1227TIP3   OH2 3623   2.325   5.017   0.648
 1227TIP3    H1 3624   2.266   5.051   0.716
 1227TIP3    H2 3625   2.348   4.929   0.679
 1228TIP3   OH2 3626   5.835   1.787   4.979
 1228TIP3    H1 3627   5.871   1.790   4.891
 1228TIP3    H2 3628   5.806   1.696   4.990
 1229TIP3   OH2 3629   6.755   3.171   5.016
 1229TIP3    H1 3630   6.812   3.201   5.087
 1229TIP3    H2 3631   6.685   3.236   5.012
 1230TIP3   OH2 3632   4.959   5.581   0.016
 1230TIP3    H1 3633   4.990   5.671   0.009
 1230TIP3    H2 3634   4.864   5.587   0.004
 1231TIP3   OH2 3635   6.328   3.478   2.176
 1231TIP3    H1 3636   6.307   3.569   2.155
 1231TIP3    H2 3637   6.269   3.426   2.121
 1232TIP3   OH2 3638   3.020   4.410   1.483
 1232TIP3    H1 3639   2.962   4.373   1.549
 1232TIP3    H2 3640   2.974   4.488   1.451
 1233TIP3   OH2 3641   8.217   3.367   1.502
 1233TIP3    H1 3642   8.163   3.437   1.537
 1233TIP3    H2 3643   8.262   3.331   1.578
 1234TIP3   OH2 3644   3.266   4.860   1.894
 1234TIP3    H1 3645   3.242   4.814   1.975
 1234TIP3    H2 3646   3.183   4.870   1.847
 1235TIP3   OH2 3647   5.823   7.015   1.374
 1235TIP3    H1 3648   5.876   6.938   1.353
 1235TIP3    H2 3649   5.738   6.979   1.399
 1236TIP3   OH2 3650   5.188   3.481   5.590
 1236TIP3    H1 3651   5.132   3.408   5.564
 1236TIP3    H2 3652   5.228   3.452   5.672
 1237TIP3   OH2 3653   1.759   2.828   5.863
 1237TIP3    H1 3654   1.846   2.861   5.885
 1237TIP3    H2 3655   1.716   2.814   5.947
 1238TIP3   OH2 3656   1.587   6.403   1.834
 1238TIP3    H1 3657   1.595   6.348   1.911
 1238TIP3    H2 3658   1.675   6.439   1.821
 1239TIP3   OH2 3659   0.954   3.203   5.188
 1239TIP3    H1 3660   0.984   3.247   5.109
 1239TIP3    H2 3661   1.003   3.121   5.191
 1240TIP3   OH2 3662   0.623   4.461   3.482
 1240TIP3    H1 3663   0.672   4.463   3.564
 1240TIP3    H2 3664   0.636   4.372   3.449
 1241TIP3   OH2 3665   5.173   1.238   6.550
 1241TIP3    H1 3666   5.231   1.277   6.615
 1241TIP3    H2 3667   5.214   1.258   6.466
 1242TIP3   OH2 3668   1.477   1.678   6.432
 1242TIP3    H1 3669   1.462   1.585   6.418
 1242TIP3    H2 3670   1.412   1.704   6.497
 1243TIP3   OH2 3671   4.984   0.251   3.085
 1243TIP3    H1 3672   4.955   0.164   3.056
 1243TIP3    H2 3673   4.902   0.299   3.099
 1244TIP3   OH2 3674   2.184   1.135   3.074
 1244TIP3    H1 3675   2.189   1.230   3.085
 1244TIP3    H2 3676   2.177   1.101   3.163
 1245TIP3   OH2 3677   4.301   5.625   5.431
 1245TIP3    H1 3678   4.299   5.711   5.474
 1245TIP3    H2 3679   4.239   5.633   5.359
 1246TIP3   OH2 3680   5.997   0.531   2.026
 1246TIP3    H1 3681   5.963   0.462   1.970
 1246TIP3    H2 3682   5.919   0.578   2.056
 1247TIP3   OH2 3683   0.354   3.253   2.427
 1247TIP3    H1 3684   0.327   3.174   2.473
 1247TIP3    H2 3685   0.379   3.223   2.339
 1248TIP3   OH2 3686   8.273   7.204   5.171
 1248TIP3    H1 3687   8.217   7.133   5.139
 1248TIP3    H2 3688   8.361   7.167   5.172
 1249TIP3   OH2 3689   5.600   0.460   1.644
 1249TIP3    H1 3690   5.662   0.397   1.681
 1249TIP3    H2 3691   5.519   0.446   1.694
 1250TIP3   OH2 3692   2.088   0.378   5.198
 1250TIP3    H1 3693   2.109   0.285   5.197
 1250TIP3    H2 3694   2.000   0.383   5.159
 1251TIP3   OH2 3695   0.773   2.328   1.249
 1251TIP3    H1 3696   0.794   2.324   1.342
 1251TIP3    H2 3697   0.730   2.413   1.238
 1252TIP3   OH2 3698   2.563   3.193   1.155
 1252TIP3    H1 3699   2.545   3.100   1.147
 1252TIP3    H2 3700   2.513   3.221   1.231
 1253TIP3   OH2 3701   8.214   5.182   6.417
 1253TIP3    H1 3702   8.178   5.258   6.463
 1253TIP3    H2 3703   8.143   5.118   6.417
 1254TIP3   OH2 3704   7.692   5.726   1.897
 1254TIP3    H1 3705   7.720   5.635   1.904
 1254TIP3    H2 3706   7.677   5.740   1.804
 1255TIP3   OH2 3707   2.857   1.288   0.214
 1255TIP3    H1 3708   2.915   1.295   0.139
 1255TIP3    H2 3709   2.796   1.362   0.205
 1256TIP3   OH2 3710   2.043   7.318   4.894
 1256TIP3    H1 3711   1.953   7.294   4.874
 1256TIP3    H2 3712   2.072   7.370   4.819
 1257TIP3   OH2 3713   7.543   3.208   0.858
 1257TIP3    H1 3714   7.600   3.142   0.818
 1257TIP3    H2 3715   7.603   3.265   0.906
 1258TIP3   OH2 3716   0.616   3.113   1.809
 1258TIP3    H1 3717   0.536   3.103   1.860
 1258TIP3    H2 3718   0.664   3.184   1.854
 1259TIP3   OH2 3719   3.951   7.500   1.440
 1259TIP3    H1 3720   3.948   7.573   1.501
 1259TIP3    H2 3721   3.960   7.422   1.495
 1260TIP3   OH2 3722   1.387   6.834   1.971
 1260TIP3    H1 3723   1.335   6.912   1.989
 1260TIP3    H2 3724   1.329   6.778   1.920
 1261TIP3   OH2 3725   7.241   3.416   6.385
 1261TIP3    H1 3726   7.186   3.460   6.320
 1261TIP3    H2 3727   7.310   3.375   6.333
 1262TIP3   OH2 3728   2.013   7.541   5.066
 1262TIP3    H1 3729   2.040   7.610   5.006
 1262TIP3    H2 3730   2.004   7.463   5.010
 1263TIP3   OH2 3731   3.679   0.870   2.588
 1263TIP3    H1 3732   3.673   0.952   2.539
 1263TIP3    H2 3733   3.704   0.896   2.677
 1264TIP3   OH2 3734   2.173   5.822   4.465
 1264TIP3    H1 3735   2.188   5.760   4.393
 1264TIP3    H2 3736   2.085   5.801   4.496
 1265TIP3   OH2 3737   5.568   3.298   2.351
 1265TIP3    H1 3738   5.580   3.204   2.361
 1265TIP3    H2 3739   5.475   3.312   2.371
 1266TIP3   OH2 3740   7.380   0.406   1.459
 1266TIP3    H1 3741   7.344   0.404   1.370
 1266TIP3    H2 3742   7.429   0.488   1.464
 1267TIP3   OH2 3743   7.677   4.382   0.550
 1267TIP3    H1 3744   7.698   4.324   0.623
 1267TIP3    H2 3745   7.735   4.458   0.562
 1268TIP3   OH2 3746   5.541   7.111   2.766
 1268TIP3    H1 3747   5.493   7.170   2.825
 1268TIP3    H2 3748   5.537   7.154   2.681
 1269TIP3   OH2 3749   1.864   6.132   4.246
 1269TIP3    H1 3750   1.851   6.107   4.338
 1269TIP3    H2 3751   1.779   6.115   4.205
 1270TIP3   OH2 3752   2.598   3.222   2.877
 1270TIP3    H1 3753   2.529   3.244   2.940
 1270TIP3    H2 3754   2.608   3.127   2.885
 1271TIP3   OH2 3755   0.711   5.065   2.648
 1271TIP3    H1 3756   0.692   5.152   2.613
 1271TIP3    H2 3757   0.803   5.051   2.628
 1272TIP3   OH2 3758   2.675   6.578   0.518
 1272TIP3    H1 3759   2.699   6.549   0.430
 1272TIP3    H2 3760   2.725   6.520   0.577
 1273TIP3   OH2 3761   1.404   4.135   1.970
 1273TIP3    H1 3762   1.417   4.119   2.063
 1273TIP3    H2 3763   1.337   4.071   1.944
 1274TIP3   OH2 3764   6.515   2.831   4.757
 1274TIP3    H1 3765   6.474   2.908   4.797
 1274TIP3    H2 3766   6.600   2.824   4.800
 1275TIP3   OH2 3767   7.188   7.635   5.756
 1275TIP3    H1 3768   7.209   7.626   5.849
 1275TIP3    H2 3769   7.235   7.563   5.714
 1276TIP3   OH2 3770   3.114   1.373   4.435
 1276TIP3    H1 3771   3.204   1.401   4.418
 1276TIP3    H2 3772   3.122   1.283   4.467
 1277TIP3   OH2 3773   8.267   3.363   4.230
 1277TIP3    H1 3774   8.217   3.290   4.267
 1277TIP3    H2 3775   8.358   3.331   4.230
 1278TIP3   OH2 3776   5.070   4.531   0.973
 1278TIP3    H1 3777   4.995   4.472   0.981
 1278TIP3    H2 3778   5.034   4.610   0.932
 1279TIP3   OH2 3779   0.497   2.288   2.631
 1279TIP3    H1 3780   0.489   2.257   2.541
 1279TIP3    H2 3781   0.587   2.321   2.638
 1280TIP3   OH2 3782   5.773   6.375   0.702
 1280TIP3    H1 3783   5.799   6.319   0.775
 1280TIP3    H2 3784   5.836   6.447   0.702
 1281TIP3   OH2 3785   4.045   0.608   4.151
 1281TIP3    H1 3786   4.094   0.560   4.083
 1281TIP3    H2 3787   4.019   0.689   4.108
 1282TIP3   OH2 3788   2.797   0.773   5.984
 1282TIP3    H1 3789   2.791   0.790   5.890
 1282TIP3    H2 3790   2.869   0.710   5.993
 1283TIP3   OH2 3791   1.423   4.611   2.053
 1283TIP3    H1 3792   1.424   4.537   1.993
 1283TIP3    H2 3793   1.492   4.669   2.020
 1284TIP3   OH2 3794   3.491   3.689   4.712
 1284TIP3    H1 3795   3.577   3.731   4.718
 1284TIP3    H2 3796   3.510   3.597   4.695
 1285TIP3   OH2 3797   5.882   2.532   6.446
 1285TIP3    H1 3798   5.812   2.489   6.495
 1285TIP3    H2 3799   5.862   2.625   6.452
 1286TIP3   OH2 3800   2.371   0.348   0.264
 1286TIP3    H1 3801   2.410   0.261   0.271
 1286TIP3    H2 3802   2.433   0.406   0.309
 1287TIP3   OH2 3803   2.126   2.542   4.571
 1287TIP3    H1 3804   2.126   2.637   4.582
 1287TIP3    H2 3805   2.139   2.529   4.477
 1288TIP3   OH2 3806   7.992   0.885   5.388
 1288TIP3    H1 3807   7.945   0.926   5.315
 1288TIP3    H2 3808   7.940   0.807   5.409
 1289TIP3   OH2 3809   7.374   6.281   3.876
 1289TIP3    H1 3810   7.337   6.194   3.862
 1289TIP3    H2 3811   7.467   6.265   3.892
 1290TIP3   OH2 3812   8.190   1.313   5.418
 1290TIP3    H1 3813   8.095   1.307   5.404
 1290TIP3    H2 3814   8.225   1.340   5.334
 1291TIP3   OH2 3815   5.632   4.726   6.396
 1291TIP3    H1 3816   5.623   4.781   6.474
 1291TIP3    H2 3817   5.543   4.692   6.381
 1292TIP3   OH2 3818   6.925   1.521   1.535
 1292TIP3    H1 3819   7.018   1.523   1.554
 1292TIP3    H2 3820   6.903   1.609   1.506
 1293TIP3   OH2 3821   3.028   3.120   6.151
 1293TIP3    H1 3822   3.101   3.125   6.213
 1293TIP3    H2 3823   3.012   3.026   6.141
 1294TIP3   OH2 3824   7.059   3.928   3.943
 1294TIP3    H1 3825   7.121   3.866   3.981
 1294TIP3    H2 3826   7.112   4.007   3.927
 1295TIP3   OH2 3827   4.359   4.617   2.741
 1295TIP3    H1 3828   4.308   4.653   2.668
 1295TIP3    H2 3829   4.338   4.523   2.740
 1296TIP3   OH2 3830   5.689   0.247   3.746
 1296TIP3    H1 3831   5.712   0.246   3.653
 1296TIP3    H2 3832   5.658   0.336   3.762
 1297TIP3   OH2 3833   2.574   5.522   4.459
 1297TIP3    H1 3834   2.557   5.518   4.365
 1297TIP3    H2 3835   2.542   5.437   4.492
 1298TIP3   OH2 3836   3.738   4.298   6.067
 1298TIP3    H1 3837   3.643   4.287   6.068
 1298TIP3    H2 3838   3.768   4.249   6.145
 1299TIP3   OH2 3839   6.368   3.174   4.277
 1299TIP3    H1 3840   6.426   3.194   4.351
 1299TIP3    H2 3841   6.402   3.229   4.206
 1300TIP3   OH2 3842   4.595   5.941   3.292
 1300TIP3    H1 3843   4.607   5.894   3.375
 1300TIP3    H2 3844   4.653   5.897   3.230
 1301TIP3   OH2 3845   8.162   0.409   3.377
 1301TIP3    H1 3846   8.134   0.426   3.287
 1301TIP3    H2 3847   8.248   0.449   3.384
 1302TIP3   OH2 3848   5.699   3.822   5.717
 1302TIP3    H1 3849   5.683   3.775   5.799
 1302TIP3    H2 3850   5.794   3.832   5.713
 1303TIP3   OH2 3851   8.009   2.281   5.546
 1303TIP3    H1 3852   8.035   2.210   5.488
 1303TIP3    H2 3853   7.914   2.271   5.556
 1304TIP3   OH2 3854   1.908   2.148   6.468
 1304TIP3    H1 3855   1.820   2.167   6.501
 1304TIP3    H2 3856   1.916   2.202   6.389
 1305TIP3   OH2 3857   2.689   5.959   5.112
 1305TIP3    H1 3858   2.684   5.921   5.024
 1305TIP3    H2 3859   2.769   5.921   5.149
 1306TIP3   OH2 3860   1.752   6.021   2.589
 1306TIP3    H1 3861   1.718   6.019   2.499
 1306TIP3    H2 3862   1.815   5.949   2.591
 1307TIP3   OH2 3863   2.342   0.842   6.684
 1307TIP3    H1 3864   2.318   0.888   6.764
 1307TIP3    H2 3865   2.373   0.911   6.625
 1308TIP3   OH2 3866   4.901   7.804   2.867
 1308TIP3    H1 3867   4.950   7.771   2.943
 1308TIP3    H2 3868   4.950   7.881   2.839
 1309TIP3   OH2 3869   4.160   2.903   1.438
 1309TIP3    H1 3870   4.097   2.831   1.442
 1309TIP3    H2 3871   4.113   2.972   1.390
 1310TIP3   OH2 3872   1.716   5.179   4.812
 1310TIP3    H1 3873   1.679   5.170   4.724
 1310TIP3    H2 3874   1.769   5.101   4.824
 1311TIP3   OH2 3875   3.404   3.930   3.932
 1311TIP3    H1 3876   3.317   3.927   3.891
 1311TIP3    H2 3877   3.461   3.884   3.871
 1312TIP3   OH2 3878   4.105   5.403   5.937
 1312TIP3    H1 3879   4.090   5.343   5.864
 1312TIP3    H2 3880   4.186   5.448   5.915
 1313TIP3   OH2 3881   4.441   6.475   4.116
 1313TIP3    H1 3882   4.513   6.506   4.062
 1313TIP3    H2 3883   4.425   6.545   4.179
 1314TIP3   OH2 3884   6.442   2.532   4.091
 1314TIP3    H1 3885   6.424   2.475   4.166
 1314TIP3    H2 3886   6.442   2.620   4.127
 1315TIP3   OH2 3887   3.194   0.739   6.312
 1315TIP3    H1 3888   3.135   0.805   6.276
 1315TIP3    H2 3889   3.139   0.687   6.371
 1316TIP3   OH2 3890   5.590   6.222   4.476
 1316TIP3    H1 3891   5.666   6.264   4.436
 1316TIP3    H2 3892   5.596   6.131   4.449
 1317TIP3   OH2 3893   0.409   2.015   2.013
 1317TIP3    H1 3894   0.368   1.988   1.932
 1317TIP3    H2 3895   0.392   2.109   2.018
 1318TIP3   OH2 3896   6.200   4.757   4.450
 1318TIP3    H1 3897   6.191   4.662   4.441
 1318TIP3    H2 3898   6.116   4.785   4.487
 1319TIP3   OH2 3899   2.467   4.040   3.234
 1319TIP3    H1 3900   2.406   4.113   3.246
 1319TIP3    H2 3901   2.426   3.966   3.279
 1320TIP3   OH2 3902   7.105   2.165   4.307
 1320TIP3    H1 3903   7.124   2.074   4.286
 1320TIP3    H2 3904   7.186   2.198   4.346
 1321TIP3   OH2 3905   2.912   2.410   3.658
 1321TIP3    H1 3906   2.929   2.343   3.724
 1321TIP3    H2 3907   2.898   2.361   3.577
 1322TIP3   OH2 3908   5.815   1.647   6.662
 1322TIP3    H1 3909   5.805   1.556   6.689
 1322TIP3    H2 3910   5.894   1.647   6.607
 1323TIP3   OH2 3911   7.281   0.506   1.216
 1323TIP3    H1 3912   7.220   0.573   1.185
 1323TIP3    H2 3913   7.358   0.516   1.160
 1324TIP3   OH2 3914   4.079   2.269   2.948
 1324TIP3    H1 3915   4.147   2.322   2.989
 1324TIP3    H2 3916   4.067   2.195   3.008
 1325TIP3   OH2 3917   4.141   6.988   5.043
 1325TIP3    H1 3918   4.159   7.006   5.135
 1325TIP3    H2 3919   4.061   7.038   5.024
 1326TIP3   OH2 3920   4.894   6.542   2.954
 1326TIP3    H1 3921   4.933   6.618   2.909
 1326TIP3    H2 3922   4.800   6.558   2.950
 1327TIP3   OH2 3923   5.252   6.166   1.183
 1327TIP3    H1 3924   5.237   6.204   1.097
 1327TIP3    H2 3925   5.237   6.072   1.172
 1328TIP3   OH2 3926   6.125   7.727   0.882
 1328TIP3    H1 3927   6.089   7.657   0.828
 1328TIP3    H2 3928   6.128   7.803   0.823
 1329TIP3   OH2 3929   6.155   5.074   5.074
 1329TIP3    H1 3930   6.093   5.144   5.094
 1329TIP3    H2 3931   6.207   5.108   5.001
 1330TIP3   OH2 3932   5.715   3.718   0.232
 1330TIP3    H1 3933   5.800   3.675   0.225
 1330TIP3    H2 3934   5.712   3.778   0.158
 1331TIP3   OH2 3935   3.232   2.956   0.903
 1331TIP3    H1 3936   3.230   2.860   0.895
 1331TIP3    H2 3937   3.252   2.987   0.815
 1332TIP3   OH2 3938   2.915   6.810   3.552
 1332TIP3    H1 3939   2.988   6.749   3.551
 1332TIP3    H2 3940   2.868   6.789   3.633
 1333TIP3   OH2 3941   4.389   2.627   0.460
 1333TIP3    H1 3942   4.392   2.718   0.488
 1333TIP3    H2 3943   4.427   2.627   0.372
 1334TIP3   OH2 3944   3.253   4.650   5.732
 1334TIP3    H1 3945   3.157   4.653   5.732
 1334TIP3    H2 3946   3.275   4.563   5.699
 1335TIP3   OH2 3947   1.334   3.279   1.826
 1335TIP3    H1 3948   1.300   3.253   1.740
 1335TIP3    H2 3949   1.323   3.200   1.880
 1336TIP3   OH2 3950   6.473   3.797   3.679
 1336TIP3    H1 3951   6.460   3.851   3.601
 1336TIP3    H2 3952   6.511   3.856   3.744
 1337TIP3   OH2 3953   3.124   6.891   4.166
 1337TIP3    H1 3954   3.035   6.856   4.171
 1337TIP3    H2 3955   3.113   6.986   4.165
 1338TIP3   OH2 3956   7.635   7.383   6.143
 1338TIP3    H1 3957   7.598   7.420   6.223
 1338TIP3    H2 3958   7.688   7.310   6.172
 1339TIP3   OH2 3959   6.258   5.820   6.076
 1339TIP3    H1 3960   6.192   5.751   6.085
 1339TIP3    H2 3961   6.341   5.777   6.096
 1340TIP3   OH2 3962   3.275   3.855   1.357
 1340TIP3    H1 3963   3.327   3.893   1.286
 1340TIP3    H2 3964   3.250   3.929   1.411
 1341TIP3   OH2 3965   5.882   6.521   3.720
 1341TIP3    H1 3966   5.858   6.446   3.775
 1341TIP3    H2 3967   5.947   6.486   3.659
 1342TIP3   OH2 3968   4.837   0.127   1.894
 1342TIP3    H1 3969   4.914   0.089   1.937
 1342TIP3    H2 3970   4.811   0.198   1.952
 1343TIP3   OH2 3971   6.127   4.034   0.050
 1343TIP3    H1 3972   6.045   4.046   0.002
 1343TIP3    H2 3973   6.160   3.949   0.021
 1344TIP3   OH2 3974   5.510   0.382   3.152
 1344TIP3    H1 3975   5.430   0.422   3.117
 1344TIP3    H2 3976   5.479   0.304   3.198
 1345TIP3   OH2 3977   6.302   4.198   0.798
 1345TIP3    H1 3978   6.328   4.253   0.723
 1345TIP3    H2 3979   6.354   4.231   0.871
 1346TIP3   OH2 3980   5.338   0.860   4.778
 1346TIP3    H1 3981   5.311   0.772   4.754
 1346TIP3    H2 3982   5.381   0.894   4.699
 1347TIP3   OH2 3983   5.462   2.630   2.604
 1347TIP3    H1 3984   5.446   2.581   2.684
 1347TIP3    H2 3985   5.476   2.562   2.537
 1348TIP3   OH2 3986   0.097   3.895   2.387
 1348TIP3    H1 3987   0.187   3.925   2.403
 1348TIP3    H2 3988   0.062   3.957   2.323
 1349TIP3   OH2 3989   2.804   7.494   3.138
 1349TIP3    H1 3990   2.872   7.505   3.204
 1349TIP3    H2 3991   2.834   7.546   3.064
 1350TIP3   OH2 3992   4.320   3.385   4.573
 1350TIP3    H1 3993   4.306   3.458   4.513
 1350TIP3    H2 3994   4.380   3.326   4.528
 1351TIP3   OH2 3995   1.685   0.186   3.758
 1351TIP3    H1 3996   1.652   0.134   3.831
 1351TIP3    H2 3997   1.682   0.126   3.683
 1352TIP3   OH2 3998   0.722   6.594   0.796
 1352TIP3    H1 3999   0.663   6.609   0.870
 1352TIP3    H2 4000   0.801   6.644   0.818
 1353TIP3   OH2 4001   1.252   2.952   6.085
 1353TIP3    H1 4002   1.326   2.995   6.042
 1353TIP3    H2 4003   1.278   2.860   6.091
 1354TIP3   OH2 4004   2.402   3.247   1.984
 1354TIP3    H1 4005   2.448   3.189   2.044
 1354TIP3    H2 4006   2.389   3.195   1.905
 1355TIP3   OH2 4007   1.692   1.198   1.075
 1355TIP3    H1 4008   1.689   1.282   1.030
 1355TIP3    H2 4009   1.632   1.209   1.149
 1356TIP3   OH2 4010   5.792   4.862   0.544
 1356TIP3    H1 4011   5.771   4.890   0.633
 1356TIP3    H2 4012   5.885   4.842   0.546
 1357TIP3   OH2 4013   4.983   7.511   1.363
 1357TIP3    H1 4014   5.002   7.517   1.457
 1357TIP3    H2 4015   4.948   7.597   1.340
 1358TIP3   OH2 4016   5.709   4.482   6.728
 1358TIP3    H1 4017   5.653   4.499   6.653
 1358TIP3    H2 4018   5.692   4.555   6.788
 1359TIP3   OH2 4019   2.213   7.629   3.135
 1359TIP3    H1 4020   2.216   7.698   3.068
 1359TIP3    H2 4021   2.297   7.634   3.179
 1360TIP3   OH2 4022   3.959   7.721   6.361
 1360TIP3    H1 4023   3.971   7.743   6.453
 1360TIP3    H2 4024   3.925   7.802   6.321
 1361TIP3   OH2 4025   1.688   2.761   6.509
 1361TIP3    H1 4026   1.776   2.755   6.547
 1361TIP3    H2 4027   1.644   2.681   6.539
 1362TIP3   OH2 4028   3.016   5.915   4.856
 1362TIP3    H1 4029   3.012   5.843   4.793
 1362TIP3    H2 4030   3.071   5.981   4.814
 1363TIP3   OH2 4031   3.402   4.125   5.690
 1363TIP3    H1 4032   3.467   4.070   5.644
 1363TIP3    H2 4033   3.344   4.062   5.732
 1364TIP3   OH2 4034   7.725   5.230   3.378
 1364TIP3    H1 4035   7.699   5.308   3.329
 1364TIP3    H2 4036   7.813   5.210   3.348
 1365TIP3   OH2 4037   0.140   3.618   2.820
 1365TIP3    H1 4038   0.101   3.684   2.764
 1365TIP3    H2 4039   0.118   3.646   2.909
 1366TIP3   OH2 4040   7.171   0.710   5.916
 1366TIP3    H1 4041   7.218   0.681   5.838
 1366TIP3    H2 4042   7.234   0.767   5.961
 1367TIP3   OH2 4043   7.467   5.660   1.092
 1367TIP3    H1 4044   7.456   5.697   1.004
 1367TIP3    H2 4045   7.423   5.722   1.150
 1368TIP3   OH2 4046   4.969   6.993   6.262
 1368TIP3    H1 4047   4.882   7.033   6.265
 1368TIP3    H2 4048   4.952   6.902   6.235
 1369TIP3   OH2 4049   8.198   2.117   5.978
 1369TIP3    H1 4050   8.225   2.088   5.891
 1369TIP3    H2 4051   8.117   2.166   5.963
 1370TIP3   OH2 4052   1.928   1.392   5.651
 1370TIP3    H1 4053   1.924   1.346   5.735
 1370TIP3    H2 4054   1.864   1.347   5.596
 1371TIP3   OH2 4055   3.002   3.211   0.178
 1371TIP3    H1 4056   3.054   3.169   0.110
 1371TIP3    H2 4057   3.009   3.153   0.254
 1372TIP3   OH2 4058   3.408   3.705   0.372
 1372TIP3    H1 4059   3.484   3.660   0.410
 1372TIP3    H2 4060   3.336   3.644   0.385
 1373TIP3   OH2 4061   1.191   2.442   4.855
 1373TIP3    H1 4062   1.241   2.523   4.848
 1373TIP3    H2 4063   1.148   2.447   4.941
 1374TIP3   OH2 4064   4.731   4.815   5.518
 1374TIP3    H1 4065   4.648   4.858   5.539
 1374TIP3    H2 4066   4.777   4.810   5.602
 1375TIP3   OH2 4067   7.854   1.293   1.152
 1375TIP3    H1 4068   7.850   1.263   1.242
 1375TIP3    H2 4069   7.785   1.244   1.107
 1376TIP3   OH2 4070   4.316   5.197   5.678
 1376TIP3    H1 4071   4.334   5.141   5.754
 1376TIP3    H2 4072   4.221   5.198   5.672
 1377TIP3   OH2 4073   6.811   4.382   4.430
 1377TIP3    H1 4074   6.805   4.352   4.340
 1377TIP3    H2 4075   6.764   4.317   4.481
 1378TIP3   OH2 4076   0.207   1.096   5.018
 1378TIP3    H1 4077   0.133   1.055   5.062
 1378TIP3    H2 4078   0.280   1.086   5.079
 1379TIP3   OH2 4079   4.401   4.099   6.626
 1379TIP3    H1 4080   4.363   4.035   6.686
 1379TIP3    H2 4081   4.349   4.178   6.639
 1380TIP3   OH2 4082   2.473   0.997   6.276
 1380TIP3    H1 4083   2.444   0.907   6.295
 1380TIP3    H2 4084   2.402   1.035   6.225
 1381TIP3   OH2 4085   5.051   2.348   3.927
 1381TIP3    H1 4086   4.998   2.309   3.858
 1381TIP3    H2 4087   5.058   2.279   3.993
 1382TIP3   OH2 4088   3.742   3.949   0.168
 1382TIP3    H1 4089   3.776   4.005   0.098
 1382TIP3    H2 4090   3.676   3.895   0.125
 1383TIP3   OH2 4091   1.997   5.070   6.480
 1383TIP3    H1 4092   2.056   5.107   6.415
 1383TIP3    H2 4093   1.910   5.077   6.441
 1384TIP3   OH2 4094   4.696   0.994   4.739
 1384TIP3    H1 4095   4.618   0.999   4.684
 1384TIP3    H2 4096   4.696   0.904   4.773
 1385TIP3   OH2 4097   7.073   4.307   0.499
 1385TIP3    H1 4098   7.091   4.235   0.438
 1385TIP3    H2 4099   7.111   4.279   0.582
 1386TIP3   OH2 4100   6.433   0.245   2.811
 1386TIP3    H1 4101   6.506   0.197   2.771
 1386TIP3    H2 4102   6.363   0.242   2.745
 1387TIP3   OH2 4103   2.692   2.861   0.756
 1387TIP3    H1 4104   2.637   2.938   0.768
 1387TIP3    H2 4105   2.702   2.853   0.661
 1388TIP3   OH2 4106   0.673   0.873   1.119
 1388TIP3    H1 4107   0.706   0.917   1.040
 1388TIP3    H2 4108   0.749   0.826   1.154
 1389TIP3   OH2 4109   3.898   6.325   4.475
 1389TIP3    H1 4110   3.808   6.307   4.501
 1389TIP3    H2 4111   3.910   6.418   4.490
 1390TIP3   OH2 4112   0.960   4.154   1.508
 1390TIP3    H1 4113   1.021   4.218   1.471
 1390TIP3    H2 4114   0.890   4.206   1.545
 1391TIP3   OH2 4115   4.293   7.299   1.448
 1391TIP3    H1 4116   4.343   7.269   1.372
 1391TIP3    H2 4117   4.243   7.374   1.416
 1392TIP3   OH2 4118   6.824   7.832   3.714
 1392TIP3    H1 4119   6.897   7.770   3.708
 1392TIP3    H2 4120   6.776   7.819   3.632
 1393TIP3   OH2 4121   0.142   4.205   2.593
 1393TIP3    H1 4122   0.217   4.159   2.630
 1393TIP3    H2 4123   0.176   4.243   2.511
 1394TIP3   OH2 4124   7.134   3.778   5.670
 1394TIP3    H1 4125   7.205   3.781   5.606
 1394TIP3    H2 4126   7.070   3.717   5.632
 1395TIP3   OH2 4127   2.414   7.672   5.357
 1395TIP3    H1 4128   2.325   7.707   5.359
 1395TIP3    H2 4129   2.423   7.625   5.439
 1396TIP3   OH2 4130   2.415   3.105   3.462
 1396TIP3    H1 4131   2.336   3.057   3.489
 1396TIP3    H2 4132   2.382   3.174   3.403
 1397TIP3   OH2 4133   3.696   1.333   1.731
 1397TIP3    H1 4134   3.760   1.365   1.794
 1397TIP3    H2 4135   3.720   1.241   1.718
 1398TIP3   OH2 4136   2.560   1.642   0.738
 1398TIP3    H1 4137   2.523   1.563   0.699
 1398TIP3    H2 4138   2.531   1.640   0.829
 1399TIP3   OH2 4139   0.540   4.173   3.863
 1399TIP3    H1 4140   0.483   4.118   3.916
 1399TIP3    H2 4141   0.570   4.242   3.923
 1400TIP3   OH2 4142   7.955   4.201   3.701
 1400TIP3    H1 4143   7.901   4.179   3.625
 1400TIP3    H2 4144   8.029   4.249   3.664
 1401TIP3   OH2 4145   2.174   3.825   1.391
 1401TIP3    H1 4146   2.110   3.823   1.320
 1401TIP3    H2 4147   2.131   3.782   1.465
 1402TIP3   OH2 4148   4.314   3.081   1.610
 1402TIP3    H1 4149   4.342   3.037   1.691
 1402TIP3    H2 4150   4.252   3.020   1.570
 1403TIP3   OH2 4151   0.478   5.778   5.324
 1403TIP3    H1 4152   0.422   5.777   5.246
 1403TIP3    H2 4153   0.548   5.717   5.304
 1404TIP3   OH2 4154   5.096   1.249   1.022
 1404TIP3    H1 4155   5.013   1.225   1.063
 1404TIP3    H2 4156   5.082   1.237   0.928
 1405TIP3   OH2 4157   3.001   1.434   4.176
 1405TIP3    H1 4158   3.034   1.397   4.257
 1405TIP3    H2 4159   2.935   1.498   4.204
 1406TIP3   OH2 4160   6.606   7.503   3.716
 1406TIP3    H1 4161   6.577   7.420   3.754
 1406TIP3    H2 4162   6.533   7.563   3.730
 1407TIP3   OH2 4163   2.854   6.425   2.368
 1407TIP3    H1 4164   2.886   6.485   2.300
 1407TIP3    H2 4165   2.837   6.482   2.444
 1408TIP3   OH2 4166   5.807   0.468   2.733
 1408TIP3    H1 4167   5.830   0.415   2.656
 1408TIP3    H2 4168   5.872   0.444   2.799
 1409TIP3   OH2 4169   2.929   7.399   6.245
 1409TIP3    H1 4170   3.000   7.336   6.237
 1409TIP3    H2 4171   2.854   7.347   6.275
 1410TIP3   OH2 4172   5.412   4.042   5.292
 1410TIP3    H1 4173   5.471   3.975   5.328
 1410TIP3    H2 4174   5.329   4.026   5.336
 1411TIP3   OH2 4175   6.219   2.294   0.434
 1411TIP3    H1 4176   6.308   2.261   0.448
 1411TIP3    H2 4177   6.210   2.299   0.339
 1412TIP3   OH2 4178   1.280   2.913   0.739
 1412TIP3    H1 4179   1.304   2.826   0.706
 1412TIP3    H2 4180   1.217   2.896   0.808
 1413TIP3   OH2 4181   0.405   1.318   5.469
 1413TIP3    H1 4182   0.345   1.389   5.444
 1413TIP3    H2 4183   0.472   1.361   5.522
 1414TIP3   OH2 4184   0.932   3.567   6.065
 1414TIP3    H1 4185   0.950   3.480   6.029
 1414TIP3    H2 4186   0.838   3.568   6.080
 1415TIP3   OH2 4187   1.711   4.463   4.819
 1415TIP3    H1 4188   1.756   4.500   4.743
 1415TIP3    H2 4189   1.666   4.536   4.860
 1416TIP3   OH2 4190   5.562   4.503   0.271
 1416TIP3    H1 4191   5.571   4.486   0.364
 1416TIP3    H2 4192   5.585   4.595   0.260
 1417TIP3   OH2 4193   5.613   0.056   1.487
 1417TIP3    H1 4194   5.660  -0.009   1.434
 1417TIP3    H2 4195   5.521   0.046   1.461
 1418TIP3   OH2 4196   4.197   1.607   3.693
 1418TIP3    H1 4197   4.238   1.569   3.770
 1418TIP3    H2 4198   4.176   1.697   3.719
 1419TIP3   OH2 4199   7.124   3.200   2.298
 1419TIP3    H1 4200   7.056   3.142   2.262
 1419TIP3    H2 4201   7.205   3.172   2.256
 1420TIP3   OH2 4202   6.431   6.970   6.070
 1420TIP3    H1 4203   6.429   7.009   6.158
 1420TIP3    H2 4204   6.342   6.936   6.057
 1421TIP3   OH2 4205   6.719   7.568   3.067
 1421TIP3    H1 4206   6.632   7.532   3.051
 1421TIP3    H2 4207   6.705   7.663   3.068
 1422TIP3   OH2 4208   8.107   4.821   4.025
 1422TIP3    H1 4209   8.062   4.742   3.995
 1422TIP3    H2 4210   8.038   4.872   4.068
 1423TIP3   OH2 4211   0.068   7.372   0.313
 1423TIP3    H1 4212   0.135   7.383   0.379
 1423TIP3    H2 4213   0.058   7.458   0.273
 1424TIP3   OH2 4214   2.729   0.964   4.570
 1424TIP3    H1 4215   2.648   0.952   4.619
 1424TIP3    H2 4216   2.737   0.885   4.517
 1425TIP3   OH2 4217   3.744   3.913   6.683
 1425TIP3    H1 4218   3.763   3.887   6.773
 1425TIP3    H2 4219   3.812   3.871   6.631
 1426TIP3   OH2 4220   1.255   5.754   1.331
 1426TIP3    H1 4221   1.277   5.822   1.267
 1426TIP3    H2 4222   1.279   5.791   1.416
 1427TIP3   OH2 4223   7.040   0.870   2.203
 1427TIP3    H1 4224   7.101   0.796   2.201
 1427TIP3    H2 4225   6.954   0.830   2.188
 1428TIP3   OH2 4226   0.047   7.137   0.972
 1428TIP3    H1 4227   0.040   7.095   0.887
 1428TIP3    H2 4228   0.071   7.228   0.952
 1429TIP3   OH2 4229   4.379   2.867   0.558
 1429TIP3    H1 4230   4.309   2.931   0.569
 1429TIP3    H2 4231   4.360   2.799   0.623
 1430TIP3   OH2 4232   2.102   3.706   0.805
 1430TIP3    H1 4233   2.186   3.703   0.758
 1430TIP3    H2 4234   2.123   3.676   0.893
 1431TIP3   OH2 4235   0.732   7.566   2.553
 1431TIP3    H1 4236   0.763   7.611   2.474
 1431TIP3    H2 4237   0.750   7.627   2.624
 1432TIP3   OH2 4238   5.724   5.232   4.091
 1432TIP3    H1 4239   5.669   5.194   4.159
 1432TIP3    H2 4240   5.671   5.230   4.012
 1433TIP3   OH2 4241   0.545   6.590   3.692
 1433TIP3    H1 4242   0.578   6.503   3.713
 1433TIP3    H2 4243   0.531   6.588   3.597
 1434TIP3   OH2 4244   3.813   6.332   4.808
 1434TIP3    H1 4245   3.879   6.266   4.830
 1434TIP3    H2 4246   3.778   6.360   4.892
 1435TIP3   OH2 4247   6.067   7.141   3.407
 1435TIP3    H1 4248   5.978   7.150   3.373
 1435TIP3    H2 4249   6.120   7.120   3.331
 1436TIP3   OH2 4250   6.231   4.792   4.878
 1436TIP3    H1 4251   6.241   4.849   4.802
 1436TIP3    H2 4252   6.170   4.724   4.849
 1437TIP3   OH2 4253   4.194   1.895   3.666
 1437TIP3    H1 4254   4.249   1.972   3.651
 1437TIP3    H2 4255   4.110   1.917   3.627
 1438TIP3   OH2 4256   4.296   1.598   1.775
 1438TIP3    H1 4257   4.329   1.529   1.832
 1438TIP3    H2 4258   4.214   1.627   1.817
 1439TIP3   OH2 4259   5.019   4.059   4.823
 1439TIP3    H1 4260   5.017   3.993   4.893
 1439TIP3    H2 4261   5.109   4.059   4.792
 1440TIP3   OH2 4262   8.111   6.705   5.860
 1440TIP3    H1 4263   8.102   6.707   5.955
 1440TIP3    H2 4264   8.153   6.788   5.839
 1441TIP3   OH2 4265   6.162   0.921   1.700
 1441TIP3    H1 4266   6.120   0.880   1.625
 1441TIP3    H2 4267   6.218   0.853   1.737
 1442TIP3   OH2 4268   5.669   4.418   3.192
 1442TIP3    H1 4269   5.609   4.383   3.258
 1442TIP3    H2 4270   5.750   4.434   3.240
 1443TIP3   OH2 4271   1.392   5.434   5.499
 1443TIP3    H1 4272   1.352   5.391   5.574
 1443TIP3    H2 4273   1.318   5.476   5.454
 1444TIP3   OH2 4274   2.860   3.250   2.923
 1444TIP3    H1 4275   2.866   3.173   2.865
 1444TIP3    H2 4276   2.769   3.277   2.917
 1445TIP3   OH2 4277   0.956   0.984   2.079
 1445TIP3    H1 4278   1.047   1.011   2.094
 1445TIP3    H2 4279   0.915   1.060   2.039
 1446TIP3   OH2 4280   4.236   7.399   3.784
 1446TIP3    H1 4281   4.271   7.364   3.866
 1446TIP3    H2 4282   4.282   7.482   3.772
 1447TIP3   OH2 4283   1.619   4.686   4.300
 1447TIP3    H1 4284   1.683   4.713   4.366
 1447TIP3    H2 4285   1.617   4.590   4.307
 1448TIP3   OH2 4286   7.224   5.797   3.996
 1448TIP3    H1 4287   7.130   5.808   3.982
 1448TIP3    H2 4288   7.233   5.711   4.036
 1449TIP3   OH2 4289   0.052   0.376   4.560
 1449TIP3    H1 4290   0.056   0.427   4.641
 1449TIP3    H2 4291   0.131   0.401   4.512
 1450TIP3   OH2 4292   5.708   1.086   6.505
 1450TIP3    H1 4293   5.661   1.059   6.583
 1450TIP3    H2 4294   5.790   1.038   6.508
 1451TIP3   OH2 4295   2.389   5.139   2.870
 1451TIP3    H1 4296   2.460   5.161   2.810
 1451TIP3    H2 4297   2.415   5.055   2.909
 1452TIP3   OH2 4298   0.196   5.511   4.242
 1452TIP3    H1 4299   0.221   5.461   4.319
 1452TIP3    H2 4300   0.110   5.478   4.218
 1453TIP3   OH2 4301   6.970   6.575   3.343
 1453TIP3    H1 4302   7.052   6.620   3.321
 1453TIP3    H2 4303   6.985   6.484   3.318
 1454TIP3   OH2 4304   5.259   2.786   6.745
 1454TIP3    H1 4305   5.167   2.760   6.738
 1454TIP3    H2 4306   5.304   2.707   6.776
 1455TIP3   OH2 4307   4.839   7.765   3.862
 1455TIP3    H1 4308   4.870   7.676   3.844
 1455TIP3    H2 4309   4.891   7.794   3.936
 1456TIP3   OH2 4310  -0.002   1.469   4.437
 1456TIP3    H1 4311   0.087   1.435   4.444
 1456TIP3    H2 4312  -0.043   1.444   4.520
 1457TIP3   OH2 4313   7.211   6.147   3.583
 1457TIP3    H1 4314   7.263   6.193   3.516
 1457TIP3    H2 4315   7.122   6.147   3.548
 1458TIP3   OH2 4316   4.274   6.198   1.049
 1458TIP3    H1 4317   4.189   6.178   1.088
 1458TIP3    H2 4318   4.267   6.289   1.021
 1459TIP3   OH2 4319   6.758   4.228   1.652
 1459TIP3    H1 4320   6.812   4.241   1.731
 1459TIP3    H2 4321   6.784   4.143   1.619
 1460TIP3   OH2 4322   1.591   4.832   2.026
 1460TIP3    H1 4323   1.608   4.921   1.993
 1460TIP3    H2 4324   1.581   4.843   2.120
 1461TIP3   OH2 4325   5.448   0.251   4.517
 1461TIP3    H1 4326   5.402   0.202   4.449
 1461TIP3    H2 4327   5.512   0.189   4.552
 1462TIP3   OH2 4328   1.436   2.236   0.996
 1462TIP3    H1 4329   1.493   2.291   0.942
 1462TIP3    H2 4330   1.492   2.208   1.069
 1463TIP3   OH2 4331   1.654   0.529   0.029
 1463TIP3    H1 4332   1.577   0.480  -0.001
 1463TIP3    H2 4333   1.617   0.602   0.079
 1464TIP3   OH2 4334   5.918   7.561   2.463
 1464TIP3    H1 4335   5.833   7.585   2.501
 1464TIP3    H2 4336   5.951   7.491   2.519
 1465TIP3   OH2 4337   2.902   4.893   4.061
 1465TIP3    H1 4338   2.842   4.848   4.002
 1465TIP3    H2 4339   2.847   4.954   4.110
 1466TIP3   OH2 4340   2.571   4.827   2.542
 1466TIP3    H1 4341   2.519   4.777   2.479
 1466TIP3    H2 4342   2.582   4.913   2.501
 1467TIP3   OH2 4343   3.958   0.516   3.818
 1467TIP3    H1 4344   3.906   0.475   3.749
 1467TIP3    H2 4345   4.031   0.455   3.832
 1468TIP3   OH2 4346   7.677   1.555   1.819
 1468TIP3    H1 4347   7.707   1.643   1.795
 1468TIP3    H2 4348   7.600   1.570   1.873
 1469TIP3   OH2 4349   2.314   1.441   5.198
 1469TIP3    H1 4350   2.265   1.424   5.278
 1469TIP3    H2 4351   2.396   1.480   5.227
 1470TIP3   OH2 4352   0.855   0.037   2.969
 1470TIP3    H1 4353   0.773   0.017   3.014
 1470TIP3    H2 4354   0.836   0.023   2.877
 1471TIP3   OH2 4355   2.248   6.662   2.091
 1471TIP3    H1 4356   2.158   6.669   2.058
 1471TIP3    H2 4357   2.302   6.662   2.012
 1472TIP3   OH2 4358   6.645   5.908   4.545
 1472TIP3    H1 4359   6.643   5.812   4.542
 1472TIP3    H2 4360   6.556   5.934   4.569
 1473TIP3   OH2 4361   0.465   4.367   3.176
 1473TIP3    H1 4362   0.466   4.462   3.166
 1473TIP3    H2 4363   0.416   4.351   3.256
 1474TIP3   OH2 4364   5.378   2.345   4.141
 1474TIP3    H1 4365   5.395   2.250   4.141
 1474TIP3    H2 4366   5.458   2.383   4.178
 1475TIP3   OH2 4367   8.019   7.428   2.076
 1475TIP3    H1 4368   7.972   7.448   1.995
 1475TIP3    H2 4369   8.111   7.419   2.049
 1476TIP3   OH2 4370   5.968   5.218   5.391
 1476TIP3    H1 4371   6.055   5.254   5.373
 1476TIP3    H2 4372   5.922   5.223   5.307
 1477TIP3   OH2 4373   5.346   1.985   4.601
 1477TIP3    H1 4374   5.262   1.938   4.607
 1477TIP3    H2 4375   5.397   1.952   4.675
 1478TIP3   OH2 4376   6.024   1.043   6.267
 1478TIP3    H1 4377   6.036   1.118   6.325
 1478TIP3    H2 4378   6.113   1.022   6.237
 1479TIP3   OH2 4379   0.690   4.287   2.123
 1479TIP3    H1 4380   0.684   4.294   2.028
 1479TIP3    H2 4381   0.617   4.340   2.156
 1480TIP3   OH2 4382   0.257   2.616   0.493
 1480TIP3    H1 4383   0.210   2.536   0.516
 1480TIP3    H2 4384   0.329   2.621   0.556
 1481TIP3   OH2 4385   5.453   4.232   1.830
 1481TIP3    H1 4386   5.485   4.298   1.768
 1481TIP3    H2 4387   5.511   4.241   1.906
 1482TIP3   OH2 4388   7.300   3.240   1.614
 1482TIP3    H1 4389   7.263   3.317   1.570
 1482TIP3    H2 4390   7.351   3.276   1.686
 1483TIP3   OH2 4391   0.833   6.886   0.746
 1483TIP3    H1 4392   0.882   6.966   0.726
 1483TIP3    H2 4393   0.892   6.815   0.722
 1484TIP3   OH2 4394   6.838   0.186   5.096
 1484TIP3    H1 4395   6.870   0.266   5.137
 1484TIP3    H2 4396   6.883   0.115   5.142
 1485TIP3   OH2 4397   2.497   1.554   4.773
 1485TIP3    H1 4398   2.535   1.632   4.733
 1485TIP3    H2 4399   2.572   1.501   4.798
 1486TIP3   OH2 4400   7.843   2.156   0.501
 1486TIP3    H1 4401   7.924   2.151   0.450
 1486TIP3    H2 4402   7.872   2.179   0.590
 1487TIP3   OH2 4403   2.165   2.038   4.525
 1487TIP3    H1 4404   2.232   2.098   4.493
 1487TIP3    H2 4405   2.100   2.094   4.567
 1488TIP3   OH2 4406   0.283   6.875   0.590
 1488TIP3    H1 4407   0.367   6.869   0.637
 1488TIP3    H2 4408   0.253   6.784   0.584
 1489TIP3   OH2 4409   3.194   3.917   5.292
 1489TIP3    H1 4410   3.222   3.832   5.259
 1489TIP3    H2 4411   3.199   3.908   5.387
 1490TIP3   OH2 4412   4.380   5.478   6.395
 1490TIP3    H1 4413   4.425   5.396   6.411
 1490TIP3    H2 4414   4.335   5.498   6.478
 1491TIP3   OH2 4415   2.874   1.488   1.126
 1491TIP3    H1 4416   2.911   1.485   1.214
 1491TIP3    H2 4417   2.835   1.575   1.119
 1492TIP3   OH2 4418   5.459   2.491   3.374
 1492TIP3    H1 4419   5.544   2.456   3.346
 1492TIP3    H2 4420   5.425   2.535   3.296
 1493TIP3   OH2 4421   4.131   0.491   5.054
 1493TIP3    H1 4422   4.163   0.505   5.143
 1493TIP3    H2 4423   4.162   0.567   5.005
 1494TIP3   OH2 4424   0.102   0.065   3.399
 1494TIP3    H1 4425   0.154   0.020   3.333
 1494TIP3    H2 4426   0.155   0.059   3.479
 1495TIP3   OH2 4427   3.037   1.719   3.200
 1495TIP3    H1 4428   2.988   1.697   3.121
 1495TIP3    H2 4429   3.008   1.654   3.265
 1496TIP3   OH2 4430   4.150   2.743   2.710
 1496TIP3    H1 4431   4.172   2.730   2.803
 1496TIP3    H2 4432   4.062   2.781   2.712
 1497TIP3   OH2 4433   4.082   5.776   6.220
 1497TIP3    H1 4434   4.080   5.847   6.156
 1497TIP3    H2 4435   4.156   5.721   6.192
 1498TIP3   OH2 4436   5.100   2.620   2.778
 1498TIP3    H1 4437   5.132   2.583   2.696
 1498TIP3    H2 4438   5.024   2.673   2.753
 1499TIP3   OH2 4439   4.292   3.989   4.416
 1499TIP3    H1 4440   4.336   3.949   4.491
 1499TIP3    H2 4441   4.206   4.016   4.449
 1500TIP3   OH2 4442   8.300   3.334   0.275
 1500TIP3    H1 4443   8.281   3.242   0.257
 1500TIP3    H2 4444   8.261   3.351   0.361
 1501TIP3   OH2 4445   6.877   5.020   5.738
 1501TIP3    H1 4446   6.890   5.018   5.643
 1501TIP3    H2 4447   6.848   4.932   5.761
 1502TIP3   OH2 4448   3.946   7.161   2.671
 1502TIP3    H1 4449   3.853   7.180   2.663
 1502TIP3    H2 4450   3.989   7.243   2.647
 1503TIP3   OH2 4451   3.396   5.265   2.613
 1503TIP3    H1 4452   3.396   5.251   2.519
 1503TIP3    H2 4453   3.489   5.270   2.637
 1504TIP3   OH2 4454   5.910   1.212   0.332
 1504TIP3    H1 4455   5.831   1.264   0.319
 1504TIP3    H2 4456   5.898   1.136   0.274
 1505TIP3   OH2 4457   7.277   0.418   5.312
 1505TIP3    H1 4458   7.287   0.432   5.218
 1505TIP3    H2 4459   7.357   0.453   5.350
 1506TIP3   OH2 4460   1.688   3.555   6.363
 1506TIP3    H1 4461   1.641   3.614   6.421
 1506TIP3    H2 4462   1.776   3.550   6.400
 1507TIP3   OH2 4463   7.714   6.439   0.673
 1507TIP3    H1 4464   7.753   6.469   0.591
 1507TIP3    H2 4465   7.784   6.390   0.716
 1508TIP3   OH2 4466   3.375   0.665   1.063
 1508TIP3    H1 4467   3.336   0.724   1.127
 1508TIP3    H2 4468   3.446   0.715   1.023
 1509TIP3   OH2 4469   6.114   2.067   4.022
 1509TIP3    H1 4470   6.022   2.080   4.047
 1509TIP3    H2 4471   6.162   2.075   4.104
 1510TIP3   OH2 4472   0.333   5.852   2.780
 1510TIP3    H1 4473   0.249   5.864   2.825
 1510TIP3    H2 4474   0.353   5.937   2.741
 1511TIP3   OH2 4475   6.817   6.357   5.566
 1511TIP3    H1 4476   6.822   6.451   5.586
 1511TIP3    H2 4477   6.733   6.330   5.603
 1512TIP3   OH2 4478   8.233   2.763   0.906
 1512TIP3    H1 4479   8.267   2.769   0.995
 1512TIP3    H2 4480   8.174   2.688   0.907
 1513TIP3   OH2 4481   7.170   6.773   2.556
 1513TIP3    H1 4482   7.149   6.801   2.467
 1513TIP3    H2 4483   7.265   6.769   2.558
 1514TIP3   OH2 4484   2.636   3.915   3.059
 1514TIP3    H1 4485   2.644   3.977   2.987
 1514TIP3    H2 4486   2.581   3.958   3.124
 1515TIP3   OH2 4487   4.514   1.870   4.790
 1515TIP3    H1 4488   4.467   1.787   4.796
 1515TIP3    H2 4489   4.597   1.847   4.746
 1516TIP3   OH2 4490   1.439   7.787   2.643
 1516TIP3    H1 4491   1.388   7.811   2.566
 1516TIP3    H2 4492   1.524   7.759   2.607
 1517TIP3   OH2 4493   7.891   6.040   5.381
 1517TIP3    H1 4494   7.934   6.062   5.298
 1517TIP3    H2 4495   7.886   6.123   5.428
 1518TIP3   OH2 4496   7.314   7.065   4.591
 1518TIP3    H1 4497   7.254   7.109   4.531
 1518TIP3    H2 4498   7.263   7.051   4.670
 1519TIP3   OH2 4499   1.715   3.783   6.603
 1519TIP3    H1 4500   1.809   3.795   6.588
 1519TIP3    H2 4501   1.706   3.692   6.632
 1520TIP3   OH2 4502   2.284   2.583   3.040
 1520TIP3    H1 4503   2.261   2.636   2.965
 1520TIP3    H2 4504   2.293   2.494   3.006
 1521TIP3   OH2 4505   6.543   3.219   5.666
 1521TIP3    H1 4506   6.585   3.264   5.738
 1521TIP3    H2 4507   6.593   3.244   5.588
 1522TIP3   OH2 4508   3.814   1.771   2.411
 1522TIP3    H1 4509   3.870   1.845   2.436
 1522TIP3    H2 4510   3.764   1.803   2.336
 1523TIP3   OH2 4511   3.492   2.802   2.438
 1523TIP3    H1 4512   3.481   2.782   2.531
 1523TIP3    H2 4513   3.583   2.831   2.431
 1524TIP3   OH2 4514   6.082   4.534   0.720
 1524TIP3    H1 4515   6.145   4.466   0.695
 1524TIP3    H2 4516   5.998   4.488   0.723
 1525TIP3   OH2 4517   8.209   3.881   6.007
 1525TIP3    H1 4518   8.135   3.942   6.005
 1525TIP3    H2 4519   8.284   3.935   6.029
 1526TIP3   OH2 4520   1.801   3.380   5.590
 1526TIP3    H1 4521   1.893   3.389   5.565
 1526TIP3    H2 4522   1.774   3.470   5.611
 1527TIP3   OH2 4523   4.310   2.372   5.916
 1527TIP3    H1 4524   4.366   2.448   5.929
 1527TIP3    H2 4525   4.240   2.382   5.981
 1528TIP3   OH2 4526   2.296   6.887   0.643
 1528TIP3    H1 4527   2.325   6.897   0.734
 1528TIP3    H2 4528   2.311   6.794   0.624
 1529TIP3   OH2 4529   7.722   1.335   1.630
 1529TIP3    H1 4530   7.693   1.387   1.705
 1529TIP3    H2 4531   7.783   1.392   1.584
 1530TIP3   OH2 4532   8.288   2.491   0.060
 1530TIP3    H1 4533   8.228   2.562   0.084
 1530TIP3    H2 4534   8.268   2.472  -0.032
 1531TIP3   OH2 4535   5.388   5.192   6.070
 1531TIP3    H1 4536   5.385   5.139   6.150
 1531TIP3    H2 4537   5.465   5.248   6.080
 1532TIP3   OH2 4538   4.656   2.971   5.441
 1532TIP3    H1 4539   4.633   3.049   5.492
 1532TIP3    H2 4540   4.691   2.910   5.505
 1533TIP3   OH2 4541   8.252   7.291   3.445
 1533TIP3    H1 4542   8.307   7.281   3.367
 1533TIP3    H2 4543   8.278   7.220   3.503
 1534TIP3   OH2 4544   2.039   6.757   4.775
 1534TIP3    H1 4545   1.956   6.710   4.763
 1534TIP3    H2 4546   2.057   6.795   4.689
 1535TIP3   OH2 4547   4.053   7.695   5.030
 1535TIP3    H1 4548   4.029   7.781   4.995
 1535TIP3    H2 4549   4.043   7.704   5.125
 1536TIP3   OH2 4550   5.989   7.152   6.135
 1536TIP3    H1 4551   5.895   7.137   6.149
 1536TIP3    H2 4552   6.020   7.185   6.220
 1537TIP3   OH2 4553   3.554   3.401   3.706
 1537TIP3    H1 4554   3.518   3.487   3.685
 1537TIP3    H2 4555   3.512   3.342   3.644
 1538TIP3   OH2 4556   2.148   3.106   0.057
 1538TIP3    H1 4557   2.213   3.036   0.052
 1538TIP3    H2 4558   2.167   3.151   0.139
 1539TIP3   OH2 4559   2.652   1.527   2.270
 1539TIP3    H1 4560   2.641   1.584   2.193
 1539TIP3    H2 4561   2.599   1.450   2.250
 1540TIP3   OH2 4562   1.371   5.903   6.059
 1540TIP3    H1 4563   1.303   5.944   6.005
 1540TIP3    H2 4564   1.425   5.977   6.089
 1541TIP3   OH2 4565   7.782   5.455   0.660
 1541TIP3    H1 4566   7.867   5.430   0.698
 1541TIP3    H2 4567   7.718   5.425   0.725
 1542TIP3   OH2 4568   3.434   2.785   4.276
 1542TIP3    H1 4569   3.470   2.847   4.339
 1542TIP3    H2 4570   3.371   2.836   4.225
 1543TIP3   OH2 4571   7.892   5.934   0.294
 1543TIP3    H1 4572   7.911   5.842   0.275
 1543TIP3    H2 4573   7.977   5.974   0.311
 1544TIP3   OH2 4574   7.206   5.650   2.331
 1544TIP3    H1 4575   7.283   5.637   2.387
 1544TIP3    H2 4576   7.147   5.579   2.356
 1545TIP3   OH2 4577   4.973   6.899   3.915
 1545TIP3    H1 4578   5.039   6.949   3.866
 1545TIP3    H2 4579   4.990   6.808   3.891
 1546TIP3   OH2 4580   4.770   5.009   4.828
 1546TIP3    H1 4581   4.834   5.025   4.759
 1546TIP3    H2 4582   4.685   5.015   4.783
 1547TIP3   OH2 4583   6.200   5.671   5.357
 1547TIP3    H1 4584   6.178   5.716   5.439
 1547TIP3    H2 4585   6.142   5.710   5.291
 1548TIP3   OH2 4586   1.173   5.562   5.403
 1548TIP3    H1 4587   1.105   5.494   5.404
 1548TIP3    H2 4588   1.160   5.610   5.485
 1549TIP3   OH2 4589   1.685   0.099   2.454
 1549TIP3    H1 4590   1.736   0.132   2.528
 1549TIP3    H2 4591   1.665   0.176   2.401
 1550TIP3   OH2 4592   6.009   2.090   2.180
 1550TIP3    H1 4593   6.015   2.183   2.157
 1550TIP3    H2 4594   5.931   2.059   2.134
 1551TIP3   OH2 4595   0.941   0.335   5.493
 1551TIP3    H1 4596   0.953   0.420   5.534
 1551TIP3    H2 4597   0.944   0.353   5.399
 1552TIP3   OH2 4598   6.854   6.621   5.642
 1552TIP3    H1 4599   6.793   6.671   5.696
 1552TIP3    H2 4600   6.939   6.635   5.683
 1553TIP3   OH2 4601   4.381   4.655   5.780
 1553TIP3    H1 4602   4.296   4.656   5.825
 1553TIP3    H2 4603   4.384   4.569   5.738
 1554TIP3   OH2 4604   2.761   7.108   2.809
 1554TIP3    H1 4605   2.676   7.117   2.852
 1554TIP3    H2 4606   2.752   7.155   2.727
 1555TIP3   OH2 4607   3.853   6.386   1.579
 1555TIP3    H1 4608   3.910   6.401   1.654
 1555TIP3    H2 4609   3.828   6.294   1.587
 1556TIP3   OH2 4610   5.896   5.610   0.428
 1556TIP3    H1 4611   5.896   5.517   0.407
 1556TIP3    H2 4612   5.944   5.617   0.510
 1557TIP3   OH2 4613   6.732   7.451   2.236
 1557TIP3    H1 4614   6.786   7.494   2.170
 1557TIP3    H2 4615   6.795   7.405   2.291
 1558TIP3   OH2 4616   4.435   7.681   4.579
 1558TIP3    H1 4617   4.395   7.701   4.494
 1558TIP3    H2 4618   4.390   7.602   4.609
 1559TIP3   OH2 4619   3.043   7.367   6.566
 1559TIP3    H1 4620   3.086   7.293   6.608
 1559TIP3    H2 4621   3.104   7.395   6.497
 1560TIP3   OH2 4622   4.383   6.914   4.510
 1560TIP3    H1 4623   4.456   6.852   4.517
 1560TIP3    H2 4624   4.340   6.892   4.428
 1561TIP3   OH2 4625   4.934   5.446   4.912
 1561TIP3    H1 4626   4.962   5.467   5.001
 1561TIP3    H2 4627   4.840   5.432   4.919
 1562TIP3   OH2 4628   6.889   2.184   2.416
 1562TIP3    H1 4629   6.902   2.135   2.497
 1562TIP3    H2 4630   6.834   2.259   2.441
 1563TIP3   OH2 4631   3.044   3.969   4.534
 1563TIP3    H1 4632   3.076   3.908   4.601
 1563TIP3    H2 4633   2.964   4.005   4.572
 1564TIP3   OH2 4634   7.062   3.346   4.578
 1564TIP3    H1 4635   7.099   3.418   4.629
 1564TIP3    H2 4636   7.078   3.268   4.631
 1565TIP3   OH2 4637   7.963   2.090   2.723
 1565TIP3    H1 4638   7.869   2.073   2.722
 1565TIP3    H2 4639   7.993   2.059   2.809
 1566TIP3   OH2 4640   3.158   4.007   4.099
 1566TIP3    H1 4641   3.079   4.008   4.045
 1566TIP3    H2 4642   3.228   3.980   4.039
 1567TIP3   OH2 4643   1.910   4.527   5.015
 1567TIP3    H1 4644   1.862   4.484   4.945
 1567TIP3    H2 4645   1.843   4.573   5.066
 1568TIP3   OH2 4646   1.973   7.614   0.593
 1568TIP3    H1 4647   2.052   7.583   0.548
 1568TIP3    H2 4648   1.995   7.704   0.619
 1569TIP3   OH2 4649   5.748   4.942   0.806
 1569TIP3    H1 4650   5.812   5.006   0.837
 1569TIP3    H2 4651   5.732   4.886   0.882
 1570TIP3   OH2 4652   4.625   5.564   5.500
 1570TIP3    H1 4653   4.538   5.598   5.477
 1570TIP3    H2 4654   4.683   5.639   5.490
 1571TIP3   OH2 4655   4.759   7.598   2.973
 1571TIP3    H1 4656   4.719   7.640   3.049
 1571TIP3    H2 4657   4.802   7.670   2.927
 1572TIP3   OH2 4658   3.517   2.205   1.501
 1572TIP3    H1 4659   3.451   2.217   1.432
 1572TIP3    H2 4660   3.489   2.265   1.571
 1573TIP3   OH2 4661   2.685   1.126   4.965
 1573TIP3    H1 4662   2.619   1.157   4.903
 1573TIP3    H2 4663   2.768   1.159   4.929
 1574TIP3   OH2 4664   1.312   0.306   5.847
 1574TIP3    H1 4665   1.375   0.243   5.811
 1574TIP3    H2 4666   1.309   0.285   5.941
 1575TIP3   OH2 4667   1.972   7.042   4.538
 1575TIP3    H1 4668   1.919   7.122   4.531
 1575TIP3    H2 4669   2.000   7.024   4.449
 1576TIP3   OH2 4670   0.847   6.481   2.579
 1576TIP3    H1 4671   0.832   6.450   2.668
 1576TIP3    H2 4672   0.941   6.467   2.564
 1577TIP3   OH2 4673   0.188   6.613   0.579
 1577TIP3    H1 4674   0.258   6.568   0.533
 1577TIP3    H2 4675   0.109   6.564   0.556
 1578TIP3   OH2 4676   4.337   1.784   3.926
 1578TIP3    H1 4677   4.367   1.850   3.988
 1578TIP3    H2 4678   4.350   1.825   3.840
 1579TIP3   OH2 4679   6.713   3.104   6.466
 1579TIP3    H1 4680   6.685   3.127   6.555
 1579TIP3    H2 4681   6.726   3.010   6.469
 1580TIP3   OH2 4682   7.150   7.151   1.125
 1580TIP3    H1 4683   7.198   7.085   1.074
 1580TIP3    H2 4684   7.073   7.104   1.158
 1581TIP3   OH2 4685   5.371   7.258   6.587
 1581TIP3    H1 4686   5.347   7.264   6.679
 1581TIP3    H2 4687   5.320   7.184   6.554
 1582TIP3   OH2 4688   3.134   6.039   5.289
 1582TIP3    H1 4689   3.182   6.113   5.253
 1582TIP3    H2 4690   3.200   5.984   5.330
 1583TIP3   OH2 4691   8.192   5.008   2.511
 1583TIP3    H1 4692   8.159   5.095   2.537
 1583TIP3    H2 4693   8.145   4.947   2.567
 1584TIP3   OH2 4694   1.564   2.982   5.687
 1584TIP3    H1 4695   1.608   2.913   5.737
 1584TIP3    H2 4696   1.622   2.998   5.612
 1585TIP3   OH2 4697   4.396   0.269   3.247
 1585TIP3    H1 4698   4.386   0.360   3.219
 1585TIP3    H2 4699   4.349   0.264   3.331
 1586TIP3   OH2 4700   3.526   7.478   4.395
 1586TIP3    H1 4701   3.545   7.541   4.326
 1586TIP3    H2 4702   3.448   7.431   4.363
 1587TIP3   OH2 4703   1.996   5.163   2.522
 1587TIP3    H1 4704   2.053   5.163   2.599
 1587TIP3    H2 4705   1.982   5.071   2.503
 1588TIP3   OH2 4706   2.918   7.596   0.500
 1588TIP3    H1 4707   2.929   7.577   0.593
 1588TIP3    H2 4708   2.931   7.511   0.457
 1589TIP3   OH2 4709   2.117   0.873   4.534
 1589TIP3    H1 4710   2.169   0.947   4.501
 1589TIP3    H2 4711   2.037   0.914   4.567
 1590TIP3   OH2 4712   6.640   7.101   3.608
 1590TIP3    H1 4713   6.683   7.016   3.610
 1590TIP3    H2 4714   6.636   7.129   3.700
 1591TIP3   OH2 4715   3.244   6.431   1.610
 1591TIP3    H1 4716   3.224   6.512   1.657
 1591TIP3    H2 4717   3.222   6.362   1.673
 1592TIP3   OH2 4718   0.359   2.412   6.348
 1592TIP3    H1 4719   0.412   2.339   6.317
 1592TIP3    H2 4720   0.420   2.486   6.353
 1593TIP3   OH2 4721   2.029   6.774   2.789
 1593TIP3    H1 4722   2.100   6.711   2.779
 1593TIP3    H2 4723   2.071   6.860   2.785
 1594TIP3   OH2 4724   6.010   0.428   3.454
 1594TIP3    H1 4725   6.021   0.523   3.444
 1594TIP3    H2 4726   5.915   0.416   3.460
 1595TIP3   OH2 4727   6.404   1.222   1.457
 1595TIP3    H1 4728   6.339   1.205   1.525
 1595TIP3    H2 4729   6.488   1.217   1.502
 1596TIP3   OH2 4730   6.217   4.235   0.336
 1596TIP3    H1 4731   6.189   4.144   0.323
 1596TIP3    H2 4732   6.137   4.283   0.355
 1597TIP3   OH2 4733   5.708   4.246   0.948
 1597TIP3    H1 4734   5.767   4.174   0.971
 1597TIP3    H2 4735   5.630   4.202   0.913
 1598TIP3   OH2 4736   6.784   5.414   2.404
 1598TIP3    H1 4737   6.730   5.424   2.325
 1598TIP3    H2 4738   6.781   5.320   2.423
 1599TIP3   OH2 4739   5.603   0.105   2.327
 1599TIP3    H1 4740   5.678   0.050   2.303
 1599TIP3    H2 4741   5.555   0.118   2.244
 1600TIP3   OH2 4742   0.731   0.404   4.816
 1600TIP3    H1 4743   0.733   0.499   4.803
 1600TIP3    H2 4744   0.689   0.370   4.737
 1601TIP3   OH2 4745   4.391   6.617   2.628
 1601TIP3    H1 4746   4.468   6.616   2.685
 1601TIP3    H2 4747   4.347   6.699   2.650
 1602TIP3   OH2 4748   4.447   0.639   4.914
 1602TIP3    H1 4749   4.400   0.573   4.863
 1602TIP3    H2 4750   4.431   0.721   4.867
 1603TIP3   OH2 4751   0.738   6.616   1.305
 1603TIP3    H1 4752   0.695   6.531   1.315
 1603TIP3    H2 4753   0.665   6.678   1.298
 1604TIP3   OH2 4754   2.264   4.882   2.335
 1604TIP3    H1 4755   2.315   4.947   2.383
 1604TIP3    H2 4756   2.329   4.821   2.300
 1605TIP3   OH2 4757   3.820   3.337   6.071
 1605TIP3    H1 4758   3.802   3.246   6.095
 1605TIP3    H2 4759   3.904   3.334   6.024
 1606TIP3   OH2 4760   3.089   6.868   1.065
 1606TIP3    H1 4761   3.128   6.950   1.097
 1606TIP3    H2 4762   3.098   6.873   0.970
 1607TIP3   OH2 4763   0.703   3.890   3.961
 1607TIP3    H1 4764   0.786   3.863   3.999
 1607TIP3    H2 4765   0.696   3.983   3.981
 1608TIP3   OH2 4766   0.351   0.767   0.332
 1608TIP3    H1 4767   0.275   0.771   0.275
 1608TIP3    H2 4768   0.423   0.741   0.274
 1609TIP3   OH2 4769   5.358   4.197   3.573
 1609TIP3    H1 4770   5.265   4.176   3.564
 1609TIP3    H2 4771   5.399   4.154   3.498
 1610TIP3   OH2 4772   4.274   0.161   4.244
 1610TIP3    H1 4773   4.305   0.154   4.335
 1610TIP3    H2 4774   4.354   0.156   4.192
 1611TIP3   OH2 4775   3.347   3.028   5.292
 1611TIP3    H1 4776   3.291   2.971   5.344
 1611TIP3    H2 4777   3.389   2.969   5.229
 1612TIP3   OH2 4778   1.530   5.459   3.876
 1612TIP3    H1 4779   1.621   5.482   3.856
 1612TIP3    H2 4780   1.482   5.541   3.864
 1613TIP3   OH2 4781   6.755   3.008   5.564
 1613TIP3    H1 4782   6.680   2.990   5.621
 1613TIP3    H2 4783   6.827   2.960   5.604
 1614TIP3   OH2 4784   6.954   2.172   5.582
 1614TIP3    H1 4785   6.954   2.098   5.643
 1614TIP3    H2 4786   7.035   2.218   5.600
 1615TIP3   OH2 4787   4.481   6.405   6.227
 1615TIP3    H1 4788   4.418   6.472   6.255
 1615TIP3    H2 4789   4.452   6.325   6.272
 1616TIP3   OH2 4790   4.702   2.133   6.005
 1616TIP3    H1 4791   4.751   2.149   6.086
 1616TIP3    H2 4792   4.750   2.062   5.962
 1617TIP3   OH2 4793   4.960   5.679   1.366
 1617TIP3    H1 4794   4.886   5.723   1.325
 1617TIP3    H2 4795   5.011   5.646   1.292
 1618TIP3   OH2 4796   7.815   2.110   1.338
 1618TIP3    H1 4797   7.809   2.125   1.244
 1618TIP3    H2 4798   7.892   2.053   1.349
 1619TIP3   OH2 4799   8.173   0.118   3.781
 1619TIP3    H1 4800   8.198   0.028   3.803
 1619TIP3    H2 4801   8.106   0.141   3.845
 1620TIP3   OH2 4802   2.211   7.600   0.432
 1620TIP3    H1 4803   2.287   7.646   0.397
 1620TIP3    H2 4804   2.247   7.533   0.490
 1621TIP3   OH2 4805   4.981   0.954   3.050
 1621TIP3    H1 4806   5.042   0.891   3.013
 1621TIP3    H2 4807   5.009   0.965   3.141
 1622TIP3   OH2 4808   0.086   0.104   3.097
 1622TIP3    H1 4809   0.103   0.162   3.171
 1622TIP3    H2 4810   0.124   0.149   3.021
 1623TIP3   OH2 4811   6.635   2.000   4.882
 1623TIP3    H1 4812   6.663   1.915   4.848
 1623TIP3    H2 4813   6.603   1.982   4.970
 1624TIP3   OH2 4814   7.892   3.284   4.513
 1624TIP3    H1 4815   7.914   3.220   4.446
 1624TIP3    H2 4816   7.965   3.345   4.514
 1625TIP3   OH2 4817   7.212   6.112   0.707
 1625TIP3    H1 4818   7.166   6.136   0.626
 1625TIP3    H2 4819   7.280   6.179   0.717
 1626TIP3   OH2 4820   3.389   7.069   6.676
 1626TIP3    H1 4821   3.386   7.040   6.585
 1626TIP3    H2 4822   3.380   6.988   6.727
 1627TIP3   OH2 4823   5.108   4.284   5.443
 1627TIP3    H1 4824   5.199   4.259   5.463
 1627TIP3    H2 4825   5.091   4.245   5.357
 1628TIP3   OH2 4826   0.243   7.053   4.261
 1628TIP3    H1 4827   0.300   7.113   4.311
 1628TIP3    H2 4828   0.304   6.996   4.215
 1629TIP3   OH2 4829   3.985   6.906   0.621
 1629TIP3    H1 4830   3.897   6.929   0.649
 1629TIP3    H2 4831   3.972   6.852   0.543
 1630TIP3   OH2 4832   1.699   7.143   3.265
 1630TIP3    H1 4833   1.709   7.062   3.214
 1630TIP3    H2 4834   1.609   7.170   3.249
 1631TIP3   OH2 4835   0.784   0.080   0.924
 1631TIP3    H1 4836   0.728   0.003   0.928
 1631TIP3    H2 4837   0.797   0.096   0.831
 1632TIP3   OH2 4838   6.025   2.639   1.307
 1632TIP3    H1 4839   6.113   2.637   1.344
 1632TIP3    H2 4840   6.038   2.639   1.213
 1633TIP3   OH2 4841   2.501   6.573   0.872
 1633TIP3    H1 4842   2.587   6.554   0.835
 1633TIP3    H2 4843   2.519   6.597   0.963
 1634TIP3   OH2 4844   0.549   5.747   2.610
 1634TIP3    H1 4845   0.457   5.753   2.633
 1634TIP3    H2 4846   0.563   5.816   2.546
 1635TIP3   OH2 4847   1.994   7.328   0.620
 1635TIP3    H1 4848   1.979   7.423   0.614
 1635TIP3    H2 4849   1.912   7.290   0.591
 1636TIP3   OH2 4850   1.853   6.729   6.439
 1636TIP3    H1 4851   1.854   6.638   6.471
 1636TIP3    H2 4852   1.927   6.733   6.379
 1637TIP3   OH2 4853   8.203   6.055   1.811
 1637TIP3    H1 4854   8.203   5.982   1.873
 1637TIP3    H2 4855   8.283   6.045   1.760
 1638TIP3   OH2 4856   0.841   2.145   3.463
 1638TIP3    H1 4857   0.754   2.131   3.501
 1638TIP3    H2 4858   0.901   2.101   3.524
 1639TIP3   OH2 4859   7.414   3.025   6.533
 1639TIP3    H1 4860   7.324   3.033   6.504
 1639TIP3    H2 4861   7.411   2.960   6.603
 1640TIP3   OH2 4862   5.048   4.005   0.041
 1640TIP3    H1 4863   5.095   3.923   0.028
 1640TIP3    H2 4864   5.006   3.995   0.126
 1641TIP3   OH2 4865   2.250   1.401   4.305
 1641TIP3    H1 4866   2.189   1.394   4.379
 1641TIP3    H2 4867   2.334   1.424   4.345
 1642TIP3   OH2 4868   6.387   1.309   5.526
 1642TIP3    H1 4869   6.302   1.353   5.532
 1642TIP3    H2 4870   6.400   1.295   5.432
 1643TIP3   OH2 4871   3.055   0.206   0.085
 1643TIP3    H1 4872   3.010   0.241   0.008
 1643TIP3    H2 4873   3.146   0.233   0.074
 1644TIP3   OH2 4874   4.769   5.797   5.529
 1644TIP3    H1 4875   4.714   5.856   5.477
 1644TIP3    H2 4876   4.823   5.854   5.583
 1645TIP3   OH2 4877   2.541   0.672   4.118
 1645TIP3    H1 4878   2.539   0.611   4.044
 1645TIP3    H2 4879   2.507   0.622   4.192
 1646TIP3   OH2 4880   0.086   2.952   2.280
 1646TIP3    H1 4881   0.119   2.862   2.273
 1646TIP3    H2 4882  -0.008   2.944   2.268
 1647TIP3   OH2 4883   3.878   7.202   3.127
 1647TIP3    H1 4884   3.828   7.249   3.060
 1647TIP3    H2 4885   3.815   7.189   3.199
 1648TIP3   OH2 4886   7.820   6.896   4.617
 1648TIP3    H1 4887   7.867   6.974   4.646
 1648TIP3    H2 4888   7.738   6.929   4.580
 1649TIP3   OH2 4889   6.384   4.872   1.149
 1649TIP3    H1 4890   6.397   4.866   1.054
 1649TIP3    H2 4891   6.310   4.932   1.159
 1650TIP3   OH2 4892   4.954   1.108   1.472
 1650TIP3    H1 4893   4.862   1.104   1.496
 1650TIP3    H2 4894   4.970   1.199   1.449
 1651TIP3   OH2 4895   7.553   0.368   2.662
 1651TIP3    H1 4896   7.567   0.413   2.745
 1651TIP3    H2 4897   7.516   0.283   2.687
 1652TIP3   OH2 4898   0.430   6.942   4.563
 1652TIP3    H1 4899   0.463   7.032   4.558
 1652TIP3    H2 4900   0.356   6.947   4.624
 1653TIP3   OH2 4901   6.861   4.062   0.376
 1653TIP3    H1 4902   6.935   4.115   0.349
 1653TIP3    H2 4903   6.784   4.110   0.347
 1654TIP3   OH2 4904   4.564   4.536   4.662
 1654TIP3    H1 4905   4.641   4.585   4.690
 1654TIP3    H2 4906   4.599   4.453   4.630
 1655TIP3   OH2 4907   0.263   0.432   5.846
 1655TIP3    H1 4908   0.218   0.500   5.797
 1655TIP3    H2 4909   0.193   0.382   5.889
 1656TIP3   OH2 4910   7.123   0.184   0.438
 1656TIP3    H1 4911   7.125   0.137   0.521
 1656TIP3    H2 4912   7.031   0.181   0.412
 1657TIP3   OH2 4913   4.610   6.628   2.019
 1657TIP3    H1 4914   4.584   6.535   2.019
 1657TIP3    H2 4915   4.676   6.634   1.950
 1658TIP3   OH2 4916   5.731   3.386   0.071
 1658TIP3    H1 4917   5.688   3.328   0.134
 1658TIP3    H2 4918   5.678   3.466   0.072
 1659TIP3   OH2 4919   1.033   2.331   4.641
 1659TIP3    H1 4920   1.078   2.376   4.713
 1659TIP3    H2 4921   0.999   2.251   4.680
 1660TIP3   OH2 4922   6.296   0.506   0.762
 1660TIP3    H1 4923   6.290   0.601   0.772
 1660TIP3    H2 4924   6.390   0.488   0.762
 1661TIP3   OH2 4925   7.350   7.283   5.166
 1661TIP3    H1 4926   7.427   7.246   5.209
 1661TIP3    H2 4927   7.278   7.225   5.191
 1662TIP3   OH2 4928   4.883   6.107   1.045
 1662TIP3    H1 4929   4.922   6.195   1.038
 1662TIP3    H2 4930   4.814   6.105   0.979
 1663TIP3   OH2 4931   3.354   2.995   2.124
 1663TIP3    H1 4932   3.372   2.947   2.043
 1663TIP3    H2 4933   3.342   2.927   2.190
 1664TIP3   OH2 4934   2.823   3.848   2.581
 1664TIP3    H1 4935   2.879   3.854   2.658
 1664TIP3    H2 4936   2.882   3.863   2.507
 1665TIP3   OH2 4937   7.522   6.556   3.878
 1665TIP3    H1 4938   7.446   6.592   3.923
 1665TIP3    H2 4939   7.532   6.468   3.914
 1666TIP3   OH2 4940   5.548   2.631   2.058
 1666TIP3    H1 4941   5.474   2.576   2.031
 1666TIP3    H2 4942   5.571   2.680   1.979
 1667TIP3   OH2 4943   3.429   0.880   6.548
 1667TIP3    H1 4944   3.492   0.945   6.579
 1667TIP3    H2 4945   3.345   0.926   6.546
 1668TIP3   OH2 4946   6.570   3.501   1.024
 1668TIP3    H1 4947   6.476   3.483   1.027
 1668TIP3    H2 4948   6.587   3.529   0.934
 1669TIP3   OH2 4949   0.458   3.860   0.914
 1669TIP3    H1 4950   0.382   3.826   0.962
 1669TIP3    H2 4951   0.435   3.951   0.895
 1670TIP3   OH2 4952   2.025   0.072   3.991
 1670TIP3    H1 4953   1.998   0.012   4.062
 1670TIP3    H2 4954   2.071   0.143   4.036
 1671TIP3   OH2 4955   7.507   0.209   4.400
 1671TIP3    H1 4956   7.435   0.160   4.360
 1671TIP3    H2 4957   7.582   0.193   4.344
 1672TIP3   OH2 4958   4.288   0.472   0.518
 1672TIP3    H1 4959   4.255   0.558   0.494
 1672TIP3    H2 4960   4.353   0.489   0.586
 1673TIP3   OH2 4961   0.635   3.041   4.492
 1673TIP3    H1 4962   0.641   2.969   4.555
 1673TIP3    H2 4963   0.542   3.063   4.490
 1674TIP3   OH2 4964   3.369   3.684   3.738
 1674TIP3    H1 4965   3.294   3.743   3.729
 1674TIP3    H2 4966   3.431   3.714   3.672
 1675TIP3   OH2 4967   2.815   5.822   2.909
 1675TIP3    H1 4968   2.864   5.810   2.827
 1675TIP3    H2 4969   2.881   5.818   2.978
 1676TIP3   OH2 4970   7.847   2.944   0.318
 1676TIP3    H1 4971   7.916   2.913   0.378
 1676TIP3    H2 4972   7.871   2.905   0.234
 1677TIP3   OH2 4973   2.219   0.214   5.973
 1677TIP3    H1 4974   2.135   0.258   5.956
 1677TIP3    H2 4975   2.210   0.129   5.930
 1678TIP3   OH2 4976   2.607   1.485   5.242
 1678TIP3    H1 4977   2.701   1.502   5.231
 1678TIP3    H2 4978   2.591   1.406   5.190
 1679TIP3   OH2 4979   0.458   6.448   5.801
 1679TIP3    H1 4980   0.440   6.537   5.831
 1679TIP3    H2 4981   0.470   6.456   5.706
 1680TIP3   OH2 4982   3.854   4.258   5.808
 1680TIP3    H1 4983   3.798   4.290   5.879
 1680TIP3    H2 4984   3.901   4.184   5.846
 1681TIP3   OH2 4985   2.762   2.128   1.066
 1681TIP3    H1 4986   2.716   2.162   1.143
 1681TIP3    H2 4987   2.693   2.113   1.001
 1682TIP3   OH2 4988   0.310   5.608   4.808
 1682TIP3    H1 4989   0.301   5.517   4.835
 1682TIP3    H2 4990   0.391   5.611   4.757
 1683TIP3   OH2 4991   1.114   3.182   4.898
 1683TIP3    H1 4992   1.174   3.201   4.826
 1683TIP3    H2 4993   1.055   3.116   4.863
 1684TIP3   OH2 4994   0.326   3.621   0.031
 1684TIP3    H1 4995   0.291   3.571  -0.043
 1684TIP3    H2 4996   0.264   3.606   0.102
 1685TIP3   OH2 4997   6.934   5.163   1.765
 1685TIP3    H1 4998   6.846   5.187   1.736
 1685TIP3    H2 4999   6.991   5.230   1.727
 1686TIP3   OH2 5000   0.665   0.910   4.638
 1686TIP3    H1 5001   0.598   0.860   4.684
 1686TIP3    H2 5002   0.637   0.909   4.546
 1687TIP3   OH2 5003   7.614   1.683   4.199
 1687TIP3    H1 5004   7.604   1.778   4.210
 1687TIP3    H2 5005   7.707   1.670   4.183
 1688TIP3   OH2 5006   3.416   1.624   6.100
 1688TIP3    H1 5007   3.512   1.631   6.104
 1688TIP3    H2 5008   3.400   1.536   6.067
 1689TIP3   OH2 5009   3.803   5.379   6.520
 1689TIP3    H1 5010   3.871   5.370   6.454
 1689TIP3    H2 5011   3.849   5.409   6.598
 1690TIP3   OH2 5012   6.311   1.599   1.685
 1690TIP3    H1 5013   6.378   1.553   1.635
 1690TIP3    H2 5014   6.358   1.630   1.763
 1691TIP3   OH2 5015   7.730   4.760   1.948
 1691TIP3    H1 5016   7.718   4.804   2.032
 1691TIP3    H2 5017   7.702   4.825   1.883
 1692TIP3   OH2 5018   0.755   2.671   2.458
 1692TIP3    H1 5019   0.708   2.637   2.534
 1692TIP3    H2 5020   0.741   2.765   2.461
 1693TIP3   OH2 5021   7.232   1.306   0.106
 1693TIP3    H1 5022   7.296   1.295   0.176
 1693TIP3    H2 5023   7.284   1.331   0.030
 1694TIP3   OH2 5024   2.763   2.505   5.534
 1694TIP3    H1 5025   2.829   2.567   5.565
 1694TIP3    H2 5026   2.738   2.455   5.612
 1695TIP3   OH2 5027   2.212   4.904   5.657
 1695TIP3    H1 5028   2.252   4.952   5.585
 1695TIP3    H2 5029   2.168   4.971   5.710
 1696TIP3   OH2 5030   3.857   5.405   3.303
 1696TIP3    H1 5031   3.857   5.425   3.209
 1696TIP3    H2 5032   3.798   5.331   3.312
 1697TIP3   OH2 5033   7.505   7.560   0.278
 1697TIP3    H1 5034   7.525   7.652   0.298
 1697TIP3    H2 5035   7.571   7.534   0.214
 1698TIP3   OH2 5036   1.136   4.582   2.913
 1698TIP3    H1 5037   1.192   4.659   2.925
 1698TIP3    H2 5038   1.076   4.585   2.988
 1699TIP3   OH2 5039   4.933   6.780   2.777
 1699TIP3    H1 5040   5.010   6.804   2.726
 1699TIP3    H2 5041   4.885   6.861   2.788
 1700TIP3   OH2 5042   5.040   5.157   5.835
 1700TIP3    H1 5043   5.020   5.167   5.741
 1700TIP3    H2 5044   4.968   5.202   5.879
 1701TIP3   OH2 5045   6.305   2.879   4.445
 1701TIP3    H1 5046   6.386   2.905   4.488
 1701TIP3    H2 5047   6.255   2.834   4.513
 1702TIP3   OH2 5048   6.022   3.511   4.542
 1702TIP3    H1 5049   6.097   3.456   4.521
 1702TIP3    H2 5050   5.994   3.481   4.628
 1703TIP3   OH2 5051   6.723   6.621   6.477
 1703TIP3    H1 5052   6.652   6.574   6.521
 1703TIP3    H2 5053   6.679   6.671   6.408
 1704TIP3   OH2 5054   2.403   4.939   6.715
 1704TIP3    H1 5055   2.336   4.953   6.782
 1704TIP3    H2 5056   2.416   4.844   6.713
 1705TIP3   OH2 5057   6.254   0.374   1.685
 1705TIP3    H1 5058   6.206   0.292   1.675
 1705TIP3    H2 5059   6.190   0.442   1.664
 1706TIP3   OH2 5060   1.402   1.823   5.091
 1706TIP3    H1 5061   1.435   1.825   5.182
 1706TIP3    H2 5062   1.382   1.731   5.076
 1707TIP3   OH2 5063   5.238   3.160   5.693
 1707TIP3    H1 5064   5.163   3.112   5.727
 1707TIP3    H2 5065   5.281   3.098   5.634
 1708TIP3   OH2 5066   3.898   5.700   6.504
 1708TIP3    H1 5067   3.902   5.632   6.571
 1708TIP3    H2 5068   3.986   5.737   6.502
 1709TIP3   OH2 5069   5.133   6.568   6.069
 1709TIP3    H1 5070   5.089   6.499   6.118
 1709TIP3    H2 5071   5.153   6.528   5.984
 1710TIP3   OH2 5072   2.653   5.994   5.838
 1710TIP3    H1 5073   2.745   5.993   5.865
 1710TIP3    H2 5074   2.655   6.025   5.747
 1711TIP3   OH2 5075   5.625   7.370   4.407
 1711TIP3    H1 5076   5.701   7.333   4.451
 1711TIP3    H2 5077   5.558   7.301   4.413
 1712TIP3   OH2 5078   4.686   0.186   5.622
 1712TIP3    H1 5079   4.668   0.228   5.707
 1712TIP3    H2 5080   4.634   0.106   5.623
 1713TIP3   OH2 5081   4.008   0.838   3.273
 1713TIP3    H1 5082   4.103   0.837   3.264
 1713TIP3    H2 5083   3.976   0.866   3.187
 1714TIP3   OH2 5084   6.330   0.170   2.229
 1714TIP3    H1 5085   6.255   0.111   2.238
 1714TIP3    H2 5086   6.362   0.155   2.140
 1715TIP3   OH2 5087   4.558   2.694   4.308
 1715TIP3    H1 5088   4.642   2.718   4.347
 1715TIP3    H2 5089   4.573   2.697   4.214
 1716TIP3   OH2 5090   6.797   1.517   6.647
 1716TIP3    H1 5091   6.773   1.441   6.699
 1716TIP3    H2 5092   6.783   1.591   6.706
 1717TIP3   OH2 5093   2.948   1.464   3.362
 1717TIP3    H1 5094   2.855   1.485   3.350
 1717TIP3    H2 5095   2.967   1.400   3.293
 1718TIP3   OH2 5096   4.528   0.127   2.615
 1718TIP3    H1 5097   4.542   0.035   2.635
 1718TIP3    H2 5098   4.474   0.159   2.687
 1719TIP3   OH2 5099   0.876   0.810   1.297
 1719TIP3    H1 5100   0.894   0.750   1.369
 1719TIP3    H2 5101   0.879   0.897   1.337
 1720TIP3   OH2 5102   0.855   5.057   3.976
 1720TIP3    H1 5103   0.884   5.089   3.890
 1720TIP3    H2 5104   0.933   5.065   4.032
 1721TIP3   OH2 5105   0.468   5.610   4.307
 1721TIP3    H1 5106   0.494   5.615   4.215
 1721TIP3    H2 5107   0.429   5.695   4.326
 1722TIP3   OH2 5108   1.185   2.347   0.068
 1722TIP3    H1 5109   1.129   2.271   0.050
 1722TIP3    H2 5110   1.129   2.409   0.113
 1723TIP3   OH2 5111   1.621   1.427   3.602
 1723TIP3    H1 5112   1.599   1.357   3.663
 1723TIP3    H2 5113   1.539   1.474   3.588
 1724TIP3   OH2 5114   0.656   1.651   2.330
 1724TIP3    H1 5115   0.716   1.698   2.387
 1724TIP3    H2 5116   0.577   1.705   2.330
 1725TIP3   OH2 5117   6.915   2.289   1.347
 1725TIP3    H1 5118   6.879   2.301   1.435
 1725TIP3    H2 5119   6.838   2.274   1.292
 1726TIP3   OH2 5120   3.533   6.456   4.798
 1726TIP3    H1 5121   3.628   6.465   4.790
 1726TIP3    H2 5122   3.519   6.367   4.830
 1727TIP3   OH2 5123   2.004   3.306   4.189
 1727TIP3    H1 5124   1.984   3.399   4.189
 1727TIP3    H2 5125   2.099   3.302   4.206
 1728TIP3   OH2 5126   7.273   2.107   5.332
 1728TIP3    H1 5127   7.223   2.039   5.377
 1728TIP3    H2 5128   7.298   2.068   5.248
 1729TIP3   OH2 5129   5.504   0.702   2.398
 1729TIP3    H1 5130   5.594   0.677   2.419
 1729TIP3    H2 5131   5.460   0.620   2.376
 1730TIP3   OH2 5132   3.717   1.298   3.890
 1730TIP3    H1 5133   3.733   1.219   3.837
 1730TIP3    H2 5134   3.800   1.346   3.887
 1731TIP3   OH2 5135   1.683   2.631   5.536
 1731TIP3    H1 5136   1.640   2.583   5.466
 1731TIP3    H2 5137   1.638   2.602   5.616
 1732TIP3   OH2 5138   7.129   4.480   4.985
 1732TIP3    H1 5139   7.080   4.415   5.034
 1732TIP3    H2 5140   7.209   4.435   4.958
 1733TIP3   OH2 5141   1.183   4.072   1.292
 1733TIP3    H1 5142   1.266   4.029   1.314
 1733TIP3    H2 5143   1.182   4.151   1.346
 1734TIP3   OH2 5144   4.519   0.092   6.645
 1734TIP3    H1 5145   4.535   0.017   6.589
 1734TIP3    H2 5146   4.510   0.166   6.585
 1735TIP3   OH2 5147   5.220   7.415   2.492
 1735TIP3    H1 5148   5.144   7.396   2.437
 1735TIP3    H2 5149   5.274   7.473   2.440
 1736TIP3   OH2 5150   4.807   5.765   2.918
 1736TIP3    H1 5151   4.887   5.817   2.924
 1736TIP3    H2 5152   4.827   5.698   2.853
 1737TIP3   OH2 5153   0.886   7.676   5.698
 1737TIP3    H1 5154   0.871   7.600   5.641
 1737TIP3    H2 5155   0.842   7.654   5.780
 1738TIP3   OH2 5156   0.628   4.212   4.193
 1738TIP3    H1 5157   0.647   4.280   4.128
 1738TIP3    H2 5158   0.533   4.217   4.206
 1739TIP3   OH2 5159   6.555   0.621   3.044
 1739TIP3    H1 5160   6.553   0.634   2.949
 1739TIP3    H2 5161   6.541   0.527   3.056
 1740TIP3   OH2 5162   2.257   6.690   6.058
 1740TIP3    H1 5163   2.238   6.734   5.975
 1740TIP3    H2 5164   2.353   6.693   6.065
 1741TIP3   OH2 5165   5.689   6.906   2.824
 1741TIP3    H1 5166   5.616   6.850   2.797
 1741TIP3    H2 5167   5.654   6.995   2.822
 1742TIP3   OH2 5168   1.200   7.565   5.283
 1742TIP3    H1 5169   1.247   7.644   5.309
 1742TIP3    H2 5170   1.125   7.596   5.232
 1743TIP3   OH2 5171   0.975   5.571   4.475
 1743TIP3    H1 5172   1.027   5.543   4.551
 1743TIP3    H2 5173   0.887   5.539   4.494
 1744TIP3   OH2 5174   7.661   0.285   5.717
 1744TIP3    H1 5175   7.663   0.191   5.699
 1744TIP3    H2 5176   7.577   0.299   5.762
 1745TIP3   OH2 5177   5.775   0.910   4.165
 1745TIP3    H1 5178   5.763   0.886   4.073
 1745TIP3    H2 5179   5.818   0.835   4.205
 1746TIP3   OH2 5180   0.962   1.910   6.064
 1746TIP3    H1 5181   0.980   1.986   6.120
 1746TIP3    H2 5182   1.049   1.873   6.047
 1747TIP3   OH2 5183   4.531   6.146   6.524
 1747TIP3    H1 5184   4.495   6.131   6.611
 1747TIP3    H2 5185   4.524   6.240   6.510
 1748TIP3   OH2 5186   5.382   7.386   1.109
 1748TIP3    H1 5187   5.295   7.359   1.137
 1748TIP3    H2 5188   5.389   7.478   1.135
 1749TIP3   OH2 5189   3.149   3.832   4.333
 1749TIP3    H1 5190   3.148   3.885   4.254
 1749TIP3    H2 5191   3.102   3.885   4.398
 1750TIP3   OH2 5192   3.110   7.130   2.728
 1750TIP3    H1 5193   3.133   7.085   2.809
 1750TIP3    H2 5194   3.146   7.074   2.659
 1751TIP3   OH2 5195   4.197   1.104   3.702
 1751TIP3    H1 5196   4.187   1.043   3.776
 1751TIP3    H2 5197   4.233   1.049   3.631
 1752TIP3   OH2 5198   0.007   5.954   2.504
 1752TIP3    H1 5199   0.057   5.872   2.500
 1752TIP3    H2 5200  -0.046   5.953   2.424
 1753TIP3   OH2 5201   5.893   7.139   1.139
 1753TIP3    H1 5202   5.874   7.089   1.218
 1753TIP3    H2 5203   5.821   7.202   1.132
 1754TIP3   OH2 5204   5.763   7.492   0.687
 1754TIP3    H1 5205   5.751   7.429   0.758
 1754TIP3    H2 5206   5.803   7.441   0.617
 1755TIP3   OH2 5207   5.297   3.917   1.612
 1755TIP3    H1 5208   5.380   3.908   1.659
 1755TIP3    H2 5209   5.301   3.851   1.542
 1756TIP3   OH2 5210   6.337   1.260   2.075
 1756TIP3    H1 5211   6.356   1.172   2.042
 1756TIP3    H2 5212   6.415   1.311   2.054
 1757TIP3   OH2 5213   2.386   6.535   0.260
 1757TIP3    H1 5214   2.419   6.572   0.342
 1757TIP3    H2 5215   2.334   6.605   0.221
 1758TIP3   OH2 5216   1.243   4.046   4.893
 1758TIP3    H1 5217   1.272   3.994   4.818
 1758TIP3    H2 5218   1.323   4.063   4.943
 1759TIP3   OH2 5219   2.934   6.343   0.486
 1759TIP3    H1 5220   2.939   6.307   0.397
 1759TIP3    H2 5221   2.946   6.437   0.474
 1760TIP3   OH2 5222   5.169   5.058   6.222
 1760TIP3    H1 5223   5.160   5.052   6.127
 1760TIP3    H2 5224   5.122   4.981   6.256
 1761TIP3   OH2 5225   1.865   3.283   0.626
 1761TIP3    H1 5226   1.828   3.345   0.563
 1761TIP3    H2 5227   1.859   3.198   0.583
 1762TIP3   OH2 5228   6.394   5.822   2.422
 1762TIP3    H1 5229   6.399   5.864   2.336
 1762TIP3    H2 5230   6.373   5.731   2.403
 1763TIP3   OH2 5231   4.824   5.216   1.627
 1763TIP3    H1 5232   4.901   5.161   1.613
 1763TIP3    H2 5233   4.752   5.166   1.590
 1764TIP3   OH2 5234   4.903   2.567   4.527
 1764TIP3    H1 5235   4.942   2.539   4.443
 1764TIP3    H2 5236   4.968   2.625   4.565
 1765TIP3   OH2 5237   5.202   2.540   4.045
 1765TIP3    H1 5238   5.266   2.482   4.088
 1765TIP3    H2 5239   5.152   2.483   3.988
 1766TIP3   OH2 5240   4.991   5.585   3.358
 1766TIP3    H1 5241   4.941   5.636   3.294
 1766TIP3    H2 5242   4.960   5.617   3.443
 1767TIP3   OH2 5243   5.395   1.917   3.647
 1767TIP3    H1 5244   5.318   1.921   3.590
 1767TIP3    H2 5245   5.375   1.978   3.718
 1768TIP3   OH2 5246   4.568   7.409   2.063
 1768TIP3    H1 5247   4.546   7.328   2.016
 1768TIP3    H2 5248   4.509   7.410   2.139
 1769TIP3   OH2 5249   5.242   0.429   0.430
 1769TIP3    H1 5250   5.147   0.434   0.434
 1769TIP3    H2 5251   5.260   0.384   0.347
 1770TIP3   OH2 5252   5.750   1.102   6.218
 1770TIP3    H1 5253   5.717   1.063   6.299
 1770TIP3    H2 5254   5.845   1.098   6.226
 1771TIP3   OH2 5255   4.862   2.249   5.312
 1771TIP3    H1 5256   4.813   2.290   5.383
 1771TIP3    H2 5257   4.890   2.322   5.257
 1772TIP3   OH2 5258   4.545   1.660   4.095
 1772TIP3    H1 5259   4.584   1.708   4.022
 1772TIP3    H2 5260   4.573   1.706   4.173
 1773TIP3   OH2 5261   3.797   4.789   3.008
 1773TIP3    H1 5262   3.795   4.707   3.058
 1773TIP3    H2 5263   3.705   4.816   3.003
 1774TIP3   OH2 5264   3.456   2.054   5.798
 1774TIP3    H1 5265   3.530   2.005   5.761
 1774TIP3    H2 5266   3.481   2.145   5.788
 1775TIP3   OH2 5267   5.147   1.796   6.212
 1775TIP3    H1 5268   5.101   1.759   6.136
 1775TIP3    H2 5269   5.239   1.774   6.196
 1776TIP3   OH2 5270   4.041   5.819   4.043
 1776TIP3    H1 5271   3.951   5.788   4.027
 1776TIP3    H2 5272   4.070   5.851   3.958
 1777TIP3   OH2 5273   5.090   3.527   0.899
 1777TIP3    H1 5274   5.065   3.535   0.807
 1777TIP3    H2 5275   5.067   3.612   0.937
 1778TIP3   OH2 5276   7.537   1.500   6.398
 1778TIP3    H1 5277   7.543   1.405   6.406
 1778TIP3    H2 5278   7.466   1.515   6.335
 1779TIP3   OH2 5279   1.948   2.630   0.900
 1779TIP3    H1 5280   1.933   2.540   0.929
 1779TIP3    H2 5281   2.020   2.624   0.837
 1780TIP3   OH2 5282   4.378   3.302   1.465
 1780TIP3    H1 5283   4.365   3.215   1.503
 1780TIP3    H2 5284   4.449   3.290   1.401
 1781TIP3   OH2 5285   0.241   4.425   4.672
 1781TIP3    H1 5286   0.306   4.461   4.611
 1781TIP3    H2 5287   0.264   4.332   4.679
 1782TIP3   OH2 5288   0.787   2.284   0.228
 1782TIP3    H1 5289   0.833   2.364   0.202
 1782TIP3    H2 5290   0.720   2.314   0.290
 1783TIP3   OH2 5291   2.003   3.972   0.129
 1783TIP3    H1 5292   1.938   4.016   0.074
 1783TIP3    H2 5293   1.997   4.016   0.213
 1784TIP3   OH2 5294   3.878   4.402   1.940
 1784TIP3    H1 5295   3.960   4.360   1.967
 1784TIP3    H2 5296   3.906   4.482   1.895
 1785TIP3   OH2 5297   5.708   2.614   4.882
 1785TIP3    H1 5298   5.631   2.640   4.831
 1785TIP3    H2 5299   5.686   2.527   4.915
 1786TIP3   OH2 5300   6.848   4.241   0.149
 1786TIP3    H1 5301   6.845   4.330   0.113
 1786TIP3    H2 5302   6.936   4.210   0.128
 1787TIP3   OH2 5303   1.883   5.490   0.288
 1787TIP3    H1 5304   1.832   5.423   0.242
 1787TIP3    H2 5305   1.870   5.471   0.381
 1788TIP3   OH2 5306   7.952   0.809   4.823
 1788TIP3    H1 5307   8.034   0.762   4.809
 1788TIP3    H2 5308   7.977   0.902   4.820
 1789TIP3   OH2 5309   2.918   4.506   6.562
 1789TIP3    H1 5310   2.902   4.538   6.651
 1789TIP3    H2 5311   2.947   4.584   6.514
 1790TIP3   OH2 5312   4.022   6.928   6.550
 1790TIP3    H1 5313   3.987   6.946   6.638
 1790TIP3    H2 5314   4.043   7.014   6.515
 1791TIP3   OH2 5315   1.829   3.243   2.546
 1791TIP3    H1 5316   1.894   3.312   2.535
 1791TIP3    H2 5317   1.859   3.173   2.489
 1792TIP3   OH2 5318   2.819   3.648   2.906
 1792TIP3    H1 5319   2.887   3.713   2.887
 1792TIP3    H2 5320   2.739   3.687   2.873
 1793TIP3   OH2 5321   3.425   4.873   4.659
 1793TIP3    H1 5322   3.457   4.929   4.588
 1793TIP3    H2 5323   3.491   4.805   4.668
 1794TIP3   OH2 5324   0.252   1.836   5.614
 1794TIP3    H1 5325   0.290   1.760   5.569
 1794TIP3    H2 5326   0.315   1.856   5.684
 1795TIP3   OH2 5327   0.931   5.758   4.235
 1795TIP3    H1 5328   0.876   5.748   4.313
 1795TIP3    H2 5329   0.926   5.673   4.191
 1796TIP3   OH2 5330   2.634   1.212   5.628
 1796TIP3    H1 5331   2.717   1.253   5.603
 1796TIP3    H2 5332   2.567   1.276   5.602
 1797TIP3   OH2 5333   0.970   1.075   3.652
 1797TIP3    H1 5334   0.886   1.107   3.619
 1797TIP3    H2 5335   0.993   1.135   3.723
 1798TIP3   OH2 5336   7.015   5.979   6.256
 1798TIP3    H1 5337   7.029   6.060   6.208
 1798TIP3    H2 5338   6.921   5.977   6.273
 1799TIP3   OH2 5339   5.267   2.660   5.735
 1799TIP3    H1 5340   5.245   2.711   5.657
 1799TIP3    H2 5341   5.273   2.570   5.704
 1800TIP3   OH2 5342   6.044   5.868   5.225
 1800TIP3    H1 5343   6.024   5.800   5.161
 1800TIP3    H2 5344   5.959   5.889   5.265
 1801TIP3   OH2 5345   7.815   2.161   1.069
 1801TIP3    H1 5346   7.735   2.199   1.033
 1801TIP3    H2 5347   7.880   2.170   1.000
 1802TIP3   OH2 5348   2.411   7.208   1.295
 1802TIP3    H1 5349   2.316   7.207   1.281
 1802TIP3    H2 5350   2.445   7.145   1.231
 1803TIP3   OH2 5351   6.613   1.427   0.747
 1803TIP3    H1 5352   6.540   1.469   0.703
 1803TIP3    H2 5353   6.691   1.465   0.707
 1804TIP3   OH2 5354   1.015   6.239   4.781
 1804TIP3    H1 5355   1.105   6.273   4.779
 1804TIP3    H2 5356   1.025   6.147   4.803
 1805TIP3   OH2 5357   5.784   1.582   3.698
 1805TIP3    H1 5358   5.819   1.628   3.622
 1805TIP3    H2 5359   5.860   1.545   3.741
 1806TIP3   OH2 5360   7.248   7.725   0.931
 1806TIP3    H1 5361   7.319   7.757   0.987
 1806TIP3    H2 5362   7.233   7.796   0.868
 1807TIP3   OH2 5363   5.419   2.953   0.941
 1807TIP3    H1 5364   5.499   3.005   0.933
 1807TIP3    H2 5365   5.449   2.869   0.975
 1808TIP3   OH2 5366   3.712   3.613   1.654
 1808TIP3    H1 5367   3.667   3.660   1.584
 1808TIP3    H2 5368   3.643   3.590   1.715
 1809TIP3   OH2 5369   8.009   5.758   4.543
 1809TIP3    H1 5370   8.067   5.819   4.589
 1809TIP3    H2 5371   7.931   5.810   4.523
 1810TIP3   OH2 5372   7.350   1.612   4.700
 1810TIP3    H1 5373   7.437   1.576   4.684
 1810TIP3    H2 5374   7.290   1.542   4.674
 1811TIP3   OH2 5375   6.503   6.585   2.568
 1811TIP3    H1 5376   6.460   6.608   2.485
 1811TIP3    H2 5377   6.594   6.568   2.543
 1812TIP3   OH2 5378   5.260   2.393   1.282
 1812TIP3    H1 5379   5.290   2.455   1.348
 1812TIP3    H2 5380   5.297   2.426   1.200
 1813TIP3   OH2 5381   1.111   6.015   2.966
 1813TIP3    H1 5382   1.168   5.943   2.993
 1813TIP3    H2 5383   1.168   6.075   2.918
 1814TIP3   OH2 5384   4.220   5.766   1.464
 1814TIP3    H1 5385   4.130   5.739   1.479
 1814TIP3    H2 5386   4.218   5.810   1.379
 1815TIP3   OH2 5387   0.557   1.252   3.515
 1815TIP3    H1 5388   0.494   1.322   3.499
 1815TIP3    H2 5389   0.570   1.251   3.610
 1816TIP3   OH2 5390   3.012   0.807   4.294
 1816TIP3    H1 5391   2.961   0.778   4.218
 1816TIP3    H2 5392   3.032   0.727   4.342
 1817TIP3   OH2 5393   4.589   3.670   1.719
 1817TIP3    H1 5394   4.667   3.710   1.758
 1817TIP3    H2 5395   4.586   3.705   1.631
 1818TIP3   OH2 5396   6.434   5.981   2.187
 1818TIP3    H1 5397   6.487   6.056   2.160
 1818TIP3    H2 5398   6.354   5.987   2.135
 1819TIP3   OH2 5399   2.403   4.744   4.808
 1819TIP3    H1 5400   2.456   4.756   4.886
 1819TIP3    H2 5401   2.405   4.649   4.792
 1820TIP3   OH2 5402   8.003   2.850   0.638
 1820TIP3    H1 5403   7.966   2.799   0.709
 1820TIP3    H2 5404   8.014   2.788   0.566
 1821TIP3   OH2 5405   2.792   2.919   3.152
 1821TIP3    H1 5406   2.755   2.865   3.083
 1821TIP3    H2 5407   2.731   2.992   3.163
 1822TIP3   OH2 5408   6.281   5.721   5.763
 1822TIP3    H1 5409   6.249   5.644   5.811
 1822TIP3    H2 5410   6.222   5.791   5.791
 1823TIP3   OH2 5411   7.515   7.684   2.811
 1823TIP3    H1 5412   7.581   7.751   2.791
 1823TIP3    H2 5413   7.432   7.723   2.784
 1824TIP3   OH2 5414   2.999   6.464   1.419
 1824TIP3    H1 5415   3.067   6.397   1.415
 1824TIP3    H2 5416   2.923   6.419   1.456
 1825TIP3   OH2 5417   3.823   1.433   6.284
 1825TIP3    H1 5418   3.891   1.451   6.348
 1825TIP3    H2 5419   3.864   1.375   6.220
 1826TIP3   OH2 5420   0.971   6.881   3.973
 1826TIP3    H1 5421   0.968   6.809   3.910
 1826TIP3    H2 5422   0.895   6.934   3.952
 1827TIP3   OH2 5423   3.327   5.560   3.349
 1827TIP3    H1 5424   3.297   5.622   3.415
 1827TIP3    H2 5425   3.415   5.589   3.325
 1828TIP3   OH2 5426   7.425   1.011   6.533
 1828TIP3    H1 5427   7.426   1.033   6.626
 1828TIP3    H2 5428   7.357   1.068   6.496
 1829TIP3   OH2 5429   2.028   1.358   4.495
 1829TIP3    H1 5430   1.937   1.329   4.488
 1829TIP3    H2 5431   2.060   1.316   4.576
 1830TIP3   OH2 5432   1.368   4.785   3.487
 1830TIP3    H1 5433   1.331   4.869   3.512
 1830TIP3    H2 5434   1.462   4.795   3.500
 1831TIP3   OH2 5435   7.841   3.445   5.105
 1831TIP3    H1 5436   7.775   3.410   5.045
 1831TIP3    H2 5437   7.924   3.413   5.070
 1832TIP3   OH2 5438   2.672   3.664   5.686
 1832TIP3    H1 5439   2.695   3.629   5.600
 1832TIP3    H2 5440   2.621   3.595   5.728
 1833TIP3   OH2 5441   1.398   7.548   6.027
 1833TIP3    H1 5442   1.341   7.488   6.074
 1833TIP3    H2 5443   1.345   7.580   5.954
 1834TIP3   OH2 5444   1.478   2.009   0.291
 1834TIP3    H1 5445   1.551   2.013   0.352
 1834TIP3    H2 5446   1.428   2.089   0.306
 1835TIP3   OH2 5447   3.258   4.353   3.569
 1835TIP3    H1 5448   3.181   4.389   3.613
 1835TIP3    H2 5449   3.331   4.402   3.605
 1836TIP3   OH2 5450   4.077   5.691   3.448
 1836TIP3    H1 5451   4.063   5.626   3.379
 1836TIP3    H2 5452   4.045   5.773   3.410
 1837TIP3   OH2 5453   1.930   2.529   2.998
 1837TIP3    H1 5454   1.845   2.486   3.004
 1837TIP3    H2 5455   1.950   2.556   3.088
 1838TIP3   OH2 5456   5.192   0.432   4.353
 1838TIP3    H1 5457   5.259   0.387   4.301
 1838TIP3    H2 5458   5.231   0.441   4.440
 1839TIP3   OH2 5459   2.347   0.317   6.207
 1839TIP3    H1 5460   2.440   0.296   6.197
 1839TIP3    H2 5461   2.308   0.290   6.125
 1840TIP3   OH2 5462   1.350   7.352   2.948
 1840TIP3    H1 5463   1.328   7.430   2.999
 1840TIP3    H2 5464   1.306   7.366   2.864
 1841TIP3   OH2 5465   1.242   7.286   0.816
 1841TIP3    H1 5466   1.299   7.209   0.820
 1841TIP3    H2 5467   1.161   7.258   0.859
 1842TIP3   OH2 5468   7.100   6.455   6.757
 1842TIP3    H1 5469   7.072   6.472   6.667
 1842TIP3    H2 5470   7.047   6.379   6.784
 1843TIP3   OH2 5471   5.960   1.010   3.454
 1843TIP3    H1 5472   5.966   0.973   3.366
 1843TIP3    H2 5473   6.047   0.996   3.492
 1844TIP3   OH2 5474   1.006   5.028   1.896
 1844TIP3    H1 5475   1.014   5.119   1.925
 1844TIP3    H2 5476   1.096   4.997   1.889
 1845TIP3   OH2 5477   6.864  -0.001   0.978
 1845TIP3    H1 5478   6.893   0.075   1.028
 1845TIP3    H2 5479   6.872   0.026   0.887
 1846TIP3   OH2 5480   0.061   4.121   3.483
 1846TIP3    H1 5481   0.105   4.039   3.460
 1846TIP3    H2 5482   0.109   4.153   3.559
 1847TIP3   OH2 5483   0.033   1.892   2.909
 1847TIP3    H1 5484   0.081   1.809   2.899
 1847TIP3    H2 5485   0.097   1.959   2.884
 1848TIP3   OH2 5486   7.934   5.586   4.081
 1848TIP3    H1 5487   7.987   5.623   4.011
 1848TIP3    H2 5488   7.878   5.659   4.110
 1849TIP3   OH2 5489   2.204   0.773   6.346
 1849TIP3    H1 5490   2.157   0.777   6.263
 1849TIP3    H2 5491   2.166   0.843   6.399
 1850TIP3   OH2 5492   5.558   5.400   3.278
 1850TIP3    H1 5493   5.634   5.455   3.301
 1850TIP3    H2 5494   5.492   5.462   3.249
 1851TIP3   OH2 5495   8.074   6.777   4.621
 1851TIP3    H1 5496   8.029   6.824   4.692
 1851TIP3    H2 5497   8.163   6.813   4.621
 1852TIP3   OH2 5498   8.235   6.402   2.891
 1852TIP3    H1 5499   8.302   6.338   2.867
 1852TIP3    H2 5500   8.277   6.456   2.958
 1853TIP3   OH2 5501   1.485   2.119   4.589
 1853TIP3    H1 5502   1.483   2.181   4.516
 1853TIP3    H2 5503   1.428   2.159   4.655
 1854TIP3   OH2 5504   7.257   6.805   1.154
 1854TIP3    H1 5505   7.318   6.731   1.158
 1854TIP3    H2 5506   7.301   6.875   1.201
 1855TIP3   OH2 5507   6.031   1.369   6.698
 1855TIP3    H1 5508   6.060   1.451   6.658
 1855TIP3    H2 5509   5.936   1.368   6.683
 1856TIP3   OH2 5510   5.058   1.133   2.133
 1856TIP3    H1 5511   5.041   1.141   2.039
 1856TIP3    H2 5512   5.121   1.062   2.140
 1857TIP3   OH2 5513   2.566   5.531   0.282
 1857TIP3    H1 5514   2.509   5.547   0.206
 1857TIP3    H2 5515   2.625   5.606   0.284
 1858TIP3   OH2 5516   7.061   2.254   6.577
 1858TIP3    H1 5517   6.985   2.304   6.608
 1858TIP3    H2 5518   7.034   2.163   6.583
 1859TIP3   OH2 5519   0.491   3.849   3.635
 1859TIP3    H1 5520   0.405   3.836   3.674
 1859TIP3    H2 5521   0.494   3.788   3.562
 1860TIP3   OH2 5522   7.555   0.626   1.411
 1860TIP3    H1 5523   7.538   0.719   1.396
 1860TIP3    H2 5524   7.646   0.613   1.384
 1861TIP3   OH2 5525   6.337   3.402   5.630
 1861TIP3    H1 5526   6.353   3.481   5.681
 1861TIP3    H2 5527   6.414   3.347   5.645
 1862TIP3   OH2 5528   5.861   3.502   2.672
 1862TIP3    H1 5529   5.899   3.545   2.595
 1862TIP3    H2 5530   5.860   3.409   2.649
 1863TIP3   OH2 5531   0.412   4.237   2.489
 1863TIP3    H1 5532   0.396   4.153   2.447
 1863TIP3    H2 5533   0.412   4.300   2.417
 1864TIP3   OH2 5534   2.186   3.906   3.786
 1864TIP3    H1 5535   2.247   3.941   3.721
 1864TIP3    H2 5536   2.176   3.814   3.764
 1865TIP3   OH2 5537   2.688   5.316   2.318
 1865TIP3    H1 5538   2.687   5.406   2.285
 1865TIP3    H2 5539   2.781   5.294   2.323
 1866TIP3   OH2 5540   5.344   5.555   1.846
 1866TIP3    H1 5541   5.376   5.484   1.903
 1866TIP3    H2 5542   5.249   5.540   1.841
 1867TIP3   OH2 5543   4.527   6.735   6.556
 1867TIP3    H1 5544   4.592   6.754   6.489
 1867TIP3    H2 5545   4.463   6.679   6.512
 1868TIP3   OH2 5546   6.626   5.712   6.439
 1868TIP3    H1 5547   6.623   5.628   6.484
 1868TIP3    H2 5548   6.549   5.712   6.381
 1869TIP3   OH2 5549   5.998   7.731   6.238
 1869TIP3    H1 5550   5.961   7.798   6.295
 1869TIP3    H2 5551   5.923   7.691   6.195
 1870TIP3   OH2 5552   6.618   0.030   0.448
 1870TIP3    H1 5553   6.589   0.012   0.358
 1870TIP3    H2 5554   6.673   0.108   0.440
 1871TIP3   OH2 5555   0.683   3.781   1.792
 1871TIP3    H1 5556   0.630   3.741   1.723
 1871TIP3    H2 5557   0.620   3.827   1.847
 1872TIP3   OH2 5558   2.866   2.779   2.460
 1872TIP3    H1 5559   2.827   2.697   2.489
 1872TIP3    H2 5560   2.947   2.787   2.510
 1873TIP3   OH2 5561   0.900   2.233   5.000
 1873TIP3    H1 5562   0.807   2.254   5.005
 1873TIP3    H2 5563   0.944   2.306   5.046
 1874TIP3   OH2 5564   6.878   7.701   0.432
 1874TIP3    H1 5565   6.917   7.627   0.384
 1874TIP3    H2 5566   6.790   7.672   0.454
 1875TIP3   OH2 5567   0.686   4.914   3.672
 1875TIP3    H1 5568   0.712   4.891   3.583
 1875TIP3    H2 5569   0.749   4.868   3.728
 1876TIP3   OH2 5570   6.224   3.793   1.836
 1876TIP3    H1 5571   6.209   3.781   1.930
 1876TIP3    H2 5572   6.305   3.843   1.831
 1877TIP3   OH2 5573   5.902   6.600   1.475
 1877TIP3    H1 5574   5.851   6.535   1.523
 1877TIP3    H2 5575   5.837   6.648   1.423
 1878TIP3   OH2 5576   3.887   0.571   4.610
 1878TIP3    H1 5577   3.811   0.622   4.581
 1878TIP3    H2 5578   3.959   0.634   4.612
 1879TIP3   OH2 5579   7.819   5.722   0.734
 1879TIP3    H1 5580   7.908   5.694   0.754
 1879TIP3    H2 5581   7.771   5.641   0.722
 1880TIP3   OH2 5582   2.532   1.005   2.432
 1880TIP3    H1 5583   2.612   0.961   2.403
 1880TIP3    H2 5584   2.482   1.017   2.351
 1881TIP3   OH2 5585   3.199   1.303   0.921
 1881TIP3    H1 5586   3.139   1.370   0.888
 1881TIP3    H2 5587   3.285   1.331   0.891
 1882TIP3   OH2 5588   6.602   7.191   1.742
 1882TIP3    H1 5589   6.631   7.107   1.706
 1882TIP3    H2 5590   6.605   7.179   1.837
 1883TIP3   OH2 5591   6.450   4.679   1.713
 1883TIP3    H1 5592   6.467   4.585   1.709
 1883TIP3    H2 5593   6.459   4.700   1.806
 1884TIP3   OH2 5594   7.240   6.196   2.538
 1884TIP3    H1 5595   7.287   6.280   2.542
 1884TIP3    H2 5596   7.164   6.214   2.482
 1885TIP3   OH2 5597   3.707   2.645   6.757
 1885TIP3    H1 5598   3.651   2.572   6.732
 1885TIP3    H2 5599   3.655   2.723   6.739
 1886TIP3   OH2 5600   2.443   0.661   3.614
 1886TIP3    H1 5601   2.379   0.715   3.660
 1886TIP3    H2 5602   2.440   0.692   3.523
 1887TIP3   OH2 5603   1.208   1.072   2.088
 1887TIP3    H1 5604   1.227   1.050   2.179
 1887TIP3    H2 5605   1.242   1.160   2.076
 1888TIP3   OH2 5606   5.314   4.740   4.904
 1888TIP3    H1 5607   5.225   4.731   4.938
 1888TIP3    H2 5608   5.364   4.673   4.949
 1889TIP3   OH2 5609   0.109   4.184   5.147
 1889TIP3    H1 5610   0.133   4.267   5.107
 1889TIP3    H2 5611   0.031   4.203   5.199
 1890TIP3   OH2 5612   6.175   2.255   3.373
 1890TIP3    H1 5613   6.168   2.340   3.331
 1890TIP3    H2 5614   6.158   2.271   3.466
 1891TIP3   OH2 5615   1.509   7.282   1.790
 1891TIP3    H1 5616   1.543   7.351   1.847
 1891TIP3    H2 5617   1.421   7.265   1.822
 1892TIP3   OH2 5618   0.501   0.321   1.573
 1892TIP3    H1 5619   0.504   0.238   1.620
 1892TIP3    H2 5620   0.577   0.320   1.515
 1893TIP3   OH2 5621   8.178   7.099   6.087
 1893TIP3    H1 5622   8.164   7.157   6.163
 1893TIP3    H2 5623   8.253   7.137   6.042
 1894TIP3   OH2 5624   2.960   2.410   2.350
 1894TIP3    H1 5625   2.947   2.402   2.444
 1894TIP3    H2 5626   3.051   2.437   2.341
 1895TIP3   OH2 5627   0.417   2.690   6.659
 1895TIP3    H1 5628   0.393   2.629   6.588
 1895TIP3    H2 5629   0.504   2.662   6.686
 1896TIP3   OH2 5630   6.002   6.578   3.010
 1896TIP3    H1 5631   6.010   6.544   2.921
 1896TIP3    H2 5632   5.908   6.590   3.023
 1897TIP3   OH2 5633   3.723   4.912   3.322
 1897TIP3    H1 5634   3.773   4.849   3.269
 1897TIP3    H2 5635   3.632   4.883   3.314
 1898TIP3   OH2 5636   4.927   2.801   0.661
 1898TIP3    H1 5637   4.936   2.721   0.713
 1898TIP3    H2 5638   4.859   2.781   0.597
 1899TIP3   OH2 5639   4.860   2.221   1.911
 1899TIP3    H1 5640   4.809   2.269   1.977
 1899TIP3    H2 5641   4.802   2.216   1.835
 1900TIP3   OH2 5642   5.711   5.947   6.284
 1900TIP3    H1 5643   5.657   5.984   6.354
 1900TIP3    H2 5644   5.792   5.921   6.328
 1901TIP3   OH2 5645   0.268   1.283   6.635
 1901TIP3    H1 5646   0.324   1.361   6.640
 1901TIP3    H2 5647   0.240   1.279   6.543
 1902TIP3   OH2 5648   2.737   7.372   2.624
 1902TIP3    H1 5649   2.710   7.369   2.532
 1902TIP3    H2 5650   2.671   7.426   2.667
 1903TIP3   OH2 5651   0.256   4.543   2.915
 1903TIP3    H1 5652   0.312   4.473   2.881
 1903TIP3    H2 5653   0.179   4.541   2.858
 1904TIP3   OH2 5654   5.352   5.115   5.570
 1904TIP3    H1 5655   5.258   5.100   5.567
 1904TIP3    H2 5656   5.367   5.156   5.656
 1905TIP3   OH2 5657   2.522   3.474   3.522
 1905TIP3    H1 5658   2.453   3.423   3.564
 1905TIP3    H2 5659   2.572   3.510   3.595
 1906TIP3   OH2 5660   2.860   2.672   5.981
 1906TIP3    H1 5661   2.949   2.652   6.013
 1906TIP3    H2 5662   2.805   2.664   6.059
 1907TIP3   OH2 5663   6.959   3.241   1.095
 1907TIP3    H1 5664   7.015   3.285   1.030
 1907TIP3    H2 5665   7.013   3.237   1.174
 1908TIP3   OH2 5666   1.005   5.936   1.440
 1908TIP3    H1 5667   1.061   5.999   1.485
 1908TIP3    H2 5668   0.921   5.941   1.484
 1909TIP3   OH2 5669   4.679   7.045   0.598
 1909TIP3    H1 5670   4.746   7.051   0.666
 1909TIP3    H2 5671   4.715   7.096   0.525
 1910TIP3   OH2 5672   4.882   1.062   5.631
 1910TIP3    H1 5673   4.921   1.092   5.549
 1910TIP3    H2 5674   4.792   1.039   5.608
 1911TIP3   OH2 5675   6.564   2.230   6.265
 1911TIP3    H1 5676   6.654   2.253   6.290
 1911TIP3    H2 5677   6.512   2.248   6.344
 1912TIP3   OH2 5678   0.822   5.757   3.481
 1912TIP3    H1 5679   0.835   5.852   3.475
 1912TIP3    H2 5680   0.877   5.720   3.412
 1913TIP3   OH2 5681   2.499   5.378   1.800
 1913TIP3    H1 5682   2.582   5.366   1.847
 1913TIP3    H2 5683   2.451   5.297   1.817
 1914TIP3   OH2 5684   3.054   2.203   5.901
 1914TIP3    H1 5685   3.076   2.166   5.986
 1914TIP3    H2 5686   3.117   2.275   5.889
 1915TIP3   OH2 5687   6.425   1.997   2.619
 1915TIP3    H1 5688   6.503   1.973   2.669
 1915TIP3    H2 5689   6.457   2.009   2.530
 1916TIP3   OH2 5690   5.985   4.438   2.497
 1916TIP3    H1 5691   5.914   4.478   2.446
 1916TIP3    H2 5692   5.958   4.346   2.506
 1917TIP3   OH2 5693   7.547   2.476   0.081
 1917TIP3    H1 5694   7.563   2.462  -0.012
 1917TIP3    H2 5695   7.452   2.473   0.090
 1918TIP3   OH2 5696   4.603   2.432   6.471
 1918TIP3    H1 5697   4.559   2.370   6.529
 1918TIP3    H2 5698   4.687   2.449   6.514
 1919TIP3   OH2 5699   7.689   1.906   4.795
 1919TIP3    H1 5700   7.628   1.974   4.822
 1919TIP3    H2 5701   7.703   1.854   4.874
 1920TIP3   OH2 5702   3.972   2.894   5.876
 1920TIP3    H1 5703   3.965   2.845   5.958
 1920TIP3    H2 5704   4.002   2.829   5.812
 1921TIP3   OH2 5705   8.311   6.217   2.569
 1921TIP3    H1 5706   8.216   6.221   2.580
 1921TIP3    H2 5707   8.328   6.126   2.545
 1922TIP3   OH2 5708   4.703   3.620   6.768
 1922TIP3    H1 5709   4.778   3.561   6.771
 1922TIP3    H2 5710   4.741   3.705   6.744
 1923TIP3   OH2 5711   4.111   1.049   0.019
 1923TIP3    H1 5712   4.017   1.030   0.027
 1923TIP3    H2 5713   4.121   1.081  -0.070
 1924TIP3   OH2 5714   5.065   5.744   1.628
 1924TIP3    H1 5715   5.034   5.731   1.538
 1924TIP3    H2 5716   4.989   5.780   1.674
 1925TIP3   OH2 5717   1.375   1.244   4.668
 1925TIP3    H1 5718   1.438   1.310   4.699
 1925TIP3    H2 5719   1.317   1.229   4.742
 1926TIP3   OH2 5720   2.661   1.662   6.749
 1926TIP3    H1 5721   2.737   1.604   6.745
 1926TIP3    H2 5722   2.698   1.751   6.745
 1927TIP3   OH2 5723   1.334   5.048   5.556
 1927TIP3    H1 5724   1.255   5.060   5.503
 1927TIP3    H2 5725   1.302   5.021   5.641
 1928TIP3   OH2 5726   7.576   5.261   0.406
 1928TIP3    H1 5727   7.658   5.298   0.373
 1928TIP3    H2 5728   7.599   5.228   0.493
 1929TIP3   OH2 5729   3.412   6.853   1.265
 1929TIP3    H1 5730   3.488   6.797   1.283
 1929TIP3    H2 5731   3.448   6.929   1.220
 1930TIP3   OH2 5732   1.438   7.195   6.518
 1930TIP3    H1 5733   1.362   7.217   6.573
 1930TIP3    H2 5734   1.399   7.163   6.436
 1931TIP3   OH2 5735   1.744  -0.005   0.433
 1931TIP3    H1 5736   1.802   0.057   0.477
 1931TIP3    H2 5737   1.706   0.044   0.360
 1932TIP3   OH2 5738   1.688   5.769   3.321
 1932TIP3    H1 5739   1.752   5.840   3.332
 1932TIP3    H2 5740   1.644   5.763   3.406
 1933TIP3   OH2 5741   2.014   5.608   2.759
 1933TIP3    H1 5742   1.960   5.680   2.792
 1933TIP3    H2 5743   2.104   5.640   2.769
 1934TIP3   OH2 5744   6.834   6.794   0.620
 1934TIP3    H1 5745   6.748   6.813   0.583
 1934TIP3    H2 5746   6.837   6.844   0.702
 1935TIP3   OH2 5747   3.350   4.958   2.459
 1935TIP3    H1 5748   3.302   4.936   2.379
 1935TIP3    H2 5749   3.395   5.040   2.438
 1936TIP3   OH2 5750   7.868   6.259   6.535
 1936TIP3    H1 5751   7.795   6.319   6.548
 1936TIP3    H2 5752   7.827   6.174   6.522
 1937TIP3   OH2 5753   7.025   3.711   2.090
 1937TIP3    H1 5754   6.940   3.703   2.133
 1937TIP3    H2 5755   7.076   3.638   2.124
 1938TIP3   OH2 5756   6.762   3.456   2.572
 1938TIP3    H1 5757   6.759   3.371   2.527
 1938TIP3    H2 5758   6.718   3.517   2.513
 1939TIP3   OH2 5759   7.555   2.199  -0.010
 1939TIP3    H1 5760   7.522   2.207   0.079
 1939TIP3    H2 5761   7.639   2.245  -0.008
 1940TIP3   OH2 5762   0.112   4.472   3.636
 1940TIP3    H1 5763   0.198   4.498   3.601
 1940TIP3    H2 5764   0.131   4.399   3.694
 1941TIP3   OH2 5765   7.636   5.263   5.527
 1941TIP3    H1 5766   7.701   5.296   5.590
 1941TIP3    H2 5767   7.599   5.186   5.568
 1942TIP3   OH2 5768   2.850   6.742   1.096
 1942TIP3    H1 5769   2.857   6.720   1.189
 1942TIP3    H2 5770   2.934   6.783   1.074
 1943TIP3   OH2 5771   6.304   1.522   0.715
 1943TIP3    H1 5772   6.222   1.481   0.741
 1943TIP3    H2 5773   6.339   1.466   0.646
 1944TIP3   OH2 5774   2.231   1.426   3.093
 1944TIP3    H1 5775   2.143   1.463   3.091
 1944TIP3    H2 5776   2.288   1.501   3.113
 1945TIP3   OH2 5777   0.018   1.461   4.014
 1945TIP3    H1 5778  -0.048   1.508   4.065
 1945TIP3    H2 5779   0.102   1.488   4.053
 1946TIP3   OH2 5780   5.587   0.118   5.323
 1946TIP3    H1 5781   5.663   0.173   5.303
 1946TIP3    H2 5782   5.559   0.149   5.410
 1947TIP3   OH2 5783   1.138   3.346   6.347
 1947TIP3    H1 5784   1.207   3.394   6.302
 1947TIP3    H2 5785   1.164   3.254   6.341
 1948TIP3   OH2 5786   4.345   7.659   3.805
 1948TIP3    H1 5787   4.411   7.683   3.870
 1948TIP3    H2 5788   4.334   7.738   3.753
 1949TIP3   OH2 5789   7.704   0.681   1.654
 1949TIP3    H1 5790   7.652   0.686   1.574
 1949TIP3    H2 5791   7.645   0.640   1.718
 1950TIP3   OH2 5792   0.894   2.161   2.689
 1950TIP3    H1 5793   0.989   2.146   2.687
 1950TIP3    H2 5794   0.869   2.142   2.779
 1951TIP3   OH2 5795   7.741   4.160   0.957
 1951TIP3    H1 5796   7.693   4.094   1.006
 1951TIP3    H2 5797   7.745   4.126   0.868
 1952TIP3   OH2 5798   6.740   0.458   4.526
 1952TIP3    H1 5799   6.666   0.399   4.512
 1952TIP3    H2 5800   6.718   0.537   4.476
 1953TIP3   OH2 5801   3.964   3.847   6.518
 1953TIP3    H1 5802   3.996   3.835   6.429
 1953TIP3    H2 5803   3.972   3.942   6.533
 1954TIP3   OH2 5804   1.573   2.891   2.327
 1954TIP3    H1 5805   1.546   2.840   2.251
 1954TIP3    H2 5806   1.520   2.971   2.322
 1955TIP3   OH2 5807   6.960   4.618   6.207
 1955TIP3    H1 5808   6.975   4.543   6.149
 1955TIP3    H2 5809   6.983   4.585   6.294
 1956TIP3   OH2 5810   7.983   3.065   5.144
 1956TIP3    H1 5811   8.067   3.102   5.169
 1956TIP3    H2 5812   7.962   3.001   5.212
 1957TIP3   OH2 5813   1.082   6.125   6.121
 1957TIP3    H1 5814   1.003   6.179   6.112
 1957TIP3    H2 5815   1.091   6.082   6.036
 1958TIP3   OH2 5816   7.696   7.224   3.500
 1958TIP3    H1 5817   7.757   7.193   3.432
 1958TIP3    H2 5818   7.663   7.144   3.540
 1959TIP3   OH2 5819   5.237   6.327   2.646
 1959TIP3    H1 5820   5.286   6.268   2.589
 1959TIP3    H2 5821   5.197   6.271   2.712
 1960TIP3   OH2 5822   6.112   1.367   5.506
 1960TIP3    H1 5823   6.029   1.354   5.551
 1960TIP3    H2 5824   6.097   1.441   5.447
 1961TIP3   OH2 5825   5.676   2.315   1.202
 1961TIP3    H1 5826   5.706   2.291   1.289
 1961TIP3    H2 5827   5.625   2.395   1.215
 1962TIP3   OH2 5828   6.775   0.450   2.853
 1962TIP3    H1 5829   6.817   0.457   2.767
 1962TIP3    H2 5830   6.693   0.500   2.844
 1963TIP3   OH2 5831   1.188   6.123   2.376
 1963TIP3    H1 5832   1.164   6.096   2.465
 1963TIP3    H2 5833   1.251   6.194   2.389
 1964TIP3   OH2 5834   4.209   0.438   4.745
 1964TIP3    H1 5835   4.158   0.375   4.797
 1964TIP3    H2 5836   4.160   0.520   4.752
 1965TIP3   OH2 5837   0.780   4.686   2.822
 1965TIP3    H1 5838   0.749   4.708   2.734
 1965TIP3    H2 5839   0.791   4.591   2.820
 1966TIP3   OH2 5840   4.425   1.575   0.603
 1966TIP3    H1 5841   4.461   1.604   0.687
 1966TIP3    H2 5842   4.346   1.628   0.591
 1967TIP3   OH2 5843   6.505   1.996   5.823
 1967TIP3    H1 5844   6.471   2.038   5.744
 1967TIP3    H2 5845   6.485   1.903   5.811
 1968TIP3   OH2 5846   0.106   3.635   1.473
 1968TIP3    H1 5847   0.083   3.582   1.396
 1968TIP3    H2 5848   0.130   3.720   1.437
 1969TIP3   OH2 5849   5.159   1.359   6.282
 1969TIP3    H1 5850   5.232   1.380   6.224
 1969TIP3    H2 5851   5.118   1.282   6.242
 1970TIP3   OH2 5852   0.424   2.676   4.005
 1970TIP3    H1 5853   0.466   2.635   3.930
 1970TIP3    H2 5854   0.446   2.619   4.079
 1971TIP3   OH2 5855   1.029   1.931   3.168
 1971TIP3    H1 5856   1.023   2.017   3.210
 1971TIP3    H2 5857   0.991   1.871   3.232
 1972TIP3   OH2 5858   5.476   1.025   6.024
 1972TIP3    H1 5859   5.460   1.101   5.968
 1972TIP3    H2 5860   5.562   1.040   6.062
 1973TIP3   OH2 5861   0.467   3.432   4.465
 1973TIP3    H1 5862   0.514   3.381   4.399
 1973TIP3    H2 5863   0.537   3.476   4.514
 1974TIP3   OH2 5864   0.891   4.958   4.577
 1974TIP3    H1 5865   0.983   4.943   4.559
 1974TIP3    H2 5866   0.870   5.039   4.530
 1975TIP3   OH2 5867   5.670   6.011   0.898
 1975TIP3    H1 5868   5.733   6.079   0.921
 1975TIP3    H2 5869   5.598   6.023   0.961
 1976TIP3   OH2 5870   4.154   0.741   2.875
 1976TIP3    H1 5871   4.208   0.732   2.797
 1976TIP3    H2 5872   4.065   0.756   2.842
 1977TIP3   OH2 5873   6.465   4.769   5.365
 1977TIP3    H1 5874   6.438   4.846   5.315
 1977TIP3    H2 5875   6.387   4.745   5.415
 1978TIP3   OH2 5876   1.661   6.169   5.028
 1978TIP3    H1 5877   1.639   6.085   4.987
 1978TIP3    H2 5878   1.582   6.193   5.076
 1979TIP3   OH2 5879   1.615   2.161   1.578
 1979TIP3    H1 5880   1.606   2.229   1.645
 1979TIP3    H2 5881   1.702   2.124   1.593
 1980TIP3   OH2 5882   2.814   0.608   1.602
 1980TIP3    H1 5883   2.723   0.592   1.575
 1980TIP3    H2 5884   2.867   0.555   1.543
 1981TIP3   OH2 5885   1.522   0.964   5.612
 1981TIP3    H1 5886   1.550   1.055   5.597
 1981TIP3    H2 5887   1.473   0.967   5.694
 1982TIP3   OH2 5888   8.280   1.267   3.836
 1982TIP3    H1 5889   8.277   1.324   3.912
 1982TIP3    H2 5890   8.287   1.327   3.761
 1983TIP3   OH2 5891   2.773   5.331   5.159
 1983TIP3    H1 5892   2.814   5.415   5.137
 1983TIP3    H2 5893   2.687   5.355   5.193
 1984TIP3   OH2 5894   6.774   1.545   3.666
 1984TIP3    H1 5895   6.737   1.497   3.592
 1984TIP3    H2 5896   6.717   1.522   3.740
 1985TIP3   OH2 5897   4.566   4.576   2.227
 1985TIP3    H1 5898   4.491   4.620   2.268
 1985TIP3    H2 5899   4.574   4.493   2.274
 1986TIP3   OH2 5900   0.465   7.691   5.991
 1986TIP3    H1 5901   0.371   7.674   5.982
 1986TIP3    H2 5902   0.474   7.785   5.976
 1987TIP3   OH2 5903   8.056   0.058   4.156
 1987TIP3    H1 5904   8.108   0.095   4.226
 1987TIP3    H2 5905   8.046   0.129   4.093
 1988TIP3   OH2 5906   4.180   4.688   3.268
 1988TIP3    H1 5907   4.210   4.690   3.177
 1988TIP3    H2 5908   4.248   4.735   3.316
 1989TIP3   OH2 5909   1.723   3.673   1.969
 1989TIP3    H1 5910   1.682   3.615   2.033
 1989TIP3    H2 5911   1.726   3.623   1.888
 1990TIP3   OH2 5912   1.048   6.105   3.649
 1990TIP3    H1 5913   1.022   6.147   3.732
 1990TIP3    H2 5914   1.111   6.166   3.611
 1991TIP3   OH2 5915   3.526   3.951   6.246
 1991TIP3    H1 5916   3.516   3.958   6.341
 1991TIP3    H2 5917   3.545   3.858   6.231
 1992TIP3   OH2 5918   3.426   3.550   2.740
 1992TIP3    H1 5919   3.373   3.477   2.707
 1992TIP3    H2 5920   3.459   3.592   2.661
 1993TIP3   OH2 5921   7.322   2.659   4.990
 1993TIP3    H1 5922   7.341   2.573   4.950
 1993TIP3    H2 5923   7.230   2.652   5.016
 1994TIP3   OH2 5924   6.075   1.624   6.557
 1994TIP3    H1 5925   6.149   1.619   6.496
 1994TIP3    H2 5926   6.071   1.717   6.582
 1995TIP3   OH2 5927   6.932   2.582   0.822
 1995TIP3    H1 5928   7.008   2.531   0.795
 1995TIP3    H2 5929   6.879   2.521   0.874
 1996TIP3   OH2 5930   6.595   6.527   0.621
 1996TIP3    H1 5931   6.671   6.473   0.641
 1996TIP3    H2 5932   6.567   6.500   0.534
 1997TIP3   OH2 5933   0.382   1.145   0.770
 1997TIP3    H1 5934   0.427   1.124   0.689
 1997TIP3    H2 5935   0.337   1.063   0.794
 1998TIP3   OH2 5936   3.479   7.659   6.196
 1998TIP3    H1 5937   3.533   7.580   6.203
 1998TIP3    H2 5938   3.510   7.715   6.267
 1999TIP3   OH2 5939   0.792   3.045   0.757
 1999TIP3    H1 5940   0.715   3.026   0.812
 1999TIP3    H2 5941   0.810   3.137   0.772
 2000TIP3   OH2 5942   3.867   2.875   5.590
 2000TIP3    H1 5943   3.815   2.829   5.523
 2000TIP3    H2 5944   3.802   2.921   5.643
 2001TIP3   OH2 5945   3.351   1.497   2.368
 2001TIP3    H1 5946   3.283   1.564   2.370
 2001TIP3    H2 5947   3.339   1.454   2.283
 2002TIP3   OH2 5948   1.393   7.819   1.699
 2002TIP3    H1 5949   1.476   7.834   1.744
 2002TIP3    H2 5950   1.341   7.768   1.761
 2003TIP3   OH2 5951   3.325   4.545   1.085
 2003TIP3    H1 5952   3.244   4.561   1.134
 2003TIP3    H2 5953   3.382   4.618   1.108
 2004TIP3   OH2 5954   1.016   2.613   2.369
 2004TIP3    H1 5955   0.982   2.542   2.314
 2004TIP3    H2 5956   0.943   2.635   2.427
 2005TIP3   OH2 5957   4.609   0.983   5.633
 2005TIP3    H1 5958   4.572   0.895   5.641
 2005TIP3    H2 5959   4.536   1.036   5.600
 2006TIP3   OH2 5960   0.789   7.787   1.681
 2006TIP3    H1 5961   0.832   7.840   1.748
 2006TIP3    H2 5962   0.757   7.851   1.617
 2007TIP3   OH2 5963   2.412   1.079   0.324
 2007TIP3    H1 5964   2.354   1.155   0.326
 2007TIP3    H2 5965   2.355   1.005   0.305
 2008TIP3   OH2 5966   2.041   1.055   1.743
 2008TIP3    H1 5967   1.955   1.025   1.712
 2008TIP3    H2 5968   2.046   1.146   1.714
 2009TIP3   OH2 5969   5.816   2.247   1.410
 2009TIP3    H1 5970   5.898   2.292   1.431
 2009TIP3    H2 5971   5.759   2.266   1.485
 2010TIP3   OH2 5972   7.755   7.405   6.568
 2010TIP3    H1 5973   7.766   7.485   6.620
 2010TIP3    H2 5974   7.694   7.429   6.499
 2011TIP3   OH2 5975   3.797   1.111   0.831
 2011TIP3    H1 5976   3.780   1.021   0.806
 2011TIP3    H2 5977   3.885   1.110   0.869
 2012TIP3   OH2 5978   3.514   6.146   6.157
 2012TIP3    H1 5979   3.539   6.056   6.176
 2012TIP3    H2 5980   3.437   6.163   6.212
 2013TIP3   OH2 5981   0.654   5.943   5.144
 2013TIP3    H1 5982   0.670   5.860   5.189
 2013TIP3    H2 5983   0.614   5.917   5.060
 2014TIP3   OH2 5984   6.287   0.697   2.390
 2014TIP3    H1 5985   6.329   0.782   2.380
 2014TIP3    H2 5986   6.227   0.691   2.316
 2015TIP3   OH2 5987   4.501   2.232   2.310
 2015TIP3    H1 5988   4.569   2.170   2.338
 2015TIP3    H2 5989   4.483   2.208   2.219
 2016TIP3   OH2 5990   1.860   4.318   3.340
 2016TIP3    H1 5991   1.910   4.396   3.314
 2016TIP3    H2 5992   1.836   4.276   3.257
 2017TIP3   OH2 5993   1.420   5.670   6.184
 2017TIP3    H1 5994   1.418   5.755   6.139
 2017TIP3    H2 5995   1.477   5.616   6.130
 2018TIP3   OH2 5996   0.636   5.489   1.740
 2018TIP3    H1 5997   0.679   5.560   1.692
 2018TIP3    H2 5998   0.571   5.534   1.795
 2019TIP3   OH2 5999   4.421   7.451   5.829
 2019TIP3    H1 6000   4.351   7.388   5.811
 2019TIP3    H2 6001   4.395   7.493   5.911
 2020TIP3   OH2 6002   6.576   0.121   1.794
 2020TIP3    H1 6003   6.599   0.205   1.755
 2020TIP3    H2 6004   6.661   0.078   1.808
 2021TIP3   OH2 6005   8.143   5.998   2.281
 2021TIP3    H1 6006   8.054   5.979   2.311
 2021TIP3    H2 6007   8.144   6.093   2.267
 2022TIP3   OH2 6008   4.132   2.769   1.150
 2022TIP3    H1 6009   4.102   2.790   1.062
 2022TIP3    H2 6010   4.106   2.844   1.203
 2023TIP3   OH2 6011   4.785   1.770   0.556
 2023TIP3    H1 6012   4.836   1.771   0.637
 2023TIP3    H2 6013   4.844   1.805   0.490
 2024TIP3   OH2 6014   3.728   2.954   2.132
 2024TIP3    H1 6015   3.711   3.022   2.067
 2024TIP3    H2 6016   3.703   2.993   2.215
 2025TIP3   OH2 6017   7.673   0.784   3.118
 2025TIP3    H1 6018   7.625   0.752   3.194
 2025TIP3    H2 6019   7.627   0.865   3.093
 2026TIP3   OH2 6020   0.476   3.631   3.458
 2026TIP3    H1 6021   0.564   3.597   3.445
 2026TIP3    H2 6022   0.419   3.554   3.451
 2027TIP3   OH2 6023   8.029   0.269   1.285
 2027TIP3    H1 6024   7.962   0.289   1.219
 2027TIP3    H2 6025   7.999   0.314   1.364
 2028TIP3   OH2 6026   0.330   4.924   4.136
 2028TIP3    H1 6027   0.393   4.881   4.079
 2028TIP3    H2 6028   0.325   5.014   4.103
 2029TIP3   OH2 6029   3.163   0.885   6.780
 2029TIP3    H1 6030   3.175   0.911   6.689
 2029TIP3    H2 6031   3.152   0.790   6.777
 2030TIP3   OH2 6032   6.118   2.265   0.682
 2030TIP3    H1 6033   6.044   2.207   0.661
 2030TIP3    H2 6034   6.141   2.306   0.599
 2031TIP3   OH2 6035   7.412   2.552   3.454
 2031TIP3    H1 6036   7.417   2.472   3.506
 2031TIP3    H2 6037   7.497   2.557   3.410
 2032TIP3   OH2 6038   4.055   1.421   5.910
 2032TIP3    H1 6039   4.097   1.507   5.906
 2032TIP3    H2 6040   3.961   1.440   5.913
 2033TIP3   OH2 6041   4.157   5.246   0.178
 2033TIP3    H1 6042   4.222   5.228   0.246
 2033TIP3    H2 6043   4.088   5.295   0.223
 2034TIP3   OH2 6044   1.292   2.576   2.418
 2034TIP3    H1 6045   1.305   2.513   2.488
 2034TIP3    H2 6046   1.199   2.573   2.398
 2035TIP3   OH2 6047   1.480   6.804   5.145
 2035TIP3    H1 6048   1.465   6.806   5.050
 2035TIP3    H2 6049   1.568   6.766   5.154
 2036TIP3   OH2 6050   5.912   1.276   3.870
 2036TIP3    H1 6051   5.923   1.332   3.793
 2036TIP3    H2 6052   5.961   1.197   3.849
 2037TIP3   OH2 6053   7.459   6.418   5.030
 2037TIP3    H1 6054   7.488   6.335   4.993
 2037TIP3    H2 6055   7.470   6.481   4.958
 2038TIP3   OH2 6056   3.758   5.082   5.997
 2038TIP3    H1 6057   3.732   5.019   6.064
 2038TIP3    H2 6058   3.731   5.167   6.031
 2039TIP3   OH2 6059   0.252   3.284   6.100
 2039TIP3    H1 6060   0.320   3.245   6.045
 2039TIP3    H2 6061   0.219   3.359   6.049
 2040TIP3   OH2 6062   4.827   3.753   0.390
 2040TIP3    H1 6063   4.737   3.760   0.356
 2040TIP3    H2 6064   4.860   3.671   0.353
 2041TIP3   OH2 6065   2.970   4.369   5.436
 2041TIP3    H1 6066   2.973   4.274   5.426
 2041TIP3    H2 6067   2.885   4.385   5.478
 2042TIP3   OH2 6068   8.233   2.218   1.179
 2042TIP3    H1 6069   8.175   2.285   1.143
 2042TIP3    H2 6070   8.271   2.258   1.257
 2043TIP3   OH2 6071   3.276   6.522   4.853
 2043TIP3    H1 6072   3.254   6.616   4.854
 2043TIP3    H2 6073   3.364   6.518   4.817
 2044TIP3   OH2 6074   3.421   6.704   0.178
 2044TIP3    H1 6075   3.485   6.636   0.199
 2044TIP3    H2 6076   3.401   6.745   0.262
 2045TIP3   OH2 6077   7.341   3.830   3.712
 2045TIP3    H1 6078   7.411   3.765   3.704
 2045TIP3    H2 6079   7.337   3.850   3.805
 2046TIP3   OH2 6080   4.806   0.432   6.095
 2046TIP3    H1 6081   4.785   0.340   6.111
 2046TIP3    H2 6082   4.722   0.477   6.093
 2047TIP3   OH2 6083   8.144   6.416   1.596
 2047TIP3    H1 6084   8.074   6.374   1.546
 2047TIP3    H2 6085   8.166   6.494   1.545
 2048TIP3   OH2 6086   4.660   7.211   3.856
 2048TIP3    H1 6087   4.643   7.150   3.784
 2048TIP3    H2 6088   4.641   7.297   3.818
 2049TIP3   OH2 6089   1.531   5.021   3.317
 2049TIP3    H1 6090   1.626   5.016   3.308
 2049TIP3    H2 6091   1.497   4.977   3.240
 2050TIP3   OH2 6092   5.625   1.487   2.520
 2050TIP3    H1 6093   5.641   1.475   2.614
 2050TIP3    H2 6094   5.536   1.455   2.506
 2051TIP3   OH2 6095   2.539   0.505   4.484
 2051TIP3    H1 6096   2.607   0.572   4.496
 2051TIP3    H2 6097   2.466   0.552   4.443
 2052TIP3   OH2 6098   0.090   6.319   4.245
 2052TIP3    H1 6099   0.046   6.276   4.171
 2052TIP3    H2 6100   0.150   6.380   4.203
 2053TIP3   OH2 6101   5.165   6.255   0.273
 2053TIP3    H1 6102   5.204   6.218   0.193
 2053TIP3    H2 6103   5.173   6.185   0.338
 2054TIP3   OH2 6104   3.380   5.383   0.379
 2054TIP3    H1 6105   3.376   5.478   0.373
 2054TIP3    H2 6106   3.442   5.365   0.449
 2055TIP3   OH2 6107   5.114   7.673   0.116
 2055TIP3    H1 6108   5.057   7.660   0.192
 2055TIP3    H2 6109   5.143   7.584   0.093
 2056TIP3   OH2 6110   0.183   2.567   4.488
 2056TIP3    H1 6111   0.144   2.633   4.546
 2056TIP3    H2 6112   0.119   2.557   4.417
 2057TIP3   OH2 6113   0.171   3.786   4.806
 2057TIP3    H1 6114   0.156   3.876   4.776
 2057TIP3    H2 6115   0.248   3.792   4.863
 2058TIP3   OH2 6116   7.211   3.952   6.197
 2058TIP3    H1 6117   7.257   3.897   6.260
 2058TIP3    H2 6118   7.181   3.892   6.129
 2059TIP3   OH2 6119   0.526   6.735   5.259
 2059TIP3    H1 6120   0.594   6.759   5.197
 2059TIP3    H2 6121   0.552   6.648   5.290
 2060TIP3   OH2 6122   5.591   5.985   2.258
 2060TIP3    H1 6123   5.604   5.900   2.214
 2060TIP3    H2 6124   5.496   5.996   2.261
 2061TIP3   OH2 6125   3.127   3.554   4.614
 2061TIP3    H1 6126   3.120   3.511   4.529
 2061TIP3    H2 6127   3.159   3.486   4.673
 2062TIP3   OH2 6128   5.972   4.803   1.099
 2062TIP3    H1 6129   5.880   4.819   1.078
 2062TIP3    H2 6130   6.018   4.821   1.017
 2063TIP3   OH2 6131   7.164   0.838   6.577
 2063TIP3    H1 6132   7.234   0.787   6.618
 2063TIP3    H2 6133   7.122   0.777   6.516
 2064TIP3   OH2 6134   4.571   3.127   3.322
 2064TIP3    H1 6135   4.575   3.182   3.244
 2064TIP3    H2 6136   4.555   3.039   3.289
 2065TIP3   OH2 6137   8.323   5.047   4.033
 2065TIP3    H1 6138   8.246   4.991   4.029
 2065TIP3    H2 6139   8.367   5.033   3.949
 2066TIP3   OH2 6140   0.604   2.123   3.221
 2066TIP3    H1 6141   0.639   2.204   3.184
 2066TIP3    H2 6142   0.682   2.068   3.234
 2067TIP3   OH2 6143   5.349   1.471   6.119
 2067TIP3    H1 6144   5.340   1.451   6.026
 2067TIP3    H2 6145   5.380   1.561   6.122
 2068TIP3   OH2 6146   4.217   2.422   2.225
 2068TIP3    H1 6147   4.128   2.388   2.233
 2068TIP3    H2 6148   4.234   2.425   2.130
 2069TIP3   OH2 6149   2.331   6.204   1.905
 2069TIP3    H1 6150   2.324   6.256   1.985
 2069TIP3    H2 6151   2.307   6.265   1.834
 2070TIP3   OH2 6152   3.388   6.902   0.747
 2070TIP3    H1 6153   3.383   6.889   0.842
 2070TIP3    H2 6154   3.400   6.814   0.711
 2071TIP3   OH2 6155   4.337   1.657   2.179
 2071TIP3    H1 6156   4.277   1.726   2.151
 2071TIP3    H2 6157   4.307   1.632   2.266
 2072TIP3   OH2 6158   0.057   4.201   5.544
 2072TIP3    H1 6159   0.043   4.219   5.451
 2072TIP3    H2 6160   0.013   4.118   5.559
 2073TIP3   OH2 6161   4.184   4.935   2.594
 2073TIP3    H1 6162   4.120   4.913   2.662
 2073TIP3    H2 6163   4.249   4.989   2.639
 2074TIP3   OH2 6164   0.371   2.564   1.771
 2074TIP3    H1 6165   0.323   2.538   1.849
 2074TIP3    H2 6166   0.401   2.652   1.789
 2075TIP3   OH2 6167   1.179   7.618   2.434
 2075TIP3    H1 6168   1.235   7.545   2.459
 2075TIP3    H2 6169   1.238   7.692   2.425
 2076TIP3   OH2 6170   2.855   3.159   0.553
 2076TIP3    H1 6171   2.887   3.249   0.558
 2076TIP3    H2 6172   2.760   3.169   0.545
 2077TIP3   OH2 6173   1.216   1.573   4.583
 2077TIP3    H1 6174   1.251   1.619   4.659
 2077TIP3    H2 6175   1.290   1.522   4.549
 2078TIP3   OH2 6176   5.861   0.510   5.635
 2078TIP3    H1 6177   5.880   0.420   5.606
 2078TIP3    H2 6178   5.923   0.564   5.586
 2079TIP3   OH2 6179   4.181   6.965   2.262
 2079TIP3    H1 6180   4.107   7.018   2.232
 2079TIP3    H2 6181   4.245   6.972   2.191
 2080TIP3   OH2 6182   5.394   3.242   6.657
 2080TIP3    H1 6183   5.386   3.148   6.638
 2080TIP3    H2 6184   5.312   3.280   6.627
 2081TIP3   OH2 6185   2.610   6.454   3.484
 2081TIP3    H1 6186   2.674   6.424   3.549
 2081TIP3    H2 6187   2.640   6.416   3.401
 2082TIP3   OH2 6188   6.441   0.167   6.526
 2082TIP3    H1 6189   6.381   0.240   6.511
 2082TIP3    H2 6190   6.519   0.190   6.475
 2083TIP3   OH2 6191   6.962   3.555   1.386
 2083TIP3    H1 6192   7.014   3.486   1.426
 2083TIP3    H2 6193   6.913   3.512   1.316
 2084TIP3   OH2 6194   7.279   5.513   2.746
 2084TIP3    H1 6195   7.309   5.599   2.717
 2084TIP3    H2 6196   7.185   5.514   2.731
 2085TIP3   OH2 6197   5.910   3.972   5.620
 2085TIP3    H1 6198   6.002   3.964   5.594
 2085TIP3    H2 6199   5.865   4.004   5.542
 2086TIP3   OH2 6200   1.726   3.263   6.400
 2086TIP3    H1 6201   1.732   3.248   6.494
 2086TIP3    H2 6202   1.749   3.355   6.389
 2087TIP3   OH2 6203   3.136   5.146   5.660
 2087TIP3    H1 6204   3.102   5.119   5.574
 2087TIP3    H2 6205   3.059   5.176   5.708
 2088TIP3   OH2 6206   6.644   3.084   5.999
 2088TIP3    H1 6207   6.700   3.105   6.074
 2088TIP3    H2 6208   6.672   3.145   5.931
 2089TIP3   OH2 6209   5.690   6.298   5.717
 2089TIP3    H1 6210   5.752   6.239   5.759
 2089TIP3    H2 6211   5.734   6.383   5.719
 2090TIP3   OH2 6212   3.774   6.790   0.061
 2090TIP3    H1 6213   3.864   6.816   0.079
 2090TIP3    H2 6214   3.782   6.700   0.028
 2091TIP3   OH2 6215   7.372   2.108   6.015
 2091TIP3    H1 6216   7.404   2.018   6.012
 2091TIP3    H2 6217   7.342   2.120   6.105
 2092TIP3   OH2 6218   6.581   3.250   2.254
 2092TIP3    H1 6219   6.515   3.303   2.298
 2092TIP3    H2 6220   6.531   3.184   2.206
 2093TIP3   OH2 6221   5.156   4.940   2.145
 2093TIP3    H1 6222   5.176   4.881   2.072
 2093TIP3    H2 6223   5.108   5.012   2.105
 2094TIP3   OH2 6224   2.045   6.945   3.373
 2094TIP3    H1 6225   2.071   6.853   3.372
 2094TIP3    H2 6226   1.963   6.947   3.422
 2095TIP3   OH2 6227   1.039   4.402   0.230
 2095TIP3    H1 6228   0.949   4.370   0.223
 2095TIP3    H2 6229   1.056   4.442   0.144
 2096TIP3   OH2 6230   5.402   0.379   4.191
 2096TIP3    H1 6231   5.447   0.464   4.197
 2096TIP3    H2 6232   5.420   0.349   4.101
 2097TIP3   OH2 6233   8.263   7.207   0.120
 2097TIP3    H1 6234   8.212   7.210   0.039
 2097TIP3    H2 6235   8.328   7.276   0.111
 2098TIP3   OH2 6236   0.409   5.795   5.592
 2098TIP3    H1 6237   0.324   5.839   5.591
 2098TIP3    H2 6238   0.430   5.781   5.500
 2099TIP3   OH2 6239   5.433   6.486   5.855
 2099TIP3    H1 6240   5.420   6.562   5.913
 2099TIP3    H2 6241   5.507   6.439   5.893
 2100TIP3   OH2 6242   2.777   6.109   3.787
 2100TIP3    H1 6243   2.687   6.120   3.757
 2100TIP3    H2 6244   2.774   6.029   3.840
 2101TIP3   OH2 6245   1.353   2.208   4.800
 2101TIP3    H1 6246   1.323   2.299   4.807
 2101TIP3    H2 6247   1.287   2.158   4.847
 2102TIP3   OH2 6248   3.629   3.314   5.618
 2102TIP3    H1 6249   3.715   3.279   5.644
 2102TIP3    H2 6250   3.611   3.274   5.534
 2103TIP3   OH2 6251   1.983   3.113   3.718
 2103TIP3    H1 6252   1.936   3.061   3.784
 2103TIP3    H2 6253   1.928   3.191   3.706
 2104TIP3   OH2 6254   0.302   2.032   4.870
 2104TIP3    H1 6255   0.306   2.076   4.955
 2104TIP3    H2 6256   0.350   1.950   4.883
 2105TIP3   OH2 6257   8.177   5.212   2.309
 2105TIP3    H1 6258   8.140   5.252   2.387
 2105TIP3    H2 6259   8.119   5.139   2.289
 2106TIP3   OH2 6260   1.800   0.386   3.575
 2106TIP3    H1 6261   1.835   0.463   3.620
 2106TIP3    H2 6262   1.747   0.341   3.641
 2107TIP3   OH2 6263   7.304   6.419   5.266
 2107TIP3    H1 6264   7.263   6.503   5.246
 2107TIP3    H2 6265   7.360   6.401   5.190
 2108TIP3   OH2 6266   4.815   1.562   1.616
 2108TIP3    H1 6267   4.874   1.488   1.600
 2108TIP3    H2 6268   4.853   1.605   1.693
 2109TIP3   OH2 6269   5.906   1.021   0.144
 2109TIP3    H1 6270   5.991   0.980   0.157
 2109TIP3    H2 6271   5.864   0.968   0.076
 2110TIP3   OH2 6272   5.657   5.476   4.741
 2110TIP3    H1 6273   5.693   5.431   4.818
 2110TIP3    H2 6274   5.570   5.439   4.731
 2111TIP3   OH2 6275   0.157   4.391   0.624
 2111TIP3    H1 6276   0.174   4.435   0.541
 2111TIP3    H2 6277   0.161   4.460   0.690
 2112TIP3   OH2 6278   1.081   4.771   4.291
 2112TIP3    H1 6279   1.075   4.683   4.327
 2112TIP3    H2 6280   1.097   4.827   4.367
 2113TIP3   OH2 6281   4.404   4.624   2.436
 2113TIP3    H1 6282   4.369   4.712   2.421
 2113TIP3    H2 6283   4.326   4.569   2.449
 2114TIP3   OH2 6284   3.816   0.930   4.576
 2114TIP3    H1 6285   3.752   0.975   4.522
 2114TIP3    H2 6286   3.768   0.903   4.654
 2115TIP3   OH2 6287   7.996   2.560   5.098
 2115TIP3    H1 6288   8.032   2.603   5.021
 2115TIP3    H2 6289   8.070   2.553   5.159
 2116TIP3   OH2 6290   6.795   5.596   0.311
 2116TIP3    H1 6291   6.771   5.610   0.402
 2116TIP3    H2 6292   6.833   5.508   0.309
 2117TIP3   OH2 6293   2.603   1.568   1.362
 2117TIP3    H1 6294   2.698   1.557   1.357
 2117TIP3    H2 6295   2.589   1.614   1.445
 2118TIP3   OH2 6296   4.565   5.511   6.067
 2118TIP3    H1 6297   4.540   5.424   6.100
 2118TIP3    H2 6298   4.660   5.504   6.055
 2119TIP3   OH2 6299   7.103   7.127   3.333
 2119TIP3    H1 6300   7.050   7.076   3.394
 2119TIP3    H2 6301   7.041   7.155   3.265
 2120TIP3   OH2 6302   6.594   0.178   0.125
 2120TIP3    H1 6303   6.572   0.231   0.048
 2120TIP3    H2 6304   6.679   0.141   0.104
 2121TIP3   OH2 6305   2.026   7.022   5.308
 2121TIP3    H1 6306   2.099   6.960   5.320
 2121TIP3    H2 6307   1.966   7.002   5.380
 2122TIP3   OH2 6308   2.040   6.327   3.171
 2122TIP3    H1 6309   2.080   6.311   3.086
 2122TIP3    H2 6310   2.114   6.325   3.233
 2123TIP3   OH2 6311   3.468   0.711   2.514
 2123TIP3    H1 6312   3.531   0.776   2.542
 2123TIP3    H2 6313   3.458   0.725   2.420
 2124TIP3   OH2 6314   6.416   6.076   4.442
 2124TIP3    H1 6315   6.441   6.159   4.483
 2124TIP3    H2 6316   6.339   6.047   4.490
 2125TIP3   OH2 6317   0.528   5.635   6.656
 2125TIP3    H1 6318   0.507   5.608   6.567
 2125TIP3    H2 6319   0.617   5.671   6.650
 2126TIP3   OH2 6320   8.110   3.122   4.821
 2126TIP3    H1 6321   8.037   3.095   4.765
 2126TIP3    H2 6322   8.179   3.059   4.803
 2127TIP3   OH2 6323   6.723   5.713   1.053
 2127TIP3    H1 6324   6.710   5.797   1.010
 2127TIP3    H2 6325   6.774   5.661   0.991
 2128TIP3   OH2 6326   3.480   6.616   3.715
 2128TIP3    H1 6327   3.441   6.537   3.753
 2128TIP3    H2 6328   3.444   6.620   3.626
 2129TIP3   OH2 6329   5.660   3.565   4.103
 2129TIP3    H1 6330   5.595   3.606   4.160
 2129TIP3    H2 6331   5.728   3.631   4.094
 2130TIP3   OH2 6332   5.364   3.852   6.114
 2130TIP3    H1 6333   5.436   3.907   6.143
 2130TIP3    H2 6334   5.403   3.795   6.047
 2131TIP3   OH2 6335   7.279   5.237   4.535
 2131TIP3    H1 6336   7.248   5.156   4.576
 2131TIP3    H2 6337   7.268   5.304   4.603
 2132TIP3   OH2 6338   1.328   2.140   4.230
 2132TIP3    H1 6339   1.414   2.174   4.204
 2132TIP3    H2 6340   1.298   2.201   4.297
 2133TIP3   OH2 6341   6.785   3.625   0.178
 2133TIP3    H1 6342   6.762   3.689   0.111
 2133TIP3    H2 6343   6.703   3.611   0.226
 2134TIP3   OH2 6344   4.376   6.036   0.867
 2134TIP3    H1 6345   4.340   6.101   0.927
 2134TIP3    H2 6346   4.354   5.951   0.906
 2135TIP3   OH2 6347   7.439   6.932   5.078
 2135TIP3    H1 6348   7.471   6.888   4.999
 2135TIP3    H2 6349   7.376   6.996   5.046
 2136TIP3   OH2 6350   1.948   3.791   2.504
 2136TIP3    H1 6351   1.881   3.762   2.566
 2136TIP3    H2 6352   1.923   3.881   2.482
 2137TIP3   OH2 6353   1.228   4.091   0.464
 2137TIP3    H1 6354   1.138   4.058   0.473
 2137TIP3    H2 6355   1.272   4.027   0.408
 2138TIP3   OH2 6356   2.267   5.167   0.094
 2138TIP3    H1 6357   2.215   5.204   0.165
 2138TIP3    H2 6358   2.291   5.080   0.126
 2139TIP3   OH2 6359   5.649   1.176   5.823
 2139TIP3    H1 6360   5.592   1.244   5.788
 2139TIP3    H2 6361   5.702   1.221   5.890
 2140TIP3   OH2 6362   7.882   6.557   6.365
 2140TIP3    H1 6363   7.794   6.520   6.357
 2140TIP3    H2 6364   7.903   6.587   6.277
 2141TIP3   OH2 6365   8.053   5.720   2.475
 2141TIP3    H1 6366   8.017   5.718   2.386
 2141TIP3    H2 6367   8.007   5.792   2.518
 2142TIP3   OH2 6368   7.521   1.959   0.588
 2142TIP3    H1 6369   7.521   1.864   0.598
 2142TIP3    H2 6370   7.557   1.974   0.501
 2143TIP3   OH2 6371   3.239   4.168   4.427
 2143TIP3    H1 6372   3.318   4.114   4.432
 2143TIP3    H2 6373   3.186   4.139   4.501
 2144TIP3   OH2 6374   5.958   0.512   1.607
 2144TIP3    H1 6375   5.906   0.470   1.539
 2144TIP3    H2 6376   5.920   0.481   1.689
 2145TIP3   OH2 6377   7.514   5.420   0.130
 2145TIP3    H1 6378   7.507   5.346   0.069
 2145TIP3    H2 6379   7.540   5.380   0.213
 2146TIP3   OH2 6380   3.495   4.308   1.274
 2146TIP3    H1 6381   3.541   4.324   1.192
 2146TIP3    H2 6382   3.403   4.301   1.250
 2147TIP3   OH2 6383   7.420   5.684   0.048
 2147TIP3    H1 6384   7.503   5.726   0.070
 2147TIP3    H2 6385   7.438   5.590   0.060
 2148TIP3   OH2 6386   3.741   4.489   5.679
 2148TIP3    H1 6387   3.795   4.556   5.639
 2148TIP3    H2 6388   3.802   4.420   5.704
 2149TIP3   OH2 6389   1.969   1.430   1.234
 2149TIP3    H1 6390   1.920   1.425   1.316
 2149TIP3    H2 6391   2.027   1.355   1.236
 2150TIP3   OH2 6392   7.192   5.391   3.019
 2150TIP3    H1 6393   7.176   5.437   2.936
 2150TIP3    H2 6394   7.271   5.340   3.003
 2151TIP3   OH2 6395   4.183   2.938   3.357
 2151TIP3    H1 6396   4.173   3.031   3.335
 2151TIP3    H2 6397   4.105   2.896   3.322
 2152TIP3   OH2 6398   2.159   4.421   6.576
 2152TIP3    H1 6399   2.116   4.412   6.491
 2152TIP3    H2 6400   2.108   4.365   6.634
 2153TIP3   OH2 6401   6.154   2.126   6.270
 2153TIP3    H1 6402   6.065   2.119   6.303
 2153TIP3    H2 6403   6.199   2.048   6.303
 2154TIP3   OH2 6404   3.725   4.268   5.387
 2154TIP3    H1 6405   3.786   4.224   5.446
 2154TIP3    H2 6406   3.669   4.198   5.353
 2155TIP3   OH2 6407   7.056   2.562   3.345
 2155TIP3    H1 6408   7.100   2.609   3.273
 2155TIP3    H2 6409   7.125   2.548   3.409
 2156TIP3   OH2 6410   8.108   5.935   3.529
 2156TIP3    H1 6411   8.044   5.868   3.505
 2156TIP3    H2 6412   8.132   5.915   3.619
 2157TIP3   OH2 6413   2.393   2.502   0.228
 2157TIP3    H1 6414   2.368   2.551   0.149
 2157TIP3    H2 6415   2.339   2.423   0.225
 2158TIP3   OH2 6416   3.879   1.059   5.917
 2158TIP3    H1 6417   3.884   0.964   5.905
 2158TIP3    H2 6418   3.854   1.092   5.831
 2159TIP3   OH2 6419   5.511   4.412   0.558
 2159TIP3    H1 6420   5.571   4.341   0.583
 2159TIP3    H2 6421   5.555   4.492   0.587
 2160TIP3   OH2 6422   6.871   2.446   2.639
 2160TIP3    H1 6423   6.857   2.485   2.725
 2160TIP3    H2 6424   6.965   2.454   2.623
 2161TIP3   OH2 6425   7.852   4.624   5.352
 2161TIP3    H1 6426   7.788   4.555   5.336
 2161TIP3    H2 6427   7.841   4.648   5.444
 2162TIP3   OH2 6428   4.513   2.204   2.844
 2162TIP3    H1 6429   4.525   2.296   2.818
 2162TIP3    H2 6430   4.597   2.180   2.884
 2163TIP3   OH2 6431   2.950   2.659   4.806
 2163TIP3    H1 6432   2.939   2.566   4.826
 2163TIP3    H2 6433   3.038   2.665   4.769
 2164TIP3   OH2 6434   0.262   3.120   2.160
 2164TIP3    H1 6435   0.212   3.055   2.210
 2164TIP3    H2 6436   0.207   3.198   2.161
 2165TIP3   OH2 6437   5.686   2.800   1.884
 2165TIP3    H1 6438   5.742   2.813   1.961
 2165TIP3    H2 6439   5.720   2.861   1.819
 2166TIP3   OH2 6440   2.865   3.043   6.745
 2166TIP3    H1 6441   2.959   3.059   6.741
 2166TIP3    H2 6442   2.828   3.107   6.684
 2167TIP3   OH2 6443   7.095   1.705   1.303
 2167TIP3    H1 6444   7.158   1.695   1.374
 2167TIP3    H2 6445   7.022   1.753   1.341
 2168TIP3   OH2 6446   2.586   7.565   5.933
 2168TIP3    H1 6447   2.576   7.493   5.995
 2168TIP3    H2 6448   2.678   7.563   5.907
 2169TIP3   OH2 6449   0.673   5.549   3.738
 2169TIP3    H1 6450   0.734   5.619   3.763
 2169TIP3    H2 6451   0.685   5.540   3.644
 2170TIP3   OH2 6452   4.621   2.354   3.975
 2170TIP3    H1 6453   4.690   2.378   3.913
 2170TIP3    H2 6454   4.540   2.364   3.925
 2171TIP3   OH2 6455   2.617   6.076   1.994
 2171TIP3    H1 6456   2.611   6.025   1.914
 2171TIP3    H2 6457   2.542   6.134   1.992
 2172TIP3   OH2 6458   0.091   5.071   2.236
 2172TIP3    H1 6459   0.146   5.100   2.310
 2172TIP3    H2 6460   0.006   5.110   2.253
 2173TIP3   OH2 6461   4.445   6.616   2.985
 2173TIP3    H1 6462   4.504   6.643   3.055
 2173TIP3    H2 6463   4.404   6.536   3.018
 2174TIP3   OH2 6464   2.931   3.784   4.988
 2174TIP3    H1 6465   2.971   3.871   4.987
 2174TIP3    H2 6466   2.859   3.792   5.050
 2175TIP3   OH2 6467   2.076   0.460   0.606
 2175TIP3    H1 6468   2.169   0.447   0.625
 2175TIP3    H2 6469   2.044   0.373   0.584
 2176TIP3   OH2 6470   2.526   5.445   5.416
 2176TIP3    H1 6471   2.515   5.459   5.322
 2176TIP3    H2 6472   2.450   5.394   5.442
 2177TIP3   OH2 6473   2.315   1.306   6.521
 2177TIP3    H1 6474   2.339   1.229   6.572
 2177TIP3    H2 6475   2.367   1.377   6.557
 2178TIP3   OH2 6476   5.864   7.143   0.127
 2178TIP3    H1 6477   5.936   7.205   0.113
 2178TIP3    H2 6478   5.905   7.070   0.173
 2179TIP3   OH2 6479   6.215   6.824   1.868
 2179TIP3    H1 6480   6.237   6.790   1.781
 2179TIP3    H2 6481   6.138   6.775   1.894
 2180TIP3   OH2 6482   7.736   2.589   0.470
 2180TIP3    H1 6483   7.767   2.669   0.514
 2180TIP3    H2 6484   7.664   2.618   0.415
 2181TIP3   OH2 6485   5.944   0.173   5.820
 2181TIP3    H1 6486   6.026   0.173   5.770
 2181TIP3    H2 6487   5.879   0.205   5.758
 2182TIP3   OH2 6488   7.248   7.451   1.980
 2182TIP3    H1 6489   7.244   7.507   2.057
 2182TIP3    H2 6490   7.200   7.499   1.913
 2183TIP3   OH2 6491   0.377   5.276   4.288
 2183TIP3    H1 6492   0.381   5.354   4.343
 2183TIP3    H2 6493   0.463   5.274   4.244
 2184TIP3   OH2 6494   7.637   3.333   5.804
 2184TIP3    H1 6495   7.732   3.325   5.814
 2184TIP3    H2 6496   7.623   3.330   5.710
 2185TIP3   OH2 6497   3.123   5.715   4.350
 2185TIP3    H1 6498   3.073   5.643   4.386
 2185TIP3    H2 6499   3.190   5.734   4.416
 2186TIP3   OH2 6500   6.611   5.490   3.523
 2186TIP3    H1 6501   6.549   5.417   3.513
 2186TIP3    H2 6502   6.575   5.559   3.468
 2187TIP3   OH2 6503   7.767   4.527   3.271
 2187TIP3    H1 6504   7.800   4.617   3.271
 2187TIP3    H2 6505   7.843   4.474   3.296
 2188TIP3   OH2 6506   5.683   6.474   4.905
 2188TIP3    H1 6507   5.621   6.525   4.853
 2188TIP3    H2 6508   5.768   6.492   4.865
 2189TIP3   OH2 6509   2.018   5.060   3.967
 2189TIP3    H1 6510   1.986   5.145   3.938
 2189TIP3    H2 6511   2.057   5.021   3.889
 2190TIP3   OH2 6512   2.788   2.377   5.013
 2190TIP3    H1 6513   2.742   2.295   5.031
 2190TIP3    H2 6514   2.881   2.355   5.022
 2191TIP3   OH2 6515   1.167   2.922   6.578
 2191TIP3    H1 6516   1.089   2.924   6.633
 2191TIP3    H2 6517   1.238   2.904   6.639
 2192TIP3   OH2 6518   4.306   7.594   6.055
 2192TIP3    H1 6519   4.278   7.566   6.143
 2192TIP3    H2 6520   4.333   7.685   6.066
 2193TIP3   OH2 6521   3.339   2.628   5.826
 2193TIP3    H1 6522   3.392   2.607   5.749
 2193TIP3    H2 6523   3.315   2.720   5.815
 2194TIP3   OH2 6524   3.033   7.834   3.225
 2194TIP3    H1 6525   3.064   7.838   3.135
 2194TIP3    H2 6526   3.059   7.747   3.256
 2195TIP3   OH2 6527   5.119   1.372   2.536
 2195TIP3    H1 6528   5.036   1.383   2.490
 2195TIP3    H2 6529   5.097   1.386   2.628
 2196TIP3   OH2 6530   0.068   7.545   2.672
 2196TIP3    H1 6531   0.031   7.470   2.627
 2196TIP3    H2 6532   0.144   7.510   2.719
 2197TIP3   OH2 6533   2.539   0.975   5.745
 2197TIP3    H1 6534   2.624   0.931   5.743
 2197TIP3    H2 6535   2.557   1.064   5.716
 2198TIP3   OH2 6536   2.430   1.820   5.909
 2198TIP3    H1 6537   2.383   1.785   5.985
 2198TIP3    H2 6538   2.439   1.745   5.850
 2199TIP3   OH2 6539   4.088   0.241   4.062
 2199TIP3    H1 6540   4.135   0.202   4.135
 2199TIP3    H2 6541   4.000   0.259   4.096
 2200TIP3   OH2 6542   0.975   1.765   2.659
 2200TIP3    H1 6543   0.983   1.782   2.753
 2200TIP3    H2 6544   0.923   1.685   2.653
 2201TIP3   OH2 6545   5.486   7.169   2.109
 2201TIP3    H1 6546   5.516   7.119   2.033
 2201TIP3    H2 6547   5.452   7.102   2.169
 2202TIP3   OH2 6548   3.580   0.786   5.789
 2202TIP3    H1 6549   3.526   0.847   5.837
 2202TIP3    H2 6550   3.578   0.817   5.699
 2203TIP3   OH2 6551   3.267   1.503   2.097
 2203TIP3    H1 6552   3.353   1.528   2.062
 2203TIP3    H2 6553   3.212   1.494   2.019
 2204TIP3   OH2 6554   4.856   7.525   5.288
 2204TIP3    H1 6555   4.799   7.582   5.236
 2204TIP3    H2 6556   4.931   7.508   5.231
 2205TIP3   OH2 6557   2.011   1.531   6.133
 2205TIP3    H1 6558   1.954   1.549   6.208
 2205TIP3    H2 6559   2.000   1.608   6.077
 2206TIP3   OH2 6560   5.772   3.692   0.727
 2206TIP3    H1 6561   5.796   3.738   0.646
 2206TIP3    H2 6562   5.761   3.761   0.792
 2207TIP3   OH2 6563   1.001   3.573   4.572
 2207TIP3    H1 6564   1.032   3.634   4.505
 2207TIP3    H2 6565   1.037   3.607   4.654
 2208TIP3   OH2 6566   6.877   7.185   2.702
 2208TIP3    H1 6567   6.884   7.207   2.795
 2208TIP3    H2 6568   6.960   7.212   2.665
 2209TIP3   OH2 6569   3.891   4.762   4.372
 2209TIP3    H1 6570   3.857   4.845   4.340
 2209TIP3    H2 6571   3.854   4.697   4.313
 2210TIP3   OH2 6572   3.760   6.158   0.917
 2210TIP3    H1 6573   3.690   6.141   0.854
 2210TIP3    H2 6574   3.750   6.250   0.941
 2211TIP3   OH2 6575   2.890   3.174   5.361
 2211TIP3    H1 6576   2.914   3.123   5.285
 2211TIP3    H2 6577   2.794   3.170   5.364
 2212TIP3   OH2 6578   7.350   4.849   0.788
 2212TIP3    H1 6579   7.317   4.761   0.805
 2212TIP3    H2 6580   7.446   4.838   0.786
 2213TIP3   OH2 6581   6.238   7.776   0.076
 2213TIP3    H1 6582   6.232   7.681   0.074
 2213TIP3    H2 6583   6.153   7.807   0.045
 2214TIP3   OH2 6584   5.807   0.487   1.154
 2214TIP3    H1 6585   5.884   0.541   1.173
 2214TIP3    H2 6586   5.737   0.550   1.139
 2215TIP3   OH2 6587   0.198   6.040   6.497
 2215TIP3    H1 6588   0.205   5.947   6.517
 2215TIP3    H2 6589   0.285   6.075   6.516
 2216TIP3   OH2 6590   1.047   5.089   6.754
 2216TIP3    H1 6591   0.955   5.102   6.729
 2216TIP3    H2 6592   1.065   4.998   6.733
 2217TIP3   OH2 6593   1.846   7.763   1.892
 2217TIP3    H1 6594   1.835   7.695   1.959
 2217TIP3    H2 6595   1.930   7.803   1.912
 2218TIP3   OH2 6596   4.327   1.203   4.484
 2218TIP3    H1 6597   4.315   1.283   4.433
 2218TIP3    H2 6598   4.277   1.137   4.435
 2219TIP3   OH2 6599   3.228   3.591   5.565
 2219TIP3    H1 6600   3.305   3.554   5.608
 2219TIP3    H2 6601   3.248   3.684   5.555
 2220TIP3   OH2 6602   0.464   0.086   1.710
 2220TIP3    H1 6603   0.497   0.005   1.749
 2220TIP3    H2 6604   0.418   0.057   1.631
 2221TIP3   OH2 6605   0.922   3.464   6.453
 2221TIP3    H1 6606   0.994   3.421   6.407
 2221TIP3    H2 6607   0.843   3.431   6.409
 2222TIP3   OH2 6608   0.689   3.918   2.868
 2222TIP3    H1 6609   0.769   3.968   2.879
 2222TIP3    H2 6610   0.628   3.978   2.825
 2223TIP3   OH2 6611   1.319   2.156   5.727
 2223TIP3    H1 6612   1.256   2.128   5.793
 2223TIP3    H2 6613   1.301   2.100   5.651
 2224TIP3   OH2 6614   4.167   2.108   5.701
 2224TIP3    H1 6615   4.135   2.083   5.615
 2224TIP3    H2 6616   4.180   2.203   5.696
 2225TIP3   OH2 6617   5.797   6.622   0.141
 2225TIP3    H1 6618   5.727   6.568   0.177
 2225TIP3    H2 6619   5.777   6.627   0.047
 2226TIP3   OH2 6620   4.324   1.318   6.366
 2226TIP3    H1 6621   4.396   1.344   6.309
 2226TIP3    H2 6622   4.366   1.291   6.448
 2227TIP3   OH2 6623   6.251   1.441   3.281
 2227TIP3    H1 6624   6.181   1.380   3.257
 2227TIP3    H2 6625   6.212   1.497   3.349
 2228TIP3   OH2 6626   5.517   4.190   4.311
 2228TIP3    H1 6627   5.423   4.178   4.324
 2228TIP3    H2 6628   5.525   4.223   4.221
 2229TIP3   OH2 6629   6.119   3.278   3.048
 2229TIP3    H1 6630   6.051   3.280   3.115
 2229TIP3    H2 6631   6.089   3.210   2.987
 2230TIP3   OH2 6632   5.013   0.637   2.537
 2230TIP3    H1 6633   5.072   0.710   2.554
 2230TIP3    H2 6634   4.927   0.678   2.527
 2231TIP3   OH2 6635   4.051   0.626   1.415
 2231TIP3    H1 6636   4.059   0.533   1.397
 2231TIP3    H2 6637   4.106   0.669   1.350
 2232TIP3   OH2 6638   5.606   2.123   4.683
 2232TIP3    H1 6639   5.549   2.062   4.731
 2232TIP3    H2 6640   5.686   2.073   4.666
 2233TIP3   OH2 6641   4.361   3.864   1.931
 2233TIP3    H1 6642   4.317   3.918   1.865
 2233TIP3    H2 6643   4.313   3.782   1.931
 2234TIP3   OH2 6644   4.985   1.659   2.508
 2234TIP3    H1 6645   5.002   1.753   2.512
 2234TIP3    H2 6646   4.990   1.637   2.415
 2235TIP3   OH2 6647   7.257   0.333   0.206
 2235TIP3    H1 6648   7.208   0.295   0.278
 2235TIP3    H2 6649   7.346   0.298   0.217
 2236TIP3   OH2 6650   4.392   0.532   6.680
 2236TIP3    H1 6651   4.417   0.564   6.767
 2236TIP3    H2 6652   4.331   0.598   6.647
 2237TIP3   OH2 6653   7.354   7.055   3.207
 2237TIP3    H1 6654   7.290   7.064   3.277
 2237TIP3    H2 6655   7.302   7.030   3.130
 2238TIP3   OH2 6656   7.588   6.716   5.642
 2238TIP3    H1 6657   7.680   6.689   5.635
 2238TIP3    H2 6658   7.539   6.637   5.622
 2239TIP3   OH2 6659   0.550   6.460   3.130
 2239TIP3    H1 6660   0.508   6.499   3.053
 2239TIP3    H2 6661   0.565   6.368   3.105
 2240TIP3   OH2 6662   4.600   7.321   5.339
 2240TIP3    H1 6663   4.604   7.240   5.391
 2240TIP3    H2 6664   4.641   7.387   5.395
 2241TIP3   OH2 6665   6.679   0.656   4.823
 2241TIP3    H1 6666   6.731   0.627   4.898
 2241TIP3    H2 6667   6.741   0.699   4.765
 2242TIP3   OH2 6668   1.729   5.459   2.599
 2242TIP3    H1 6669   1.764   5.410   2.673
 2242TIP3    H2 6670   1.663   5.401   2.561
 2243TIP3   OH2 6671   0.492   0.395   2.565
 2243TIP3    H1 6672   0.538   0.311   2.564
 2243TIP3    H2 6673   0.527   0.442   2.489
 2244TIP3   OH2 6674   3.921   2.393   3.158
 2244TIP3    H1 6675   3.985   2.390   3.087
 2244TIP3    H2 6676   3.882   2.306   3.160
 2245TIP3   OH2 6677   1.731   6.875   5.975
 2245TIP3    H1 6678   1.695   6.947   6.028
 2245TIP3    H2 6679   1.758   6.810   6.040
 2246TIP3   OH2 6680   4.548   7.765   3.093
 2246TIP3    H1 6681   4.607   7.805   3.157
 2246TIP3    H2 6682   4.462   7.767   3.135
 2247TIP3   OH2 6683   2.557   0.704   6.560
 2247TIP3    H1 6684   2.616   0.706   6.635
 2247TIP3    H2 6685   2.489   0.768   6.581
 2248TIP3   OH2 6686   0.359   6.147   4.426
 2248TIP3    H1 6687   0.365   6.207   4.499
 2248TIP3    H2 6688   0.309   6.072   4.460
 2249TIP3   OH2 6689   7.897   2.392   3.283
 2249TIP3    H1 6690   7.849   2.314   3.308
 2249TIP3    H2 6691   7.969   2.360   3.228
 2250TIP3   OH2 6692   7.422   4.718   6.582
 2250TIP3    H1 6693   7.367   4.692   6.656
 2250TIP3    H2 6694   7.510   4.688   6.606
 2251TIP3   OH2 6695   5.997   6.610   6.642
 2251TIP3    H1 6696   5.986   6.616   6.547
 2251TIP3    H2 6697   5.935   6.673   6.678
 2252TIP3   OH2 6698   4.775   2.059   4.545
 2252TIP3    H1 6699   4.818   2.110   4.614
 2252TIP3    H2 6700   4.817   2.088   4.464
 2253TIP3   OH2 6701   4.735   0.181   6.422
 2253TIP3    H1 6702   4.661   0.243   6.424
 2253TIP3    H2 6703   4.812   0.235   6.440
 2254TIP3   OH2 6704   8.135   0.166   0.800
 2254TIP3    H1 6705   8.071   0.099   0.823
 2254TIP3    H2 6706   8.127   0.175   0.706
 2255TIP3   OH2 6707   0.143   7.593   0.697
 2255TIP3    H1 6708   0.145   7.508   0.653
 2255TIP3    H2 6709   0.235   7.618   0.703
 2256TIP3   OH2 6710   2.730   3.463   4.207
 2256TIP3    H1 6711   2.706   3.519   4.280
 2256TIP3    H2 6712   2.721   3.374   4.241
 2257TIP3   OH2 6713   6.564   1.882   1.568
 2257TIP3    H1 6714   6.491   1.930   1.608
 2257TIP3    H2 6715   6.609   1.841   1.641
 2258TIP3   OH2 6716   7.356   3.374   0.374
 2258TIP3    H1 6717   7.394   3.353   0.459
 2258TIP3    H2 6718   7.290   3.306   0.360
 2259TIP3   OH2 6719   0.817   1.660   5.118
 2259TIP3    H1 6720   0.881   1.615   5.063
 2259TIP3    H2 6721   0.833   1.753   5.102
 2260TIP3   OH2 6722   0.934   6.807   5.621
 2260TIP3    H1 6723   0.958   6.720   5.655
 2260TIP3    H2 6724   0.928   6.795   5.527
 2261TIP3   OH2 6725   2.523   1.121   5.347
 2261TIP3    H1 6726   2.504   1.200   5.397
 2261TIP3    H2 6727   2.619   1.120   5.341
 2262TIP3   OH2 6728   1.745   5.723   2.626
 2262TIP3    H1 6729   1.721   5.631   2.616
 2262TIP3    H2 6730   1.829   5.731   2.582
 2263TIP3   OH2 6731   6.622   2.346   3.601
 2263TIP3    H1 6732   6.693   2.369   3.542
 2263TIP3    H2 6733   6.551   2.319   3.544
 2264TIP3   OH2 6734   4.753   1.288   3.320
 2264TIP3    H1 6735   4.827   1.228   3.313
 2264TIP3    H2 6736   4.749   1.310   3.413
 2265TIP3   OH2 6737   8.276   3.184   4.006
 2265TIP3    H1 6738   8.332   3.248   3.964
 2265TIP3    H2 6739   8.226   3.233   4.071
 2266TIP3   OH2 6740   6.770   6.896   4.801
 2266TIP3    H1 6741   6.837   6.827   4.802
 2266TIP3    H2 6742   6.779   6.938   4.887
 2267TIP3   OH2 6743   5.671   7.545   0.075
 2267TIP3    H1 6744   5.762   7.528   0.052
 2267TIP3    H2 6745   5.632   7.578  -0.006
 2268TIP3   OH2 6746   0.784   4.848   4.929
 2268TIP3    H1 6747   0.725   4.798   4.984
 2268TIP3    H2 6748   0.829   4.782   4.876
 2269TIP3   OH2 6749   5.949   1.317   4.646
 2269TIP3    H1 6750   5.974   1.332   4.555
 2269TIP3    H2 6751   5.916   1.401   4.677
 2270TIP3   OH2 6752   7.226   4.550   4.510
 2270TIP3    H1 6753   7.313   4.535   4.548
 2270TIP3    H2 6754   7.165   4.517   4.575
 2271TIP3   OH2 6755   6.421   3.401   5.037
 2271TIP3    H1 6756   6.407   3.360   4.951
 2271TIP3    H2 6757   6.359   3.356   5.095
 2272TIP3   OH2 6758   6.471   4.317   0.265
 2272TIP3    H1 6759   6.471   4.358   0.179
 2272TIP3    H2 6760   6.379   4.296   0.281
 2273TIP3   OH2 6761   7.682   5.932   5.946
 2273TIP3    H1 6762   7.667   5.839   5.932
 2273TIP3    H2 6763   7.734   5.960   5.871
 2274TIP3   OH2 6764   1.186   6.490   5.507
 2274TIP3    H1 6765   1.240   6.418   5.540
 2274TIP3    H2 6766   1.245   6.540   5.451
 2275TIP3   OH2 6767   4.577   4.983   5.724
 2275TIP3    H1 6768   4.484   4.984   5.749
 2275TIP3    H2 6769   4.622   4.950   5.803
 2276TIP3   OH2 6770   0.317   4.595   3.329
 2276TIP3    H1 6771   0.231   4.634   3.313
 2276TIP3    H2 6772   0.298   4.505   3.357
 2277TIP3   OH2 6773   7.706   0.729   5.366
 2277TIP3    H1 6774   7.721   0.639   5.337
 2277TIP3    H2 6775   7.669   0.773   5.290
 2278TIP3   OH2 6776   2.367   4.589   6.680
 2278TIP3    H1 6777   2.415   4.560   6.602
 2278TIP3    H2 6778   2.291   4.531   6.684
 2279TIP3   OH2 6779   6.265   2.112   4.285
 2279TIP3    H1 6780   6.263   2.160   4.368
 2279TIP3    H2 6781   6.323   2.163   4.229
 2280TIP3   OH2 6782   0.513   0.093   2.752
 2280TIP3    H1 6783   0.563   0.165   2.790
 2280TIP3    H2 6784   0.567   0.061   2.680
 2281TIP3   OH2 6785   0.222   2.332   0.660
 2281TIP3    H1 6786   0.161   2.276   0.708
 2281TIP3    H2 6787   0.258   2.276   0.591
 2282TIP3   OH2 6788   0.034   3.811   2.666
 2282TIP3    H1 6789  -0.059   3.813   2.647
 2282TIP3    H2 6790   0.077   3.835   2.584
 2283TIP3   OH2 6791   2.680   2.618   1.851
 2283TIP3    H1 6792   2.681   2.522   1.856
 2283TIP3    H2 6793   2.634   2.645   1.931
 2284TIP3   OH2 6794   2.274   1.082   4.483
 2284TIP3    H1 6795   2.340   1.131   4.532
 2284TIP3    H2 6796   2.317   1.061   4.400
 2285TIP3   OH2 6797   3.725   2.946   4.800
 2285TIP3    H1 6798   3.634   2.946   4.770
 2285TIP3    H2 6799   3.742   3.037   4.824
 2286TIP3   OH2 6800   7.236   6.362   5.731
 2286TIP3    H1 6801   7.223   6.344   5.638
 2286TIP3    H2 6802   7.331   6.362   5.742
 2287TIP3   OH2 6803   8.207   2.475   0.814
 2287TIP3    H1 6804   8.241   2.390   0.788
 2287TIP3    H2 6805   8.155   2.504   0.739
 2288TIP3   OH2 6806   8.053   4.000   5.309
 2288TIP3    H1 6807   8.084   3.996   5.219
 2288TIP3    H2 6808   7.982   3.936   5.313
 2289TIP3   OH2 6809   0.249   6.155   0.528
 2289TIP3    H1 6810   0.195   6.077   0.515
 2289TIP3    H2 6811   0.332   6.135   0.484
 2290TIP3   OH2 6812   4.741   3.056   5.808
 2290TIP3    H1 6813   4.680   3.125   5.835
 2290TIP3    H2 6814   4.687   2.977   5.803
 2291TIP3   OH2 6815   6.028   3.153   2.829
 2291TIP3    H1 6816   5.934   3.136   2.829
 2291TIP3    H2 6817   6.060   3.114   2.748
 2292TIP3   OH2 6818   4.587   5.928   2.860
 2292TIP3    H1 6819   4.649   5.858   2.879
 2292TIP3    H2 6820   4.512   5.884   2.820
 2293TIP3   OH2 6821   5.166   3.715   2.917
 2293TIP3    H1 6822   5.134   3.738   3.004
 2293TIP3    H2 6823   5.190   3.799   2.876
 2294TIP3   OH2 6824   0.238   0.908   3.743
 2294TIP3    H1 6825   0.280   0.964   3.678
 2294TIP3    H2 6826   0.216   0.967   3.815
 2295TIP3   OH2 6827   3.128   3.191   1.801
 2295TIP3    H1 6828   3.061   3.190   1.870
 2295TIP3    H2 6829   3.134   3.283   1.774
 2296TIP3   OH2 6830   4.820   6.131   6.170
 2296TIP3    H1 6831   4.852   6.092   6.088
 2296TIP3    H2 6832   4.728   6.103   6.175
 2297TIP3   OH2 6833   4.869   2.764   2.390
 2297TIP3    H1 6834   4.824   2.820   2.327
 2297TIP3    H2 6835   4.801   2.702   2.419
 2298TIP3   OH2 6836   1.963   3.508   1.262
 2298TIP3    H1 6837   1.968   3.516   1.167
 2298TIP3    H2 6838   1.908   3.581   1.290
 2299TIP3   OH2 6839   1.193   0.989   1.826
 2299TIP3    H1 6840   1.181   0.992   1.921
 2299TIP3    H2 6841   1.212   1.080   1.801
 2300TIP3   OH2 6842   5.437   2.318   4.580
 2300TIP3    H1 6843   5.492   2.239   4.578
 2300TIP3    H2 6844   5.401   2.319   4.669
 2301TIP3   OH2 6845   6.627   0.356   6.015
 2301TIP3    H1 6846   6.647   0.402   5.933
 2301TIP3    H2 6847   6.533   0.371   6.028
 2302TIP3   OH2 6848   4.586   5.573   2.305
 2302TIP3    H1 6849   4.610   5.642   2.243
 2302TIP3    H2 6850   4.669   5.544   2.342
 2303TIP3   OH2 6851   3.210   2.883   5.852
 2303TIP3    H1 6852   3.143   2.893   5.785
 2303TIP3    H2 6853   3.271   2.956   5.836
 2304TIP3   OH2 6854   2.798   0.283   2.015
 2304TIP3    H1 6855   2.752   0.365   2.033
 2304TIP3    H2 6856   2.852   0.269   2.093
 2305TIP3   OH2 6857   4.915   4.767   0.895
 2305TIP3    H1 6858   4.978   4.828   0.855
 2305TIP3    H2 6859   4.837   4.775   0.841
 2306TIP3   OH2 6860   0.341   0.820   2.447
 2306TIP3    H1 6861   0.361   0.802   2.539
 2306TIP3    H2 6862   0.246   0.813   2.441
 2307TIP3   OH2 6863   6.276   6.248   3.216
 2307TIP3    H1 6864   6.320   6.329   3.193
 2307TIP3    H2 6865   6.307   6.184   3.151
 2308TIP3   OH2 6866   7.838   6.219   4.627
 2308TIP3    H1 6867   7.760   6.275   4.624
 2308TIP3    H2 6868   7.895   6.253   4.558
 2309TIP3   OH2 6869   3.285   3.379   5.075
 2309TIP3    H1 6870   3.235   3.416   5.002
 2309TIP3    H2 6871   3.308   3.291   5.045
 2310TIP3   OH2 6872   7.061   6.428   2.688
 2310TIP3    H1 6873   7.133   6.446   2.748
 2310TIP3    H2 6874   7.093   6.458   2.603
 2311TIP3   OH2 6875   5.523   4.042   6.349
 2311TIP3    H1 6876   5.565   4.081   6.273
 2311TIP3    H2 6877   5.472   4.114   6.387
 2312TIP3   OH2 6878   5.565   3.533   1.841
 2312TIP3    H1 6879   5.544   3.536   1.935
 2312TIP3    H2 6880   5.642   3.476   1.836
 2313TIP3   OH2 6881   1.379   1.309   5.261
 2313TIP3    H1 6882   1.469   1.332   5.239
 2313TIP3    H2 6883   1.379   1.213   5.263
 2314TIP3   OH2 6884   6.692   1.153   0.855
 2314TIP3    H1 6885   6.761   1.112   0.804
 2314TIP3    H2 6886   6.668   1.231   0.804
 2315TIP3   OH2 6887   8.089   2.061   3.874
 2315TIP3    H1 6888   8.110   1.969   3.854
 2315TIP3    H2 6889   8.041   2.058   3.956
 2316TIP3   OH2 6890   4.468   1.339   3.570
 2316TIP3    H1 6891   4.376   1.362   3.560
 2316TIP3    H2 6892   4.511   1.420   3.598
 2317TIP3   OH2 6893   6.537   0.332   3.039
 2317TIP3    H1 6894   6.573   0.253   3.079
 2317TIP3    H2 6895   6.532   0.311   2.945
 2318TIP3   OH2 6896   3.056   7.315   3.476
 2318TIP3    H1 6897   2.963   7.329   3.489
 2318TIP3    H2 6898   3.062   7.229   3.434
 2319TIP3   OH2 6899   2.541   3.311   4.944
 2319TIP3    H1 6900   2.630   3.277   4.946
 2319TIP3    H2 6901   2.491   3.243   4.898
 2320TIP3   OH2 6902   6.031   7.461   0.405
 2320TIP3    H1 6903   5.988   7.477   0.321
 2320TIP3    H2 6904   6.116   7.422   0.381
 2321TIP3   OH2 6905   7.903   7.698   0.823
 2321TIP3    H1 6906   7.960   7.774   0.817
 2321TIP3    H2 6907   7.831   7.716   0.762
 2322TIP3   OH2 6908   1.339   7.130   4.971
 2322TIP3    H1 6909   1.309   7.108   5.059
 2322TIP3    H2 6910   1.388   7.212   4.983
 2323TIP3   OH2 6911   3.379   5.393   5.201
 2323TIP3    H1 6912   3.299   5.390   5.147
 2323TIP3    H2 6913   3.424   5.311   5.182
 2324TIP3   OH2 6914   5.833   7.606   5.474
 2324TIP3    H1 6915   5.822   7.699   5.497
 2324TIP3    H2 6916   5.912   7.579   5.520
 2325TIP3   OH2 6917   1.365   1.226   6.676
 2325TIP3    H1 6918   1.301   1.163   6.641
 2325TIP3    H2 6919   1.337   1.242   6.766
 2326TIP3   OH2 6920   3.260   6.825   5.581
 2326TIP3    H1 6921   3.216   6.799   5.663
 2326TIP3    H2 6922   3.213   6.777   5.513
 2327TIP3   OH2 6923   7.626   5.265   4.702
 2327TIP3    H1 6924   7.579   5.181   4.706
 2327TIP3    H2 6925   7.711   5.242   4.665
 2328TIP3   OH2 6926   8.130   6.388   4.625
 2328TIP3    H1 6927   8.102   6.478   4.643
 2328TIP3    H2 6928   8.128   6.345   4.710
 2329TIP3   OH2 6929   2.781   4.635   5.187
 2329TIP3    H1 6930   2.802   4.678   5.270
 2329TIP3    H2 6931   2.771   4.543   5.210
 2330TIP3   OH2 6932   5.785   3.535   5.916
 2330TIP3    H1 6933   5.753   3.457   5.872
 2330TIP3    H2 6934   5.814   3.504   6.002
 2331TIP3   OH2 6935   5.852   6.186   5.213
 2331TIP3    H1 6936   5.786   6.218   5.152
 2331TIP3    H2 6937   5.818   6.102   5.245
 2332TIP3   OH2 6938   3.075   5.129   4.096
 2332TIP3    H1 6939   3.010   5.061   4.080
 2332TIP3    H2 6940   3.068   5.188   4.020
 2333TIP3   OH2 6941   6.238   4.889   0.432
 2333TIP3    H1 6942   6.294   4.956   0.394
 2333TIP3    H2 6943   6.158   4.891   0.380
 2334TIP3   OH2 6944   7.602   0.034   6.281
 2334TIP3    H1 6945   7.665   0.061   6.348
 2334TIP3    H2 6946   7.643   0.060   6.199
 2335TIP3   OH2 6947   1.107   6.971   1.297
 2335TIP3    H1 6948   1.042   6.974   1.226
 2335TIP3    H2 6949   1.160   6.894   1.277
 2336TIP3   OH2 6950   1.247   2.852   1.956
 2336TIP3    H1 6951   1.168   2.882   2.001
 2336TIP3    H2 6952   1.258   2.912   1.882
 2337TIP3   OH2 6953   0.901   0.649   4.964
 2337TIP3    H1 6954   0.917   0.734   5.006
 2337TIP3    H2 6955   0.807   0.633   4.977
 2338TIP3   OH2 6956   2.176   3.528   1.742
 2338TIP3    H1 6957   2.164   3.456   1.680
 2338TIP3    H2 6958   2.129   3.499   1.821
 2339TIP3   OH2 6959   5.043   5.269   2.597
 2339TIP3    H1 6960   4.949   5.278   2.582
 2339TIP3    H2 6961   5.059   5.314   2.680
 2340TIP3   OH2 6962   0.122   4.437   4.948
 2340TIP3    H1 6963   0.141   4.454   4.855
 2340TIP3    H2 6964   0.146   4.519   4.992
 2341TIP3   OH2 6965   0.446   0.407   5.008
 2341TIP3    H1 6966   0.370   0.407   4.950
 2341TIP3    H2 6967   0.506   0.469   4.968
 2342TIP3   OH2 6968   0.468   2.296   3.806
 2342TIP3    H1 6969   0.512   2.231   3.861
 2342TIP3    H2 6970   0.463   2.255   3.720
 2343TIP3   OH2 6971   0.922   2.624   3.749
 2343TIP3    H1 6972   0.900   2.638   3.841
 2343TIP3    H2 6973   0.844   2.582   3.712
 2344TIP3   OH2 6974   3.701   3.245   2.898
 2344TIP3    H1 6975   3.663   3.309   2.959
 2344TIP3    H2 6976   3.782   3.286   2.868
 2345TIP3   OH2 6977   3.963   1.127   3.481
 2345TIP3    H1 6978   4.024   1.175   3.537
 2345TIP3    H2 6979   3.917   1.067   3.540
 2346TIP3   OH2 6980   7.714   4.384   4.763
 2346TIP3    H1 6981   7.786   4.363   4.703
 2346TIP3    H2 6982   7.746   4.459   4.814
 2347TIP3   OH2 6983   2.057   6.431   1.654
 2347TIP3    H1 6984   1.988   6.476   1.702
 2347TIP3    H2 6985   2.059   6.343   1.692
 2348TIP3   OH2 6986   4.779   6.073   4.049
 2348TIP3    H1 6987   4.808   6.059   3.959
 2348TIP3    H2 6988   4.860   6.077   4.100
 2349TIP3   OH2 6989   3.238   1.894   6.343
 2349TIP3    H1 6990   3.202   1.864   6.426
 2349TIP3    H2 6991   3.276   1.980   6.363
 2350TIP3   OH2 6992   0.161   5.622   0.348
 2350TIP3    H1 6993   0.088   5.633   0.287
 2350TIP3    H2 6994   0.124   5.573   0.421
 2351TIP3   OH2 6995   1.992   0.265   0.228
 2351TIP3    H1 6996   1.959   0.276   0.139
 2351TIP3    H2 6997   2.059   0.333   0.238
 2352TIP3   OH2 6998   1.684   4.603   1.759
 2352TIP3    H1 6999   1.645   4.516   1.765
 2352TIP3    H2 7000   1.610   4.661   1.743
 2353TIP3   OH2 7001   6.820   2.444   3.005
 2353TIP3    H1 7002   6.911   2.468   3.025
 2353TIP3    H2 7003   6.796   2.382   3.074
 2354TIP3   OH2 7004   3.240   2.111   3.551
 2354TIP3    H1 7005   3.158   2.116   3.502
 2354TIP3    H2 7006   3.302   2.072   3.490
 2355TIP3   OH2 7007   2.230   5.465   3.237
 2355TIP3    H1 7008   2.167   5.398   3.208
 2355TIP3    H2 7009   2.192   5.548   3.207
 2356TIP3   OH2 7010   2.879   0.107   5.643
 2356TIP3    H1 7011   2.944   0.154   5.696
 2356TIP3    H2 7012   2.815   0.174   5.619
 2357TIP3   OH2 7013   1.998   3.827   6.610
 2357TIP3    H1 7014   2.078   3.855   6.655
 2357TIP3    H2 7015   1.988   3.889   6.538
 2358TIP3   OH2 7016   7.983   3.487   4.022
 2358TIP3    H1 7017   7.900   3.516   4.060
 2358TIP3    H2 7018   8.049   3.510   4.087
 2359TIP3   OH2 7019   7.081   4.523   4.721
 2359TIP3    H1 7020   7.111   4.471   4.796
 2359TIP3    H2 7021   6.991   4.547   4.742
 2360TIP3   OH2 7022   3.439   6.175   5.210
 2360TIP3    H1 7023   3.461   6.100   5.154
 2360TIP3    H2 7024   3.486   6.157   5.292
 2361TIP3   OH2 7025   3.235   5.442   1.181
 2361TIP3    H1 7026   3.224   5.380   1.110
 2361TIP3    H2 7027   3.192   5.522   1.151
 2362TIP3   OH2 7028   1.025   4.236   2.572
 2362TIP3    H1 7029   0.999   4.318   2.530
 2362TIP3    H2 7030   1.050   4.261   2.661
 2363TIP3   OH2 7031   4.107   3.833   3.245
 2363TIP3    H1 7032   4.161   3.759   3.274
 2363TIP3    H2 7033   4.162   3.877   3.179
 2364TIP3   OH2 7034   5.899   5.770   2.418
 2364TIP3    H1 7035   5.835   5.708   2.452
 2364TIP3    H2 7036   5.970   5.715   2.385
 2365TIP3   OH2 7037   4.310   1.137   4.751
 2365TIP3    H1 7038   4.227   1.091   4.743
 2365TIP3    H2 7039   4.335   1.156   4.660
 2366TIP3   OH2 7040   2.412   6.430   6.082
 2366TIP3    H1 7041   2.441   6.341   6.103
 2366TIP3    H2 7042   2.381   6.465   6.166
 2367TIP3   OH2 7043   4.709   5.515   6.542
 2367TIP3    H1 7044   4.668   5.433   6.515
 2367TIP3    H2 7045   4.661   5.583   6.495
 2368TIP3   OH2 7046   2.029   1.398   2.684
 2368TIP3    H1 7047   2.033   1.391   2.589
 2368TIP3    H2 7048   2.120   1.389   2.713
 2369TIP3   OH2 7049   2.891   4.949   3.015
 2369TIP3    H1 7050   2.835   5.002   2.958
 2369TIP3    H2 7051   2.897   4.864   2.970
 2370TIP3   OH2 7052   4.592   5.276   6.437
 2370TIP3    H1 7053   4.507   5.233   6.442
 2370TIP3    H2 7054   4.648   5.227   6.498
 2371TIP3   OH2 7055   5.990   3.364   5.278
 2371TIP3    H1 7056   6.000   3.456   5.304
 2371TIP3    H2 7057   6.015   3.314   5.356
 2372TIP3   OH2 7058   4.845   7.495   6.445
 2372TIP3    H1 7059   4.762   7.485   6.397
 2372TIP3    H2 7060   4.858   7.410   6.487
 2373TIP3   OH2 7061   8.061   1.447   3.692
 2373TIP3    H1 7062   8.018   1.492   3.764
 2373TIP3    H2 7063   7.992   1.437   3.626
 2374TIP3   OH2 7064   1.124   0.960   4.846
 2374TIP3    H1 7065   1.208   0.963   4.800
 2374TIP3    H2 7066   1.060   0.986   4.779
 2375TIP3   OH2 7067   6.088   4.546   0.185
 2375TIP3    H1 7068   6.109   4.460   0.149
 2375TIP3    H2 7069   6.131   4.607   0.125
 2376TIP3   OH2 7070   1.521   4.006   3.356
 2376TIP3    H1 7071   1.565   4.078   3.311
 2376TIP3    H2 7072   1.435   4.001   3.314
 2377TIP3   OH2 7073   2.967   6.690   6.623
 2377TIP3    H1 7074   2.909   6.671   6.549
 2377TIP3    H2 7075   3.030   6.618   6.623
 2378TIP3   OH2 7076   0.463   7.316   1.154
 2378TIP3    H1 7077   0.530   7.251   1.135
 2378TIP3    H2 7078   0.470   7.330   1.248
 2379TIP3   OH2 7079   5.106   1.212   0.761
 2379TIP3    H1 7080   5.142   1.226   0.673
 2379TIP3    H2 7081   5.067   1.125   0.756
 2380TIP3   OH2 7082   1.038   0.214   4.134
 2380TIP3    H1 7083   1.116   0.175   4.173
 2380TIP3    H2 7084   1.009   0.150   4.069
 2381TIP3   OH2 7085   3.034   1.210   6.487
 2381TIP3    H1 7086   2.991   1.283   6.532
 2381TIP3    H2 7087   3.001   1.215   6.397
 2382TIP3   OH2 7088   4.690   5.133   2.969
 2382TIP3    H1 7089   4.777   5.152   2.936
 2382TIP3    H2 7090   4.705   5.089   3.052
 2383TIP3   OH2 7091   1.380   6.070   4.480
 2383TIP3    H1 7092   1.294   6.027   4.485
 2383TIP3    H2 7093   1.360   6.163   4.475
 2384TIP3   OH2 7094   7.406   0.391   6.323
 2384TIP3    H1 7095   7.499   0.411   6.333
 2384TIP3    H2 7096   7.400   0.344   6.240
 2385TIP3   OH2 7097   5.093   4.079   1.344
 2385TIP3    H1 7098   5.071   4.082   1.437
 2385TIP3    H2 7099   5.018   4.037   1.302
 2386TIP3   OH2 7100   2.957   3.511   5.101
 2386TIP3    H1 7101   2.880   3.568   5.096
 2386TIP3    H2 7102   2.998   3.534   5.184
 2387TIP3   OH2 7103   7.880   0.198   2.538
 2387TIP3    H1 7104   7.857   0.287   2.510
 2387TIP3    H2 7105   7.963   0.181   2.493
 2388TIP3   OH2 7106   1.797   2.987   5.523
 2388TIP3    H1 7107   1.751   3.000   5.440
 2388TIP3    H2 7108   1.862   2.920   5.503
 2389TIP3   OH2 7109   0.054   7.430   3.067
 2389TIP3    H1 7110   0.070   7.517   3.106
 2389TIP3    H2 7111  -0.030   7.440   3.021
 2390TIP3   OH2 7112   6.801   3.400   2.151
 2390TIP3    H1 7113   6.727   3.344   2.173
 2390TIP3    H2 7114   6.763   3.484   2.128
 2391TIP3   OH2 7115   1.797   4.125   3.561
 2391TIP3    H1 7116   1.760   4.053   3.509
 2391TIP3    H2 7117   1.853   4.172   3.500
 2392TIP3   OH2 7118   2.605   6.219   5.100
 2392TIP3    H1 7119   2.641   6.133   5.122
 2392TIP3    H2 7120   2.584   6.259   5.184
 2393TIP3   OH2 7121   3.177   6.066   0.813
 2393TIP3    H1 7122   3.260   6.109   0.791
 2393TIP3    H2 7123   3.122   6.081   0.736
 2394TIP3   OH2 7124   6.477   0.417   3.784
 2394TIP3    H1 7125   6.484   0.502   3.829
 2394TIP3    H2 7126   6.468   0.354   3.855
 2395TIP3   OH2 7127   2.209   2.580   0.757
 2395TIP3    H1 7128   2.276   2.544   0.699
 2395TIP3    H2 7129   2.254   2.593   0.840
 2396TIP3   OH2 7130   5.739   2.438   2.968
 2396TIP3    H1 7131   5.835   2.432   2.965
 2396TIP3    H2 7132   5.721   2.531   2.954
 2397TIP3   OH2 7133   1.877   6.056   5.672
 2397TIP3    H1 7134   1.951   6.018   5.625
 2397TIP3    H2 7135   1.898   6.149   5.677
 2398TIP3   OH2 7136   6.720   0.697   0.332
 2398TIP3    H1 7137   6.686   0.785   0.351
 2398TIP3    H2 7138   6.762   0.705   0.247
 2399TIP3   OH2 7139   1.550   3.507   4.748
 2399TIP3    H1 7140   1.482   3.556   4.700
 2399TIP3    H2 7141   1.628   3.515   4.693
 2400TIP3   OH2 7142   1.815   3.892   6.233
 2400TIP3    H1 7143   1.887   3.832   6.214
 2400TIP3    H2 7144   1.842   3.938   6.312
 2401TIP3   OH2 7145   0.942   6.928   2.167
 2401TIP3    H1 7146   0.981   6.893   2.247
 2401TIP3    H2 7147   0.897   7.007   2.195
 2402TIP3   OH2 7148   7.440   1.429   1.204
 2402TIP3    H1 7149   7.492   1.448   1.125
 2402TIP3    H2 7150   7.414   1.515   1.236
 2403TIP3   OH2 7151   3.509   5.936   5.079
 2403TIP3    H1 7152   3.583   5.949   5.138
 2403TIP3    H2 7153   3.482   5.846   5.095
 2404TIP3   OH2 7154   3.970   3.933   6.229
 2404TIP3    H1 7155   4.049   3.945   6.175
 2404TIP3    H2 7156   3.906   3.895   6.169
 2405TIP3   OH2 7157   4.640   3.195   6.465
 2405TIP3    H1 7158   4.585   3.274   6.468
 2405TIP3    H2 7159   4.578   3.123   6.464
 2406TIP3   OH2 7160   6.406   0.947   2.285
 2406TIP3    H1 7161   6.398   0.975   2.194
 2406TIP3    H2 7162   6.437   1.024   2.332
 2407TIP3   OH2 7163   3.912   0.404  -0.013
 2407TIP3    H1 7164   3.998   0.373   0.015
 2407TIP3    H2 7165   3.860   0.407   0.068
 2408TIP3   OH2 7166   7.500   4.223   4.729
 2408TIP3    H1 7167   7.564   4.289   4.756
 2408TIP3    H2 7168   7.491   4.235   4.635
 2409TIP3   OH2 7169   5.735   1.067   3.609
 2409TIP3    H1 7170   5.821   1.051   3.571
 2409TIP3    H2 7171   5.723   1.162   3.601
 2410TIP3   OH2 7172   2.620   0.938   5.146
 2410TIP3    H1 7173   2.649   1.013   5.095
 2410TIP3    H2 7174   2.580   0.977   5.225
 2411TIP3   OH2 7175   1.087   2.394   3.675
 2411TIP3    H1 7176   1.098   2.478   3.631
 2411TIP3    H2 7177   1.126   2.406   3.761
 2412TIP3   OH2 7178   6.618   1.440   1.020
 2412TIP3    H1 7179   6.625   1.421   0.927
 2412TIP3    H2 7180   6.625   1.354   1.062
 2413TIP3   OH2 7181   7.029   2.489   1.107
 2413TIP3    H1 7182   6.936   2.479   1.086
 2413TIP3    H2 7183   7.069   2.405   1.081
 2414TIP3   OH2 7184   6.252   3.769   4.573
 2414TIP3    H1 7185   6.187   3.837   4.594
 2414TIP3    H2 7186   6.274   3.785   4.482
 2415TIP3   OH2 7187   6.486   5.218   3.109
 2415TIP3    H1 7188   6.437   5.289   3.067
 2415TIP3    H2 7189   6.453   5.138   3.068
 2416TIP3   OH2 7190   1.652   1.425   4.732
 2416TIP3    H1 7191   1.620   1.478   4.659
 2416TIP3    H2 7192   1.653   1.486   4.806
 2417TIP3   OH2 7193   4.196   2.443   0.492
 2417TIP3    H1 7194   4.272   2.498   0.470
 2417TIP3    H2 7195   4.216   2.358   0.453
 2418TIP3   OH2 7196   5.594   5.132   1.697
 2418TIP3    H1 7197   5.649   5.055   1.684
 2418TIP3    H2 7198   5.510   5.096   1.725
 2419TIP3   OH2 7199   8.006   6.241   2.492
 2419TIP3    H1 7200   7.949   6.176   2.452
 2419TIP3    H2 7201   8.007   6.314   2.431
 2420TIP3   OH2 7202   0.118   1.022   3.036
 2420TIP3    H1 7203   0.193   1.054   2.985
 2420TIP3    H2 7204   0.102   0.934   3.002
 2421TIP3   OH2 7205   2.818   5.158   1.505
 2421TIP3    H1 7206   2.732   5.197   1.491
 2421TIP3    H2 7207   2.841   5.182   1.594
 2422TIP3   OH2 7208   0.499   4.117   6.498
 2422TIP3    H1 7209   0.529   4.051   6.435
 2422TIP3    H2 7210   0.411   4.089   6.521
 2423TIP3   OH2 7211   1.456   1.781   2.929
 2423TIP3    H1 7212   1.396   1.736   2.870
 2423TIP3    H2 7213   1.403   1.803   3.005
 2424TIP3   OH2 7214   4.674   2.181   1.672
 2424TIP3    H1 7215   4.704   2.238   1.601
 2424TIP3    H2 7216   4.579   2.175   1.660
 2425TIP3   OH2 7217   7.511   6.546   3.187
 2425TIP3    H1 7218   7.569   6.611   3.147
 2425TIP3    H2 7219   7.557   6.462   3.175
 2426TIP3   OH2 7220   1.931   5.268   1.147
 2426TIP3    H1 7221   1.858   5.303   1.198
 2426TIP3    H2 7222   1.913   5.297   1.058
 2427TIP3   OH2 7223   1.270   3.599   1.246
 2427TIP3    H1 7224   1.237   3.689   1.243
 2427TIP3    H2 7225   1.290   3.577   1.155
 2428TIP3   OH2 7226   8.213   6.832   3.519
 2428TIP3    H1 7227   8.234   6.878   3.601
 2428TIP3    H2 7228   8.216   6.901   3.453
 2429TIP3   OH2 7229   0.246   5.130   0.904
 2429TIP3    H1 7230   0.273   5.041   0.883
 2429TIP3    H2 7231   0.280   5.146   0.991
 2430TIP3   OH2 7232   5.953   0.751   6.127
 2430TIP3    H1 7233   5.995   0.822   6.078
 2430TIP3    H2 7234   5.860   0.775   6.129
 2431TIP3   OH2 7235   5.477   7.154   6.056
 2431TIP3    H1 7236   5.512   7.161   5.967
 2431TIP3    H2 7237   5.408   7.088   6.049
 2432TIP3   OH2 7238   0.233   0.634   4.649
 2432TIP3    H1 7239   0.156   0.666   4.696
 2432TIP3    H2 7240   0.202   0.623   4.559
 2433TIP3   OH2 7241   0.196   1.479   5.407
 2433TIP3    H1 7242   0.138   1.414   5.367
 2433TIP3    H2 7243   0.203   1.548   5.340
 2434TIP3   OH2 7244   7.559   3.790   2.519
 2434TIP3    H1 7245   7.474   3.831   2.502
 2434TIP3    H2 7246   7.540   3.696   2.520
 2435TIP3   OH2 7247   7.502   2.634   5.180
 2435TIP3    H1 7248   7.559   2.579   5.126
 2435TIP3    H2 7249   7.446   2.680   5.118
 2436TIP3   OH2 7250   8.148   0.100   3.266
 2436TIP3    H1 7251   8.110   0.133   3.347
 2436TIP3    H2 7252   8.243   0.102   3.282
 2437TIP3   OH2 7253   8.313   2.898   5.709
 2437TIP3    H1 7254   8.237   2.941   5.748
 2437TIP3    H2 7255   8.335   2.951   5.633
 2438TIP3   OH2 7256   5.781   2.770   1.346
 2438TIP3    H1 7257   5.863   2.737   1.308
 2438TIP3    H2 7258   5.784   2.743   1.438
 2439TIP3   OH2 7259   7.872   7.123   2.728
 2439TIP3    H1 7260   7.830   7.054   2.677
 2439TIP3    H2 7261   7.966   7.112   2.710
 2440TIP3   OH2 7262   4.427   1.669   6.198
 2440TIP3    H1 7263   4.404   1.588   6.152
 2440TIP3    H2 7264   4.479   1.640   6.273
 2441TIP3   OH2 7265   3.658   2.530   2.341
 2441TIP3    H1 7266   3.606   2.602   2.378
 2441TIP3    H2 7267   3.655   2.543   2.247
 2442TIP3   OH2 7268   4.152   4.698   3.629
 2442TIP3    H1 7269   4.076   4.668   3.579
 2442TIP3    H2 7270   4.187   4.771   3.579
 2443TIP3   OH2 7271   5.079   7.746   3.095
 2443TIP3    H1 7272   5.079   7.772   3.187
 2443TIP3    H2 7273   5.165   7.774   3.063
 2444TIP3   OH2 7274   7.539   1.513   4.444
 2444TIP3    H1 7275   7.573   1.586   4.496
 2444TIP3    H2 7276   7.539   1.547   4.354
 2445TIP3   OH2 7277   3.531   7.522   4.763
 2445TIP3    H1 7278   3.561   7.574   4.689
 2445TIP3    H2 7279   3.455   7.474   4.729
 2446TIP3   OH2 7280   2.846   3.842   1.715
 2446TIP3    H1 7281   2.928   3.810   1.751
 2446TIP3    H2 7282   2.791   3.764   1.704
 2447TIP3   OH2 7283   0.275   6.154   0.079
 2447TIP3    H1 7284   0.302   6.242   0.055
 2447TIP3    H2 7285   0.354   6.114   0.116
 2448TIP3   OH2 7286   5.317   7.029   2.343
 2448TIP3    H1 7287   5.276   7.071   2.419
 2448TIP3    H2 7288   5.265   6.950   2.328
 2449TIP3   OH2 7289   0.019   5.968   1.254
 2449TIP3    H1 7290   0.097   6.020   1.275
 2449TIP3    H2 7291  -0.034   5.970   1.333
 2450TIP3   OH2 7292   6.167   7.269   0.128
 2450TIP3    H1 7293   6.218   7.283   0.208
 2450TIP3    H2 7294   6.176   7.351   0.080
 2451TIP3   OH2 7295   1.483   0.704   5.165
 2451TIP3    H1 7296   1.484   0.748   5.250
 2451TIP3    H2 7297   1.402   0.734   5.124
 2452TIP3   OH2 7298   3.093   4.083   2.963
 2452TIP3    H1 7299   3.166   4.120   2.914
 2452TIP3    H2 7300   3.134   4.045   3.041
 2453TIP3   OH2 7301   1.650   7.783   3.526
 2453TIP3    H1 7302   1.682   7.733   3.602
 2453TIP3    H2 7303   1.696   7.866   3.531
 2454TIP3   OH2 7304   7.064   3.203   6.208
 2454TIP3    H1 7305   7.098   3.196   6.119
 2454TIP3    H2 7306   7.044   3.296   6.219
 2455TIP3   OH2 7307   5.933   0.497   3.162
 2455TIP3    H1 7308   6.010   0.528   3.209
 2455TIP3    H2 7309   5.859   0.525   3.216
 2456TIP3   OH2 7310   0.184   5.761   6.531
 2456TIP3    H1 7311   0.200   5.709   6.453
 2456TIP3    H2 7312   0.095   5.736   6.558
 2457TIP3   OH2 7313   5.449   7.352   5.521
 2457TIP3    H1 7314   5.440   7.349   5.616
 2457TIP3    H2 7315   5.360   7.364   5.488
 2458TIP3   OH2 7316   3.736   6.232   3.010
 2458TIP3    H1 7317   3.728   6.309   2.953
 2458TIP3    H2 7318   3.690   6.163   2.963
 2459TIP3   OH2 7319   2.937   6.566   5.793
 2459TIP3    H1 7320   3.029   6.579   5.816
 2459TIP3    H2 7321   2.890   6.629   5.846
 2460TIP3   OH2 7322   3.764   6.811   2.233
 2460TIP3    H1 7323   3.712   6.877   2.279
 2460TIP3    H2 7324   3.763   6.840   2.141
 2461TIP3   OH2 7325   2.504   6.570   4.895
 2461TIP3    H1 7326   2.419   6.532   4.873
 2461TIP3    H2 7327   2.502   6.579   4.990
 2462TIP3   OH2 7328   4.127   7.083   0.940
 2462TIP3    H1 7329   4.069   7.077   0.864
 2462TIP3    H2 7330   4.210   7.113   0.904
 2463TIP3   OH2 7331   6.941   4.057   3.071
 2463TIP3    H1 7332   6.997   4.102   3.008
 2463TIP3    H2 7333   6.920   4.123   3.137
 2464TIP3   OH2 7334   5.864   5.968   1.196
 2464TIP3    H1 7335   5.911   6.051   1.205
 2464TIP3    H2 7336   5.772   5.991   1.212
 2465TIP3   OH2 7337   3.807   7.685   5.877
 2465TIP3    H1 7338   3.849   7.751   5.933
 2465TIP3    H2 7339   3.808   7.605   5.929
 2466TIP3   OH2 7340   1.613   2.033   5.493
 2466TIP3    H1 7341   1.587   2.018   5.584
 2466TIP3    H2 7342   1.659   2.116   5.495
 2467TIP3   OH2 7343   6.620   0.719   5.890
 2467TIP3    H1 7344   6.616   0.656   5.818
 2467TIP3    H2 7345   6.713   0.723   5.913
 2468TIP3   OH2 7346   7.185   0.548   6.422
 2468TIP3    H1 7347   7.251   0.499   6.372
 2468TIP3    H2 7348   7.164   0.491   6.496
 2469TIP3   OH2 7349   4.850   3.723   3.829
 2469TIP3    H1 7350   4.790   3.787   3.869
 2469TIP3    H2 7351   4.926   3.723   3.886
 2470TIP3   OH2 7352   3.752   1.023   5.666
 2470TIP3    H1 7353   3.695   1.098   5.651
 2470TIP3    H2 7354   3.729   0.961   5.597
 2471TIP3   OH2 7355   6.003   5.949   2.891
 2471TIP3    H1 7356   5.950   5.870   2.880
 2471TIP3    H2 7357   5.940   6.021   2.885
 2472TIP3   OH2 7358   0.381   4.753   1.498
 2472TIP3    H1 7359   0.363   4.847   1.496
 2472TIP3    H2 7360   0.471   4.747   1.531
 2473TIP3   OH2 7361   5.723   4.179   2.230
 2473TIP3    H1 7362   5.693   4.088   2.226
 2473TIP3    H2 7363   5.789   4.179   2.299
 2474TIP3   OH2 7364   6.077   3.011   6.512
 2474TIP3    H1 7365   6.004   3.065   6.542
 2474TIP3    H2 7366   6.109   2.969   6.591
 2475TIP3   OH2 7367   6.948   1.432   2.702
 2475TIP3    H1 7368   6.965   1.366   2.769
 2475TIP3    H2 7369   6.853   1.441   2.700
 2476TIP3   OH2 7370   3.344   0.394   6.795
 2476TIP3    H1 7371   3.363   0.306   6.827
 2476TIP3    H2 7372   3.335   0.383   6.700
 2477TIP3   OH2 7373   4.400   0.809   0.679
 2477TIP3    H1 7374   4.473   0.864   0.648
 2477TIP3    H2 7375   4.440   0.724   0.697
 2478TIP3   OH2 7376   0.037   2.018   2.523
 2478TIP3    H1 7377   0.111   2.074   2.545
 2478TIP3    H2 7378   0.048   1.941   2.578
 2479TIP3   OH2 7379   1.100   7.329   5.410
 2479TIP3    H1 7380   1.123   7.330   5.503
 2479TIP3    H2 7381   1.125   7.416   5.379
 2480TIP3   OH2 7382   4.793   3.051   1.322
 2480TIP3    H1 7383   4.772   2.960   1.341
 2480TIP3    H2 7384   4.836   3.083   1.401
 2481TIP3   OH2 7385   7.471   1.516   5.155
 2481TIP3    H1 7386   7.487   1.575   5.082
 2481TIP3    H2 7387   7.386   1.475   5.135
 2482TIP3   OH2 7388   5.362   1.695   5.679
 2482TIP3    H1 7389   5.321   1.679   5.595
 2482TIP3    H2 7390   5.300   1.750   5.727
 2483TIP3   OH2 7391   3.803   0.880   1.382
 2483TIP3    H1 7392   3.817   0.795   1.340
 2483TIP3    H2 7393   3.843   0.871   1.468
 2484TIP3   OH2 7394   3.469   2.326   6.775
 2484TIP3    H1 7395   3.473   2.415   6.739
 2484TIP3    H2 7396   3.432   2.337   6.862
 2485TIP3   OH2 7397   7.956   4.511   1.221
 2485TIP3    H1 7398   7.979   4.422   1.249
 2485TIP3    H2 7399   7.965   4.565   1.299
 2486TIP3   OH2 7400   1.363   2.348   5.192
 2486TIP3    H1 7401   1.421   2.335   5.267
 2486TIP3    H2 7402   1.276   2.362   5.231
 2487TIP3   OH2 7403   4.361   5.268   1.996
 2487TIP3    H1 7404   4.318   5.200   2.048
 2487TIP3    H2 7405   4.377   5.228   1.911
 2488TIP3   OH2 7406   3.707   5.285   6.194
 2488TIP3    H1 7407   3.644   5.355   6.179
 2488TIP3    H2 7408   3.682   5.249   6.279
 2489TIP3   OH2 7409   2.106   7.608   4.627
 2489TIP3    H1 7410   2.038   7.582   4.564
 2489TIP3    H2 7411   2.155   7.527   4.643
 2490TIP3   OH2 7412   2.227   0.992   1.504
 2490TIP3    H1 7413   2.192   0.903   1.499
 2490TIP3    H2 7414   2.167   1.039   1.561
 2491TIP3   OH2 7415   7.417   0.651   2.915
 2491TIP3    H1 7416   7.502   0.664   2.873
 2491TIP3    H2 7417   7.384   0.740   2.931
 2492TIP3   OH2 7418   3.823   4.800   2.199
 2492TIP3    H1 7419   3.915   4.774   2.196
 2492TIP3    H2 7420   3.793   4.795   2.108
 2493TIP3   OH2 7421   3.258   4.960   3.517
 2493TIP3    H1 7422   3.299   5.005   3.590
 2493TIP3    H2 7423   3.165   4.958   3.538
 2494TIP3   OH2 7424   6.387   6.083   6.540
 2494TIP3    H1 7425   6.364   6.008   6.486
 2494TIP3    H2 7426   6.419   6.149   6.478
 2495TIP3   OH2 7427   5.870   4.059   4.793
 2495TIP3    H1 7428   5.836   3.970   4.787
 2495TIP3    H2 7429   5.905   4.065   4.882
 2496TIP3   OH2 7430   7.975   1.993   0.741
 2496TIP3    H1 7431   8.021   1.975   0.823
 2496TIP3    H2 7432   8.029   1.951   0.674
 2497TIP3   OH2 7433   6.831   1.861   5.545
 2497TIP3    H1 7434   6.755   1.919   5.545
 2497TIP3    H2 7435   6.847   1.843   5.638
 2498TIP3   OH2 7436   6.599   4.608   1.171
 2498TIP3    H1 7437   6.591   4.526   1.220
 2498TIP3    H2 7438   6.559   4.590   1.087
 2499TIP3   OH2 7439   8.027   1.090   0.983
 2499TIP3    H1 7440   8.005   1.167   1.035
 2499TIP3    H2 7441   8.098   1.119   0.926
 2500TIP3   OH2 7442   3.247   6.379   0.123
 2500TIP3    H1 7443   3.325   6.329   0.102
 2500TIP3    H2 7444   3.177   6.336   0.073
 2501TIP3   OH2 7445   5.376   1.592   2.703
 2501TIP3    H1 7446   5.461   1.601   2.745
 2501TIP3    H2 7447   5.358   1.498   2.703
 2502TIP3   OH2 7448   6.497   6.733   5.031
 2502TIP3    H1 7449   6.472   6.754   4.941
 2502TIP3    H2 7450   6.423   6.682   5.064
 2503TIP3   OH2 7451   6.106   3.290   4.231
 2503TIP3    H1 7452   6.139   3.379   4.226
 2503TIP3    H2 7453   6.180   3.238   4.263
 2504TIP3   OH2 7454   7.238   6.565   0.594
 2504TIP3    H1 7455   7.191   6.637   0.553
 2504TIP3    H2 7456   7.289   6.605   0.664
 2505TIP3   OH2 7457   1.469   2.618   6.017
 2505TIP3    H1 7458   1.518   2.536   6.018
 2505TIP3    H2 7459   1.536   2.686   6.022
 2506TIP3   OH2 7460   4.229   2.433   3.126
 2506TIP3    H1 7461   4.323   2.434   3.108
 2506TIP3    H2 7462   4.216   2.500   3.193
 2507TIP3   OH2 7463   0.807   2.995   5.351
 2507TIP3    H1 7464   0.730   2.958   5.307
 2507TIP3    H2 7465   0.836   3.065   5.293
 2508TIP3   OH2 7466   1.076   5.946   1.138
 2508TIP3    H1 7467   1.009   5.926   1.203
 2508TIP3    H2 7468   1.107   5.861   1.108
 2509TIP3   OH2 7469   0.672   3.004   3.279
 2509TIP3    H1 7470   0.719   2.920   3.283
 2509TIP3    H2 7471   0.580   2.980   3.287
 2510TIP3   OH2 7472   1.453   0.714   0.909
 2510TIP3    H1 7473   1.448   0.620   0.925
 2510TIP3    H2 7474   1.491   0.721   0.821
 2511TIP3   OH2 7475   5.785   0.307   5.254
 2511TIP3    H1 7476   5.763   0.399   5.244
 2511TIP3    H2 7477   5.815   0.280   5.168
 2512TIP3   OH2 7478   5.201   6.583   4.739
 2512TIP3    H1 7479   5.236   6.659   4.692
 2512TIP3    H2 7480   5.244   6.585   4.824
 2513TIP3   OH2 7481   2.352   4.420   4.329
 2513TIP3    H1 7482   2.271   4.402   4.280
 2513TIP3    H2 7483   2.379   4.507   4.299
 2514TIP3   OH2 7484   4.941   2.789   6.501
 2514TIP3    H1 7485   5.003   2.849   6.460
 2514TIP3    H2 7486   4.972   2.702   6.476
 2515TIP3   OH2 7487   8.006   2.574   4.720
 2515TIP3    H1 7488   8.074   2.520   4.759
 2515TIP3    H2 7489   8.006   2.550   4.628
 2516TIP3   OH2 7490   0.628   2.913   0.960
 2516TIP3    H1 7491   0.568   2.840   0.949
 2516TIP3    H2 7492   0.692   2.883   1.024
 2517TIP3   OH2 7493   6.782   1.803   2.933
 2517TIP3    H1 7494   6.742   1.772   3.014
 2517TIP3    H2 7495   6.870   1.765   2.934
 2518TIP3   OH2 7496   4.582   1.402   6.165
 2518TIP3    H1 7497   4.661   1.410   6.110
 2518TIP3    H2 7498   4.602   1.454   6.243
 2519TIP3   OH2 7499   6.023   4.315   4.623
 2519TIP3    H1 7500   5.943   4.263   4.632
 2519TIP3    H2 7501   6.085   4.272   4.681
 2520TIP3   OH2 7502   5.373   5.969   3.316
 2520TIP3    H1 7503   5.321   5.890   3.303
 2520TIP3    H2 7504   5.430   5.949   3.390
 2521TIP3   OH2 7505   4.223   5.121   5.379
 2521TIP3    H1 7506   4.299   5.136   5.434
 2521TIP3    H2 7507   4.258   5.105   5.292
 2522TIP3   OH2 7508   3.264   6.456   5.970
 2522TIP3    H1 7509   3.317   6.460   5.891
 2522TIP3    H2 7510   3.320   6.414   6.035
 2523TIP3   OH2 7511   2.633   3.206   5.326
 2523TIP3    H1 7512   2.552   3.210   5.376
 2523TIP3    H2 7513   2.629   3.282   5.268
 2524TIP3   OH2 7514   0.526   5.684   6.376
 2524TIP3    H1 7515   0.532   5.774   6.407
 2524TIP3    H2 7516   0.580   5.682   6.297
 2525TIP3   OH2 7517   1.184   2.586   3.159
 2525TIP3    H1 7518   1.095   2.569   3.190
 2525TIP3    H2 7519   1.179   2.576   3.064
 2526TIP3   OH2 7520   2.472   2.822   4.607
 2526TIP3    H1 7521   2.561   2.810   4.575
 2526TIP3    H2 7522   2.417   2.793   4.535
 2527TIP3   OH2 7523   4.901   3.015   0.846
 2527TIP3    H1 7524   4.885   2.942   0.786
 2527TIP3    H2 7525   4.819   3.025   0.894
 2528TIP3   OH2 7526   4.142   0.605   0.281
 2528TIP3    H1 7527   4.093   0.526   0.301
 2528TIP3    H2 7528   4.075   0.667   0.250
 2529TIP3   OH2 7529   6.827   5.290   3.820
 2529TIP3    H1 7530   6.885   5.284   3.896
 2529TIP3    H2 7531   6.821   5.384   3.802
 2530TIP3   OH2 7532   1.521   0.644   3.511
 2530TIP3    H1 7533   1.461   0.659   3.439
 2530TIP3    H2 7534   1.470   0.594   3.575
 2531TIP3   OH2 7535   0.969   0.779   1.865
 2531TIP3    H1 7536   0.959   0.849   1.929
 2531TIP3    H2 7537   0.939   0.817   1.783
 2532TIP3   OH2 7538   1.499   0.530   2.381
 2532TIP3    H1 7539   1.535   0.615   2.406
 2532TIP3    H2 7540   1.572   0.469   2.393
 2533TIP3   OH2 7541   1.090   7.267   1.269
 2533TIP3    H1 7542   1.116   7.175   1.278
 2533TIP3    H2 7543   1.166   7.316   1.301
 2534TIP3   OH2 7544   7.232   4.082   1.363
 2534TIP3    H1 7545   7.324   4.070   1.338
 2534TIP3    H2 7546   7.235   4.103   1.456
 2535TIP3   OH2 7547   7.408   2.155   0.845
 2535TIP3    H1 7548   7.441   2.098   0.775
 2535TIP3    H2 7549   7.484   2.208   0.870
 2536TIP3   OH2 7550   3.361   1.425   4.378
 2536TIP3    H1 7551   3.437   1.369   4.358
 2536TIP3    H2 7552   3.399   1.511   4.394
 2537TIP3   OH2 7553   0.255   7.138   0.155
 2537TIP3    H1 7554   0.238   7.202   0.086
 2537TIP3    H2 7555   0.197   7.164   0.226
 2538TIP3   OH2 7556   3.315   3.150   6.287
 2538TIP3    H1 7557   3.382   3.159   6.354
 2538TIP3    H2 7558   3.317   3.233   6.239
 2539TIP3   OH2 7559   0.557   5.703   2.913
 2539TIP3    H1 7560   0.473   5.747   2.904
 2539TIP3    H2 7561   0.603   5.722   2.831
 2540TIP3   OH2 7562   1.116   2.251   5.419
 2540TIP3    H1 7563   1.064   2.286   5.347
 2540TIP3    H2 7564   1.159   2.327   5.458
 2541TIP3   OH2 7565   2.444   0.375   6.499
 2541TIP3    H1 7566   2.463   0.336   6.413
 2541TIP3    H2 7567   2.530   0.400   6.533
 2542TIP3   OH2 7568   5.106   5.429   1.244
 2542TIP3    H1 7569   5.130   5.431   1.337
 2542TIP3    H2 7570   5.096   5.336   1.224
 2543TIP3   OH2 7571   6.311   5.945   2.896
 2543TIP3    H1 7572   6.368   5.916   2.825
 2543TIP3    H2 7573   6.222   5.930   2.865
 2544TIP3   OH2 7574   8.153   5.852   6.326
 2544TIP3    H1 7575   8.193   5.773   6.362
 2544TIP3    H2 7576   8.089   5.879   6.391
 2545TIP3   OH2 7577   2.156   2.845   0.668
 2545TIP3    H1 7578   2.189   2.755   0.674
 2545TIP3    H2 7579   2.208   2.885   0.598
 2546TIP3   OH2 7580   8.247   7.875   2.469
 2546TIP3    H1 7581   8.181   7.836   2.411
 2546TIP3    H2 7582   8.329   7.869   2.420
 2547TIP3   OH2 7583   6.933   2.510   2.078
 2547TIP3    H1 7584   6.917   2.427   2.123
 2547TIP3    H2 7585   6.953   2.485   1.988
 2548TIP3   OH2 7586   7.592   5.588   4.280
 2548TIP3    H1 7587   7.651   5.646   4.232
 2548TIP3    H2 7588   7.641   5.506   4.289
 2549TIP3   OH2 7589   5.243   4.685   5.819
 2549TIP3    H1 7590   5.284   4.765   5.852
 2549TIP3    H2 7591   5.224   4.703   5.727
 2550TIP3   OH2 7592   2.631   3.496   2.179
 2550TIP3    H1 7593   2.592   3.448   2.252
 2550TIP3    H2 7594   2.668   3.428   2.123
 2551TIP3   OH2 7595   0.797   5.967   1.685
 2551TIP3    H1 7596   0.705   5.983   1.703
 2551TIP3    H2 7597   0.844   6.012   1.755
 2552TIP3   OH2 7598   7.154   6.246   1.480
 2552TIP3    H1 7599   7.231   6.197   1.511
 2552TIP3    H2 7600   7.131   6.303   1.554
 2553TIP3   OH2 7601   6.256   7.707   6.059
 2553TIP3    H1 7602   6.222   7.768   6.124
 2553TIP3    H2 7603   6.181   7.683   6.006
 2554TIP3   OH2 7604   7.329   3.332   2.511
 2554TIP3    H1 7605   7.334   3.236   2.518
 2554TIP3    H2 7606   7.241   3.353   2.539
 2555TIP3   OH2 7607   6.299   6.202   1.438
 2555TIP3    H1 7608   6.305   6.239   1.350
 2555TIP3    H2 7609   6.297   6.278   1.496
 2556TIP3   OH2 7610   0.715   4.347   4.416
 2556TIP3    H1 7611   0.681   4.431   4.385
 2556TIP3    H2 7612   0.670   4.281   4.363
 2557TIP3   OH2 7613   7.532   7.770   4.998
 2557TIP3    H1 7614   7.501   7.679   4.993
 2557TIP3    H2 7615   7.609   7.771   4.942
 2558TIP3   OH2 7616   7.624   3.537   1.499
 2558TIP3    H1 7617   7.715   3.547   1.471
 2558TIP3    H2 7618   7.577   3.609   1.456
 2559TIP3   OH2 7619   3.867   2.039   4.941
 2559TIP3    H1 7620   3.938   2.010   4.999
 2559TIP3    H2 7621   3.842   2.125   4.975
 2560TIP3   OH2 7622   2.158   7.211   2.982
 2560TIP3    H1 7623   2.107   7.163   2.916
 2560TIP3    H2 7624   2.114   7.295   2.989
 2561TIP3   OH2 7625   0.586   2.247   1.046
 2561TIP3    H1 7626   0.661   2.239   1.106
 2561TIP3    H2 7627   0.618   2.211   0.964
 2562TIP3   OH2 7628   0.065   5.102   2.915
 2562TIP3    H1 7629   0.067   5.107   3.010
 2562TIP3    H2 7630   0.154   5.124   2.887
 2563TIP3   OH2 7631   2.397   3.925   4.160
 2563TIP3    H1 7632   2.359   4.004   4.122
 2563TIP3    H2 7633   2.478   3.955   4.202
 2564TIP3   OH2 7634   7.367   0.962   0.340
 2564TIP3    H1 7635   7.308   0.939   0.412
 2564TIP3    H2 7636   7.369   0.883   0.285
 2565TIP3   OH2 7637   6.195   3.616   2.693
 2565TIP3    H1 7638   6.182   3.598   2.600
 2565TIP3    H2 7639   6.272   3.673   2.695
 2566TIP3   OH2 7640   8.019   1.497   5.875
 2566TIP3    H1 7641   7.925   1.486   5.866
 2566TIP3    H2 7642   8.056   1.443   5.805
 2567TIP3   OH2 7643   4.214   2.439   5.252
 2567TIP3    H1 7644   4.304   2.420   5.275
 2567TIP3    H2 7645   4.194   2.522   5.296
 2568TIP3   OH2 7646   2.705   0.709   2.732
 2568TIP3    H1 7647   2.732   0.618   2.747
 2568TIP3    H2 7648   2.610   0.707   2.739
 2569TIP3   OH2 7649   5.813   4.678   5.488
 2569TIP3    H1 7650   5.864   4.743   5.439
 2569TIP3    H2 7651   5.787   4.723   5.568
 2570TIP3   OH2 7652   3.909   4.624   5.483
 2570TIP3    H1 7653   3.964   4.576   5.421
 2570TIP3    H2 7654   3.890   4.707   5.440
 2571TIP3   OH2 7655   1.073   7.737   0.735
 2571TIP3    H1 7656   1.083   7.760   0.827
 2571TIP3    H2 7657   0.979   7.741   0.719
 2572TIP3   OH2 7658   3.014   3.450   4.367
 2572TIP3    H1 7659   3.011   3.354   4.360
 2572TIP3    H2 7660   2.922   3.476   4.370
 2573TIP3   OH2 7661   1.357   3.199   5.603
 2573TIP3    H1 7662   1.389   3.177   5.516
 2573TIP3    H2 7663   1.432   3.237   5.648
 2574TIP3   OH2 7664   0.545   7.831   1.471
 2574TIP3    H1 7665   0.564   7.906   1.415
 2574TIP3    H2 7666   0.559   7.755   1.414
 2575TIP3   OH2 7667   0.957   7.248   2.083
 2575TIP3    H1 7668   0.909   7.329   2.097
 2575TIP3    H2 7669   1.006   7.236   2.165
 2576TIP3   OH2 7670   1.590   6.353   2.494
 2576TIP3    H1 7671   1.556   6.401   2.570
 2576TIP3    H2 7672   1.682   6.379   2.489
 2577TIP3   OH2 7673   7.386   2.533   5.923
 2577TIP3    H1 7674   7.359   2.525   6.015
 2577TIP3    H2 7675   7.471   2.576   5.927
 2578TIP3   OH2 7676   0.976   6.236   3.217
 2578TIP3    H1 7677   0.912   6.190   3.163
 2578TIP3    H2 7678   0.996   6.316   3.168
 2579TIP3   OH2 7679   7.364   7.054   0.243
 2579TIP3    H1 7680   7.434   7.015   0.297
 2579TIP3    H2 7681   7.325   6.980   0.197
 2580TIP3   OH2 7682   6.356   6.314   0.909
 2580TIP3    H1 7683   6.330   6.362   0.830
 2580TIP3    H2 7684   6.358   6.223   0.881
 2581TIP3   OH2 7685   4.418   7.515   3.080
 2581TIP3    H1 7686   4.464   7.477   3.155
 2581TIP3    H2 7687   4.479   7.579   3.044
 2582TIP3   OH2 7688   6.078   3.025   4.798
 2582TIP3    H1 7689   6.032   2.947   4.829
 2582TIP3    H2 7690   6.170   3.007   4.814
 2583TIP3   OH2 7691   1.951   7.353   4.518
 2583TIP3    H1 7692   1.932   7.432   4.467
 2583TIP3    H2 7693   1.892   7.358   4.593
 2584TIP3   OH2 7694   2.455   6.081   6.412
 2584TIP3    H1 7695   2.362   6.094   6.428
 2584TIP3    H2 7696   2.467   5.986   6.412
 2585TIP3   OH2 7697   3.677   5.301   4.616
 2585TIP3    H1 7698   3.607   5.350   4.658
 2585TIP3    H2 7699   3.758   5.337   4.653
 2586TIP3   OH2 7700   2.987   5.855   3.126
 2586TIP3    H1 7701   3.055   5.920   3.143
 2586TIP3    H2 7702   3.013   5.779   3.178
 2587TIP3   OH2 7703   7.930   3.022   6.127
 2587TIP3    H1 7704   7.995   2.970   6.079
 2587TIP3    H2 7705   7.950   3.113   6.104
 2588TIP3   OH2 7706   2.793   4.387   4.093
 2588TIP3    H1 7707   2.880   4.422   4.114
 2588TIP3    H2 7708   2.787   4.306   4.142
 2589TIP3   OH2 7709   4.317   2.717   0.785
 2589TIP3    H1 7710   4.393   2.663   0.805
 2589TIP3    H2 7711   4.300   2.766   0.866
 2590TIP3   OH2 7712   3.325   3.275   0.204
 2590TIP3    H1 7713   3.301   3.339   0.137
 2590TIP3    H2 7714   3.342   3.194   0.156
 2591TIP3   OH2 7715   6.212   3.658   3.071
 2591TIP3    H1 7716   6.301   3.623   3.067
 2591TIP3    H2 7717   6.190   3.654   3.164
 2592TIP3   OH2 7718   6.865   0.544   5.002
 2592TIP3    H1 7719   6.860   0.484   5.076
 2592TIP3    H2 7720   6.948   0.522   4.960
 2593TIP3   OH2 7721   4.357   6.539   3.687
 2593TIP3    H1 7722   4.399   6.497   3.612
 2593TIP3    H2 7723   4.364   6.633   3.668
 2594TIP3   OH2 7724   2.072   5.922   1.389
 2594TIP3    H1 7725   2.164   5.900   1.375
 2594TIP3    H2 7726   2.028   5.837   1.399
 2595TIP3   OH2 7727   2.103   6.538   1.393
 2595TIP3    H1 7728   2.152   6.599   1.449
 2595TIP3    H2 7729   2.081   6.465   1.452
 2596TIP3   OH2 7730   5.136   1.812   5.359
 2596TIP3    H1 7731   5.155   1.732   5.406
 2596TIP3    H2 7732   5.196   1.813   5.285
 2597TIP3   OH2 7733   1.814   4.469   2.740
 2597TIP3    H1 7734   1.885   4.519   2.780
 2597TIP3    H2 7735   1.811   4.499   2.650
 2598TIP3   OH2 7736   5.882   6.199   0.868
 2598TIP3    H1 7737   5.935   6.200   0.788
 2598TIP3    H2 7738   5.943   6.226   0.937
 2599TIP3   OH2 7739   0.168   1.659   5.931
 2599TIP3    H1 7740   0.077   1.686   5.918
 2599TIP3    H2 7741   0.177   1.579   5.880
 2600TIP3   OH2 7742   2.163   7.189   1.169
 2600TIP3    H1 7743   2.136   7.190   1.261
 2600TIP3    H2 7744   2.100   7.131   1.126
 2601TIP3   OH2 7745   0.238   5.946   4.562
 2601TIP3    H1 7746   0.180   5.870   4.566
 2601TIP3    H2 7747   0.311   5.923   4.619
 2602TIP3   OH2 7748   5.070   3.329   1.252
 2602TIP3    H1 7749   5.014   3.278   1.193
 2602TIP3    H2 7750   5.127   3.264   1.293
 2603TIP3   OH2 7751   6.695   6.621   3.406
 2603TIP3    H1 7752   6.782   6.612   3.366
 2603TIP3    H2 7753   6.636   6.575   3.346
 2604TIP3   OH2 7754   6.289   3.480   4.584
 2604TIP3    H1 7755   6.360   3.491   4.520
 2604TIP3    H2 7756   6.249   3.566   4.590
 2605TIP3   OH2 7757   0.647   6.775   0.371
 2605TIP3    H1 7758   0.719   6.836   0.353
 2605TIP3    H2 7759   0.571   6.832   0.386
 2606TIP3   OH2 7760   3.822   2.500   1.409
 2606TIP3    H1 7761   3.776   2.531   1.331
 2606TIP3    H2 7762   3.868   2.578   1.441
 2607TIP3   OH2 7763   2.346   1.450   1.598
 2607TIP3    H1 7764   2.307   1.489   1.677
 2607TIP3    H2 7765   2.275   1.397   1.560
 2608TIP3   OH2 7766   5.662   3.889   2.268
 2608TIP3    H1 7767   5.602   3.842   2.326
 2608TIP3    H2 7768   5.742   3.837   2.269
 2609TIP3   OH2 7769   2.418   5.678   2.397
 2609TIP3    H1 7770   2.347   5.684   2.333
 2609TIP3    H2 7771   2.387   5.727   2.473
 2610TIP3   OH2 7772   8.049   5.101   5.763
 2610TIP3    H1 7773   8.109   5.032   5.734
 2610TIP3    H2 7774   8.057   5.169   5.697
 2611TIP3   OH2 7775   2.796   4.472   4.839
 2611TIP3    H1 7776   2.872   4.512   4.883
 2611TIP3    H2 7777   2.820   4.379   4.831
 2612TIP3   OH2 7778   3.441   3.803   0.111
 2612TIP3    H1 7779   3.431   3.776   0.202
 2612TIP3    H2 7780   3.391   3.884   0.104
 2613TIP3   OH2 7781   2.329   5.281   5.995
 2613TIP3    H1 7782   2.288   5.311   6.076
 2613TIP3    H2 7783   2.305   5.346   5.930
 2614TIP3   OH2 7784   8.133   5.736   4.906
 2614TIP3    H1 7785   8.091   5.785   4.977
 2614TIP3    H2 7786   8.081   5.656   4.898
 2615TIP3   OH2 7787   3.356   0.014   2.216
 2615TIP3    H1 7788   3.280  -0.037   2.246
 2615TIP3    H2 7789   3.319   0.097   2.186
 2616TIP3   OH2 7790   6.781   5.703   3.547
 2616TIP3    H1 7791   6.713   5.637   3.560
 2616TIP3    H2 7792   6.741   5.767   3.489
 2617TIP3   OH2 7793   6.930   0.273   6.082
 2617TIP3    H1 7794   6.861   0.288   6.146
 2617TIP3    H2 7795   6.955   0.361   6.052
 2618TIP3   OH2 7796   4.622   4.820   2.519
 2618TIP3    H1 7797   4.578   4.735   2.512
 2618TIP3    H2 7798   4.590   4.870   2.445
 2619TIP3   OH2 7799   6.608   7.261   1.345
 2619TIP3    H1 7800   6.703   7.259   1.358
 2619TIP3    H2 7801   6.584   7.352   1.362
 2620TIP3   OH2 7802   4.312   0.090   4.826
 2620TIP3    H1 7803   4.347   0.029   4.891
 2620TIP3    H2 7804   4.222   0.059   4.811
 2621TIP3   OH2 7805   0.682   0.572   3.029
 2621TIP3    H1 7806   0.594   0.609   3.024
 2621TIP3    H2 7807   0.714   0.573   2.939
 2622TIP3   OH2 7808   4.758   6.312   6.733
 2622TIP3    H1 7809   4.715   6.395   6.754
 2622TIP3    H2 7810   4.727   6.252   6.801
 2623TIP3   OH2 7811   7.227   2.725   5.818
 2623TIP3    H1 7812   7.290   2.670   5.865
 2623TIP3    H2 7813   7.158   2.665   5.791
 2624TIP3   OH2 7814   2.907   5.000   6.478
 2624TIP3    H1 7815   2.880   5.073   6.534
 2624TIP3    H2 7816   2.862   5.016   6.395
 2625TIP3   OH2 7817   5.847   0.925   4.832
 2625TIP3    H1 7818   5.798   1.005   4.853
 2625TIP3    H2 7819   5.806   0.858   4.885
 2626TIP3   OH2 7820   3.692   0.059   1.910
 2626TIP3    H1 7821   3.674   0.149   1.884
 2626TIP3    H2 7822   3.770   0.065   1.965
 2627TIP3   OH2 7823   3.285   7.461   2.778
 2627TIP3    H1 7824   3.296   7.556   2.768
 2627TIP3    H2 7825   3.224   7.437   2.708
 2628TIP3   OH2 7826   5.321   2.888   1.765
 2628TIP3    H1 7827   5.413   2.863   1.773
 2628TIP3    H2 7828   5.273   2.812   1.798
 2629TIP3   OH2 7829   1.566   4.348   3.451
 2629TIP3    H1 7830   1.658   4.328   3.431
 2629TIP3    H2 7831   1.524   4.356   3.365
 2630TIP3   OH2 7832   0.429   2.143   5.706
 2630TIP3    H1 7833   0.363   2.195   5.752
 2630TIP3    H2 7834   0.505   2.143   5.764
 2631TIP3   OH2 7835   4.365   5.207   1.222
 2631TIP3    H1 7836   4.452   5.221   1.185
 2631TIP3    H2 7837   4.336   5.124   1.185
 2632TIP3   OH2 7838   6.930   3.450   0.356
 2632TIP3    H1 7839   6.925   3.355   0.345
 2632TIP3    H2 7840   6.913   3.485   0.268
 2633TIP3   OH2 7841   1.223   5.114   2.474
 2633TIP3    H1 7842   1.315   5.088   2.484
 2633TIP3    H2 7843   1.178   5.072   2.547
 2634TIP3   OH2 7844   2.479   7.822   5.940
 2634TIP3    H1 7845   2.488   7.727   5.936
 2634TIP3    H2 7846   2.443   7.839   6.027
 2635TIP3   OH2 7847   6.887   2.022   6.055
 2635TIP3    H1 7848   6.871   2.077   5.978
 2635TIP3    H2 7849   6.931   2.080   6.117
 2636TIP3   OH2 7850   1.551   2.835   5.418
 2636TIP3    H1 7851   1.620   2.784   5.461
 2636TIP3    H2 7852   1.598   2.900   5.367
 2637TIP3   OH2 7853   3.717   7.010   5.748
 2637TIP3    H1 7854   3.653   6.939   5.746
 2637TIP3    H2 7855   3.665   7.090   5.746
 2638TIP3   OH2 7856   0.005   2.560   2.305
 2638TIP3    H1 7857  -0.023   2.650   2.320
 2638TIP3    H2 7858   0.085   2.569   2.252
 2639TIP3   OH2 7859   0.900   6.906   6.281
 2639TIP3    H1 7860   0.903   7.002   6.278
 2639TIP3    H2 7861   0.841   6.886   6.354
 2640TIP3   OH2 7862   4.309   1.183   2.421
 2640TIP3    H1 7863   4.250   1.175   2.495
 2640TIP3    H2 7864   4.382   1.236   2.454
 2641TIP3   OH2 7865   4.026   4.497   3.163
 2641TIP3    H1 7866   3.992   4.453   3.241
 2641TIP3    H2 7867   4.054   4.583   3.195
 2642TIP3   OH2 7868   1.734   7.158   2.134
 2642TIP3    H1 7869   1.689   7.208   2.201
 2642TIP3    H2 7870   1.666   7.106   2.093
 2643TIP3   OH2 7871   3.052   4.882   4.299
 2643TIP3    H1 7872   3.005   4.845   4.224
 2643TIP3    H2 7873   2.987   4.884   4.369
 2644TIP3   OH2 7874   0.898   3.635   0.428
 2644TIP3    H1 7875   0.853   3.677   0.355
 2644TIP3    H2 7876   0.984   3.678   0.431
 2645TIP3   OH2 7877   3.813   4.564   6.025
 2645TIP3    H1 7878   3.843   4.599   5.941
 2645TIP3    H2 7879   3.854   4.478   6.032
 2646TIP3   OH2 7880   3.048   5.263   2.675
 2646TIP3    H1 7881   2.998   5.322   2.732
 2646TIP3    H2 7882   3.104   5.214   2.735
 2647TIP3   OH2 7883   3.468   2.581   6.639
 2647TIP3    H1 7884   3.489   2.564   6.547
 2647TIP3    H2 7885   3.386   2.631   6.637
 2648TIP3   OH2 7886   4.053   6.253   2.982
 2648TIP3    H1 7887   4.078   6.345   2.981
 2648TIP3    H2 7888   4.013   6.240   3.068
 2649TIP3   OH2 7889   3.883   1.736   3.071
 2649TIP3    H1 7890   3.888   1.800   3.000
 2649TIP3    H2 7891   3.937   1.663   3.041
 2650TIP3   OH2 7892   2.353   2.705   4.367
 2650TIP3    H1 7893   2.290   2.640   4.336
 2650TIP3    H2 7894   2.438   2.675   4.334
 2651TIP3   OH2 7895   8.168   2.890   4.309
 2651TIP3    H1 7896   8.111   2.833   4.360
 2651TIP3    H2 7897   8.134   2.885   4.220
 2652TIP3   OH2 7898   2.210   1.928   4.895
 2652TIP3    H1 7899   2.233   2.015   4.864
 2652TIP3    H2 7900   2.206   1.874   4.815
 2653TIP3   OH2 7901   1.558   3.000   6.753
 2653TIP3    H1 7902   1.581   2.925   6.698
 2653TIP3    H2 7903   1.567   2.968   6.843
 2654TIP3   OH2 7904   6.043   1.696   3.942
 2654TIP3    H1 7905   5.977   1.750   3.987
 2654TIP3    H2 7906   6.026   1.607   3.973
 2655TIP3   OH2 7907   2.785   3.153   0.954
 2655TIP3    H1 7908   2.809   3.212   1.026
 2655TIP3    H2 7909   2.699   3.184   0.926
 2656TIP3   OH2 7910   0.318   7.318   4.360
 2656TIP3    H1 7911   0.397   7.344   4.408
 2656TIP3    H2 7912   0.315   7.378   4.286
 2657TIP3   OH2 7913   5.402   1.771   0.164
 2657TIP3    H1 7914   5.358   1.813   0.237
 2657TIP3    H2 7915   5.491   1.806   0.166
 2658TIP3   OH2 7916   6.892   7.673   1.793
 2658TIP3    H1 7917   6.977   7.714   1.781
 2658TIP3    H2 7918   6.902   7.585   1.757
 2659TIP3   OH2 7919   2.966   5.419   5.738
 2659TIP3    H1 7920   2.870   5.423   5.739
 2659TIP3    H2 7921   2.987   5.348   5.799
 2660TIP3   OH2 7922   3.892   4.175   6.265
 2660TIP3    H1 7923   3.867   4.185   6.357
 2660TIP3    H2 7924   3.917   4.083   6.258
 2661TIP3   OH2 7925   6.748   5.984   1.042
 2661TIP3    H1 7926   6.829   6.009   0.997
 2661TIP3    H2 7927   6.694   6.063   1.038
 2662TIP3   OH2 7928   4.725   6.629   4.369
 2662TIP3    H1 7929   4.717   6.549   4.318
 2662TIP3    H2 7930   4.758   6.600   4.454
 2663TIP3   OH2 7931   3.702   7.308   4.955
 2663TIP3    H1 7932   3.688   7.372   4.885
 2663TIP3    H2 7933   3.627   7.249   4.949
 2664TIP3   OH2 7934   6.675   0.621   1.784
 2664TIP3    H1 7935   6.724   0.539   1.783
 2664TIP3    H2 7936   6.585   0.595   1.764
 2665TIP3   OH2 7937   1.259   0.604   5.457
 2665TIP3    H1 7938   1.350   0.631   5.463
 2665TIP3    H2 7939   1.262   0.509   5.452
 2666TIP3   OH2 7940   1.497   6.158   0.191
 2666TIP3    H1 7941   1.550   6.148   0.271
 2666TIP3    H2 7942   1.538   6.097   0.128
 2667TIP3   OH2 7943  -0.025   7.613   5.057
 2667TIP3    H1 7944   0.070   7.613   5.050
 2667TIP3    H2 7945  -0.056   7.602   4.967
 2668TIP3   OH2 7946   3.680   1.500   2.125
 2668TIP3    H1 7947   3.752   1.481   2.065
 2668TIP3    H2 7948   3.703   1.454   2.205
 2669TIP3   OH2 7949   2.563   6.903   6.513
 2669TIP3    H1 7950   2.536   6.938   6.597
 2669TIP3    H2 7951   2.499   6.834   6.494
 2670TIP3   OH2 7952   6.510   2.506   0.745
 2670TIP3    H1 7953   6.474   2.453   0.817
 2670TIP3    H2 7954   6.439   2.567   0.722
 2671TIP3   OH2 7955   4.548   0.557   6.070
 2671TIP3    H1 7956   4.508   0.557   6.156
 2671TIP3    H2 7957   4.547   0.648   6.042
 2672TIP3   OH2 7958   6.446   6.935   3.763
 2672TIP3    H1 7959   6.424   6.893   3.680
 2672TIP3    H2 7960   6.458   7.027   3.740
 2673TIP3   OH2 7961   0.221   2.335   3.228
 2673TIP3    H1 7962   0.167   2.286   3.290
 2673TIP3    H2 7963   0.168   2.340   3.149
 2674TIP3   OH2 7964   4.833   2.646   4.123
 2674TIP3    H1 7965   4.857   2.704   4.196
 2674TIP3    H2 7966   4.817   2.561   4.164
 2675TIP3   OH2 7967   2.255   6.387   5.870
 2675TIP3    H1 7968   2.325   6.323   5.855
 2675TIP3    H2 7969   2.285   6.436   5.947
 2676TIP3   OH2 7970   8.186   1.353  -0.043
 2676TIP3    H1 7971   8.190   1.351   0.053
 2676TIP3    H2 7972   8.092   1.356  -0.062
 2677TIP3   OH2 7973   7.898   1.454   3.482
 2677TIP3    H1 7974   7.852   1.371   3.470
 2677TIP3    H2 7975   7.840   1.519   3.443
 2678TIP3   OH2 7976   5.921   2.091   6.427
 2678TIP3    H1 7977   5.921   2.101   6.523
 2678TIP3    H2 7978   5.843   2.040   6.408
 2679TIP3   OH2 7979   1.116   7.343   3.152
 2679TIP3    H1 7980   1.059   7.376   3.221
 2679TIP3    H2 7981   1.057   7.293   3.094
 2680TIP3   OH2 7982   7.954   6.457   2.709
 2680TIP3    H1 7983   8.016   6.410   2.653
 2680TIP3    H2 7984   7.884   6.484   2.650
 2681TIP3   OH2 7985   0.263   7.139   5.456
 2681TIP3    H1 7986   0.218   7.187   5.525
 2681TIP3    H2 7987   0.353   7.129   5.488
 2682TIP3   OH2 7988   5.458   3.025   0.671
 2682TIP3    H1 7989   5.439   3.009   0.764
 2682TIP3    H2 7990   5.419   3.111   0.654
 2683TIP3   OH2 7991   6.593   0.126   0.848
 2683TIP3    H1 7992   6.526   0.104   0.783
 2683TIP3    H2 7993   6.609   0.044   0.895
 2684TIP3   OH2 7994   3.234   2.407   5.622
 2684TIP3    H1 7995   3.230   2.338   5.555
 2684TIP3    H2 7996   3.144   2.417   5.652
 2685TIP3   OH2 7997   7.937   7.150   4.615
 2685TIP3    H1 7998   7.872   7.219   4.626
 2685TIP3    H2 7999   8.012   7.193   4.575
 2686TIP3   OH2 8000   1.245   6.306   3.537
 2686TIP3    H1 8001   1.295   6.260   3.604
 2686TIP3    H2 8002   1.212   6.237   3.480
 2687TIP3   OH2 8003   0.225   2.461   4.156
 2687TIP3    H1 8004   0.139   2.437   4.190
 2687TIP3    H2 8005   0.232   2.413   4.073
 2688TIP3   OH2 8006   7.245   6.592   3.258
 2688TIP3    H1 8007   7.326   6.555   3.220
 2688TIP3    H2 8008   7.270   6.616   3.347
 2689TIP3   OH2 8009   3.836   7.521   5.463
 2689TIP3    H1 8010   3.898   7.503   5.533
 2689TIP3    H2 8011   3.840   7.444   5.406
 2690TIP3   OH2 8012   0.349   4.265   4.195
 2690TIP3    H1 8013   0.323   4.357   4.201
 2690TIP3    H2 8014   0.271   4.220   4.162
 2691TIP3   OH2 8015   2.948   1.425   5.708
 2691TIP3    H1 8016   2.915   1.496   5.653
 2691TIP3    H2 8017   3.006   1.467   5.771
 2692TIP3   OH2 8018   0.281   0.957   6.278
 2692TIP3    H1 8019   0.354   1.009   6.312
 2692TIP3    H2 8020   0.318   0.906   6.206
 2693TIP3   OH2 8021   0.541   6.906   2.983
 2693TIP3    H1 8022   0.545   6.930   2.891
 2693TIP3    H2 8023   0.460   6.857   2.992
 2694TIP3   OH2 8024   1.137   2.862   2.311
 2694TIP3    H1 8025   1.203   2.877   2.379
 2694TIP3    H2 8026   1.116   2.769   2.318
 2695TIP3   OH2 8027   5.643   2.695   2.344
 2695TIP3    H1 8028   5.554   2.728   2.359
 2695TIP3    H2 8029   5.632   2.627   2.277
 2696TIP3   OH2 8030   3.645   5.813   1.029
 2696TIP3    H1 8031   3.601   5.728   1.034
 2696TIP3    H2 8032   3.690   5.812   0.945
 2697TIP3   OH2 8033   4.359   4.091   0.563
 2697TIP3    H1 8034   4.386   4.008   0.602
 2697TIP3    H2 8035   4.437   4.146   0.567
 2698TIP3   OH2 8036   5.534   5.512   0.384
 2698TIP3    H1 8037   5.533   5.595   0.431
 2698TIP3    H2 8038   5.506   5.447   0.449
 2699TIP3   OH2 8039   4.639   7.477   2.561
 2699TIP3    H1 8040   4.710   7.502   2.501
 2699TIP3    H2 8041   4.591   7.410   2.513
 2700TIP3   OH2 8042   2.941   4.908   0.837
 2700TIP3    H1 8043   2.998   4.983   0.818
 2700TIP3    H2 8044   2.873   4.911   0.771
 2701TIP3   OH2 8045   8.018   2.681   2.670
 2701TIP3    H1 8046   8.011   2.653   2.579
 2701TIP3    H2 8047   8.002   2.775   2.668
 2702TIP3   OH2 8048   0.259   7.629   5.064
 2702TIP3    H1 8049   0.238   7.547   5.108
 2702TIP3    H2 8050   0.354   7.638   5.074
 2703TIP3   OH2 8051   2.448   3.544   2.604
 2703TIP3    H1 8052   2.440   3.618   2.664
 2703TIP3    H2 8053   2.516   3.571   2.541
 2704TIP3   OH2 8054   1.725   4.673   5.921
 2704TIP3    H1 8055   1.749   4.594   5.970
 2704TIP3    H2 8056   1.657   4.714   5.974
 2705TIP3   OH2 8057   7.442   3.348   2.757
 2705TIP3    H1 8058   7.529   3.355   2.719
 2705TIP3    H2 8059   7.386   3.321   2.684
 2706TIP3   OH2 8060   6.278   0.372   5.451
 2706TIP3    H1 8061   6.307   0.320   5.376
 2706TIP3    H2 8062   6.222   0.440   5.413
 2707TIP3   OH2 8063   7.047   4.234   4.424
 2707TIP3    H1 8064   6.956   4.259   4.438
 2707TIP3    H2 8065   7.079   4.211   4.511
 2708TIP3   OH2 8066   3.432   4.627   6.467
 2708TIP3    H1 8067   3.503   4.627   6.532
 2708TIP3    H2 8068   3.375   4.699   6.494
 2709TIP3   OH2 8069   4.142   1.828   1.460
 2709TIP3    H1 8070   4.121   1.913   1.420
 2709TIP3    H2 8071   4.138   1.844   1.554
 2710TIP3   OH2 8072   1.233   4.623   3.304
 2710TIP3    H1 8073   1.148   4.652   3.336
 2710TIP3    H2 8074   1.296   4.669   3.359
 2711TIP3   OH2 8075   4.896   5.512   2.434
 2711TIP3    H1 8076   4.895   5.519   2.338
 2711TIP3    H2 8077   4.989   5.504   2.456
 2712TIP3   OH2 8078   3.482   0.518   3.921
 2712TIP3    H1 8079   3.549   0.577   3.886
 2712TIP3    H2 8080   3.498   0.516   4.015
 2713TIP3   OH2 8081   1.270   2.662   0.640
 2713TIP3    H1 8082   1.335   2.593   0.630
 2713TIP3    H2 8083   1.209   2.649   0.569
 2714TIP3   OH2 8084   1.149   6.631   4.473
 2714TIP3    H1 8085   1.054   6.646   4.469
 2714TIP3    H2 8086   1.184   6.680   4.399
 2715TIP3   OH2 8087   2.906   6.725   1.363
 2715TIP3    H1 8088   2.938   6.635   1.370
 2715TIP3    H2 8089   2.985   6.779   1.370
 2716TIP3   OH2 8090   6.146   1.696   5.485
 2716TIP3    H1 8091   6.074   1.683   5.423
 2716TIP3    H2 8092   6.217   1.733   5.432
 2717TIP3   OH2 8093   1.564   7.388   0.286
 2717TIP3    H1 8094   1.626   7.347   0.346
 2717TIP3    H2 8095   1.618   7.436   0.224
 2718TIP3   OH2 8096   5.507   6.287   0.738
 2718TIP3    H1 8097   5.528   6.369   0.783
 2718TIP3    H2 8098   5.589   6.238   0.736
 2719TIP3   OH2 8099   7.581   7.262   2.004
 2719TIP3    H1 8100   7.584   7.314   1.924
 2719TIP3    H2 8101   7.634   7.311   2.067
 2720TIP3   OH2 8102   2.817   5.111   0.649
 2720TIP3    H1 8103   2.726   5.142   0.646
 2720TIP3    H2 8104   2.848   5.117   0.559
 2721TIP3   OH2 8105   1.861   4.192   2.858
 2721TIP3    H1 8106   1.834   4.264   2.802
 2721TIP3    H2 8107   1.931   4.149   2.809
 2722TIP3   OH2 8108   8.094   3.964   6.370
 2722TIP3    H1 8109   8.173   4.016   6.356
 2722TIP3    H2 8110   8.126   3.875   6.385
 2723TIP3   OH2 8111   1.316   1.690   0.438
 2723TIP3    H1 8112   1.275   1.731   0.361
 2723TIP3    H2 8113   1.252   1.627   0.469
 2724TIP3   OH2 8114   0.766   6.299   0.468
 2724TIP3    H1 8115   0.859   6.278   0.460
 2724TIP3    H2 8116   0.764   6.391   0.494
 2725TIP3   OH2 8117   7.107   6.898   0.225
 2725TIP3    H1 8118   7.146   6.883   0.139
 2725TIP3    H2 8119   7.022   6.854   0.220
 2726TIP3   OH2 8120   7.423   1.000   2.452
 2726TIP3    H1 8121   7.501   1.043   2.488
 2726TIP3    H2 8122   7.351   1.059   2.473
 2727TIP3   OH2 8123   6.894   1.458   5.515
 2727TIP3    H1 8124   6.835   1.386   5.494
 2727TIP3    H2 8125   6.848   1.536   5.486
 2728TIP3   OH2 8126   0.660   3.638   3.877
 2728TIP3    H1 8127   0.652   3.729   3.907
 2728TIP3    H2 8128   0.703   3.644   3.792
 2729TIP3   OH2 8129   4.585   2.972   0.853
 2729TIP3    H1 8130   4.591   2.880   0.878
 2729TIP3    H2 8131   4.500   2.980   0.810
 2730TIP3   OH2 8132   6.181   2.791   5.034
 2730TIP3    H1 8133   6.138   2.716   5.074
 2730TIP3    H2 8134   6.111   2.837   4.987
 2731TIP3   OH2 8135   0.790   1.055   2.310
 2731TIP3    H1 8136   0.820   1.048   2.220
 2731TIP3    H2 8137   0.695   1.039   2.305
 2732TIP3   OH2 8138   0.435   3.516   1.023
 2732TIP3    H1 8139   0.358   3.548   1.071
 2732TIP3    H2 8140   0.409   3.428   0.993
 2733TIP3   OH2 8141   6.156   5.674   4.368
 2733TIP3    H1 8142   6.211   5.671   4.446
 2733TIP3    H2 8143   6.120   5.763   4.368
 2734TIP3   OH2 8144   2.246   7.605   5.893
 2734TIP3    H1 8145   2.197   7.602   5.811
 2734TIP3    H2 8146   2.179   7.610   5.961
 2735TIP3   OH2 8147   6.917   2.813   5.683
 2735TIP3    H1 8148   6.970   2.736   5.701
 2735TIP3    H2 8149   6.852   2.814   5.753
 2736TIP3   OH2 8150   6.140   0.753   6.335
 2736TIP3    H1 8151   6.058   0.737   6.288
 2736TIP3    H2 8152   6.113   0.771   6.425
 2737TIP3   OH2 8153   8.090   3.476   4.778
 2737TIP3    H1 8154   8.155   3.547   4.778
 2737TIP3    H2 8155   8.064   3.468   4.686
 2738TIP3   OH2 8156   5.592   2.821   5.607
 2738TIP3    H1 8157   5.669   2.784   5.562
 2738TIP3    H2 8158   5.575   2.903   5.562
 2739TIP3   OH2 8159   7.695   6.775   3.098
 2739TIP3    H1 8160   7.720   6.843   3.036
 2739TIP3    H2 8161   7.777   6.734   3.124
 2740TIP3   OH2 8162   4.050   3.743   4.763
 2740TIP3    H1 8163   4.003   3.712   4.840
 2740TIP3    H2 8164   4.053   3.838   4.773
 2741TIP3   OH2 8165   4.221   1.102   6.649
 2741TIP3    H1 8166   4.248   1.134   6.736
 2741TIP3    H2 8167   4.183   1.179   6.606
 2742TIP3   OH2 8168   5.709   2.317   4.904
 2742TIP3    H1 8169   5.677   2.298   4.816
 2742TIP3    H2 8170   5.739   2.233   4.937
 2743TIP3   OH2 8171   2.496   5.046   4.786
 2743TIP3    H1 8172   2.401   5.037   4.788
 2743TIP3    H2 8173   2.528   4.973   4.840
 2744TIP3   OH2 8174   5.623   1.064   2.596
 2744TIP3    H1 8175   5.561   1.009   2.644
 2744TIP3    H2 8176   5.686   1.002   2.559
 2745TIP3   OH2 8177   3.846   5.850   5.894
 2745TIP3    H1 8178   3.840   5.754   5.898
 2745TIP3    H2 8179   3.900   5.873   5.970
 2746TIP3   OH2 8180   6.745   5.185   2.683
 2746TIP3    H1 8181   6.762   5.133   2.761
 2746TIP3    H2 8182   6.664   5.233   2.703
 2747TIP3   OH2 8183   7.559   3.899   0.047
 2747TIP3    H1 8184   7.521   3.823   0.091
 2747TIP3    H2 8185   7.484   3.956   0.027
 2748TIP3   OH2 8186   6.392   0.826   0.959
 2748TIP3    H1 8187   6.331   0.881   1.009
 2748TIP3    H2 8188   6.414   0.754   1.019
 2749TIP3   OH2 8189   0.547   0.549   6.122
 2749TIP3    H1 8190   0.500   0.482   6.071
 2749TIP3    H2 8191   0.510   0.542   6.210
 2750TIP3   OH2 8192   7.905   0.606   4.540
 2750TIP3    H1 8193   7.886   0.700   4.543
 2750TIP3    H2 8194   7.841   0.570   4.479
 2751TIP3   OH2 8195   6.742   2.743   2.136
 2751TIP3    H1 8196   6.681   2.803   2.179
 2751TIP3    H2 8197   6.766   2.787   2.055
 2752TIP3   OH2 8198   4.619   4.583   5.454
 2752TIP3    H1 8199   4.533   4.603   5.490
 2752TIP3    H2 8200   4.670   4.663   5.468
 2753TIP3   OH2 8201   7.568   1.996   4.416
 2753TIP3    H1 8202   7.517   2.064   4.460
 2753TIP3    H2 8203   7.553   2.011   4.322
 2754TIP3   OH2 8204   4.476   4.904   2.276
 2754TIP3    H1 8205   4.499   4.938   2.189
 2754TIP3    H2 8206   4.417   4.970   2.312
 2755TIP3   OH2 8207   7.513   6.952   3.874
 2755TIP3    H1 8208   7.556   6.880   3.920
 2755TIP3    H2 8209   7.557   7.030   3.905
 2756TIP3   OH2 8210   4.374   5.147   2.660
 2756TIP3    H1 8211   4.365   5.174   2.568
 2756TIP3    H2 8212   4.453   5.094   2.661
 2757TIP3   OH2 8213   3.103   0.428   6.040
 2757TIP3    H1 8214   3.127   0.516   6.010
 2757TIP3    H2 8215   3.063   0.441   6.125
 2758TIP3   OH2 8216   2.640   3.000   1.524
 2758TIP3    H1 8217   2.722   3.045   1.545
 2758TIP3    H2 8218   2.650   2.913   1.563
 2759TIP3   OH2 8219   6.291   1.735   5.760
 2759TIP3    H1 8220   6.256   1.731   5.671
 2759TIP3    H2 8221   6.386   1.725   5.749
 2760TIP3   OH2 8222   5.552   0.612   2.824
 2760TIP3    H1 8223   5.620   0.551   2.795
 2760TIP3    H2 8224   5.471   0.576   2.789
 2761TIP3   OH2 8225   7.954   0.845   4.079
 2761TIP3    H1 8226   7.980   0.758   4.111
 2761TIP3    H2 8227   7.954   0.900   4.158
 2762TIP3   OH2 8228   8.189   1.594   4.217
 2762TIP3    H1 8229   8.143   1.674   4.240
 2762TIP3    H2 8230   8.224   1.561   4.299
 2763TIP3   OH2 8231   5.951   0.308   6.069
 2763TIP3    H1 8232   5.878   0.370   6.077
 2763TIP3    H2 8233   5.934   0.263   5.986
 2764TIP3   OH2 8234   1.878   1.791   0.930
 2764TIP3    H1 8235   1.870   1.753   0.842
 2764TIP3    H2 8236   1.808   1.856   0.934
 2765TIP3   OH2 8237   0.720   5.307   2.808
 2765TIP3    H1 8238   0.719   5.391   2.763
 2765TIP3    H2 8239   0.649   5.258   2.767
 2766TIP3   OH2 8240   4.583   4.273   0.041
 2766TIP3    H1 8241   4.608   4.270   0.133
 2766TIP3    H2 8242   4.522   4.347   0.035
 2767TIP3   OH2 8243   1.411   6.863   1.518
 2767TIP3    H1 8244   1.361   6.945   1.516
 2767TIP3    H2 8245   1.377   6.817   1.595
 2768TIP3   OH2 8246   6.235   7.736   0.445
 2768TIP3    H1 8247   6.212   7.755   0.354
 2768TIP3    H2 8248   6.292   7.660   0.440
 2769TIP3   OH2 8249   6.822   7.065   6.211
 2769TIP3    H1 8250   6.850   7.105   6.294
 2769TIP3    H2 8251   6.851   6.973   6.218
 2770TIP3   OH2 8252   5.961   4.881   5.405
 2770TIP3    H1 8253   5.944   4.936   5.329
 2770TIP3    H2 8254   6.042   4.835   5.385
 2771TIP3   OH2 8255   6.324   6.222   3.916
 2771TIP3    H1 8256   6.409   6.226   3.872
 2771TIP3    H2 8257   6.294   6.313   3.919
 2772TIP3   OH2 8258   0.147   5.724   1.759
 2772TIP3    H1 8259   0.078   5.659   1.749
 2772TIP3    H2 8260   0.110   5.804   1.722
 2773TIP3   OH2 8261   0.698   2.852   4.698
 2773TIP3    H1 8262   0.663   2.854   4.787
 2773TIP3    H2 8263   0.721   2.761   4.682
 2774TIP3   OH2 8264   7.609   6.015   4.334
 2774TIP3    H1 8265   7.585   6.105   4.315
 2774TIP3    H2 8266   7.591   5.968   4.253
 2775TIP3   OH2 8267   1.336   2.971   3.397
 2775TIP3    H1 8268   1.320   3.058   3.361
 2775TIP3    H2 8269   1.401   2.985   3.466
 2776TIP3   OH2 8270   5.487   6.674   0.529
 2776TIP3    H1 8271   5.576   6.708   0.531
 2776TIP3    H2 8272   5.494   6.587   0.492
 2777TIP3   OH2 8273   5.506   1.963   2.125
 2777TIP3    H1 8274   5.479   1.944   2.215
 2777TIP3    H2 8275   5.450   1.907   2.071
 2778TIP3   OH2 8276   1.097   2.986   5.242
 2778TIP3    H1 8277   1.183   3.024   5.261
 2778TIP3    H2 8278   1.111   2.892   5.245
 2779TIP3   OH2 8279   8.128   0.807   1.235
 2779TIP3    H1 8280   8.056   0.754   1.268
 2779TIP3    H2 8281   8.086   0.873   1.180
 2780TIP3   OH2 8282   6.943   0.962   2.944
 2780TIP3    H1 8283   6.895   0.893   2.991
 2780TIP3    H2 8284   6.892   0.975   2.864
 2781TIP3   OH2 8285   4.738   4.696   5.087
 2781TIP3    H1 8286   4.665   4.663   5.141
 2781TIP3    H2 8287   4.811   4.638   5.108
 2782TIP3   OH2 8288   4.664   1.831   0.083
 2782TIP3    H1 8289   4.720   1.905   0.059
 2782TIP3    H2 8290   4.703   1.756   0.040
 2783TIP3   OH2 8291   6.383   3.513   1.742
 2783TIP3    H1 8292   6.410   3.599   1.709
 2783TIP3    H2 8293   6.435   3.500   1.822
 2784TIP3   OH2 8294   5.795   0.876   2.534
 2784TIP3    H1 8295   5.808   0.845   2.444
 2784TIP3    H2 8296   5.860   0.828   2.585
 2785TIP3   OH2 8297   5.349   5.957   5.429
 2785TIP3    H1 8298   5.339   5.905   5.509
 2785TIP3    H2 8299   5.407   5.904   5.373
 2786TIP3   OH2 8300   7.391   2.388   1.326
 2786TIP3    H1 8301   7.399   2.470   1.375
 2786TIP3    H2 8302   7.376   2.322   1.394
 2787TIP3   OH2 8303   4.078   4.899   5.004
 2787TIP3    H1 8304   4.082   4.833   4.935
 2787TIP3    H2 8305   3.986   4.899   5.032
 2788TIP3   OH2 8306   5.236   6.214   2.189
 2788TIP3    H1 8307   5.224   6.306   2.166
 2788TIP3    H2 8308   5.209   6.167   2.110
 2789TIP3   OH2 8309   3.692   2.289   4.675
 2789TIP3    H1 8310   3.644   2.230   4.616
 2789TIP3    H2 8311   3.776   2.245   4.690
 2790TIP3   OH2 8312   1.929   6.618   3.013
 2790TIP3    H1 8313   1.905   6.534   2.974
 2790TIP3    H2 8314   1.954   6.672   2.938
 2791TIP3   OH2 8315   7.511   0.485   4.850
 2791TIP3    H1 8316   7.583   0.547   4.845
 2791TIP3    H2 8317   7.488   0.468   4.759
 2792TIP3   OH2 8318   0.593   7.094   1.937
 2792TIP3    H1 8319   0.499   7.079   1.924
 2792TIP3    H2 8320   0.609   7.181   1.901
 2793TIP3   OH2 8321   5.283   4.796   0.927
 2793TIP3    H1 8322   5.216   4.850   0.885
 2793TIP3    H2 8323   5.328   4.856   0.986
 2794TIP3   OH2 8324   7.442   0.010   3.650
 2794TIP3    H1 8325   7.483  -0.012   3.734
 2794TIP3    H2 8326   7.436   0.105   3.651
 2795TIP3   OH2 8327   5.268   1.498   0.187
 2795TIP3    H1 8328   5.253   1.511   0.281
 2795TIP3    H2 8329   5.363   1.506   0.177
 2796TIP3   OH2 8330   3.404   7.746   0.011
 2796TIP3    H1 8331   3.455   7.800  -0.050
 2796TIP3    H2 8332   3.389   7.802   0.087
 2797TIP3   OH2 8333   4.926   2.347   1.497
 2797TIP3    H1 8334   4.839   2.385   1.482
 2797TIP3    H2 8335   4.917   2.256   1.469
 2798TIP3   OH2 8336   1.956   5.951   3.146
 2798TIP3    H1 8337   1.912   5.941   3.230
 2798TIP3    H2 8338   2.028   6.012   3.164
 2799TIP3   OH2 8339   2.260   6.216   6.751
 2799TIP3    H1 8340   2.307   6.173   6.822
 2799TIP3    H2 8341   2.325   6.225   6.681
 2800TIP3   OH2 8342   4.954   5.312   6.221
 2800TIP3    H1 8343   4.933   5.220   6.235
 2800TIP3    H2 8344   5.041   5.323   6.259
 2801TIP3   OH2 8345   7.725   5.466   2.672
 2801TIP3    H1 8346   7.764   5.414   2.742
 2801TIP3    H2 8347   7.782   5.452   2.596
 2802TIP3   OH2 8348   2.418   5.429   2.138
 2802TIP3    H1 8349   2.384   5.478   2.064
 2802TIP3    H2 8350   2.492   5.481   2.169
 2803TIP3   OH2 8351   0.739   2.077   2.193
 2803TIP3    H1 8352   0.778   2.124   2.266
 2803TIP3    H2 8353   0.665   2.030   2.231
 2804TIP3   OH2 8354   0.835   4.663   1.990
 2804TIP3    H1 8355   0.778   4.675   2.066
 2804TIP3    H2 8356   0.799   4.721   1.923
 2805TIP3   OH2 8357   1.026   5.682   2.340
 2805TIP3    H1 8358   0.981   5.763   2.315
 2805TIP3    H2 8359   1.038   5.690   2.434
 2806TIP3   OH2 8360   5.320   1.359   4.250
 2806TIP3    H1 8361   5.348   1.426   4.313
 2806TIP3    H2 8362   5.224   1.359   4.256
 2807TIP3   OH2 8363   3.052   2.502   2.888
 2807TIP3    H1 8364   3.096   2.581   2.922
 2807TIP3    H2 8365   3.102   2.430   2.926
 2808TIP3   OH2 8366   5.522   1.788   5.056
 2808TIP3    H1 8367   5.432   1.771   5.085
 2808TIP3    H2 8368   5.552   1.704   5.021
 2809TIP3   OH2 8369   5.074   3.839   5.005
 2809TIP3    H1 8370   5.162   3.870   5.028
 2809TIP3    H2 8371   5.065   3.755   5.049
 2810TIP3   OH2 8372   5.666   5.932   5.995
 2810TIP3    H1 8373   5.708   5.848   5.979
 2810TIP3    H2 8374   5.688   5.953   6.086
 2811TIP3   OH2 8375   6.302   1.098   4.596
 2811TIP3    H1 8376   6.245   1.025   4.622
 2811TIP3    H2 8377   6.363   1.108   4.669
 2812TIP3   OH2 8378   4.505   7.716   1.125
 2812TIP3    H1 8379   4.476   7.717   1.217
 2812TIP3    H2 8380   4.480   7.629   1.093
 2813TIP3   OH2 8381   1.189   1.751   5.985
 2813TIP3    H1 8382   1.241   1.671   5.975
 2813TIP3    H2 8383   1.254   1.819   6.004
 2814TIP3   OH2 8384   6.597   6.627   0.885
 2814TIP3    H1 8385   6.691   6.641   0.894
 2814TIP3    H2 8386   6.584   6.609   0.792
 2815TIP3   OH2 8387   5.517   2.186   1.016
 2815TIP3    H1 8388   5.560   2.234   1.087
 2815TIP3    H2 8389   5.570   2.205   0.938
 2816TIP3   OH2 8390   1.074   0.892   5.840
 2816TIP3    H1 8391   1.075   0.977   5.796
 2816TIP3    H2 8392   1.124   0.834   5.781
 2817TIP3   OH2 8393   0.539   5.169   5.861
 2817TIP3    H1 8394   0.524   5.150   5.954
 2817TIP3    H2 8395   0.527   5.085   5.817
 2818TIP3   OH2 8396   4.974  -0.023   6.646
 2818TIP3    H1 8397   5.038   0.046   6.665
 2818TIP3    H2 8398   4.905  -0.010   6.710
 2819TIP3   OH2 8399   4.843   7.801   5.694
 2819TIP3    H1 8400   4.777   7.732   5.705
 2819TIP3    H2 8401   4.905   7.765   5.631
 2820TIP3   OH2 8402   1.475   5.980   0.585
 2820TIP3    H1 8403   1.456   5.931   0.505
 2820TIP3    H2 8404   1.498   5.912   0.649
 2821TIP3   OH2 8405   6.440   3.087   5.121
 2821TIP3    H1 8406   6.351   3.113   5.148
 2821TIP3    H2 8407   6.491   3.091   5.202
 2822TIP3   OH2 8408   2.831   0.332   5.120
 2822TIP3    H1 8409   2.881   0.378   5.188
 2822TIP3    H2 8410   2.796   0.255   5.165
 2823TIP3   OH2 8411   3.601   3.121   5.405
 2823TIP3    H1 8412   3.509   3.095   5.412
 2823TIP3    H2 8413   3.624   3.105   5.314
 2824TIP3   OH2 8414   6.426   5.162   2.422
 2824TIP3    H1 8415   6.403   5.072   2.399
 2824TIP3    H2 8416   6.522   5.163   2.419
 2825TIP3   OH2 8417   7.996   5.529   4.969
 2825TIP3    H1 8418   8.000   5.507   5.062
 2825TIP3    H2 8419   7.904   5.518   4.946
 2826TIP3   OH2 8420   5.068   2.522   2.249
 2826TIP3    H1 8421   5.066   2.453   2.183
 2826TIP3    H2 8422   4.989   2.574   2.233
 2827TIP3   OH2 8423   7.888   3.531   0.197
 2827TIP3    H1 8424   7.908   3.450   0.244
 2827TIP3    H2 8425   7.842   3.586   0.261
 2828TIP3   OH2 8426   4.707   6.699   0.126
 2828TIP3    H1 8427   4.692   6.673   0.217
 2828TIP3    H2 8428   4.703   6.794   0.127
 2829TIP3   OH2 8429   3.359   0.155   5.277
 2829TIP3    H1 8430   3.354   0.226   5.340
 2829TIP3    H2 8431   3.268   0.131   5.261
 2830TIP3   OH2 8432   2.170   6.739   3.879
 2830TIP3    H1 8433   2.208   6.655   3.855
 2830TIP3    H2 8434   2.245   6.793   3.904
 2831TIP3   OH2 8435   7.569   3.616   3.734
 2831TIP3    H1 8436   7.591   3.524   3.717
 2831TIP3    H2 8437   7.642   3.666   3.698
 2832TIP3   OH2 8438   8.207   6.923   6.430
 2832TIP3    H1 8439   8.154   6.900   6.353
 2832TIP3    H2 8440   8.155   6.990   6.475
 2833TIP3   OH2 8441   7.888   4.650   1.460
 2833TIP3    H1 8442   7.847   4.596   1.527
 2833TIP3    H2 8443   7.941   4.712   1.509
 2834TIP3   OH2 8444   5.765   1.360   6.385
 2834TIP3    H1 8445   5.705   1.358   6.310
 2834TIP3    H2 8446   5.747   1.278   6.432
 2835TIP3   OH2 8447   4.331   6.168   6.337
 2835TIP3    H1 8448   4.255   6.133   6.382
 2835TIP3    H2 8449   4.405   6.147   6.394
 2836TIP3   OH2 8450   7.649   6.869   1.245
 2836TIP3    H1 8451   7.706   6.943   1.225
 2836TIP3    H2 8452   7.674   6.842   1.333
 2837TIP3   OH2 8453   7.441   2.904   4.872
 2837TIP3    H1 8454   7.417   2.828   4.924
 2837TIP3    H2 8455   7.427   2.878   4.781
 2838TIP3   OH2 8456   7.516   6.471   3.600
 2838TIP3    H1 8457   7.563   6.392   3.626
 2838TIP3    H2 8458   7.486   6.511   3.682
 2839TIP3   OH2 8459   0.751   5.733   0.624
 2839TIP3    H1 8460   0.807   5.777   0.560
 2839TIP3    H2 8461   0.807   5.667   0.664
 2840TIP3   OH2 8462   8.048   6.307   2.192
 2840TIP3    H1 8463   8.141   6.306   2.169
 2840TIP3    H2 8464   8.026   6.400   2.194
 2841TIP3   OH2 8465   2.700   2.793   6.690
 2841TIP3    H1 8466   2.664   2.797   6.602
 2841TIP3    H2 8467   2.752   2.873   6.699
 2842TIP3   OH2 8468   0.874   6.424   6.039
 2842TIP3    H1 8469   0.945   6.425   5.974
 2842TIP3    H2 8470   0.816   6.354   6.009
 2843TIP3   OH2 8471   2.038   4.633   2.834
 2843TIP3    H1 8472   2.068   4.628   2.743
 2843TIP3    H2 8473   2.101   4.581   2.883
 2844TIP3   OH2 8474   6.097   1.430   4.057
 2844TIP3    H1 8475   6.145   1.390   3.984
 2844TIP3    H2 8476   6.159   1.430   4.129
 2845TIP3   OH2 8477   4.695   0.666   2.214
 2845TIP3    H1 8478   4.671   0.599   2.149
 2845TIP3    H2 8479   4.611   0.698   2.247
 2846TIP3   OH2 8480   7.604   1.537   3.593
 2846TIP3    H1 8481   7.522   1.560   3.636
 2846TIP3    H2 8482   7.619   1.445   3.616
 2847TIP3   OH2 8483   2.742   5.679   4.172
 2847TIP3    H1 8484   2.785   5.745   4.227
 2847TIP3    H2 8485   2.651   5.679   4.201
 2848TIP3   OH2 8486   5.808   0.046   6.019
 2848TIP3    H1 8487   5.841   0.080   5.936
 2848TIP3    H2 8488   5.725   0.005   5.996
 2849TIP3   OH2 8489   0.548   3.060   1.530
 2849TIP3    H1 8490   0.622   3.083   1.474
 2849TIP3    H2 8491   0.567   3.103   1.613
 2850TIP3   OH2 8492   8.240   6.282   0.436
 2850TIP3    H1 8493   8.296   6.319   0.368
 2850TIP3    H2 8494   8.215   6.196   0.402
 2851TIP3   OH2 8495   7.923   5.147   4.864
 2851TIP3    H1 8496   7.849   5.094   4.894
 2851TIP3    H2 8497   7.992   5.132   4.929
 2852TIP3   OH2 8498   5.903   7.256   2.912
 2852TIP3    H1 8499   5.910   7.170   2.952
 2852TIP3    H2 8500   5.959   7.312   2.965
 2853TIP3   OH2 8501   6.414   0.328   4.036
 2853TIP3    H1 8502   6.321   0.316   4.019
 2853TIP3    H2 8503   6.417   0.366   4.124
 2854TIP3   OH2 8504   1.575   3.292   3.816
 2854TIP3    H1 8505   1.498   3.317   3.766
 2854TIP3    H2 8506   1.540   3.246   3.892
 2855TIP3   OH2 8507   6.218   7.118   3.901
 2855TIP3    H1 8508   6.191   7.113   3.810
 2855TIP3    H2 8509   6.136   7.121   3.950
 2856TIP3   OH2 8510   0.510   6.474   2.852
 2856TIP3    H1 8511   0.450   6.402   2.870
 2856TIP3    H2 8512   0.478   6.512   2.770
 2857TIP3   OH2 8513   4.747   1.399   4.636
 2857TIP3    H1 8514   4.760   1.337   4.564
 2857TIP3    H2 8515   4.714   1.478   4.594
 2858TIP3   OH2 8516   2.692   0.947   0.543
 2858TIP3    H1 8517   2.614   0.894   0.529
 2858TIP3    H2 8518   2.669   1.003   0.618
 2859TIP3   OH2 8519   4.977   4.432   4.359
 2859TIP3    H1 8520   4.950   4.352   4.315
 2859TIP3    H2 8521   5.059   4.456   4.316
 2860TIP3   OH2 8522   4.663   0.036   0.731
 2860TIP3    H1 8523   4.577  -0.007   0.732
 2860TIP3    H2 8524   4.661   0.092   0.654
 2861TIP3   OH2 8525   2.185   2.938   2.113
 2861TIP3    H1 8526   2.200   2.997   2.187
 2861TIP3    H2 8527   2.176   2.997   2.037
 2862TIP3   OH2 8528   3.483   5.129   5.195
 2862TIP3    H1 8529   3.524   5.089   5.119
 2862TIP3    H2 8530   3.452   5.055   5.247
 2863TIP3   OH2 8531   1.547   2.474   4.992
 2863TIP3    H1 8532   1.577   2.545   5.050
 2863TIP3    H2 8533   1.485   2.424   5.045
 2864TIP3   OH2 8534   7.977   0.783   5.785
 2864TIP3    H1 8535   7.922   0.826   5.719
 2864TIP3    H2 8536   7.957   0.828   5.867
 2865TIP3   OH2 8537   1.814   1.415   3.867
 2865TIP3    H1 8538   1.770   1.495   3.897
 2865TIP3    H2 8539   1.802   1.353   3.939
 2866TIP3   OH2 8540   1.638   2.179   0.713
 2866TIP3    H1 8541   1.553   2.220   0.696
 2866TIP3    H2 8542   1.690   2.200   0.636
 2867TIP3   OH2 8543   4.757   2.750   0.436
 2867TIP3    H1 8544   4.693   2.685   0.466
 2867TIP3    H2 8545   4.711   2.834   0.446
 2868TIP3   OH2 8546   7.906   7.079   1.817
 2868TIP3    H1 8547   7.980   7.104   1.762
 2868TIP3    H2 8548   7.852   7.023   1.760
 2869TIP3   OH2 8549   5.379   4.286   3.149
 2869TIP3    H1 8550   5.453   4.340   3.121
 2869TIP3    H2 8551   5.313   4.298   3.081
 2870TIP3   OH2 8552   2.760   0.680   4.530
 2870TIP3    H1 8553   2.832   0.655   4.473
 2870TIP3    H2 8554   2.781   0.639   4.614
 2871TIP3   OH2 8555   4.832   5.880   4.828
 2871TIP3    H1 8556   4.775   5.821   4.876
 2871TIP3    H2 8557   4.867   5.939   4.895
 2872TIP3   OH2 8558   3.242   2.328   1.122
 2872TIP3    H1 8559   3.151   2.310   1.145
 2872TIP3    H2 8560   3.263   2.265   1.054
 2873TIP3   OH2 8561   5.946   0.163   4.636
 2873TIP3    H1 8562   6.008   0.143   4.565
 2873TIP3    H2 8563   5.973   0.105   4.708
 2874TIP3   OH2 8564   2.307   6.729   2.352
 2874TIP3    H1 8565   2.300   6.825   2.354
 2874TIP3    H2 8566   2.272   6.704   2.266
 2875TIP3   OH2 8567   0.094   3.366   2.187
 2875TIP3    H1 8568   0.132   3.429   2.248
 2875TIP3    H2 8569   0.079   3.416   2.107
 2876TIP3   OH2 8570   6.300   1.860   0.177
 2876TIP3    H1 8571   6.388   1.831   0.202
 2876TIP3    H2 8572   6.315   1.921   0.105
 2877TIP3   OH2 8573   6.229   0.161   2.655
 2877TIP3    H1 8574   6.157   0.200   2.703
 2877TIP3    H2 8575   6.199   0.156   2.565
 2878TIP3   OH2 8576   5.631   4.515   5.835
 2878TIP3    H1 8577   5.642   4.592   5.891
 2878TIP3    H2 8578   5.596   4.551   5.753
 2879TIP3   OH2 8579   3.459   5.488   4.386
 2879TIP3    H1 8580   3.529   5.473   4.322
 2879TIP3    H2 8581   3.504   5.499   4.469
 2880TIP3   OH2 8582   0.013   2.992   0.778
 2880TIP3    H1 8583   0.076   2.940   0.728
 2880TIP3    H2 8584  -0.045   2.928   0.818
 2881TIP3   OH2 8585   0.553   1.253   4.079
 2881TIP3    H1 8586   0.557   1.160   4.102
 2881TIP3    H2 8587   0.473   1.262   4.027
 2882TIP3   OH2 8588   6.055   1.987   3.597
 2882TIP3    H1 8589   6.136   1.989   3.547
 2882TIP3    H2 8590   6.064   2.056   3.663
 2883TIP3   OH2 8591   2.776   3.997   2.259
 2883TIP3    H1 8592   2.834   4.014   2.333
 2883TIP3    H2 8593   2.824   3.935   2.205
 2884TIP3   OH2 8594   1.681   1.434   6.180
 2884TIP3    H1 8595   1.729   1.492   6.240
 2884TIP3    H2 8596   1.746   1.371   6.150
 2885TIP3   OH2 8597   3.024   5.448   6.100
 2885TIP3    H1 8598   3.049   5.539   6.093
 2885TIP3    H2 8599   3.098   5.399   6.063
 2886TIP3   OH2 8600   6.544   2.201   0.631
 2886TIP3    H1 8601   6.521   2.163   0.715
 2886TIP3    H2 8602   6.483   2.163   0.569
 2887TIP3   OH2 8603   8.232   7.464   5.282
 2887TIP3    H1 8604   8.233   7.379   5.238
 2887TIP3    H2 8605   8.192   7.523   5.218
 2888TIP3   OH2 8606   5.342   1.607   0.453
 2888TIP3    H1 8607   5.390   1.690   0.460
 2888TIP3    H2 8608   5.251   1.630   0.471
 2889TIP3   OH2 8609   0.617   3.337   2.101
 2889TIP3    H1 8610   0.662   3.389   2.168
 2889TIP3    H2 8611   0.615   3.248   2.136
 2890TIP3   OH2 8612   1.707   0.355   2.316
 2890TIP3    H1 8613   1.687   0.366   2.223
 2890TIP3    H2 8614   1.780   0.415   2.332
 2891TIP3   OH2 8615   4.285   7.728   4.900
 2891TIP3    H1 8616   4.323   7.784   4.968
 2891TIP3    H2 8617   4.199   7.704   4.934
 2892TIP3   OH2 8618   5.025   2.639   4.847
 2892TIP3    H1 8619   5.065   2.553   4.832
 2892TIP3    H2 8620   4.932   2.625   4.832
 2893TIP3   OH2 8621   0.581   3.473   2.704
 2893TIP3    H1 8622   0.527   3.550   2.690
 2893TIP3    H2 8623   0.656   3.505   2.754
 2894TIP3   OH2 8624   0.400   0.628   1.924
 2894TIP3    H1 8625   0.469   0.578   1.880
 2894TIP3    H2 8626   0.372   0.692   1.859
 2895TIP3   OH2 8627   5.810   1.958   0.644
 2895TIP3    H1 8628   5.848   1.964   0.557
 2895TIP3    H2 8629   5.877   1.993   0.702
 2896TIP3   OH2 8630   2.364   0.620   0.742
 2896TIP3    H1 8631   2.367   0.701   0.793
 2896TIP3    H2 8632   2.332   0.647   0.656
 2897TIP3   OH2 8633   7.666   5.971   6.218
 2897TIP3    H1 8634   7.614   5.892   6.235
 2897TIP3    H2 8635   7.691   5.965   6.126
 2898TIP3   OH2 8636   0.702   1.739   4.231
 2898TIP3    H1 8637   0.721   1.810   4.291
 2898TIP3    H2 8638   0.673   1.781   4.151
 2899TIP3   OH2 8639   1.039   2.124   0.267
 2899TIP3    H1 8640   0.959   2.145   0.218
 2899TIP3    H2 8641   1.024   2.163   0.353
 2900TIP3   OH2 8642   7.451   0.038   4.876
 2900TIP3    H1 8643   7.422   0.067   4.789
 2900TIP3    H2 8644   7.386   0.075   4.936
 2901TIP3   OH2 8645   3.336   3.334   5.959
 2901TIP3    H1 8646   3.282   3.412   5.973
 2901TIP3    H2 8647   3.277   3.272   5.916
 2902TIP3   OH2 8648   4.242   4.223   1.078
 2902TIP3    H1 8649   4.161   4.270   1.055
 2902TIP3    H2 8650   4.228   4.135   1.042
 2903TIP3   OH2 8651   1.514   6.574   4.939
 2903TIP3    H1 8652   1.431   6.613   4.969
 2903TIP3    H2 8653   1.511   6.582   4.844
 2904TIP3   OH2 8654   7.862   6.010   2.356
 2904TIP3    H1 8655   7.825   5.977   2.437
 2904TIP3    H2 8656   7.805   5.975   2.287
 2905TIP3   OH2 8657   2.151   2.585   4.020
 2905TIP3    H1 8658   2.118   2.674   4.031
 2905TIP3    H2 8659   2.173   2.579   3.927
 2906TIP3   OH2 8660   2.536   4.491   0.143
 2906TIP3    H1 8661   2.567   4.451   0.062
 2906TIP3    H2 8662   2.485   4.422   0.186
 2907TIP3   OH2 8663   1.707   7.433   5.808
 2907TIP3    H1 8664   1.659   7.395   5.881
 2907TIP3    H2 8665   1.799   7.427   5.834
 2908TIP3   OH2 8666   3.572   7.622   3.879
 2908TIP3    H1 8667   3.486   7.586   3.856
 2908TIP3    H2 8668   3.634   7.553   3.855
 2909TIP3   OH2 8669   2.808   3.373   4.733
 2909TIP3    H1 8670   2.796   3.436   4.662
 2909TIP3    H2 8671   2.791   3.288   4.692
 2910TIP3   OH2 8672   4.085   7.472   5.598
 2910TIP3    H1 8673   4.084   7.525   5.677
 2910TIP3    H2 8674   4.177   7.453   5.583
 2911TIP3   OH2 8675   5.148   0.806   0.965
 2911TIP3    H1 8676   5.111   0.878   0.913
 2911TIP3    H2 8677   5.133   0.833   1.056
 2912TIP3   OH2 8678   1.661   6.872   5.410
 2912TIP3    H1 8679   1.602   6.834   5.475
 2912TIP3    H2 8680   1.678   6.801   5.348
 2913TIP3   OH2 8681   4.738   7.734   1.521
 2913TIP3    H1 8682   4.690   7.760   1.599
 2913TIP3    H2 8683   4.756   7.815   1.475
 2914TIP3   OH2 8684   0.737   3.523   4.591
 2914TIP3    H1 8685   0.745   3.437   4.633
 2914TIP3    H2 8686   0.827   3.543   4.563
 2915TIP3   OH2 8687   8.058   2.091   2.074
 2915TIP3    H1 8688   8.001   2.037   2.129
 2915TIP3    H2 8689   8.006   2.168   2.053
 2916TIP3   OH2 8690   2.182   2.643   2.388
 2916TIP3    H1 8691   2.193   2.620   2.481
 2916TIP3    H2 8692   2.087   2.640   2.374
 2917TIP3   OH2 8693   2.825   7.531   1.675
 2917TIP3    H1 8694   2.897   7.476   1.645
 2917TIP3    H2 8695   2.866   7.616   1.695
 2918TIP3   OH2 8696   7.310   7.385   5.795
 2918TIP3    H1 8697   7.376   7.328   5.756
 2918TIP3    H2 8698   7.353   7.422   5.873
 2919TIP3   OH2 8699   4.121   0.287   6.244
 2919TIP3    H1 8700   4.050   0.303   6.306
 2919TIP3    H2 8701   4.135   0.192   6.247
 2920TIP3   OH2 8702   5.319   2.441   2.346
 2920TIP3    H1 8703   5.236   2.487   2.353
 2920TIP3    H2 8704   5.319   2.405   2.257
 2921TIP3   OH2 8705   2.279   6.463   0.761
 2921TIP3    H1 8706   2.342   6.525   0.798
 2921TIP3    H2 8707   2.323   6.379   0.766
 2922TIP3   OH2 8708   1.142   4.857   3.116
 2922TIP3    H1 8709   1.084   4.790   3.152
 2922TIP3    H2 8710   1.225   4.812   3.102
 2923TIP3   OH2 8711   4.468   7.031   5.717
 2923TIP3    H1 8712   4.452   6.937   5.705
 2923TIP3    H2 8713   4.553   7.036   5.759
 2924TIP3   OH2 8714   3.217   4.290   5.002
 2924TIP3    H1 8715   3.149   4.337   5.051
 2924TIP3    H2 8716   3.294   4.347   5.008
 2925TIP3   OH2 8717   4.423   0.315   4.956
 2925TIP3    H1 8718   4.422   0.371   4.878
 2925TIP3    H2 8719   4.365   0.242   4.935
 2926TIP3   OH2 8720   2.896   1.640   1.911
 2926TIP3    H1 8721   2.897   1.690   1.993
 2926TIP3    H2 8722   2.848   1.560   1.932
 2927TIP3   OH2 8723   3.012   4.133   5.673
 2927TIP3    H1 8724   2.982   4.222   5.690
 2927TIP3    H2 8725   3.067   4.111   5.748
 2928TIP3   OH2 8726   2.987   4.713   3.546
 2928TIP3    H1 8727   3.063   4.683   3.597
 2928TIP3    H2 8728   3.002   4.807   3.534
 2929TIP3   OH2 8729   4.681   5.111   4.115
 2929TIP3    H1 8730   4.754   5.107   4.177
 2929TIP3    H2 8731   4.684   5.027   4.068
 2930TIP3   OH2 8732   2.267   3.889   6.648
 2930TIP3    H1 8733   2.325   3.814   6.634
 2930TIP3    H2 8734   2.276   3.909   6.741
 2931TIP3   OH2 8735   7.982   2.989   2.623
 2931TIP3    H1 8736   8.060   3.030   2.660
 2931TIP3    H2 8737   8.006   2.968   2.533
 2932TIP3   OH2 8738   7.139   6.303   4.159
 2932TIP3    H1 8739   7.193   6.237   4.203
 2932TIP3    H2 8740   7.072   6.326   4.224
 2933TIP3   OH2 8741   4.588   5.001   4.629
 2933TIP3    H1 8742   4.548   5.061   4.566
 2933TIP3    H2 8743   4.576   4.914   4.591
 2934TIP3   OH2 8744   1.359   0.190   3.915
 2934TIP3    H1 8745   1.445   0.148   3.916
 2934TIP3    H2 8746   1.305   0.131   3.861
 2935TIP3   OH2 8747   3.506   2.210   3.513
 2935TIP3    H1 8748   3.568   2.280   3.496
 2935TIP3    H2 8749   3.425   2.255   3.539
 2936TIP3   OH2 8750   8.017   7.841   3.828
 2936TIP3    H1 8751   8.019   7.806   3.739
 2936TIP3    H2 8752   7.950   7.790   3.872
 2937TIP3   OH2 8753   3.934   0.783   2.475
 2937TIP3    H1 8754   3.993   0.854   2.502
 2937TIP3    H2 8755   3.847   0.813   2.502
 2938TIP3   OH2 8756   1.391   7.769   6.676
 2938TIP3    H1 8757   1.371   7.861   6.659
 2938TIP3    H2 8758   1.392   7.761   6.771
 2939TIP3   OH2 8759   3.220   5.231   1.014
 2939TIP3    H1 8760   3.216   5.139   1.042
 2939TIP3    H2 8761   3.164   5.234   0.937
 2940TIP3   OH2 8762   2.092   2.776   4.727
 2940TIP3    H1 8763   2.057   2.704   4.779
 2940TIP3    H2 8764   2.178   2.794   4.764
 2941TIP3   OH2 8765   0.238   4.334   1.757
 2941TIP3    H1 8766   0.334   4.331   1.747
 2941TIP3    H2 8767   0.204   4.295   1.677
 2942TIP3   OH2 8768   2.788   2.551   2.180
 2942TIP3    H1 8769   2.849   2.504   2.237
 2942TIP3    H2 8770   2.817   2.529   2.091
 2943TIP3   OH2 8771   2.542   0.143   6.018
 2943TIP3    H1 8772   2.507   0.091   5.946
 2943TIP3    H2 8773   2.526   0.234   5.993
 2944TIP3   OH2 8774   8.044   7.285   3.645
 2944TIP3    H1 8775   8.107   7.320   3.582
 2944TIP3    H2 8776   8.040   7.351   3.714
 2945TIP3   OH2 8777   4.125   6.638   3.378
 2945TIP3    H1 8778   4.168   6.626   3.463
 2945TIP3    H2 8779   4.072   6.718   3.389
 2946TIP3   OH2 8780   2.776   5.963   4.588
 2946TIP3    H1 8781   2.803   6.053   4.608
 2946TIP3    H2 8782   2.835   5.937   4.517
 2947TIP3   OH2 8783   5.886   7.276   5.230
 2947TIP3    H1 8784   5.823   7.280   5.302
 2947TIP3    H2 8785   5.922   7.187   5.234
 2948TIP3   OH2 8786   7.003   6.301   1.006
 2948TIP3    H1 8787   6.939   6.373   1.012
 2948TIP3    H2 8788   7.002   6.261   1.093
 2949TIP3   OH2 8789   4.875   3.337   2.716
 2949TIP3    H1 8790   4.892   3.244   2.701
 2949TIP3    H2 8791   4.780   3.342   2.728
 2950TIP3   OH2 8792   0.292   6.568   4.710
 2950TIP3    H1 8793   0.215   6.620   4.685
 2950TIP3    H2 8794   0.356   6.585   4.641
 2951TIP3   OH2 8795   6.886   2.796   2.596
 2951TIP3    H1 8796   6.895   2.793   2.691
 2951TIP3    H2 8797   6.962   2.845   2.566
 2952TIP3   OH2 8798   3.972   0.343   3.437
 2952TIP3    H1 8799   3.984   0.374   3.348
 2952TIP3    H2 8800   3.927   0.414   3.482
 2953TIP3   OH2 8801   1.642   6.266   3.477
 2953TIP3    H1 8802   1.696   6.292   3.403
 2953TIP3    H2 8803   1.635   6.346   3.530
 2954TIP3   OH2 8804   3.915   1.775   4.077
 2954TIP3    H1 8805   3.879   1.783   4.165
 2954TIP3    H2 8806   3.874   1.845   4.027
 2955TIP3   OH2 8807   1.813   4.585   4.604
 2955TIP3    H1 8808   1.865   4.523   4.553
 2955TIP3    H2 8809   1.808   4.663   4.549
 2956TIP3   OH2 8810   7.869   3.804   3.420
 2956TIP3    H1 8811   7.805   3.807   3.349
 2956TIP3    H2 8812   7.952   3.785   3.377
 2957TIP3   OH2 8813   0.148   3.927   2.954
 2957TIP3    H1 8814   0.205   3.968   3.020
 2957TIP3    H2 8815   0.200   3.926   2.875
 2958TIP3   OH2 8816   6.618   6.233   1.043
 2958TIP3    H1 8817   6.674   6.305   1.073
 2958TIP3    H2 8818   6.552   6.275   0.988
 2959TIP3   OH2 8819   8.049   7.599   3.219
 2959TIP3    H1 8820   8.016   7.685   3.244
 2959TIP3    H2 8821   8.097   7.614   3.137
 2960TIP3   OH2 8822   4.575   0.473   4.472
 2960TIP3    H1 8823   4.632   0.549   4.472
 2960TIP3    H2 8824   4.519   0.485   4.395
 2961TIP3   OH2 8825   3.638   0.928   1.011
 2961TIP3    H1 8826   3.700   0.880   1.064
 2961TIP3    H2 8827   3.630   1.014   1.053
 2962TIP3   OH2 8828   3.028   7.823   5.560
 2962TIP3    H1 8829   3.070   7.738   5.578
 2962TIP3    H2 8830   3.093   7.872   5.510
 2963TIP3   OH2 8831   7.834   4.585   4.900
 2963TIP3    H1 8832   7.917   4.626   4.877
 2963TIP3    H2 8833   7.787   4.652   4.951
 2964TIP3   OH2 8834   0.497   6.096   2.893
 2964TIP3    H1 8835   0.430   6.162   2.913
 2964TIP3    H2 8836   0.551   6.092   2.972
 2965TIP3   OH2 8837   5.125   6.130   5.928
 2965TIP3    H1 8838   5.189   6.074   5.885
 2965TIP3    H2 8839   5.155   6.135   6.019
 2966TIP3   OH2 8840   1.432   1.158   0.134
 2966TIP3    H1 8841   1.495   1.136   0.065
 2966TIP3    H2 8842   1.434   1.253   0.138
 2967TIP3   OH2 8843   0.388   1.317   5.843
 2967TIP3    H1 8844   0.426   1.401   5.816
 2967TIP3    H2 8845   0.450   1.284   5.908
 2968TIP3   OH2 8846   7.226   7.357   1.326
 2968TIP3    H1 8847   7.229   7.263   1.307
 2968TIP3    H2 8848   7.253   7.398   1.244
 2969TIP3   OH2 8849   2.841   3.471   3.929
 2969TIP3    H1 8850   2.916   3.413   3.914
 2969TIP3    H2 8851   2.824   3.464   4.023
 2970TIP3   OH2 8852   6.121   0.667   2.906
 2970TIP3    H1 8853   6.174   0.589   2.921
 2970TIP3    H2 8854   6.065   0.673   2.984
 2971TIP3   OH2 8855   5.539   0.641   4.480
 2971TIP3    H1 8856   5.490   0.583   4.539
 2971TIP3    H2 8857   5.628   0.640   4.515
 2972TIP3   OH2 8858   7.146   1.986   2.530
 2972TIP3    H1 8859   7.115   1.964   2.617
 2972TIP3    H2 8860   7.212   1.919   2.510
 2973TIP3   OH2 8861   1.635   2.442   2.161
 2973TIP3    H1 8862   1.635   2.537   2.157
 2973TIP3    H2 8863   1.689   2.415   2.086
 2974TIP3   OH2 8864   4.470   6.934   3.127
 2974TIP3    H1 8865   4.380   6.906   3.111
 2974TIP3    H2 8866   4.476   7.020   3.084
 2975TIP3   OH2 8867   1.838   5.992   3.380
 2975TIP3    H1 8868   1.804   6.082   3.378
 2975TIP3    H2 8869   1.918   5.997   3.431
 2976TIP3   OH2 8870   8.209   0.486   0.489
 2976TIP3    H1 8871   8.256   0.552   0.438
 2976TIP3    H2 8872   8.159   0.537   0.554
 2977TIP3   OH2 8873   6.119   1.499   0.050
 2977TIP3    H1 8874   6.086   1.574   0.001
 2977TIP3    H2 8875   6.211   1.493   0.025
 2978TIP3   OH2 8876   5.210   5.454   3.524
 2978TIP3    H1 8877   5.148   5.477   3.593
 2978TIP3    H2 8878   5.160   5.465   3.443
 2979TIP3   OH2 8879   4.409   7.361   2.720
 2979TIP3    H1 8880   4.451   7.417   2.655
 2979TIP3    H2 8881   4.466   7.365   2.796
 2980TIP3   OH2 8882   7.589   0.180   1.500
 2980TIP3    H1 8883   7.577   0.211   1.590
 2980TIP3    H2 8884   7.525   0.230   1.449
 2981TIP3   OH2 8885   2.480   5.060   5.957
 2981TIP3    H1 8886   2.464   5.154   5.970
 2981TIP3    H2 8887   2.459   5.020   6.041
 2982TIP3   OH2 8888   6.240   3.787   0.015
 2982TIP3    H1 8889   6.260   3.735   0.093
 2982TIP3    H2 8890   6.268   3.731  -0.058
 2983TIP3   OH2 8891   3.237   3.135   4.899
 2983TIP3    H1 8892   3.183   3.124   4.821
 2983TIP3    H2 8893   3.294   3.209   4.878
 2984TIP3   OH2 8894   3.503   4.846   3.016
 2984TIP3    H1 8895   3.459   4.772   3.058
 2984TIP3    H2 8896   3.471   4.923   3.063
 2985TIP3   OH2 8897   1.913   2.222   0.129
 2985TIP3    H1 8898   1.917   2.223   0.225
 2985TIP3    H2 8899   1.900   2.130   0.107
 2986TIP3   OH2 8900   1.833   6.030   4.511
 2986TIP3    H1 8901   1.894   6.024   4.585
 2986TIP3    H2 8902   1.759   5.975   4.537
 2987TIP3   OH2 8903   7.430   4.078   4.167
 2987TIP3    H1 8904   7.352   4.121   4.202
 2987TIP3    H2 8905   7.470   4.144   4.110
 2988TIP3   OH2 8906   3.991   6.361   0.824
 2988TIP3    H1 8907   4.010   6.279   0.779
 2988TIP3    H2 8908   3.977   6.335   0.916
 2989TIP3   OH2 8909   5.681   3.982   2.027
 2989TIP3    H1 8910   5.600   4.032   2.037
 2989TIP3    H2 8911   5.679   3.918   2.098
 2990TIP3   OH2 8912   2.130   4.829   0.282
 2990TIP3    H1 8913   2.189   4.902   0.302
 2990TIP3    H2 8914   2.050   4.871   0.248
 2991TIP3   OH2 8915   0.693   2.636   6.708
 2991TIP3    H1 8916   0.759   2.685   6.660
 2991TIP3    H2 8917   0.667   2.694   6.780
 2992TIP3   OH2 8918   5.955   4.474   5.646
 2992TIP3    H1 8919   5.903   4.540   5.599
 2992TIP3    H2 8920   5.939   4.493   5.738
 2993TIP3   OH2 8921   5.932   3.408   1.525
 2993TIP3    H1 8922   5.949   3.336   1.464
 2993TIP3    H2 8923   6.015   3.422   1.569
 2994TIP3   OH2 8924   7.398   1.284   4.877
 2994TIP3    H1 8925   7.403   1.301   4.783
 2994TIP3    H2 8926   7.326   1.340   4.908
 2995TIP3   OH2 8927   0.780   4.799   3.438
 2995TIP3    H1 8928   0.755   4.717   3.395
 2995TIP3    H2 8929   0.825   4.771   3.517
 2996TIP3   OH2 8930   5.418   0.243   3.935
 2996TIP3    H1 8931   5.372   0.177   3.883
 2996TIP3    H2 8932   5.451   0.306   3.871
 2997TIP3   OH2 8933   5.715   1.457   1.886
 2997TIP3    H1 8934   5.724   1.396   1.959
 2997TIP3    H2 8935   5.789   1.437   1.828
 2998TIP3   OH2 8936   3.097   4.007   4.980
 2998TIP3    H1 8937   3.162   3.973   4.919
 2998TIP3    H2 8938   3.119   4.100   4.989
 2999TIP3   OH2 8939   5.810   4.217   3.026
 2999TIP3    H1 8940   5.771   4.256   2.948
 2999TIP3    H2 8941   5.780   4.272   3.098
 3000TIP3   OH2 8942   0.028   7.646   6.217
 3000TIP3    H1 8943   0.056   7.565   6.258
 3000TIP3    H2 8944   0.080   7.652   6.137
 3001TIP3   OH2 8945   6.312   6.876   3.245
 3001TIP3    H1 8946   6.399   6.848   3.217
 3001TIP3    H2 8947   6.256   6.863   3.169
 3002TIP3   OH2 8948   0.984   3.486   3.090
 3002TIP3    H1 8949   1.073   3.512   3.115
 3002TIP3    H2 8950   0.956   3.427   3.159
 3003TIP3   OH2 8951   1.111   5.789   2.741
 3003TIP3    H1 8952   1.063   5.706   2.735
 3003TIP3    H2 8953   1.161   5.782   2.822
 3004TIP3   OH2 8954   2.093   0.958   6.528
 3004TIP3    H1 8955   2.049   1.033   6.487
 3004TIP3    H2 8956   2.103   0.984   6.619
 3005TIP3   OH2 8957   2.112   3.779   4.813
 3005TIP3    H1 8958   2.103   3.762   4.906
 3005TIP3    H2 8959   2.167   3.707   4.780
 3006TIP3   OH2 8960   7.215   5.468   3.419
 3006TIP3    H1 8961   7.137   5.503   3.463
 3006TIP3    H2 8962   7.187   5.382   3.387
 3007TIP3   OH2 8963   7.562   7.598   3.093
 3007TIP3    H1 8964   7.656   7.587   3.100
 3007TIP3    H2 8965   7.548   7.630   3.004
 3008TIP3   OH2 8966   3.491   1.553   5.268
 3008TIP3    H1 8967   3.559   1.499   5.309
 3008TIP3    H2 8968   3.430   1.489   5.230
 3009TIP3   OH2 8969   6.925   4.068   1.045
 3009TIP3    H1 8970   6.836   4.093   1.068
 3009TIP3    H2 8971   6.969   4.151   1.026
 3010TIP3   OH2 8972   0.440   0.617   6.360
 3010TIP3    H1 8973   0.525   0.658   6.373
 3010TIP3    H2 8974   0.386   0.648   6.432
 3011TIP3   OH2 8975   5.034   1.785   0.687
 3011TIP3    H1 8976   5.044   1.699   0.644
 3011TIP3    H2 8977   5.109   1.791   0.746
 3012TIP3   OH2 8978   0.074   2.637   5.603
 3012TIP3    H1 8979   0.050   2.728   5.619
 3012TIP3    H2 8980  -0.003   2.586   5.629
 3013TIP3   OH2 8981   4.092   7.110   3.284
 3013TIP3    H1 8982   4.020   7.148   3.234
 3013TIP3    H2 8983   4.106   7.171   3.357
 3014TIP3   OH2 8984   5.410   3.754   0.629
 3014TIP3    H1 8985   5.327   3.774   0.586
 3014TIP3    H2 8986   5.385   3.716   0.713
 3015TIP3   OH2 8987   5.209   3.882   6.374
 3015TIP3    H1 8988   5.144   3.951   6.358
 3015TIP3    H2 8989   5.272   3.891   6.303
 3016TIP3   OH2 8990   2.348   1.611   4.096
 3016TIP3    H1 8991   2.280   1.571   4.149
 3016TIP3    H2 8992   2.333   1.577   4.008
 3017TIP3   OH2 8993   7.113   3.740   6.025
 3017TIP3    H1 8994   7.184   3.724   5.962
 3017TIP3    H2 8995   7.033   3.728   5.974
 3018TIP3   OH2 8996   2.148   4.683   1.770
 3018TIP3    H1 8997   2.079   4.676   1.705
 3018TIP3    H2 8998   2.103   4.680   1.854
 3019TIP3   OH2 8999   8.251   4.674   1.417
 3019TIP3    H1 9000   8.298   4.748   1.456
 3019TIP3    H2 9001   8.163   4.679   1.455
 3020TIP3   OH2 9002   2.285   5.169   1.539
 3020TIP3    H1 9003   2.221   5.104   1.511
 3020TIP3    H2 9004   2.254   5.198   1.625
 3021TIP3   OH2 9005   5.313   5.579   6.436
 3021TIP3    H1 9006   5.279   5.503   6.389
 3021TIP3    H2 9007   5.386   5.610   6.383
 3022TIP3   OH2 9008   4.329   6.573   6.391
 3022TIP3    H1 9009   4.299   6.664   6.383
 3022TIP3    H2 9010   4.260   6.530   6.441
 3023TIP3   OH2 9011   2.687   2.567   6.154
 3023TIP3    H1 9012   2.595   2.543   6.167
 3023TIP3    H2 9013   2.736   2.505   6.207
 3024TIP3   OH2 9014   2.015   3.655   5.047
 3024TIP3    H1 9015   2.001   3.624   5.136
 3024TIP3    H2 9016   2.076   3.728   5.055
 3025TIP3   OH2 9017   4.440   5.922   4.474
 3025TIP3    H1 9018   4.436   5.961   4.387
 3025TIP3    H2 9019   4.417   5.993   4.534
 3026TIP3   OH2 9020   2.498   4.107   1.776
 3026TIP3    H1 9021   2.435   4.068   1.715
 3026TIP3    H2 9022   2.456   4.098   1.862
 3027TIP3   OH2 9023   8.108   4.058   5.585
 3027TIP3    H1 9024   8.026   4.048   5.633
 3027TIP3    H2 9025   8.082   4.056   5.493
 3028TIP3   OH2 9026   1.336   7.212   0.224
 3028TIP3    H1 9027   1.394   7.287   0.236
 3028TIP3    H2 9028   1.328   7.202   0.129
 3029TIP3   OH2 9029   5.119   0.969   6.531
 3029TIP3    H1 9030   5.027   0.983   6.512
 3029TIP3    H2 9031   5.156   1.057   6.538
 3030TIP3   OH2 9032   2.515   3.997   6.329
 3030TIP3    H1 9033   2.529   3.904   6.346
 3030TIP3    H2 9034   2.550   4.010   6.241
 3031TIP3   OH2 9035   4.707   3.535   6.418
 3031TIP3    H1 9036   4.793   3.511   6.454
 3031TIP3    H2 9037   4.703   3.489   6.334
 3032TIP3   OH2 9038   5.972   0.986   0.786
 3032TIP3    H1 9039   5.988   0.926   0.859
 3032TIP3    H2 9040   5.926   0.933   0.721
 3033TIP3   OH2 9041   0.444   3.918   4.273
 3033TIP3    H1 9042   0.430   3.943   4.182
 3033TIP3    H2 9043   0.375   3.853   4.290
 3034TIP3   OH2 9044   7.904   0.766   5.085
 3034TIP3    H1 9045   7.915   0.783   4.991
 3034TIP3    H2 9046   7.848   0.837   5.116
 3035TIP3   OH2 9047   8.102   5.633   0.756
 3035TIP3    H1 9048   8.174   5.693   0.774
 3035TIP3    H2 9049   8.114   5.606   0.665
 3036TIP3   OH2 9050   2.007   4.761   1.298
 3036TIP3    H1 9051   1.995   4.835   1.239
 3036TIP3    H2 9052   2.057   4.697   1.248
 3037TIP3   OH2 9053   3.282   5.643   3.053
 3037TIP3    H1 9054   3.341   5.573   3.079
 3037TIP3    H2 9055   3.231   5.663   3.131
 3038TIP3   OH2 9056   1.851   4.452   5.582
 3038TIP3    H1 9057   1.907   4.428   5.656
 3038TIP3    H2 9058   1.769   4.406   5.598
 3039TIP3   OH2 9059   4.501   5.367   0.988
 3039TIP3    H1 9060   4.552   5.328   1.058
 3039TIP3    H2 9061   4.490   5.459   1.014
 3040TIP3   OH2 9062   1.578   4.931   3.000
 3040TIP3    H1 9063   1.546   5.022   3.001
 3040TIP3    H2 9064   1.674   4.940   2.999
 3041TIP3   OH2 9065   1.987   0.996   3.361
 3041TIP3    H1 9066   2.082   0.982   3.371
 3041TIP3    H2 9067   1.950   0.964   3.443
 3042TIP3   OH2 9068   2.707   3.201   4.287
 3042TIP3    H1 9069   2.704   3.143   4.212
 3042TIP3    H2 9070   2.632   3.175   4.341
 3043TIP3   OH2 9071   3.549   5.064   4.494
 3043TIP3    H1 9072   3.609   5.123   4.540
 3043TIP3    H2 9073   3.601   5.030   4.421
 3044TIP3   OH2 9074   6.839   5.327   6.526
 3044TIP3    H1 9075   6.824   5.338   6.432
 3044TIP3    H2 9076   6.754   5.345   6.566
 3045TIP3   OH2 9077   6.691   6.584   1.436
 3045TIP3    H1 9078   6.712   6.573   1.529
 3045TIP3    H2 9079   6.654   6.499   1.409
 3046TIP3   OH2 9080   6.175   0.597   6.023
 3046TIP3    H1 9081   6.084   0.616   6.043
 3046TIP3    H2 9082   6.195   0.652   5.947
 3047TIP3   OH2 9083   5.110   3.644   5.366
 3047TIP3    H1 9084   5.038   3.643   5.303
 3047TIP3    H2 9085   5.126   3.552   5.385
 3048TIP3   OH2 9086   6.051   4.993   1.629
 3048TIP3    H1 9087   6.063   4.941   1.550
 3048TIP3    H2 9088   5.977   5.050   1.609
 3049TIP3   OH2 9089   1.341   4.489   6.642
 3049TIP3    H1 9090   1.381   4.404   6.659
 3049TIP3    H2 9091   1.251   4.480   6.676
 3050TIP3   OH2 9092   6.053   7.128   1.874
 3050TIP3    H1 9093   6.069   7.187   1.800
 3050TIP3    H2 9094   5.995   7.060   1.838
 3051TIP3   OH2 9095   0.172   3.588   1.089
 3051TIP3    H1 9096   0.084   3.601   1.126
 3051TIP3    H2 9097   0.210   3.676   1.088
 3052TIP3   OH2 9098   7.891   2.542   2.855
 3052TIP3    H1 9099   7.943   2.593   2.792
 3052TIP3    H2 9100   7.859   2.607   2.918
 3053TIP3   OH2 9101   4.896   6.660   4.589
 3053TIP3    H1 9102   4.880   6.715   4.666
 3053TIP3    H2 9103   4.984   6.624   4.604
 3054TIP3   OH2 9104   3.240   4.385   2.949
 3054TIP3    H1 9105   3.294   4.308   2.931
 3054TIP3    H2 9106   3.280   4.426   3.026
 3055TIP3   OH2 9107   6.100   5.890   0.558
 3055TIP3    H1 9108   6.181   5.897   0.608
 3055TIP3    H2 9109   6.054   5.815   0.596
 3056TIP3   OH2 9110   6.521   0.880   5.306
 3056TIP3    H1 9111   6.468   0.891   5.227
 3056TIP3    H2 9112   6.458   0.859   5.375
 3057TIP3   OH2 9113   3.519   5.815   2.728
 3057TIP3    H1 9114   3.427   5.786   2.728
 3057TIP3    H2 9115   3.554   5.782   2.645
 3058TIP3   OH2 9116   2.431   1.710   5.538
 3058TIP3    H1 9117   2.393   1.657   5.608
 3058TIP3    H2 9118   2.365   1.710   5.469
 3059TIP3   OH2 9119   1.706   6.901   1.193
 3059TIP3    H1 9120   1.741   6.820   1.158
 3059TIP3    H2 9121   1.697   6.958   1.116
 3060TIP3   OH2 9122   4.437   4.048   0.283
 3060TIP3    H1 9123   4.360   4.091   0.244
 3060TIP3    H2 9124   4.421   4.055   0.378
 3061TIP3   OH2 9125   5.080   6.494   5.575
 3061TIP3    H1 9126   5.168   6.456   5.574
 3061TIP3    H2 9127   5.062   6.508   5.668
 3062TIP3   OH2 9128   3.375   2.646   0.463
 3062TIP3    H1 9129   3.327   2.627   0.383
 3062TIP3    H2 9130   3.439   2.713   0.438
 3063TIP3   OH2 9131   6.747   6.522   1.719
 3063TIP3    H1 9132   6.771   6.604   1.763
 3063TIP3    H2 9133   6.829   6.474   1.710
 3064TIP3   OH2 9134   2.312   0.958   5.889
 3064TIP3    H1 9135   2.375   0.968   5.818
 3064TIP3    H2 9136   2.347   0.888   5.944
 3065TIP3   OH2 9137   4.818   6.606   0.807
 3065TIP3    H1 9138   4.771   6.688   0.797
 3065TIP3    H2 9139   4.753   6.545   0.843
 3066TIP3   OH2 9140   6.867   2.771   4.228
 3066TIP3    H1 9141   6.831   2.779   4.140
 3066TIP3    H2 9142   6.797   2.803   4.285
 3067TIP3   OH2 9143   2.578   2.329   2.083
 3067TIP3    H1 9144   2.530   2.298   2.007
 3067TIP3    H2 9145   2.670   2.326   2.057
 3068TIP3   OH2 9146   2.214   1.306   1.358
 3068TIP3    H1 9147   2.196   1.226   1.309
 3068TIP3    H2 9148   2.305   1.326   1.338
 3069TIP3   OH2 9149   0.783   5.451   0.954
 3069TIP3    H1 9150   0.691   5.433   0.975
 3069TIP3    H2 9151   0.807   5.384   0.890
 3070TIP3   OH2 9152   7.561   5.510   2.218
 3070TIP3    H1 9153   7.584   5.420   2.239
 3070TIP3    H2 9154   7.551   5.553   2.303
 3071TIP3   OH2 9155   4.479   0.610   3.788
 3071TIP3    H1 9156   4.489   0.621   3.693
 3071TIP3    H2 9157   4.389   0.636   3.806
 3072TIP3   OH2 9158   1.062   5.170   2.891
 3072TIP3    H1 9159   1.005   5.230   2.940
 3072TIP3    H2 9160   1.144   5.171   2.940
 3073TIP3   OH2 9161   7.687   1.171   2.273
 3073TIP3    H1 9162   7.732   1.252   2.250
 3073TIP3    H2 9163   7.599   1.182   2.237
 3074TIP3   OH2 9164   2.356   7.054   3.757
 3074TIP3    H1 9165   2.270   7.059   3.716
 3074TIP3    H2 9166   2.364   7.136   3.806
 3075TIP3   OH2 9167   4.684   5.830   1.260
 3075TIP3    H1 9168   4.696   5.913   1.307
 3075TIP3    H2 9169   4.605   5.792   1.298
 3076TIP3   OH2 9170   2.017   1.225   5.018
 3076TIP3    H1 9171   2.009   1.260   5.107
 3076TIP3    H2 9172   1.978   1.138   5.022
 3077TIP3   OH2 9173   5.660   0.154   4.661
 3077TIP3    H1 9174   5.638   0.146   4.754
 3077TIP3    H2 9175   5.747   0.193   4.659
 3078TIP3   OH2 9176   6.948   3.105   5.393
 3078TIP3    H1 9177   6.879   3.108   5.459
 3078TIP3    H2 9178   7.030   3.102   5.444
 3079TIP3   OH2 9179   3.347   4.818   1.002
 3079TIP3    H1 9180   3.426   4.798   1.052
 3079TIP3    H2 9181   3.316   4.901   1.038
 3080TIP3   OH2 9182   6.202   6.267   5.304
 3080TIP3    H1 9183   6.210   6.263   5.208
 3080TIP3    H2 9184   6.157   6.349   5.321
 3081TIP3   OH2 9185   7.510   0.940   3.501
 3081TIP3    H1 9186   7.557   0.933   3.584
 3081TIP3    H2 9187   7.472   0.852   3.488
 3082TIP3   OH2 9188   5.847   1.029   4.517
 3082TIP3    H1 9189   5.857   1.116   4.556
 3082TIP3    H2 9190   5.752   1.014   4.517
 3083TIP3   OH2 9191   6.103   5.654   2.046
 3083TIP3    H1 9192   6.064   5.741   2.043
 3083TIP3    H2 9193   6.136   5.640   1.957
 3084TIP3   OH2 9194   4.793   6.565   1.838
 3084TIP3    H1 9195   4.826   6.575   1.749
 3084TIP3    H2 9196   4.837   6.487   1.871
 3085TIP3   OH2 9197   0.109   4.160   0.387
 3085TIP3    H1 9198   0.088   4.214   0.311
 3085TIP3    H2 9199   0.150   4.221   0.449
 3086TIP3   OH2 9200   5.714   1.539   3.084
 3086TIP3    H1 9201   5.752   1.595   3.152
 3086TIP3    H2 9202   5.631   1.581   3.063
 3087TIP3   OH2 9203   1.397   6.491   2.122
 3087TIP3    H1 9204   1.308   6.526   2.117
 3087TIP3    H2 9205   1.408   6.443   2.040
 3088TIP3   OH2 9206   4.645   5.795   2.168
 3088TIP3    H1 9207   4.701   5.853   2.115
 3088TIP3    H2 9208   4.556   5.823   2.148
 3089TIP3   OH2 9209   1.598   0.692   0.240
 3089TIP3    H1 9210   1.563   0.779   0.258
 3089TIP3    H2 9211   1.693   0.703   0.248
 3090TIP3   OH2 9212   7.148   1.128   1.167
 3090TIP3    H1 9213   7.058   1.103   1.189
 3090TIP3    H2 9214   7.141   1.169   1.081
 3091TIP3   OH2 9215   2.180   3.149   2.290
 3091TIP3    H1 9216   2.261   3.193   2.316
 3091TIP3    H2 9217   2.111   3.201   2.332
 3092TIP3   OH2 9218   1.970   6.699   5.978
 3092TIP3    H1 9219   2.034   6.769   5.969
 3092TIP3    H2 9220   1.908   6.712   5.906
 3093TIP3   OH2 9221   2.457   2.769   3.202
 3093TIP3    H1 9222   2.446   2.733   3.290
 3093TIP3    H2 9223   2.411   2.709   3.145
 3094TIP3   OH2 9224   8.332   1.387   3.569
 3094TIP3    H1 9225   8.368   1.474   3.581
 3094TIP3    H2 9226   8.237   1.401   3.562
 3095TIP3   OH2 9227   7.939   6.878   3.959
 3095TIP3    H1 9228   7.856   6.853   3.999
 3095TIP3    H2 9229   7.916   6.944   3.894
 3096TIP3   OH2 9230   6.321   7.343   6.427
 3096TIP3    H1 9231   6.298   7.424   6.380
 3096TIP3    H2 9232   6.251   7.282   6.406
 3097TIP3   OH2 9233   4.243   0.971   0.821
 3097TIP3    H1 9234   4.295   0.923   0.756
 3097TIP3    H2 9235   4.274   0.940   0.905
 3098TIP3   OH2 9236   4.669   5.883   0.918
 3098TIP3    H1 9237   4.593   5.838   0.955
 3098TIP3    H2 9238   4.744   5.839   0.958
 3099TIP3   OH2 9239   6.648   3.953   2.612
 3099TIP3    H1 9240   6.590   4.016   2.654
 3099TIP3    H2 9241   6.671   3.994   2.528
 3100TIP3   OH2 9242   6.949   5.910   5.128
 3100TIP3    H1 9243   6.941   5.935   5.220
 3100TIP3    H2 9244   6.866   5.868   5.107
 3101TIP3   OH2 9245   3.617   1.877   5.043
 3101TIP3    H1 9246   3.556   1.945   5.013
 3101TIP3    H2 9247   3.701   1.922   5.052
 3102TIP3   OH2 9248   7.065   4.016   6.538
 3102TIP3    H1 9249   7.148   4.033   6.581
 3102TIP3    H2 9250   7.088   3.970   6.457
 3103TIP3   OH2 9251   2.501   4.939   1.220
 3103TIP3    H1 9252   2.582   4.923   1.172
 3103TIP3    H2 9253   2.486   5.033   1.212
 3104TIP3   OH2 9254   5.829   4.615   4.348
 3104TIP3    H1 9255   5.762   4.567   4.299
 3104TIP3    H2 9256   5.829   4.574   4.435
 3105TIP3   OH2 9257   1.575   1.592   1.890
 3105TIP3    H1 9258   1.556   1.679   1.855
 3105TIP3    H2 9259   1.540   1.531   1.826
 3106TIP3   OH2 9260   8.139   0.281   6.167
 3106TIP3    H1 9261   8.084   0.283   6.088
 3106TIP3    H2 9262   8.220   0.323   6.141
 3107TIP3   OH2 9263   1.860   1.973   0.666
 3107TIP3    H1 9264   1.951   1.991   0.688
 3107TIP3    H2 9265   1.822   2.059   0.646
 3108TIP3   OH2 9266   2.834   7.736   4.606
 3108TIP3    H1 9267   2.850   7.830   4.612
 3108TIP3    H2 9268   2.921   7.697   4.610
 3109TIP3   OH2 9269   2.876   0.773   5.090
 3109TIP3    H1 9270   2.868   0.721   5.010
 3109TIP3    H2 9271   2.864   0.863   5.062
 3110TIP3   OH2 9272   1.528   2.997   0.723
 3110TIP3    H1 9273   1.558   2.972   0.636
 3110TIP3    H2 9274   1.433   2.988   0.719
 3111TIP3   OH2 9275   0.203   3.189   3.623
 3111TIP3    H1 9276   0.278   3.171   3.566
 3111TIP3    H2 9277   0.182   3.104   3.661
 3112TIP3   OH2 9278   5.030   6.937   5.146
 3112TIP3    H1 9279   5.124   6.920   5.153
 3112TIP3    H2 9280   5.024   7.031   5.129
 3113TIP3   OH2 9281   8.308   3.892   4.121
 3113TIP3    H1 9282   8.250   3.917   4.050
 3113TIP3    H2 9283   8.297   3.797   4.128
 3114TIP3   OH2 9284   0.307   5.565   5.439
 3114TIP3    H1 9285   0.332   5.532   5.353
 3114TIP3    H2 9286   0.267   5.650   5.421
 3115TIP3   OH2 9287   2.740   5.891   3.981
 3115TIP3    H1 9288   2.697   5.952   4.042
 3115TIP3    H2 9289   2.750   5.810   4.031
 3116TIP3   OH2 9290   3.749   0.898   1.945
 3116TIP3    H1 9291   3.671   0.892   1.890
 3116TIP3    H2 9292   3.726   0.960   2.013
 3117TIP3   OH2 9293   3.824   0.218   6.395
 3117TIP3    H1 9294   3.760   0.225   6.466
 3117TIP3    H2 9295   3.802   0.136   6.352
 3118TIP3   OH2 9296   1.749   0.877   4.884
 3118TIP3    H1 9297   1.809   0.823   4.935
 3118TIP3    H2 9298   1.676   0.820   4.864
 3119TIP3   OH2 9299   6.571   1.709   4.174
 3119TIP3    H1 9300   6.494   1.764   4.161
 3119TIP3    H2 9301   6.605   1.736   4.259
 3120TIP3   OH2 9302   1.536   4.787   2.313
 3120TIP3    H1 9303   1.488   4.807   2.394
 3120TIP3    H2 9304   1.558   4.694   2.321
 3121TIP3   OH2 9305   0.751   1.580   2.592
 3121TIP3    H1 9306   0.676   1.639   2.607
 3121TIP3    H2 9307   0.711   1.496   2.570
 3122TIP3   OH2 9308   7.365   6.852   5.333
 3122TIP3    H1 9309   7.353   6.896   5.248
 3122TIP3    H2 9310   7.327   6.913   5.396
 3123TIP3   OH2 9311   1.380   4.518   1.286
 3123TIP3    H1 9312   1.374   4.579   1.360
 3123TIP3    H2 9313   1.463   4.539   1.244
 3124TIP3   OH2 9314   4.314   1.562   1.464
 3124TIP3    H1 9315   4.264   1.643   1.455
 3124TIP3    H2 9316   4.383   1.583   1.527
 3125TIP3   OH2 9317   4.072   3.298   1.824
 3125TIP3    H1 9318   4.028   3.354   1.760
 3125TIP3    H2 9319   4.027   3.317   1.907
 3126TIP3   OH2 9320   3.693   1.073   3.262
 3126TIP3    H1 9321   3.661   1.078   3.352
 3126TIP3    H2 9322   3.770   1.130   3.261
 3127TIP3   OH2 9323   5.348   3.647   0.877
 3127TIP3    H1 9324   5.270   3.611   0.919
 3127TIP3    H2 9325   5.406   3.673   0.949
 3128TIP3   OH2 9326   1.654   1.944   3.382
 3128TIP3    H1 9327   1.719   2.005   3.346
 3128TIP3    H2 9328   1.671   1.861   3.337
 3129TIP3   OH2 9329   0.371   5.366   0.781
 3129TIP3    H1 9330   0.317   5.294   0.812
 3129TIP3    H2 9331   0.386   5.348   0.689
 3130TIP3   OH2 9332   0.375   0.061   6.443
 3130TIP3    H1 9333   0.326   0.117   6.503
 3130TIP3    H2 9334   0.461   0.102   6.436
 3131TIP3   OH2 9335   7.515   1.463   2.437
 3131TIP3    H1 9336   7.543   1.381   2.476
 3131TIP3    H2 9337   7.594   1.517   2.435
 3132TIP3   OH2 9338   2.046   0.592   4.565
 3132TIP3    H1 9339   2.076   0.585   4.655
 3132TIP3    H2 9340   2.053   0.686   4.544
 3133TIP3   OH2 9341   7.983   1.662   5.199
 3133TIP3    H1 9342   7.938   1.619   5.126
 3133TIP3    H2 9343   8.076   1.658   5.175
 3134TIP3   OH2 9344   2.518   6.326   2.391
 3134TIP3    H1 9345   2.502   6.326   2.485
 3134TIP3    H2 9346   2.525   6.233   2.368
 3135TIP3   OH2 9347   6.983   6.951   3.514
 3135TIP3    H1 9348   6.906   6.958   3.571
 3135TIP3    H2 9349   7.038   6.884   3.556
 3136TIP3   OH2 9350   6.029   4.379   2.167
 3136TIP3    H1 9351   6.084   4.455   2.151
 3136TIP3    H2 9352   5.953   4.414   2.213
 3137TIP3   OH2 9353   1.102   4.622   2.010
 3137TIP3    H1 9354   1.093   4.546   1.952
 3137TIP3    H2 9355   1.015   4.660   2.013
 3138TIP3   OH2 9356   7.111   0.365   5.019
 3138TIP3    H1 9357   7.077   0.325   5.099
 3138TIP3    H2 9358   7.199   0.328   5.009
 3139TIP3   OH2 9359   3.682   3.621   2.060
 3139TIP3    H1 9360   3.758   3.638   2.115
 3139TIP3    H2 9361   3.689   3.685   1.989
 3140TIP3   OH2 9362   1.767   3.648   3.438
 3140TIP3    H1 9363   1.766   3.674   3.530
 3140TIP3    H2 9364   1.814   3.564   3.438
 3141TIP3   OH2 9365   7.435   1.394   3.059
 3141TIP3    H1 9366   7.374   1.364   3.126
 3141TIP3    H2 9367   7.412   1.486   3.044
 3142TIP3   OH2 9368   5.522   4.692   0.852
 3142TIP3    H1 9369   5.440   4.724   0.891
 3142TIP3    H2 9370   5.531   4.602   0.884
 3143TIP3   OH2 9371   5.860   3.825   2.553
 3143TIP3    H1 9372   5.768   3.799   2.561
 3143TIP3    H2 9373   5.878   3.821   2.459
 3144TIP3   OH2 9374   2.689   2.458   0.506
 3144TIP3    H1 9375   2.678   2.552   0.495
 3144TIP3    H2 9376   2.708   2.425   0.418
 3145TIP3   OH2 9377   0.616   0.059   3.969
 3145TIP3    H1 9378   0.579   0.119   4.034
 3145TIP3    H2 9379   0.621  -0.025   4.014
 3146TIP3   OH2 9380   3.340   5.084   4.319
 3146TIP3    H1 9381   3.419   5.112   4.365
 3146TIP3    H2 9382   3.344   4.989   4.321
 3147TIP3   OH2 9383   1.993   7.327   5.870
 3147TIP3    H1 9384   2.052   7.402   5.875
 3147TIP3    H2 9385   1.946   7.329   5.954
 3148TIP3   OH2 9386   6.689   0.085   3.121
 3148TIP3    H1 9387   6.737   0.092   3.039
 3148TIP3    H2 9388   6.609   0.038   3.099
 3149TIP3   OH2 9389   8.028   4.118   4.223
 3149TIP3    H1 9390   8.081   4.155   4.153
 3149TIP3    H2 9391   7.951   4.175   4.228
 3150TIP3   OH2 9392   1.799   3.336   5.043
 3150TIP3    H1 9393   1.769   3.416   5.086
 3150TIP3    H2 9394   1.838   3.284   5.113
 3151TIP3   OH2 9395   2.340   2.018   0.533
 3151TIP3    H1 9396   2.401   2.052   0.598
 3151TIP3    H2 9397   2.361   1.924   0.528
 3152TIP3   OH2 9398   0.659   2.562   1.141
 3152TIP3    H1 9399   0.638   2.653   1.160
 3152TIP3    H2 9400   0.636   2.550   1.049
 3153TIP3   OH2 9401   6.573   7.276   3.852
 3153TIP3    H1 9402   6.524   7.276   3.934
 3153TIP3    H2 9403   6.654   7.228   3.871
 3154TIP3   OH2 9404   5.855   3.007   5.982
 3154TIP3    H1 9405   5.882   2.922   5.947
 3154TIP3    H2 9406   5.833   3.059   5.905
 3155TIP3   OH2 9407   0.023   6.824   0.926
 3155TIP3    H1 9408   0.051   6.900   0.977
 3155TIP3    H2 9409   0.089   6.757   0.945
 3156TIP3   OH2 9410   5.179   2.907   0.811
 3156TIP3    H1 9411   5.217   2.906   0.899
 3156TIP3    H2 9412   5.189   2.818   0.779
 3157TIP3   OH2 9413   7.876   5.479   5.909
 3157TIP3    H1 9414   7.878   5.457   6.002
 3157TIP3    H2 9415   7.958   5.526   5.893
 3158TIP3   OH2 9416   3.931   3.882   2.575
 3158TIP3    H1 9417   3.885   3.891   2.491
 3158TIP3    H2 9418   3.878   3.933   2.636
 3159TIP3   OH2 9419   5.360   6.980   3.330
 3159TIP3    H1 9420   5.409   6.938   3.400
 3159TIP3    H2 9421   5.386   6.932   3.251
 3160TIP3   OH2 9422   1.147   2.822   5.760
 3160TIP3    H1 9423   1.206   2.884   5.803
 3160TIP3    H2 9424   1.187   2.736   5.775
 3161TIP3   OH2 9425   7.566   4.374   0.927
 3161TIP3    H1 9426   7.629   4.305   0.948
 3161TIP3    H2 9427   7.580   4.441   0.995
 3162TIP3   OH2 9428   5.929   1.902   2.382
 3162TIP3    H1 9429   5.927   1.961   2.458
 3162TIP3    H2 9430   5.985   1.947   2.319
 3163TIP3   OH2 9431   2.840   1.068   5.956
 3163TIP3    H1 9432   2.914   1.021   5.919
 3163TIP3    H2 9433   2.801   1.006   6.018
 3164TIP3   OH2 9434   1.298   1.648   0.871
 3164TIP3    H1 9435   1.279   1.720   0.811
 3164TIP3    H2 9436   1.353   1.687   0.939
 3165TIP3   OH2 9437   5.174   0.161   2.544
 3165TIP3    H1 9438   5.226   0.169   2.624
 3165TIP3    H2 9439   5.094   0.211   2.563
 3166TIP3   OH2 9440   7.556   6.036  -0.038
 3166TIP3    H1 9441   7.570   5.995   0.047
 3166TIP3    H2 9442   7.462   6.055  -0.040
 3167TIP3   OH2 9443   4.894   4.240   6.695
 3167TIP3    H1 9444   4.807   4.201   6.691
 3167TIP3    H2 9445   4.886   4.309   6.760
 3168TIP3   OH2 9446   0.246   0.754   1.710
 3168TIP3    H1 9447   0.261   0.721   1.622
 3168TIP3    H2 9448   0.175   0.818   1.700
 3169TIP3   OH2 9449   4.289   4.318   5.377
 3169TIP3    H1 9450   4.363   4.364   5.339
 3169TIP3    H2 9451   4.228   4.306   5.303
 3170TIP3   OH2 9452   5.956   4.349   6.673
 3170TIP3    H1 9453   5.883   4.400   6.708
 3170TIP3    H2 9454   5.927   4.324   6.585
 3171TIP3   OH2 9455   4.331   4.579   5.477
 3171TIP3    H1 9456   4.277   4.656   5.495
 3171TIP3    H2 9457   4.297   4.545   5.394
 3172TIP3   OH2 9458   4.624   0.014   0.055
 3172TIP3    H1 9459   4.566   0.089   0.040
 3172TIP3    H2 9460   4.664   0.032   0.141
 3173TIP3   OH2 9461   3.036   0.740   1.494
 3173TIP3    H1 9462   2.995   0.756   1.410
 3173TIP3    H2 9463   2.963   0.737   1.556
 3174TIP3   OH2 9464   5.441   4.190   1.193
 3174TIP3    H1 9465   5.513   4.244   1.226
 3174TIP3    H2 9466   5.379   4.253   1.155
 3175TIP3   OH2 9467   1.668   1.878   0.495
 3175TIP3    H1 9468   1.724   1.924   0.557
 3175TIP3    H2 9469   1.690   1.786   0.506
 3176TIP3   OH2 9470   6.934   3.281   1.905
 3176TIP3    H1 9471   6.952   3.190   1.928
 3176TIP3    H2 9472   6.890   3.317   1.982
 3177TIP3   OH2 9473   8.169   7.742   2.737
 3177TIP3    H1 9474   8.252   7.697   2.722
 3177TIP3    H2 9475   8.190   7.835   2.730
 3178TIP3   OH2 9476   3.068   3.440   4.872
 3178TIP3    H1 9477   3.023   3.484   4.944
 3178TIP3    H2 9478   2.997   3.397   4.823
 3179TIP3   OH2 9479   0.926   5.988   4.044
 3179TIP3    H1 9480   0.833   6.011   4.038
 3179TIP3    H2 9481   0.931   5.921   4.112
 3180TIP3   OH2 9482   4.828   0.320   3.463
 3180TIP3    H1 9483   4.796   0.290   3.548
 3180TIP3    H2 9484   4.796   0.254   3.401
 3181TIP3   OH2 9485   4.748   2.614   4.856
 3181TIP3    H1 9486   4.706   2.697   4.837
 3181TIP3    H2 9487   4.721   2.556   4.784
 3182TIP3   OH2 9488   7.385   2.530   0.663
 3182TIP3    H1 9489   7.310   2.471   0.655
 3182TIP3    H2 9490   7.417   2.515   0.752
 3183TIP3   OH2 9491   2.667   7.222   1.383
 3183TIP3    H1 9492   2.576   7.196   1.366
 3183TIP3    H2 9493   2.659   7.300   1.440
 3184TIP3   OH2 9494   1.841   6.374   2.927
 3184TIP3    H1 9495   1.879   6.287   2.926
 3184TIP3    H2 9496   1.747   6.359   2.927
 3185TIP3   OH2 9497   7.997   4.918   2.763
 3185TIP3    H1 9498   7.985   4.944   2.854
 3185TIP3    H2 9499   8.024   4.826   2.767
 3186TIP3   OH2 9500   1.081   6.293   6.562
 3186TIP3    H1 9501   1.144   6.349   6.516
 3186TIP3    H2 9502   1.134   6.224   6.602
 3187TIP3   OH2 9503   4.725   4.121   0.319
 3187TIP3    H1 9504   4.800   4.094   0.266
 3187TIP3    H2 9505   4.657   4.057   0.300
 3188TIP3   OH2 9506   5.462   2.549   5.073
 3188TIP3    H1 9507   5.401   2.541   5.146
 3188TIP3    H2 9508   5.458   2.641   5.048
 3189TIP3   OH2 9509   6.554   1.868   0.348
 3189TIP3    H1 9510   6.648   1.887   0.351
 3189TIP3    H2 9511   6.547   1.775   0.369
 3190TIP3   OH2 9512   7.122   0.397   4.467
 3190TIP3    H1 9513   7.104   0.304   4.456
 3190TIP3    H2 9514   7.133   0.409   4.561
 3191TIP3   OH2 9515   4.214   7.176   6.737
 3191TIP3    H1 9516   4.277   7.104   6.733
 3191TIP3    H2 9517   4.199   7.201   6.646
 3192TIP3   OH2 9518   5.319   2.207   3.779
 3192TIP3    H1 9519   5.224   2.201   3.769
 3192TIP3    H2 9520   5.342   2.133   3.836
 3193TIP3   OH2 9521   2.279   1.635   2.573
 3193TIP3    H1 9522   2.344   1.696   2.540
 3193TIP3    H2 9523   2.298   1.553   2.528
 3194TIP3   OH2 9524   3.363   3.044   4.145
 3194TIP3    H1 9525   3.293   3.057   4.081
 3194TIP3    H2 9526   3.431   2.997   4.096
 3195TIP3   OH2 9527   3.033   2.954   5.622
 3195TIP3    H1 9528   2.974   3.019   5.659
 3195TIP3    H2 9529   3.030   2.969   5.528
 3196TIP3   OH2 9530   1.889   4.638   1.923
 3196TIP3    H1 9531   1.875   4.730   1.943
 3196TIP3    H2 9532   1.829   4.620   1.851
 3197TIP3   OH2 9533   5.932   4.933   5.134
 3197TIP3    H1 9534   6.022   4.938   5.102
 3197TIP3    H2 9535   5.883   4.893   5.062
 3198TIP3   OH2 9536   2.683   6.209   4.411
 3198TIP3    H1 9537   2.753   6.238   4.469
 3198TIP3    H2 9538   2.611   6.269   4.428
 3199TIP3   OH2 9539   0.046   3.556   4.743
 3199TIP3    H1 9540   0.048   3.565   4.647
 3199TIP3    H2 9541   0.095   3.631   4.775
 3200TIP3   OH2 9542   2.353   2.980   0.885
 3200TIP3    H1 9543   2.433   3.012   0.845
 3200TIP3    H2 9544   2.283   3.002   0.823
 3201TIP3   OH2 9545   6.981   4.877   0.770
 3201TIP3    H1 9546   6.941   4.819   0.834
 3201TIP3    H2 9547   6.964   4.834   0.686
 3202TIP3   OH2 9548   3.790   2.791   0.055
 3202TIP3    H1 9549   3.729   2.718   0.044
 3202TIP3    H2 9550   3.876   2.749   0.060
 3203TIP3   OH2 9551   1.916   2.001   2.161
 3203TIP3    H1 9552   1.830   2.008   2.121
 3203TIP3    H2 9553   1.942   2.092   2.178
 3204TIP3   OH2 9554   7.204   5.083   3.976
 3204TIP3    H1 9555   7.140   5.012   3.977
 3204TIP3    H2 9556   7.237   5.083   3.886
 3205TIP3   OH2 9557   8.153   2.246   4.925
 3205TIP3    H1 9558   8.092   2.239   4.852
 3205TIP3    H2 9559   8.208   2.321   4.903
 3206TIP3   OH2 9560   0.241   3.912   0.380
 3206TIP3    H1 9561   0.299   3.937   0.453
 3206TIP3    H2 9562   0.177   3.982   0.375
 3207TIP3   OH2 9563   7.260   6.048   1.695
 3207TIP3    H1 9564   7.199   6.068   1.623
 3207TIP3    H2 9565   7.217   5.978   1.744
 3208TIP3   OH2 9566   3.219   0.672   5.948
 3208TIP3    H1 9567   3.207   0.752   5.897
 3208TIP3    H2 9568   3.271   0.699   6.023
 3209TIP3   OH2 9569   8.222   1.342   0.275
 3209TIP3    H1 9570   8.200   1.252   0.299
 3209TIP3    H2 9571   8.281   1.371   0.345
 3210TIP3   OH2 9572   3.800   4.695   2.444
 3210TIP3    H1 9573   3.795   4.726   2.354
 3210TIP3    H2 9574   3.821   4.773   2.495
 3211TIP3   OH2 9575   1.703   0.360   0.249
 3211TIP3    H1 9576   1.716   0.413   0.170
 3211TIP3    H2 9577   1.751   0.407   0.317
 3212TIP3   OH2 9578   1.391   1.307   2.077
 3212TIP3    H1 9579   1.477   1.346   2.064
 3212TIP3    H2 9580   1.334   1.382   2.097
 3213TIP3   OH2 9581   7.154   2.453   6.393
 3213TIP3    H1 9582   7.138   2.533   6.444
 3213TIP3    H2 9583   7.117   2.383   6.446
 3214TIP3   OH2 9584   6.998   6.928   1.180
 3214TIP3    H1 9585   7.072   6.873   1.154
 3214TIP3    H2 9586   6.927   6.866   1.197
 3215TIP3   OH2 9587   3.756   0.636   0.144
 3215TIP3    H1 9588   3.851   0.651   0.150
 3215TIP3    H2 9589   3.730   0.681   0.064
 3216TIP3   OH2 9590   1.555   5.561   5.970
 3216TIP3    H1 9591   1.649   5.562   5.952
 3216TIP3    H2 9592   1.529   5.469   5.956
 3217TIP3   OH2 9593   3.297   5.806   6.602
 3217TIP3    H1 9594   3.312   5.802   6.508
 3217TIP3    H2 9595   3.334   5.890   6.629
 3218TIP3   OH2 9596   1.330   7.627   4.504
 3218TIP3    H1 9597   1.423   7.609   4.520
 3218TIP3    H2 9598   1.328   7.718   4.472
 3219TIP3   OH2 9599   0.094   6.733   1.649
 3219TIP3    H1 9600   0.075   6.795   1.579
 3219TIP3    H2 9601   0.180   6.760   1.682
 3220TIP3   OH2 9602   3.569   1.901   1.532
 3220TIP3    H1 9603   3.603   1.898   1.621
 3220TIP3    H2 9604   3.523   1.986   1.527
 3221TIP3   OH2 9605   2.029   3.241   3.275
 3221TIP3    H1 9606   1.943   3.279   3.292
 3221TIP3    H2 9607   2.010   3.160   3.227
 3222TIP3   OH2 9608   4.404   0.491   0.240
 3222TIP3    H1 9609   4.416   0.527   0.153
 3222TIP3    H2 9610   4.310   0.499   0.256
 3223TIP3   OH2 9611   6.867   2.166   2.706
 3223TIP3    H1 9612   6.887   2.259   2.714
 3223TIP3    H2 9613   6.886   2.130   2.793
 3224TIP3   OH2 9614   5.467   7.630   3.376
 3224TIP3    H1 9615   5.443   7.722   3.364
 3224TIP3    H2 9616   5.544   7.633   3.433
 3225TIP3   OH2 9617   7.927   4.251   1.095
 3225TIP3    H1 9618   7.931   4.336   1.050
 3225TIP3    H2 9619   7.896   4.190   1.028
 3226TIP3   OH2 9620   4.350   0.547   0.953
 3226TIP3    H1 9621   4.355   0.459   0.989
 3226TIP3    H2 9622   4.390   0.541   0.867
 3227TIP3   OH2 9623   2.198   0.133   1.552
 3227TIP3    H1 9624   2.170   0.188   1.478
 3227TIP3    H2 9625   2.158   0.048   1.534
 3228TIP3   OH2 9626   1.108   0.613   2.422
 3228TIP3    H1 9627   1.091   0.673   2.350
 3228TIP3    H2 9628   1.044   0.542   2.410
 3229TIP3   OH2 9629   3.493   7.200   1.970
 3229TIP3    H1 9630   3.581   7.191   2.005
 3229TIP3    H2 9631   3.503   7.258   1.894
 3230TIP3   OH2 9632   1.562   6.599   3.692
 3230TIP3    H1 9633   1.509   6.551   3.755
 3230TIP3    H2 9634   1.649   6.560   3.698
 3231TIP3   OH2 9635   5.160   1.641   2.077
 3231TIP3    H1 9636   5.083   1.628   2.133
 3231TIP3    H2 9637   5.147   1.580   2.004
 3232TIP3   OH2 9638   1.100   5.488   4.705
 3232TIP3    H1 9639   1.023   5.432   4.717
 3232TIP3    H2 9640   1.175   5.432   4.727
 3233TIP3   OH2 9641   8.123   2.327   2.734
 3233TIP3    H1 9642   8.174   2.313   2.654
 3233TIP3    H2 9643   8.039   2.284   2.717
 3234TIP3   OH2 9644   3.355   3.962   4.832
 3234TIP3    H1 9645   3.383   4.035   4.776
 3234TIP3    H2 9646   3.408   3.888   4.803
 3235TIP3   OH2 9647   6.202   4.203   4.818
 3235TIP3    H1 9648   6.271   4.153   4.862
 3235TIP3    H2 9649   6.122   4.183   4.867
 3236TIP3   OH2 9650   1.544   7.675   4.293
 3236TIP3    H1 9651   1.574   7.720   4.371
 3236TIP3    H2 9652   1.618   7.680   4.232
 3237TIP3   OH2 9653   3.410   3.977   0.469
 3237TIP3    H1 9654   3.384   3.901   0.418
 3237TIP3    H2 9655   3.400   3.949   0.560
 3238TIP3   OH2 9656   2.507   3.397   1.422
 3238TIP3    H1 9657   2.431   3.434   1.379
 3238TIP3    H2 9658   2.546   3.470   1.471
 3239TIP3   OH2 9659   6.367   6.207   2.917
 3239TIP3    H1 9660   6.343   6.245   2.833
 3239TIP3    H2 9661   6.332   6.118   2.914
 3240TIP3   OH2 9662   1.829   1.500   0.982
 3240TIP3    H1 9663   1.776   1.564   0.934
 3240TIP3    H2 9664   1.818   1.526   1.074
 3241TIP3   OH2 9665   2.665   7.159   0.234
 3241TIP3    H1 9666   2.583   7.145   0.187
 3241TIP3    H2 9667   2.727   7.099   0.193
 3242TIP3   OH2 9668   0.783   2.567   4.707
 3242TIP3    H1 9669   0.851   2.563   4.640
 3242TIP3    H2 9670   0.832   2.572   4.790
 3243TIP3   OH2 9671   3.245   2.009   4.115
 3243TIP3    H1 9672   3.325   1.956   4.114
 3243TIP3    H2 9673   3.246   2.055   4.031
 3244TIP3   OH2 9674   5.703   2.397   5.561
 3244TIP3    H1 9675   5.765   2.401   5.488
 3244TIP3    H2 9676   5.750   2.437   5.634
 3245TIP3   OH2 9677   4.267   5.885   0.376
 3245TIP3    H1 9678   4.175   5.880   0.401
 3245TIP3    H2 9679   4.312   5.833   0.443
 3246TIP3   OH2 9680   4.916   7.117   2.761
 3246TIP3    H1 9681   4.915   7.211   2.742
 3246TIP3    H2 9682   4.986   7.106   2.826
 3247TIP3   OH2 9683   5.586   0.751   5.396
 3247TIP3    H1 9684   5.513   0.698   5.427
 3247TIP3    H2 9685   5.650   0.750   5.467
 3248TIP3   OH2 9686   5.287   5.990   5.745
 3248TIP3    H1 9687   5.296   5.899   5.716
 3248TIP3    H2 9688   5.364   6.034   5.710
 3249TIP3   OH2 9689   3.777   6.698   5.876
 3249TIP3    H1 9690   3.851   6.686   5.817
 3249TIP3    H2 9691   3.705   6.727   5.820
 3250TIP3   OH2 9692   1.994   6.546   4.967
 3250TIP3    H1 9693   2.070   6.554   4.910
 3250TIP3    H2 9694   1.919   6.552   4.908
 3251TIP3   OH2 9695   2.982   6.448   0.995
 3251TIP3    H1 9696   2.980   6.508   1.069
 3251TIP3    H2 9697   3.044   6.380   1.021
 3252TIP3   OH2 9698   7.967   1.983   5.740
 3252TIP3    H1 9699   7.989   2.070   5.775
 3252TIP3    H2 9700   7.991   1.922   5.810
 3253TIP3   OH2 9701   0.923   2.179   3.745
 3253TIP3    H1 9702   0.890   2.217   3.826
 3253TIP3    H2 9703   0.963   2.253   3.698
 3254TIP3   OH2 9704   3.022   5.213   0.812
 3254TIP3    H1 9705   2.939   5.187   0.772
 3254TIP3    H2 9706   3.071   5.255   0.740
 3255TIP3   OH2 9707   0.366   0.218   5.550
 3255TIP3    H1 9708   0.396   0.159   5.481
 3255TIP3    H2 9709   0.363   0.304   5.508
 3256TIP3   OH2 9710   6.811   3.120   4.283
 3256TIP3    H1 9711   6.828   3.163   4.199
 3256TIP3    H2 9712   6.885   3.144   4.338
 3257TIP3   OH2 9713   6.600   3.824   5.638
 3257TIP3    H1 9714   6.649   3.757   5.589
 3257TIP3    H2 9715   6.614   3.802   5.730
 3258TIP3   OH2 9716   5.332   1.113   6.312
 3258TIP3    H1 9717   5.297   1.026   6.332
 3258TIP3    H2 9718   5.364   1.107   6.222
 3259TIP3   OH2 9719   1.027   1.194   3.893
 3259TIP3    H1 9720   1.110   1.173   3.936
 3259TIP3    H2 9721   0.960   1.166   3.956
 3260TIP3   OH2 9722   4.996   6.338   3.484
 3260TIP3    H1 9723   5.004   6.412   3.544
 3260TIP3    H2 9724   5.085   6.327   3.449
 3261TIP3   OH2 9725   6.088   3.259   4.928
 3261TIP3    H1 9726   6.099   3.185   4.868
 3261TIP3    H2 9727   6.096   3.219   5.015
 3262TIP3   OH2 9728   0.742   2.188   5.576
 3262TIP3    H1 9729   0.758   2.191   5.671
 3262TIP3    H2 9730   0.732   2.279   5.551
 3263TIP3   OH2 9731   4.266   4.710   2.061
 3263TIP3    H1 9732   4.218   4.709   1.978
 3263TIP3    H2 9733   4.309   4.795   2.063
 3264TIP3   OH2 9734   1.895   0.997   4.662
 3264TIP3    H1 9735   1.858   0.963   4.743
 3264TIP3    H2 9736   1.884   1.092   4.668
 3265TIP3   OH2 9737   0.526   2.079   0.178
 3265TIP3    H1 9738   0.538   2.174   0.176
 3265TIP3    H2 9739   0.591   2.046   0.116
 3266TIP3   OH2 9740   4.107   2.338   6.570
 3266TIP3    H1 9741   4.196   2.363   6.597
 3266TIP3    H2 9742   4.105   2.355   6.476
 3267TIP3   OH2 9743   6.126   4.563   6.606
 3267TIP3    H1 9744   6.203   4.545   6.551
 3267TIP3    H2 9745   6.079   4.479   6.610
 3268TIP3   OH2 9746   4.795   4.336   3.765
 3268TIP3    H1 9747   4.774   4.417   3.719
 3268TIP3    H2 9748   4.849   4.364   3.839
 3269TIP3   OH2 9749   5.701   0.886   3.228
 3269TIP3    H1 9750   5.761   0.945   3.182
 3269TIP3    H2 9751   5.676   0.821   3.162
 3270TIP3   OH2 9752   1.242   2.028   5.450
 3270TIP3    H1 9753   1.178   2.099   5.442
 3270TIP3    H2 9754   1.260   2.001   5.360
 3271TIP3   OH2 9755   5.856   2.798   2.503
 3271TIP3    H1 9756   5.918   2.729   2.527
 3271TIP3    H2 9757   5.781   2.752   2.466
 3272TIP3   OH2 9758   5.877   5.350   3.839
 3272TIP3    H1 9759   5.790   5.352   3.799
 3272TIP3    H2 9760   5.860   5.352   3.933
 3273TIP3   OH2 9761   5.289   5.996   4.508
 3273TIP3    H1 9762   5.197   6.013   4.528
 3273TIP3    H2 9763   5.287   5.924   4.445
 3274TIP3   OH2 9764   6.174   5.382   5.360
 3274TIP3    H1 9765   6.247   5.437   5.331
 3274TIP3    H2 9766   6.110   5.443   5.395
 3275TIP3   OH2 9767   3.606   7.035   2.352
 3275TIP3    H1 9768   3.637   7.081   2.430
 3275TIP3    H2 9769   3.511   7.025   2.366
 3276TIP3   OH2 9770   7.813   1.185   2.725
 3276TIP3    H1 9771   7.841   1.204   2.814
 3276TIP3    H2 9772   7.895   1.169   2.677
 3277TIP3   OH2 9773   1.468   3.089   4.025
 3277TIP3    H1 9774   1.374   3.096   4.007
 3277TIP3    H2 9775   1.490   2.998   4.005
 3278TIP3   OH2 9776   5.501   4.560   4.160
 3278TIP3    H1 9777   5.521   4.475   4.120
 3278TIP3    H2 9778   5.487   4.540   4.253
 3279TIP3   OH2 9779   6.920   1.344   4.259
 3279TIP3    H1 9780   6.969   1.413   4.305
 3279TIP3    H2 9781   6.901   1.279   4.327
 3280TIP3   OH2 9782   6.029   3.574   2.898
 3280TIP3    H1 9783   6.079   3.564   2.817
 3280TIP3    H2 9784   6.092   3.611   2.960
 3281TIP3   OH2 9785   3.691   6.430   5.095
 3281TIP3    H1 9786   3.682   6.429   5.191
 3281TIP3    H2 9787   3.786   6.437   5.080
 3282TIP3   OH2 9788   3.264   1.128   4.490
 3282TIP3    H1 9789   3.208   1.055   4.514
 3282TIP3    H2 9790   3.311   1.099   4.412
 3283TIP3   OH2 9791   3.752   1.656   5.319
 3283TIP3    H1 9792   3.665   1.640   5.282
 3283TIP3    H2 9793   3.809   1.593   5.274
 3284TIP3   OH2 9794   2.294   2.936   5.531
 3284TIP3    H1 9795   2.287   2.973   5.619
 3284TIP3    H2 9796   2.294   2.842   5.544
 3285TIP3   OH2 9797   2.048   4.780   6.189
 3285TIP3    H1 9798   1.976   4.753   6.247
 3285TIP3    H2 9799   2.086   4.857   6.231
 3286TIP3   OH2 9800   7.544   0.404   5.987
 3286TIP3    H1 9801   7.588   0.483   6.021
 3286TIP3    H2 9802   7.475   0.438   5.931
 3287TIP3   OH2 9803   2.856   1.728   4.494
 3287TIP3    H1 9804   2.810   1.646   4.478
 3287TIP3    H2 9805   2.814   1.792   4.437
 3288TIP3   OH2 9806   7.907   2.552   5.423
 3288TIP3    H1 9807   7.869   2.479   5.472
 3288TIP3    H2 9808   7.865   2.546   5.337
 3289TIP3   OH2 9809   6.200   5.917   0.264
 3289TIP3    H1 9810   6.270   5.853   0.248
 3289TIP3    H2 9811   6.171   5.898   0.353
 3290TIP3   OH2 9812   4.499   1.310   6.577
 3290TIP3    H1 9813   4.563   1.247   6.611
 3290TIP3    H2 9814   4.546   1.394   6.577
 3291TIP3   OH2 9815   7.435   2.641   6.304
 3291TIP3    H1 9816   7.395   2.711   6.253
 3291TIP3    H2 9817   7.520   2.626   6.263
 3292TIP3   OH2 9818   7.408   3.498   5.250
 3292TIP3    H1 9819   7.423   3.452   5.168
 3292TIP3    H2 9820   7.400   3.428   5.316
 3293TIP3   OH2 9821   2.868   1.524   5.194
 3293TIP3    H1 9822   2.840   1.568   5.113
 3293TIP3    H2 9823   2.883   1.596   5.256
 3294TIP3   OH2 9824   7.482   6.815   6.090
 3294TIP3    H1 9825   7.526   6.772   6.163
 3294TIP3    H2 9826   7.527   6.898   6.081
 3295TIP3   OH2 9827   1.141   7.487   2.079
 3295TIP3    H1 9828   1.189   7.423   2.131
 3295TIP3    H2 9829   1.065   7.439   2.046
 3296TIP3   OH2 9830   6.668   1.233   4.156
 3296TIP3    H1 9831   6.757   1.264   4.139
 3296TIP3    H2 9832   6.680   1.160   4.217
 3297TIP3   OH2 9833   1.354   3.513   4.008
 3297TIP3    H1 9834   1.313   3.512   3.921
 3297TIP3    H2 9835   1.361   3.606   4.030
 3298TIP3   OH2 9836   7.039   1.110   3.170
 3298TIP3    H1 9837   7.037   1.056   3.249
 3298TIP3    H2 9838   7.037   1.048   3.098
 3299TIP3   OH2 9839   5.118   1.684   4.414
 3299TIP3    H1 9840   5.132   1.630   4.337
 3299TIP3    H2 9841   5.170   1.642   4.483
 3300TIP3   OH2 9842   3.813   1.779   4.365
 3300TIP3    H1 9843   3.858   1.695   4.366
 3300TIP3    H2 9844   3.752   1.776   4.439
 3301TIP3   OH2 9845   1.563   7.762   4.565
 3301TIP3    H1 9846   1.651   7.782   4.597
 3301TIP3    H2 9847   1.505   7.777   4.640
 3302TIP3   OH2 9848   7.409   5.963   2.510
 3302TIP3    H1 9849   7.480   6.006   2.462
 3302TIP3    H2 9850   7.335   6.023   2.502
 3303TIP3   OH2 9851   7.840   0.441   6.625
 3303TIP3    H1 9852   7.763   0.409   6.671
 3303TIP3    H2 9853   7.904   0.370   6.630
 3304TIP3   OH2 9854   2.550   1.957   5.592
 3304TIP3    H1 9855   2.539   1.942   5.686
 3304TIP3    H2 9856   2.516   1.877   5.551
 3305TIP3   OH2 9857   7.340   0.080   4.632
 3305TIP3    H1 9858   7.337   0.128   4.550
 3305TIP3    H2 9859   7.288   0.001   4.617
 3306TIP3   OH2 9860   0.859   1.670   6.155
 3306TIP3    H1 9861   0.884   1.625   6.075
 3306TIP3    H2 9862   0.863   1.763   6.132
 3307TIP3   OH2 9863   3.855   5.521   1.920
 3307TIP3    H1 9864   3.941   5.514   1.960
 3307TIP3    H2 9865   3.837   5.434   1.885
 3308TIP3   OH2 9866   4.956   6.754   1.349
 3308TIP3    H1 9867   4.911   6.833   1.318
 3308TIP3    H2 9868   4.912   6.682   1.304
 3309TIP3   OH2 9869   7.600   1.498   3.320
 3309TIP3    H1 9870   7.620   1.514   3.412
 3309TIP3    H2 9871   7.505   1.509   3.314
 3310TIP3   OH2 9872   8.012   1.794   3.863
 3310TIP3    H1 9873   7.949   1.742   3.813
 3310TIP3    H2 9874   7.972   1.803   3.950
 3311TIP3   OH2 9875   5.322   1.841   2.943
 3311TIP3    H1 9876   5.234   1.879   2.947
 3311TIP3    H2 9877   5.355   1.849   3.032
 3312TIP3   OH2 9878   7.571   4.729   2.269
 3312TIP3    H1 9879   7.497   4.768   2.222
 3312TIP3    H2 9880   7.644   4.787   2.252
 3313TIP3   OH2 9881   1.250   3.375   2.913
 3313TIP3    H1 9882   1.218   3.303   2.967
 3313TIP3    H2 9883   1.210   3.360   2.827
 3314TIP3   OH2 9884   1.536   2.366   4.445
 3314TIP3    H1 9885   1.540   2.460   4.462
 3314TIP3    H2 9886   1.625   2.342   4.422
 3315TIP3   OH2 9887   7.076   6.713   3.067
 3315TIP3    H1 9888   7.038   6.635   3.026
 3315TIP3    H2 9889   7.137   6.679   3.133
 3316TIP3   OH2 9890   7.099   7.707   5.327
 3316TIP3    H1 9891   7.014   7.679   5.292
 3316TIP3    H2 9892   7.141   7.625   5.354
 3317TIP3   OH2 9893   5.649   0.338   2.112
 3317TIP3    H1 9894   5.583   0.355   2.179
 3317TIP3    H2 9895   5.656   0.421   2.064
 3318TIP3   OH2 9896   4.467   1.757   2.958
 3318TIP3    H1 9897   4.543   1.758   3.016
 3318TIP3    H2 9898   4.417   1.679   2.984
 3319TIP3   OH2 9899   1.735   5.379   0.939
 3319TIP3    H1 9900   1.670   5.340   0.998
 3319TIP3    H2 9901   1.725   5.474   0.952
 3320TIP3   OH2 9902   3.143   6.365   6.237
 3320TIP3    H1 9903   3.163   6.374   6.144
 3320TIP3    H2 9904   3.138   6.455   6.269
 3321TIP3   OH2 9905   6.302   3.763   6.578
 3321TIP3    H1 9906   6.268   3.683   6.539
 3321TIP3    H2 9907   6.382   3.781   6.529
 3322TIP3   OH2 9908   7.569   7.801   0.033
 3322TIP3    H1 9909   7.612   7.792   0.118
 3322TIP3    H2 9910   7.640   7.817  -0.029
 3323TIP3   OH2 9911   5.935   5.344   0.314
 3323TIP3    H1 9912   5.992   5.343   0.237
 3323TIP3    H2 9913   5.873   5.273   0.299
 3324TIP3   OH2 9914   6.556   0.407   1.134
 3324TIP3    H1 9915   6.595   0.441   1.214
 3324TIP3    H2 9916   6.518   0.323   1.159
 3325TIP3   OH2 9917   0.799   3.141   1.373
 3325TIP3    H1 9918   0.784   3.136   1.278
 3325TIP3    H2 9919   0.883   3.096   1.387
 3326TIP3   OH2 9920   2.487   6.192   3.207
 3326TIP3    H1 9921   2.539   6.118   3.237
 3326TIP3    H2 9922   2.542   6.268   3.224
 3327TIP3   OH2 9923   0.195   7.695   5.987
 3327TIP3    H1 9924   0.188   7.649   5.904
 3327TIP3    H2 9925   0.164   7.784   5.968
 3328TIP3   OH2 9926   1.738   7.370   5.015
 3328TIP3    H1 9927   1.756   7.442   5.074
 3328TIP3    H2 9928   1.722   7.295   5.072
 3329TIP3   OH2 9929   7.489   2.138   4.776
 3329TIP3    H1 9930   7.412   2.086   4.754
 3329TIP3    H2 9931   7.483   2.215   4.720
 3330TIP3   OH2 9932   4.418   0.958   2.876
 3330TIP3    H1 9933   4.433   0.937   2.968
 3330TIP3    H2 9934   4.358   1.033   2.877
 3331TIP3   OH2 9935   2.803   4.138   6.215
 3331TIP3    H1 9936   2.754   4.217   6.238
 3331TIP3    H2 9937   2.815   4.144   6.120
 3332TIP3   OH2 9938   5.543   5.820   4.355
 3332TIP3    H1 9939   5.603   5.819   4.281
 3332TIP3    H2 9940   5.521   5.728   4.370
 3333TIP3   OH2 9941   8.097   1.596   5.473
 3333TIP3    H1 9942   8.110   1.509   5.511
 3333TIP3    H2 9943   8.164   1.651   5.514
 3334TIP3   OH2 9944   8.257   2.348   2.481
 3334TIP3    H1 9945   8.272   2.411   2.410
 3334TIP3    H2 9946   8.205   2.278   2.440
 3335TIP3   OH2 9947   2.164   2.459   1.903
 3335TIP3    H1 9948   2.154   2.516   1.979
 3335TIP3    H2 9949   2.253   2.475   1.872
 3336TIP3   OH2 9950   6.223   5.686   3.082
 3336TIP3    H1 9951   6.247   5.776   3.103
 3336TIP3    H2 9952   6.127   5.687   3.083
 3337TIP3   OH2 9953   5.351   6.031   1.792
 3337TIP3    H1 9954   5.418   5.979   1.835
 3337TIP3    H2 9955   5.315   5.974   1.724
 3338TIP3   OH2 9956   2.753   7.252   1.122
 3338TIP3    H1 9957   2.664   7.283   1.141
 3338TIP3    H2 9958   2.741   7.161   1.096
 3339TIP3   OH2 9959   1.881   7.365   5.317
 3339TIP3    H1 9960   1.936   7.442   5.302
 3339TIP3    H2 9961   1.808   7.397   5.370
 3340TIP3   OH2 9962   6.750   5.949   6.329
 3340TIP3    H1 9963   6.725   5.859   6.352
 3340TIP3    H2 9964   6.689   5.974   6.260
 3341TIP3   OH2 9965   2.959   4.083   5.390
 3341TIP3    H1 9966   3.037   4.040   5.354
 3341TIP3    H2 9967   2.969   4.076   5.484
 3342TIP3   OH2 9968   7.665   2.078   5.652
 3342TIP3    H1 9969   7.724   2.043   5.719
 3342TIP3    H2 9970   7.679   2.173   5.654
 3343TIP3   OH2 9971   3.968   3.972   2.060
 3343TIP3    H1 9972   3.941   4.023   1.983
 3343TIP3    H2 9973   4.019   3.900   2.023
 3344TIP3   OH2 9974   7.226   0.376   0.762
 3344TIP3    H1 9975   7.236   0.333   0.847
 3344TIP3    H2 9976   7.140   0.419   0.767
 3345TIP3   OH2 9977   1.723   7.735   1.427
 3345TIP3    H1 9978   1.737   7.826   1.454
 3345TIP3    H2 9979   1.797   7.716   1.369
 3346TIP3   OH2 9980   6.125   4.982   1.215
 3346TIP3    H1 9981   6.085   4.927   1.147
 3346TIP3    H2 9982   6.069   5.059   1.220
 3347TIP3   OH2 9983   4.333   6.057   0.013
 3347TIP3    H1 9984   4.410   6.014   0.051
 3347TIP3    H2 9985   4.267   6.054   0.082
 3348TIP3   OH2 9986   7.761   4.096   4.071
 3348TIP3    H1 9987   7.732   4.080   4.161
 3348TIP3    H2 9988   7.702   4.164   4.039
 3349TIP3   OH2 9989   5.000   0.976   1.177
 3349TIP3    H1 9990   5.091   1.000   1.160
 3349TIP3    H2 9991   4.974   1.030   1.252
 3350TIP3   OH2 9992   1.733   3.746   4.965
 3350TIP3    H1 9993   1.770   3.658   4.958
 3350TIP3    H2 9994   1.779   3.785   5.039
 3351TIP3   OH2 9995   2.125   7.574   6.168
 3351TIP3    H1 9996   2.114   7.628   6.247
 3351TIP3    H2 9997   2.037   7.564   6.133
 3352TIP3   OH2 9998   3.916   6.032   4.154
 3352TIP3    H1 9999   3.976   5.958   4.159
 3352TIP3    H210000   3.832   5.993   4.127
 3353TIP3   OH210001   6.551   7.675   6.317
 3353TIP3    H110002   6.525   7.689   6.225
 3353TIP3    H210003   6.525   7.756   6.361
 3354TIP3   OH210004   1.750   4.995   1.022
 3354TIP3    H110005   1.671   5.043   1.048
 3354TIP3    H210006   1.742   4.987   0.927
 3355TIP3   OH210007   1.503   6.736   5.558
 3355TIP3    H110008   1.463   6.676   5.495
 3355TIP3    H210009   1.563   6.681   5.608
 3356TIP3   OH210010   7.259   5.597   1.621
 3356TIP3    H110011   7.333   5.598   1.560
 3356TIP3    H210012   7.206   5.672   1.597
 3357TIP3   OH210013   7.954   6.780   1.049
 3357TIP3    H110014   8.005   6.780   0.968
 3357TIP3    H210015   7.886   6.845   1.036
 3358TIP3   OH210016   0.845   4.989   2.989
 3358TIP3    H110017   0.861   4.896   2.978
 3358TIP3    H210018   0.932   5.029   2.991
 3359TIP3   OH210019   1.119   6.995   6.612
 3359TIP3    H110020   1.056   7.064   6.593
 3359TIP3    H210021   1.173   7.030   6.683
 3360TIP3   OH210022   6.533   0.281   4.416
 3360TIP3    H110023   6.478   0.223   4.362
 3360TIP3    H210024   6.490   0.283   4.501
 3361TIP3   OH210025   1.434   6.973   5.989
 3361TIP3    H110026   1.469   6.888   6.014
 3361TIP3    H210027   1.398   6.959   5.901
 3362TIP3   OH210028   5.575   7.759   1.797
 3362TIP3    H110029   5.603   7.786   1.709
 3362TIP3    H210030   5.649   7.710   1.832
 3363TIP3   OH210031   5.075   5.243   5.143
 3363TIP3    H110032   4.994   5.219   5.100
 3363TIP3    H210033   5.116   5.160   5.166
 3364TIP3   OH210034   2.665   0.085   1.884
 3364TIP3    H110035   2.743   0.135   1.908
 3364TIP3    H210036   2.594   0.149   1.883
 3365TIP3   OH210037   4.072   2.830   3.672
 3365TIP3    H110038   4.127   2.849   3.748
 3365TIP3    H210039   4.049   2.916   3.636
 3366TIP3   OH210040   5.247   5.314   6.315
 3366TIP3    H110041   5.274   5.369   6.241
 3366TIP3    H210042   5.223   5.231   6.274
 3367TIP3   OH210043   5.941   6.793   5.444
 3367TIP3    H110044   5.908   6.874   5.405
 3367TIP3    H210045   6.031   6.813   5.468
 3368TIP3   OH210046   3.490   4.484   3.642
 3368TIP3    H110047   3.507   4.559   3.585
 3368TIP3    H210048   3.480   4.522   3.729
 3369TIP3   OH210049   4.171   4.039   2.374
 3369TIP3    H110050   4.141   4.126   2.402
 3369TIP3    H210051   4.218   4.055   2.292
 3370TIP3   OH210052   3.287   6.758   3.967
 3370TIP3    H110053   3.382   6.757   3.978
 3370TIP3    H210054   3.254   6.810   4.041
 3371TIP3   OH210055   5.609   4.343   2.594
 3371TIP3    H110056   5.577   4.273   2.652
 3371TIP3    H210057   5.659   4.297   2.526
 3372TIP3   OH210058   1.644   5.859   4.128
 3372TIP3    H110059   1.659   5.847   4.034
 3372TIP3    H210060   1.728   5.839   4.169
 3373TIP3   OH210061   1.558   5.761   1.789
 3373TIP3    H110062   1.494   5.815   1.834
 3373TIP3    H210063   1.634   5.819   1.777
 3374TIP3   OH210064   3.518   2.879   3.967
 3374TIP3    H110065   3.526   2.869   3.872
 3374TIP3    H210066   3.439   2.830   3.990
 3375TIP3   OH210067   6.036   5.233   5.973
 3375TIP3    H110068   5.987   5.260   6.050
 3375TIP3    H210069   5.979   5.170   5.929
 3376TIP3   OH210070   6.961   4.591   1.285
 3376TIP3    H110071   6.867   4.596   1.303
 3376TIP3    H210072   6.991   4.515   1.334
 3377TIP3   OH210073   4.063   2.077   6.586
 3377TIP3    H110074   4.067   2.170   6.562
 3377TIP3    H210075   4.151   2.057   6.618
 3378TIP3   OH210076   5.005   7.328   3.619
 3378TIP3    H110077   5.018   7.423   3.625
 3378TIP3    H210078   5.093   7.292   3.616
 3379TIP3   OH210079   3.241   2.192   2.217
 3379TIP3    H110080   3.265   2.158   2.303
 3379TIP3    H210081   3.156   2.152   2.198
 3380TIP3   OH210082   8.177   4.943   0.370
 3380TIP3    H110083   8.102   4.974   0.421
 3380TIP3    H210084   8.138   4.909   0.289
 3381TIP3   OH210085   6.054   3.799   3.939
 3381TIP3    H110086   5.966   3.828   3.961
 3381TIP3    H210087   6.050   3.704   3.947
 3382TIP3   OH210088   5.146   4.506   2.663
 3382TIP3    H110089   5.059   4.503   2.622
 3382TIP3    H210090   5.207   4.507   2.589
 3383TIP3   OH210091   3.918   7.738   6.651
 3383TIP3    H110092   3.990   7.674   6.649
 3383TIP3    H210093   3.844   7.690   6.688
 3384TIP3   OH210094   0.711   1.338   0.491
 3384TIP3    H110095   0.754   1.363   0.409
 3384TIP3    H210096   0.704   1.420   0.540
 3385TIP3   OH210097   1.434   7.671   5.489
 3385TIP3    H110098   1.349   7.699   5.524
 3385TIP3    H210099   1.448   7.728   5.414
 3386TIP3   OH210100   3.451   0.460   4.632
 3386TIP3    H110101   3.492   0.505   4.558
 3386TIP3    H210102   3.361   0.491   4.632
 3387TIP3   OH210103   8.153   1.735   4.554
 3387TIP3    H110104   8.126   1.699   4.639
 3387TIP3    H210105   8.225   1.678   4.526
 3388TIP3   OH210106   2.762   1.938   2.370
 3388TIP3    H110107   2.850   1.910   2.397
 3388TIP3    H210108   2.707   1.918   2.446
 3389TIP3   OH210109   5.343   0.558   2.644
 3389TIP3    H110110   5.386   0.486   2.598
 3389TIP3    H210111   5.264   0.518   2.682
 3390TIP3   OH210112   0.377   1.460   3.497
 3390TIP3    H110113   0.436   1.497   3.562
 3390TIP3    H210114   0.377   1.523   3.425
 3391TIP3   OH210115   6.799   0.370   4.761
 3391TIP3    H110116   6.864   0.429   4.799
 3391TIP3    H210117   6.779   0.408   4.676
 3392TIP3   OH210118   5.672   6.899   1.112
 3392TIP3    H110119   5.596   6.953   1.137
 3392TIP3    H210120   5.669   6.895   1.017
 3393TIP3   OH210121   8.096   6.277   6.690
 3393TIP3    H110122   8.153   6.256   6.616
 3393TIP3    H210123   8.008   6.276   6.654
 3394TIP3   OH210124   0.815   0.665   3.654
 3394TIP3    H110125   0.892   0.687   3.601
 3394TIP3    H210126   0.746   0.649   3.589
 3395TIP3   OH210127   5.267   3.513   2.768
 3395TIP3    H110128   5.235   3.563   2.693
 3395TIP3    H210129   5.233   3.560   2.845
 3396TIP3   OH210130   0.461   3.351   5.718
 3396TIP3    H110131   0.441   3.268   5.762
 3396TIP3    H210132   0.517   3.326   5.644
 3397TIP3   OH210133   6.636   4.798   2.831
 3397TIP3    H110134   6.567   4.750   2.786
 3397TIP3    H210135   6.717   4.774   2.785
 3398TIP3   OH210136   6.781   6.932   2.603
 3398TIP3    H110137   6.816   7.019   2.619
 3398TIP3    H210138   6.823   6.877   2.669
 3399TIP3   OH210139   2.288   5.320   4.464
 3399TIP3    H110140   2.220   5.261   4.496
 3399TIP3    H210141   2.368   5.266   4.463
 3400TIP3   OH210142   0.786   4.551   5.131
 3400TIP3    H110143   0.741   4.469   5.145
 3400TIP3    H210144   0.811   4.549   5.038
 3401TIP3   OH210145   4.811   5.207   5.053
 3401TIP3    H110146   4.807   5.127   5.001
 3401TIP3    H210147   4.721   5.235   5.062
 3402TIP3   OH210148   3.925   1.147   0.556
 3402TIP3    H110149   3.883   1.159   0.641
 3402TIP3    H210150   3.896   1.060   0.528
 3403TIP3   OH210151   1.242   0.819   5.062
 3403TIP3    H110152   1.173   0.757   5.086
 3403TIP3    H210153   1.212   0.859   4.981
 3404TIP3   OH210154   8.029   5.453   2.664
 3404TIP3    H110155   8.039   5.531   2.609
 3404TIP3    H210156   8.112   5.447   2.712
 3405TIP3   OH210157   5.892   6.670   5.205
 3405TIP3    H110158   5.883   6.717   5.288
 3405TIP3    H210159   5.826   6.600   5.211
 3406TIP3   OH210160   4.579   1.181   0.198
 3406TIP3    H110161   4.607   1.177   0.107
 3406TIP3    H210162   4.526   1.261   0.204
 3407TIP3   OH210163   4.670   3.901   5.834
 3407TIP3    H110164   4.608   3.838   5.869
 3407TIP3    H210165   4.748   3.890   5.888
 3408TIP3   OH210166   0.796   5.286   0.733
 3408TIP3    H110167   0.856   5.212   0.741
 3408TIP3    H210168   0.741   5.265   0.658
 3409TIP3   OH210169   3.665   7.360   1.404
 3409TIP3    H110170   3.595   7.415   1.370
 3409TIP3    H210171   3.713   7.416   1.465
 3410TIP3   OH210172   6.789   2.722   1.239
 3410TIP3    H110173   6.862   2.660   1.234
 3410TIP3    H210174   6.819   2.798   1.189
 3411TIP3   OH210175   5.827   4.029   4.472
 3411TIP3    H110176   5.844   3.943   4.509
 3411TIP3    H210177   5.838   4.017   4.378
 3412TIP3   OH210178   3.194   0.858   1.181
 3412TIP3    H110179   3.192   0.944   1.137
 3412TIP3    H210180   3.116   0.813   1.148
 3413TIP3   OH210181   2.518   6.903   3.082
 3413TIP3    H110182   2.524   6.823   3.030
 3413TIP3    H210183   2.499   6.972   3.018
 3414TIP3   OH210184   2.355   5.858   3.718
 3414TIP3    H110185   2.423   5.793   3.735
 3414TIP3    H210186   2.279   5.806   3.691
 3415TIP3   OH210187   1.190   1.953   6.673
 3415TIP3    H110188   1.220   2.027   6.620
 3415TIP3    H210189   1.221   1.876   6.625
 3416TIP3   OH210190   1.779   5.609   1.756
 3416TIP3    H110191   1.844   5.611   1.826
 3416TIP3    H210192   1.696   5.628   1.799
 3417TIP3   OH210193   1.561   0.363   4.984
 3417TIP3    H110194   1.535   0.325   4.900
 3417TIP3    H210195   1.478   0.385   5.027
 3418TIP3   OH210196   4.780   5.352   3.967
 3418TIP3    H110197   4.721   5.399   3.908
 3418TIP3    H210198   4.737   5.268   3.983
 3419TIP3   OH210199   1.029   7.225   0.990
 3419TIP3    H110200   1.021   7.131   1.001
 3419TIP3    H210201   1.057   7.257   1.076
 3420TIP3   OH210202   2.666   3.255   6.630
 3420TIP3    H110203   2.680   3.347   6.653
 3420TIP3    H210204   2.667   3.254   6.534
 3421TIP3   OH210205   0.726   5.696   5.240
 3421TIP3    H110206   0.814   5.687   5.202
 3421TIP3    H210207   0.722   5.629   5.308
 3422TIP3   OH210208   1.245   5.595   0.120
 3422TIP3    H110209   1.338   5.583   0.137
 3422TIP3    H210210   1.203   5.592   0.206
 3423TIP3   OH210211   4.750   3.435   5.513
 3423TIP3    H110212   4.705   3.486   5.446
 3423TIP3    H210213   4.843   3.455   5.501
 3424TIP3   OH210214   0.867   6.255   2.340
 3424TIP3    H110215   0.886   6.228   2.430
 3424TIP3    H210216   0.800   6.193   2.311
 3425TIP3   OH210217   2.824   0.197   3.493
 3425TIP3    H110218   2.903   0.181   3.440
 3425TIP3    H210219   2.819   0.292   3.501
 3426TIP3   OH210220   6.859   5.925   0.631
 3426TIP3    H110221   6.925   5.897   0.567
 3426TIP3    H210222   6.909   5.949   0.708
 3427TIP3   OH210223   1.407   1.848   2.212
 3427TIP3    H110224   1.384   1.756   2.221
 3427TIP3    H210225   1.489   1.857   2.261
 3428TIP3   OH210226   5.552   7.644   3.054
 3428TIP3    H110227   5.522   7.728   3.089
 3428TIP3    H210228   5.624   7.667   2.995
 3429TIP3   OH210229   0.661   4.239   1.822
 3429TIP3    H110230   0.581   4.284   1.793
 3429TIP3    H210231   0.724   4.257   1.752
 3430TIP3   OH210232   4.749   3.478   5.781
 3430TIP3    H110233   4.654   3.482   5.796
 3430TIP3    H210234   4.757   3.459   5.687
 3431TIP3   OH210235   3.803   2.014   6.682
 3431TIP3    H110236   3.886   2.043   6.643
 3431TIP3    H210237   3.790   2.072   6.756
 3432TIP3   OH210238   2.011   4.774   5.451
 3432TIP3    H110239   2.067   4.782   5.528
 3432TIP3    H210240   2.036   4.691   5.411
 3433TIP3   OH210241   0.864   5.336   4.693
 3433TIP3    H110242   0.788   5.375   4.650
 3433TIP3    H210243   0.827   5.285   4.765
 3434TIP3   OH210244   8.247   2.170   5.691
 3434TIP3    H110245   8.233   2.141   5.601
 3434TIP3    H210246   8.253   2.266   5.685
 3435TIP3   OH210247   3.053   3.083   4.696
 3435TIP3    H110248   3.065   3.100   4.602
 3435TIP3    H210249   2.979   3.022   4.700
 3436TIP3   OH210250   4.739   6.353   4.242
 3436TIP3    H110251   4.705   6.286   4.182
 3436TIP3    H210252   4.677   6.354   4.314
 3437TIP3   OH210253   4.489   7.174   2.994
 3437TIP3    H110254   4.406   7.220   3.010
 3437TIP3    H210255   4.537   7.232   2.933
 3438TIP3   OH210256   1.889   0.041   1.430
 3438TIP3    H110257   1.958  -0.017   1.398
 3438TIP3    H210258   1.849   0.077   1.350
 3439TIP3   OH210259   0.817   7.688   4.801
 3439TIP3    H110260   0.798   7.759   4.862
 3439TIP3    H210261   0.873   7.727   4.734
 3440TIP3   OH210262   8.053   7.714   2.297
 3440TIP3    H110263   8.088   7.626   2.279
 3440TIP3    H210264   7.994   7.702   2.372
 3441TIP3   OH210265   6.919   6.423   4.517
 3441TIP3    H110266   6.974   6.475   4.575
 3441TIP3    H210267   6.952   6.334   4.526
 3442TIP3   OH210268   2.080   1.626   5.703
 3442TIP3    H110269   2.015   1.557   5.687
 3442TIP3    H210270   2.164   1.583   5.695
 3443TIP3   OH210271   1.333   4.963   1.878
 3443TIP3    H110272   1.351   4.977   1.785
 3443TIP3    H210273   1.360   4.872   1.894
 3444TIP3   OH210274   2.386   2.083   1.467
 3444TIP3    H110275   2.476   2.083   1.499
 3444TIP3    H210276   2.333   2.084   1.546
 3445TIP3   OH210277   0.669   0.721   2.532
 3445TIP3    H110278   0.605   0.757   2.594
 3445TIP3    H210279   0.751   0.717   2.581
 3446TIP3   OH210280   7.581   1.306   6.692
 3446TIP3    H110281   7.491   1.335   6.699
 3446TIP3    H210282   7.628   1.382   6.658
 3447TIP3   OH210283   2.931   6.367   3.417
 3447TIP3    H110284   2.986   6.316   3.476
 3447TIP3    H210285   2.967   6.456   3.420
 3448TIP3   OH210286   6.462   0.143   5.028
 3448TIP3    H110287   6.480   0.063   4.979
 3448TIP3    H210288   6.525   0.207   4.995
 3449TIP3   OH210289   2.658   7.516   4.968
 3449TIP3    H110290   2.705   7.511   5.050
 3449TIP3    H210291   2.567   7.498   4.991
 3450TIP3   OH210292   0.996   0.929   2.448
 3450TIP3    H110293   1.067   0.912   2.385
 3450TIP3    H210294   0.926   0.967   2.395
 3451TIP3   OH210295   2.247   7.312   0.340
 3451TIP3    H110296   2.172   7.350   0.295
 3451TIP3    H210297   2.210   7.262   0.412
 3452TIP3   OH210298   1.826   2.916   3.898
 3452TIP3    H110299   1.796   2.996   3.940
 3452TIP3    H210300   1.746   2.875   3.865
 3453TIP3   OH210301   0.201   2.013   6.001
 3453TIP3    H110302   0.154   1.970   5.930
 3453TIP3    H210303   0.196   2.106   5.979
 3454TIP3   OH210304   2.939   7.062   4.290
 3454TIP3    H110305   3.009   7.056   4.354
 3454TIP3    H210306   2.907   6.973   4.280
 3455TIP3   OH210307   7.082   7.381   1.003
 3455TIP3    H110308   7.009   7.363   0.944
 3455TIP3    H210309   7.120   7.295   1.022
 3456TIP3   OH210310   2.260   2.670   5.546
 3456TIP3    H110311   2.198   2.665   5.618
 3456TIP3    H210312   2.304   2.585   5.546
 3457TIP3   OH210313   8.019   3.217   6.453
 3457TIP3    H110314   7.932   3.247   6.426
 3457TIP3    H210315   8.079   3.281   6.416
 3458TIP3   OH210316   4.262   2.798   0.012
 3458TIP3    H110317   4.178   2.753   0.002
 3458TIP3    H210318   4.324   2.728   0.035
 3459TIP3   OH210319   7.397   1.609   5.698
 3459TIP3    H110320   7.346   1.687   5.678
 3459TIP3    H210321   7.487   1.631   5.671
 3460TIP3   OH210322   7.009   2.692   0.076
 3460TIP3    H110323   7.028   2.598   0.068
 3460TIP3    H210324   7.092   2.730   0.105
 3461TIP3   OH210325   5.115   2.655   2.498
 3461TIP3    H110326   5.064   2.674   2.420
 3461TIP3    H210327   5.195   2.708   2.488
 3462TIP3   OH210328   7.849   2.805   4.704
 3462TIP3    H110329   7.789   2.780   4.634
 3462TIP3    H210330   7.910   2.731   4.711
 3463TIP3   OH210331   7.901   5.266   1.088
 3463TIP3    H110332   7.816   5.222   1.081
 3463TIP3    H210333   7.880   5.359   1.090
 3464TIP3   OH210334   6.317   1.500   0.284
 3464TIP3    H110335   6.235   1.547   0.278
 3464TIP3    H210336   6.354   1.502   0.196
 3465TIP3   OH210337   0.802   7.807   2.740
 3465TIP3    H110338   0.813   7.889   2.691
 3465TIP3    H210339   0.887   7.791   2.780
 3466TIP3   OH210340   0.303   5.756   5.126
 3466TIP3    H110341   0.208   5.748   5.124
 3466TIP3    H210342   0.335   5.666   5.130
 3467TIP3   OH210343   0.232   2.070   2.845
 3467TIP3    H110344   0.290   2.127   2.896
 3467TIP3    H210345   0.249   2.093   2.754
 3468TIP3   OH210346   5.549   3.720   3.262
 3468TIP3    H110347   5.540   3.630   3.230
 3468TIP3    H210348   5.628   3.752   3.219
 3469TIP3   OH210349   6.829   2.026   3.612
 3469TIP3    H110350   6.741   2.040   3.647
 3469TIP3    H210351   6.838   1.931   3.609
 3470TIP3   OH210352   1.585   0.909   3.176
 3470TIP3    H110353   1.656   0.852   3.147
 3470TIP3    H210354   1.625   0.995   3.186
 3471TIP3   OH210355   6.402   6.627   3.706
 3471TIP3    H110356   6.338   6.579   3.654
 3471TIP3    H210357   6.372   6.619   3.796
 3472TIP3   OH210358   7.725   0.859   5.623
 3472TIP3    H110359   7.687   0.797   5.685
 3472TIP3    H210360   7.726   0.812   5.540
 3473TIP3   OH210361   2.431   1.247   3.233
 3473TIP3    H110362   2.366   1.318   3.230
 3473TIP3    H210363   2.389   1.179   3.284
 3474TIP3   OH210364   2.126   0.850   2.299
 3474TIP3    H110365   2.110   0.849   2.204
 3474TIP3    H210366   2.171   0.768   2.316
 3475TIP3   OH210367   4.506   6.344   5.575
 3475TIP3    H110368   4.518   6.293   5.655
 3475TIP3    H210369   4.569   6.416   5.583
 3476TIP3   OH210370   2.160   3.392   5.043
 3476TIP3    H110371   2.130   3.395   5.134
 3476TIP3    H210372   2.126   3.308   5.010
 3477TIP3   OH210373   1.477   3.134   0.267
 3477TIP3    H110374   1.565   3.170   0.256
 3477TIP3    H210375   1.435   3.191   0.331
 3478TIP3   OH210376   7.096   1.080   6.661
 3478TIP3    H110377   7.120   0.989   6.647
 3478TIP3    H210378   7.002   1.084   6.644
 3479TIP3   OH210379   4.139   5.268   6.158
 3479TIP3    H110380   4.132   5.309   6.072
 3479TIP3    H210381   4.071   5.200   6.157
 3480TIP3   OH210382   0.615   6.540   4.011
 3480TIP3    H110383   0.628   6.622   4.060
 3480TIP3    H210384   0.557   6.564   3.939
 3481TIP3   OH210385   5.600   6.464   4.084
 3481TIP3    H110386   5.603   6.381   4.035
 3481TIP3    H210387   5.690   6.476   4.114
 3482TIP3   OH210388   6.604   0.770   1.270
 3482TIP3    H110389   6.661   0.772   1.346
 3482TIP3    H210390   6.628   0.847   1.219
 3483TIP3   OH210391   5.213   4.495   4.253
 3483TIP3    H110392   5.257   4.567   4.209
 3483TIP3    H210393   5.272   4.470   4.325
 3484TIP3   OH210394   5.018   6.339   1.007
 3484TIP3    H110395   5.101   6.335   0.959
 3484TIP3    H210396   4.972   6.413   0.969
 3485TIP3   OH210397   4.850   0.074   4.319
 3485TIP3    H110398   4.766   0.107   4.351
 3485TIP3    H210399   4.858   0.109   4.231
 3486TIP3   OH210400   4.029   7.335   4.126
 3486TIP3    H110401   3.983   7.314   4.044
 3486TIP3    H210402   4.094   7.265   4.135
 3487TIP3   OH210403   7.348   3.752   3.149
 3487TIP3    H110404   7.352   3.664   3.112
 3487TIP3    H210405   7.278   3.796   3.100
 3488TIP3   OH210406   7.300   6.007   5.335
 3488TIP3    H110407   7.306   5.962   5.250
 3488TIP3    H210408   7.364   5.962   5.390
 3489TIP3   OH210409   1.240   7.581   3.147
 3489TIP3    H110410   1.213   7.489   3.149
 3489TIP3    H210411   1.234   7.609   3.238
 3490TIP3   OH210412   1.303   2.260   6.124
 3490TIP3    H110413   1.353   2.304   6.055
 3490TIP3    H210414   1.305   2.321   6.197
 3491TIP3   OH210415   3.440   3.316   4.838
 3491TIP3    H110416   3.514   3.377   4.839
 3491TIP3    H210417   3.389   3.342   4.761
 3492TIP3   OH210418   7.021   1.226   3.653
 3492TIP3    H110419   6.972   1.198   3.730
 3492TIP3    H210420   6.961   1.212   3.579
 3493TIP3   OH210421   5.003   5.182   2.086
 3493TIP3    H110422   5.065   5.242   2.127
 3493TIP3    H210423   4.975   5.227   2.007
 3494TIP3   OH210424   5.137   1.530   1.111
 3494TIP3    H110425   5.054   1.549   1.155
 3494TIP3    H210426   5.118   1.453   1.057
 3495TIP3   OH210427   1.650   0.832   3.678
 3495TIP3    H110428   1.599   0.773   3.622
 3495TIP3    H210429   1.586   0.874   3.735
 3496TIP3   OH210430   0.460   5.502   5.187
 3496TIP3    H110431   0.549   5.522   5.217
 3496TIP3    H210432   0.457   5.407   5.182
 3497TIP3   OH210433   0.563   6.855   3.794
 3497TIP3    H110434   0.565   6.888   3.704
 3497TIP3    H210435   0.578   6.761   3.785
 3498TIP3   OH210436   6.332   2.071   6.701
 3498TIP3    H110437   6.284   2.079   6.783
 3498TIP3    H210438   6.282   2.008   6.649
 3499TIP3   OH210439   1.738   5.039   2.754
 3499TIP3    H110440   1.814   5.079   2.711
 3499TIP3    H210441   1.753   5.055   2.848
 3500TIP3   OH210442   1.233   3.947   5.987
 3500TIP3    H110443   1.291   3.876   5.960
 3500TIP3    H210444   1.154   3.934   5.934
 3501TIP3   OH210445   3.250   6.994   3.822
 3501TIP3    H110446   3.192   6.968   3.750
 3501TIP3    H210447   3.277   6.912   3.862
 3502TIP3   OH210448   4.499   6.203   4.066
 3502TIP3    H110449   4.469   6.291   4.091
 3502TIP3    H210450   4.551   6.218   3.986
 3503TIP3   OH210451   0.784   2.761   3.366
 3503TIP3    H110452   0.725   2.765   3.442
 3503TIP3    H210453   0.868   2.735   3.403
 3504TIP3   OH210454   0.721   0.369   1.412
 3504TIP3    H110455   0.795   0.421   1.382
 3504TIP3    H210456   0.760   0.289   1.447
 3505TIP3   OH210457   5.313   6.381   4.028
 3505TIP3    H110458   5.378   6.451   4.022
 3505TIP3    H210459   5.347   6.322   4.095
 3506TIP3   OH210460   6.092   4.695   2.584
 3506TIP3    H110461   6.018   4.756   2.578
 3506TIP3    H210462   6.070   4.625   2.522
 3507TIP3   OH210463   1.640   7.010   0.759
 3507TIP3    H110464   1.548   7.004   0.784
 3507TIP3    H210465   1.664   7.101   0.776
 3508TIP3   OH210466   4.709   3.051   5.184
 3508TIP3    H110467   4.699   2.984   5.117
 3508TIP3    H210468   4.703   3.002   5.267
 3509TIP3   OH210469   2.479   7.524   2.705
 3509TIP3    H110470   2.426   7.510   2.784
 3509TIP3    H210471   2.539   7.594   2.729
 3510TIP3   OH210472   0.390   2.065   3.380
 3510TIP3    H110473   0.345   1.993   3.336
 3510TIP3    H210474   0.457   2.093   3.319
 3511TIP3   OH210475   0.259   1.116   1.261
 3511TIP3    H110476   0.211   1.140   1.181
 3511TIP3    H210477   0.330   1.060   1.230
 3512TIP3   OH210478   3.479   5.517   6.145
 3512TIP3    H110479   3.500   5.505   6.237
 3512TIP3    H210480   3.390   5.551   6.145
 3513TIP3   OH210481   0.841   0.570   0.763
 3513TIP3    H110482   0.926   0.604   0.791
 3513TIP3    H210483   0.859   0.481   0.733
 3514TIP3   OH210484   0.948   0.404   2.375
 3514TIP3    H110485   0.852   0.397   2.381
 3514TIP3    H210486   0.980   0.341   2.440
 3515TIP3   OH210487   5.906   4.090   1.057
 3515TIP3    H110488   5.982   4.061   1.007
 3515TIP3    H210489   5.927   4.179   1.084
 3516TIP3   OH210490   4.764   6.785   5.976
 3516TIP3    H110491   4.792   6.870   5.942
 3516TIP3    H210492   4.671   6.781   5.957
 3517TIP3   OH210493   6.426   5.154   4.185
 3517TIP3    H110494   6.374   5.080   4.153
 3517TIP3    H210495   6.516   5.129   4.166
 3518TIP3   OH210496   6.287   5.193   4.848
 3518TIP3    H110497   6.369   5.166   4.889
 3518TIP3    H210498   6.312   5.258   4.782
 3519TIP3   OH210499   4.088   4.547   6.343
 3519TIP3    H110500   4.013   4.546   6.403
 3519TIP3    H210501   4.143   4.473   6.371
 3520TIP3   OH210502   6.079   2.573   0.631
 3520TIP3    H110503   6.068   2.624   0.710
 3520TIP3    H210504   5.998   2.586   0.582
 3521TIP3   OH210505   1.752   1.817   1.938
 3521TIP3    H110506   1.670   1.863   1.918
 3521TIP3    H210507   1.744   1.792   2.030
 3522TIP3   OH210508   5.268   3.727   1.448
 3522TIP3    H110509   5.243   3.678   1.370
 3522TIP3    H210510   5.360   3.749   1.434
 3523TIP3   OH210511   3.912   1.617   2.624
 3523TIP3    H110512   3.966   1.687   2.661
 3523TIP3    H210513   3.862   1.660   2.554
 3524TIP3   OH210514   6.562   0.612   2.770
 3524TIP3    H110515   6.521   0.573   2.693
 3524TIP3    H210516   6.563   0.706   2.752
 3525TIP3   OH210517   3.533   4.703   0.019
 3525TIP3    H110518   3.547   4.615   0.054
 3525TIP3    H210519   3.579   4.761   0.080
 3526TIP3   OH210520   0.060   0.715   3.026
 3526TIP3    H110521   0.116   0.639   3.045
 3526TIP3    H210522  -0.023   0.678   2.997
 3527TIP3   OH210523   0.860   6.876   3.572
 3527TIP3    H110524   0.849   6.828   3.490
 3527TIP3    H210525   0.859   6.808   3.639
 3528TIP3   OH210526   1.680   3.308   2.287
 3528TIP3    H110527   1.698   3.214   2.291
 3528TIP3    H210528   1.738   3.345   2.353
 3529TIP3   OH210529   2.479   1.435   4.522
 3529TIP3    H110530   2.572   1.447   4.541
 3529TIP3    H210531   2.452   1.365   4.581
 3530TIP3   OH210532   3.008   0.393   2.759
 3530TIP3    H110533   3.072   0.336   2.717
 3530TIP3    H210534   2.940   0.406   2.693
 3531TIP3   OH210535   8.259   5.530   1.804
 3531TIP3    H110536   8.183   5.551   1.749
 3531TIP3    H210537   8.227   5.542   1.894
 3532TIP3   OH210538   7.450   0.747   4.087
 3532TIP3    H110539   7.466   0.841   4.084
 3532TIP3    H210540   7.452   0.719   3.996
 3533TIP3   OH210541   2.956   5.365   2.267
 3533TIP3    H110542   2.989   5.300   2.329
 3533TIP3    H210543   2.964   5.323   2.181
 3534TIP3   OH210544   1.416   5.871   1.114
 3534TIP3    H110545   1.451   5.917   1.191
 3534TIP3    H210546   1.393   5.941   1.053
 3535TIP3   OH210547   1.827   2.426   3.271
 3535TIP3    H110548   1.816   2.365   3.344
 3535TIP3    H210549   1.889   2.491   3.303
 3536TIP3   OH210550   7.055   7.651   0.656
 3536TIP3    H110551   7.011   7.684   0.734
 3536TIP3    H210552   6.990   7.660   0.586
 3537TIP3   OH210553   1.043   6.959   1.034
 3537TIP3    H110554   1.129   6.930   1.063
 3537TIP3    H210555   0.987   6.882   1.044
 3538TIP3   OH210556   3.270   6.258   4.148
 3538TIP3    H110557   3.296   6.184   4.093
 3538TIP3    H210558   3.335   6.326   4.129
 3539TIP3   OH210559   6.605   7.167   1.082
 3539TIP3    H110560   6.606   7.197   1.173
 3539TIP3    H210561   6.550   7.231   1.036
 3540TIP3   OH210562   7.016   4.567   5.593
 3540TIP3    H110563   6.985   4.635   5.653
 3540TIP3    H210564   6.984   4.485   5.631
 3541TIP3   OH210565   3.340   3.204   5.561
 3541TIP3    H110566   3.353   3.291   5.598
 3541TIP3    H210567   3.271   3.216   5.495
 3542TIP3   OH210568   1.387   5.169   6.439
 3542TIP3    H110569   1.387   5.092   6.496
 3542TIP3    H210570   1.402   5.243   6.499
 3543TIP3   OH210571   8.091   1.168   4.329
 3543TIP3    H110572   7.999   1.167   4.354
 3543TIP3    H210573   8.138   1.144   4.409
 3544TIP3   OH210574   2.967   6.869   5.310
 3544TIP3    H110575   2.947   6.802   5.375
 3544TIP3    H210576   2.883   6.905   5.285
 3545TIP3   OH210577   3.270   0.164   3.389
 3545TIP3    H110578   3.312   0.114   3.458
 3545TIP3    H210579   3.268   0.254   3.422
 3546TIP3   OH210580   4.062   2.788   1.752
 3546TIP3    H110581   4.025   2.876   1.760
 3546TIP3    H210582   3.994   2.731   1.788
 3547TIP3   OH210583   3.512   6.672   5.513
 3547TIP3    H110584   3.417   6.677   5.520
 3547TIP3    H210585   3.532   6.706   5.426
 3548TIP3   OH210586   4.986   0.448   1.225
 3548TIP3    H110587   5.001   0.543   1.228
 3548TIP3    H210588   5.071   0.411   1.201
 3549TIP3   OH210589   4.362   7.759   6.316
 3549TIP3    H110590   4.339   7.666   6.320
 3549TIP3    H210591   4.443   7.765   6.366
 3550TIP3   OH210592   1.512   1.029   4.952
 3550TIP3    H110593   1.593   0.977   4.948
 3550TIP3    H210594   1.480   1.030   4.862
 3551TIP3   OH210595   7.884   4.868   4.676
 3551TIP3    H110596   7.943   4.834   4.744
 3551TIP3    H210597   7.872   4.960   4.698
 3552TIP3   OH210598   5.613   3.301   6.458
 3552TIP3    H110599   5.532   3.291   6.407
 3552TIP3    H210600   5.593   3.372   6.520
 3553TIP3   OH210601   0.543   1.378   3.190
 3553TIP3    H110602   0.506   1.392   3.102
 3553TIP3    H210603   0.590   1.459   3.209
 3554TIP3   OH210604   7.508   1.152   0.483
 3554TIP3    H110605   7.470   1.105   0.409
 3554TIP3    H210606   7.447   1.224   0.500
 3555TIP3   OH210607   0.202   5.857   1.978
 3555TIP3    H110608   0.167   5.798   1.911
 3555TIP3    H210609   0.131   5.864   2.042
 3556TIP3   OH210610   0.756   5.238   5.517
 3556TIP3    H110611   0.774   5.144   5.514
 3556TIP3    H210612   0.757   5.260   5.611
 3557TIP3   OH210613   3.657   5.713   0.045
 3557TIP3    H110614   3.750   5.734   0.033
 3557TIP3    H210615   3.636   5.656  -0.029
 3558TIP3   OH210616   2.372   7.366   5.846
 3558TIP3    H110617   2.327   7.449   5.864
 3558TIP3    H210618   2.449   7.368   5.903
 3559TIP3   OH210619   1.415   5.098   0.876
 3559TIP3    H110620   1.439   5.078   0.786
 3559TIP3    H210621   1.433   5.192   0.885
 3560TIP3   OH210622   5.092   5.749   1.916
 3560TIP3    H110623   5.070   5.839   1.894
 3560TIP3    H210624   5.115   5.708   1.833
 3561TIP3   OH210625   3.007   6.192   5.631
 3561TIP3    H110626   3.033   6.226   5.546
 3561TIP3    H210627   2.914   6.215   5.639
 3562TIP3   OH210628   4.252   0.592   5.275
 3562TIP3    H110629   4.323   0.527   5.269
 3562TIP3    H210630   4.290   0.671   5.235
 3563TIP3   OH210631   0.851   3.456   5.783
 3563TIP3    H110632   0.802   3.501   5.714
 3563TIP3    H210633   0.942   3.476   5.765
 3564TIP3   OH210634   1.397   1.825   0.010
 3564TIP3    H110635   1.336   1.758  -0.021
 3564TIP3    H210636   1.447   1.781   0.079
 3565TIP3   OH210637   6.061   1.514   1.698
 3565TIP3    H110638   6.154   1.537   1.692
 3565TIP3    H210639   6.055   1.460   1.777
 3566TIP3   OH210640   1.036   4.571   5.849
 3566TIP3    H110641   0.951   4.536   5.821
 3566TIP3    H210642   1.015   4.627   5.925
 3567TIP3   OH210643   3.060   4.975   2.791
 3567TIP3    H110644   3.017   5.010   2.869
 3567TIP3    H210645   3.017   5.019   2.718
 3568TIP3   OH210646   4.804   4.357   3.045
 3568TIP3    H110647   4.750   4.398   3.112
 3568TIP3    H210648   4.789   4.410   2.966
 3569TIP3   OH210649   4.215   7.516   4.250
 3569TIP3    H110650   4.131   7.480   4.220
 3569TIP3    H210651   4.277   7.443   4.241
 3570TIP3   OH210652   8.036   1.756   0.374
 3570TIP3    H110653   8.095   1.719   0.309
 3570TIP3    H210654   8.023   1.686   0.438
 3571TIP3   OH210655   8.011   5.221   5.477
 3571TIP3    H110656   8.088   5.172   5.450
 3571TIP3    H210657   7.937   5.166   5.452
 3572TIP3   OH210658   5.873   3.018   4.591
 3572TIP3    H110659   5.958   2.991   4.625
 3572TIP3    H210660   5.842   3.083   4.654
 3573TIP3   OH210661   2.061   6.243   3.757
 3573TIP3    H110662   2.060   6.322   3.811
 3573TIP3    H210663   1.971   6.209   3.762
 3574TIP3   OH210664   0.833   2.569   6.291
 3574TIP3    H110665   0.767   2.638   6.286
 3574TIP3    H210666   0.916   2.614   6.273
 3575TIP3   OH210667   2.228   7.702   0.763
 3575TIP3    H110668   2.215   7.707   0.668
 3575TIP3    H210669   2.192   7.617   0.787
 3576TIP3   OH210670   1.600   2.877   0.484
 3576TIP3    H110671   1.561   2.800   0.443
 3576TIP3    H210672   1.668   2.842   0.541
 3577TIP3   OH210673   2.662   5.683   3.100
 3577TIP3    H110674   2.728   5.722   3.043
 3577TIP3    H210675   2.630   5.607   3.050
 3578TIP3   OH210676   0.900   5.576   3.174
 3578TIP3    H110677   0.986   5.556   3.208
 3578TIP3    H210678   0.907   5.666   3.142
 3579TIP3   OH210679   2.225   1.738   5.367
 3579TIP3    H110680   2.249   1.730   5.275
 3579TIP3    H210681   2.140   1.694   5.374
 3580TIP3   OH210682   4.037   1.850   1.717
 3580TIP3    H110683   4.036   1.813   1.806
 3580TIP3    H210684   4.008   1.941   1.729
 3581TIP3   OH210685   2.759   2.478   2.846
 3581TIP3    H110686   2.819   2.512   2.912
 3581TIP3    H210687   2.711   2.554   2.816
 3582TIP3   OH210688   5.722   1.740   1.993
 3582TIP3    H110689   5.727   1.645   1.979
 3582TIP3    H210690   5.707   1.776   1.905
 3583TIP3   OH210691   1.615   6.770   0.884
 3583TIP3    H110692   1.674   6.707   0.926
 3583TIP3    H210693   1.670   6.845   0.864
 3584TIP3   OH210694   2.049   5.154   5.210
 3584TIP3    H110695   1.963   5.144   5.249
 3584TIP3    H210696   2.100   5.204   5.274
 3585TIP3   OH210697   0.644   1.200   4.725
 3585TIP3    H110698   0.630   1.113   4.762
 3585TIP3    H210699   0.719   1.189   4.667
 3586TIP3   OH210700   3.227   1.568   1.055
 3586TIP3    H110701   3.159   1.510   1.020
 3586TIP3    H210702   3.188   1.606   1.133
 3587TIP3   OH210703   5.124   7.400   0.131
 3587TIP3    H110704   5.041   7.369   0.095
 3587TIP3    H210705   5.155   7.326   0.184
 3588TIP3   OH210706   3.852   4.447   2.568
 3588TIP3    H110707   3.830   4.531   2.527
 3588TIP3    H210708   3.851   4.465   2.662
 3589TIP3   OH210709   1.039   2.016   4.444
 3589TIP3    H110710   1.103   2.087   4.442
 3589TIP3    H210711   1.035   1.990   4.536
 3590TIP3   OH210712   4.208   6.578   1.102
 3590TIP3    H110713   4.164   6.655   1.138
 3590TIP3    H210714   4.293   6.610   1.073
 3591TIP3   OH210715   0.577   6.351   0.934
 3591TIP3    H110716   0.574   6.255   0.939
 3591TIP3    H210717   0.541   6.380   1.017
 3592TIP3   OH210718   8.254   7.425   1.927
 3592TIP3    H110719   8.338   7.470   1.920
 3592TIP3    H210720   8.229   7.406   1.837
 3593TIP3   OH210721   6.014   3.133   1.942
 3593TIP3    H110722   6.058   3.051   1.965
 3593TIP3    H210723   5.993   3.174   2.026
 3594TIP3   OH210724   4.699   5.741   5.849
 3594TIP3    H110725   4.745   5.770   5.927
 3594TIP3    H210726   4.725   5.649   5.839
 3595TIP3   OH210727   8.315   4.937   6.127
 3595TIP3    H110728   8.277   4.963   6.211
 3595TIP3    H210729   8.261   4.980   6.061
 3596TIP3   OH210730   3.575   2.701   4.574
 3596TIP3    H110731   3.502   2.661   4.526
 3596TIP3    H210732   3.575   2.792   4.545
 3597TIP3   OH210733   2.755   3.616   3.643
 3597TIP3    H110734   2.711   3.691   3.602
 3597TIP3    H210735   2.810   3.580   3.573
 3598TIP3   OH210736   5.904   0.310   0.894
 3598TIP3    H110737   5.957   0.281   0.969
 3598TIP3    H210738   5.827   0.351   0.934
 3599TIP3   OH210739   5.600   4.912   3.878
 3599TIP3    H110740   5.580   4.938   3.788
 3599TIP3    H210741   5.640   4.826   3.869
 3600TIP3   OH210742   4.071   4.988   2.345
 3600TIP3    H110743   4.131   4.962   2.415
 3600TIP3    H210744   3.984   4.979   2.384
 3601TIP3   OH210745   0.161   1.166   0.596
 3601TIP3    H110746   0.233   1.218   0.631
 3601TIP3    H210747   0.198   1.123   0.519
 3602TIP3   OH210748   0.161   3.325   3.881
 3602TIP3    H110749   0.240   3.379   3.889
 3602TIP3    H210750   0.176   3.272   3.803
 3603TIP3   OH210751   8.181   4.857   0.784
 3603TIP3    H110752   8.189   4.846   0.878
 3603TIP3    H210753   8.122   4.931   0.772
 3604TIP3   OH210754   1.429   2.342   5.888
 3604TIP3    H110755   1.463   2.403   5.823
 3604TIP3    H210756   1.386   2.274   5.837
 3605TIP3   OH210757   3.663   0.515   6.803
 3605TIP3    H110758   3.581   0.553   6.772
 3605TIP3    H210759   3.731   0.565   6.758
 3606TIP3   OH210760   7.263   6.638   2.004
 3606TIP3    H110761   7.298   6.599   1.924
 3606TIP3    H210762   7.337   6.644   2.063
 3607TIP3   OH210763   3.922   4.536   0.945
 3607TIP3    H110764   3.962   4.604   0.999
 3607TIP3    H210765   3.939   4.564   0.855
 3608TIP3   OH210766   7.252   6.519   4.530
 3608TIP3    H110767   7.243   6.606   4.493
 3608TIP3    H210768   7.232   6.530   4.623
 3609TIP3   OH210769   7.058   7.732   3.341
 3609TIP3    H110770   7.035   7.673   3.269
 3609TIP3    H210771   7.143   7.768   3.316
 3610TIP3   OH210772   2.766   2.909   4.128
 3610TIP3    H110773   2.805   2.854   4.060
 3610TIP3    H210774   2.818   2.989   4.127
 3611TIP3   OH210775   6.916   5.333   0.254
 3611TIP3    H110776   6.991   5.274   0.262
 3611TIP3    H210777   6.841   5.274   0.245
 3612TIP3   OH210778   6.565   0.950   0.725
 3612TIP3    H110779   6.637   0.980   0.780
 3612TIP3    H210780   6.486   0.980   0.772
 3613TIP3   OH210781   7.418   2.760   4.349
 3613TIP3    H110782   7.431   2.810   4.269
 3613TIP3    H210783   7.323   2.749   4.356
 3614TIP3   OH210784   6.374   0.329   1.436
 3614TIP3    H110785   6.316   0.344   1.510
 3614TIP3    H210786   6.315   0.303   1.365
 3615TIP3   OH210787   5.041   2.752   5.910
 3615TIP3    H110788   5.036   2.767   6.004
 3615TIP3    H210789   5.126   2.711   5.896
 3616TIP3   OH210790   2.467   5.354   5.115
 3616TIP3    H110791   2.384   5.383   5.076
 3616TIP3    H210792   2.456   5.260   5.127
 3617TIP3   OH210793   4.398   1.834   2.512
 3617TIP3    H110794   4.450   1.778   2.568
 3617TIP3    H210795   4.425   1.923   2.534
 3618TIP3   OH210796   7.675   2.504   3.815
 3618TIP3    H110797   7.582   2.512   3.837
 3618TIP3    H210798   7.696   2.585   3.769
 3619TIP3   OH210799   2.149   3.361   6.807
 3619TIP3    H110800   2.107   3.438   6.770
 3619TIP3    H210801   2.194   3.319   6.733
 3620TIP3   OH210802   6.777   6.450   1.099
 3620TIP3    H110803   6.842   6.497   1.151
 3620TIP3    H210804   6.728   6.519   1.054
 3621TIP3   OH210805   4.654   2.919   4.553
 3621TIP3    H110806   4.574   2.867   4.558
 3621TIP3    H210807   4.628   3.005   4.587
 3622TIP3   OH210808   0.586   4.932   3.180
 3622TIP3    H110809   0.576   4.850   3.132
 3622TIP3    H210810   0.680   4.937   3.200
 3623TIP3   OH210811   1.126   4.966   3.677
 3623TIP3    H110812   1.192   4.965   3.746
 3623TIP3    H210813   1.171   5.003   3.601
 3624TIP3   OH210814   4.735   6.209   4.834
 3624TIP3    H110815   4.695   6.294   4.853
 3624TIP3    H210816   4.661   6.149   4.828
 3625TIP3   OH210817   5.499   7.704   3.835
 3625TIP3    H110818   5.523   7.729   3.924
 3625TIP3    H210819   5.434   7.635   3.846
 3626TIP3   OH210820   2.975   1.704   2.599
 3626TIP3    H110821   3.002   1.626   2.648
 3626TIP3    H210822   3.021   1.697   2.515
 3627TIP3   OH210823   5.200   2.655   1.842
 3627TIP3    H110824   5.106   2.638   1.840
 3627TIP3    H210825   5.239   2.574   1.876
 3628TIP3   OH210826   2.086   2.363   2.222
 3628TIP3    H110827   2.017   2.429   2.224
 3628TIP3    H210828   2.168   2.413   2.227
 3629TIP3   OH210829   6.186   3.731   0.907
 3629TIP3    H110830   6.160   3.820   0.884
 3629TIP3    H210831   6.182   3.683   0.824
 3630TIP3   OH210832   3.274   5.854   5.424
 3630TIP3    H110833   3.267   5.875   5.517
 3630TIP3    H210834   3.231   5.769   5.415
 3631TIP3   OH210835   6.539   7.798   0.209
 3631TIP3    H110836   6.579   7.731   0.264
 3631TIP3    H210837   6.472   7.751   0.159
 3632TIP3   OH210838   6.022   7.804   2.232
 3632TIP3    H110839   6.101   7.855   2.249
 3632TIP3    H210840   6.003   7.760   2.314
 3633TIP3   OH210841   6.680   3.413   5.835
 3633TIP3    H110842   6.673   3.433   5.928
 3633TIP3    H210843   6.756   3.463   5.806
 3634TIP3   OH210844   0.261   3.342   1.207
 3634TIP3    H110845   0.310   3.296   1.138
 3634TIP3    H210846   0.226   3.420   1.164
 3635TIP3   OH210847   3.988   6.653   2.612
 3635TIP3    H110848   4.005   6.748   2.612
 3635TIP3    H210849   3.896   6.646   2.640
 3636TIP3   OH210850   3.321   2.593   1.750
 3636TIP3    H110851   3.366   2.509   1.737
 3636TIP3    H210852   3.326   2.636   1.664
 3637TIP3   OH210853   6.650   2.189   1.299
 3637TIP3    H110854   6.576   2.216   1.353
 3637TIP3    H210855   6.648   2.093   1.300
 3638TIP3   OH210856   4.809   2.837   6.128
 3638TIP3    H110857   4.755   2.902   6.083
 3638TIP3    H210858   4.847   2.884   6.202
 3639TIP3   OH210859   4.649   2.987   2.619
 3639TIP3    H110860   4.607   2.905   2.595
 3639TIP3    H210861   4.622   3.002   2.710
 3640TIP3   OH210862   0.094   2.056   1.019
 3640TIP3    H110863   0.171   2.112   1.033
 3640TIP3    H210864   0.025   2.098   1.070
 3641TIP3   OH210865   1.706   4.231   1.845
 3641TIP3    H110866   1.630   4.175   1.827
 3641TIP3    H210867   1.687   4.268   1.931
 3642TIP3   OH210868   7.153   2.724   4.262
 3642TIP3    H110869   7.172   2.804   4.213
 3642TIP3    H210870   7.079   2.748   4.319
 3643TIP3   OH210871   3.310   6.021   2.594
 3643TIP3    H110872   3.379   6.069   2.549
 3643TIP3    H210873   3.356   5.966   2.657
 3644TIP3   OH210874   7.585   5.078   6.460
 3644TIP3    H110875   7.646   5.131   6.510
 3644TIP3    H210876   7.631   5.058   6.379
 3645TIP3   OH210877   7.451   5.692   4.503
 3645TIP3    H110878   7.485   5.657   4.421
 3645TIP3    H210879   7.442   5.615   4.560
 3646TIP3   OH210880   1.153   3.175   5.778
 3646TIP3    H110881   1.219   3.192   5.710
 3646TIP3    H210882   1.093   3.249   5.770
 3647TIP3   OH210883   7.958   4.775   6.660
 3647TIP3    H110884   8.041   4.762   6.706
 3647TIP3    H210885   7.983   4.783   6.568
 3648TIP3   OH210886   7.582   2.898   3.875
 3648TIP3    H110887   7.646   2.828   3.862
 3648TIP3    H210888   7.592   2.955   3.799
 3649TIP3   OH210889   7.247   3.693   1.344
 3649TIP3    H110890   7.305   3.690   1.268
 3649TIP3    H210891   7.189   3.767   1.327
 3650TIP3   OH210892   7.664   0.550   2.814
 3650TIP3    H110893   7.696   0.634   2.782
 3650TIP3    H210894   7.683   0.551   2.908
 3651TIP3   OH210895   5.993   1.982   4.442
 3651TIP3    H110896   5.906   1.956   4.469
 3651TIP3    H210897   5.986   2.076   4.425
 3652TIP3   OH210898   4.166   2.249   1.491
 3652TIP3    H110899   4.099   2.186   1.516
 3652TIP3    H210900   4.133   2.288   1.410
 3653TIP3   OH210901   7.837   4.961   0.123
 3653TIP3    H110902   7.829   5.053   0.149
 3653TIP3    H210903   7.780   4.952   0.046
 3654TIP3   OH210904   0.356   1.108   2.964
 3654TIP3    H110905   0.372   1.157   2.883
 3654TIP3    H210906   0.440   1.068   2.985
 3655TIP3   OH210907   1.932   0.717   1.118
 3655TIP3    H110908   1.993   0.644   1.107
 3655TIP3    H210909   1.845   0.677   1.107
 3656TIP3   OH210910   6.565   4.074   5.934
 3656TIP3    H110911   6.607   3.989   5.946
 3656TIP3    H210912   6.601   4.128   6.005
 3657TIP3   OH210913   4.281   5.491   1.185
 3657TIP3    H110914   4.321   5.406   1.168
 3657TIP3    H210915   4.201   5.491   1.131
 3658TIP3   OH210916   3.628   2.582   4.262
 3658TIP3    H110917   3.678   2.638   4.202
 3658TIP3    H210918   3.547   2.630   4.278
 3659TIP3   OH210919   4.975   4.602   4.589
 3659TIP3    H110920   4.901   4.627   4.532
 3659TIP3    H210921   5.001   4.516   4.557
 3660TIP3   OH210922   8.108   2.216   3.639
 3660TIP3    H110923   8.014   2.233   3.626
 3660TIP3    H210924   8.115   2.192   3.731
 3661TIP3   OH210925   7.134   7.110   0.719
 3661TIP3    H110926   7.139   7.074   0.630
 3661TIP3    H210927   7.155   7.036   0.776
 3662TIP3   OH210928   1.552   6.865   2.415
 3662TIP3    H110929   1.462   6.833   2.421
 3662TIP3    H210930   1.605   6.787   2.431
 3663TIP3   OH210931   6.969   4.644   2.458
 3663TIP3    H110932   6.960   4.557   2.417
 3663TIP3    H210933   7.020   4.627   2.537
 3664TIP3   OH210934   7.578   7.007   0.696
 3664TIP3    H110935   7.580   7.102   0.708
 3664TIP3    H210936   7.554   6.973   0.782
 3665TIP3   OH210937   3.662   5.614   1.459
 3665TIP3    H110938   3.623   5.696   1.431
 3665TIP3    H210939   3.619   5.547   1.407
 3666TIP3   OH210940   1.665   5.442   5.019
 3666TIP3    H110941   1.607   5.444   5.095
 3666TIP3    H210942   1.720   5.364   5.033
 3667TIP3   OH210943   1.430   4.401   1.880
 3667TIP3    H110944   1.365   4.387   1.811
 3667TIP3    H210945   1.429   4.320   1.930
 3668TIP3   OH210946   7.585   5.046   2.575
 3668TIP3    H110947   7.567   4.958   2.606
 3668TIP3    H210948   7.503   5.076   2.537
 3669TIP3   OH210949   2.321   4.021   3.575
 3669TIP3    H110950   2.274   4.102   3.552
 3669TIP3    H210951   2.304   3.962   3.502
 3670TIP3   OH210952   5.461   0.543   5.528
 3670TIP3    H110953   5.477   0.560   5.621
 3670TIP3    H210954   5.460   0.447   5.521
 3671TIP3   OH210955   7.883   3.723   5.078
 3671TIP3    H110956   7.970   3.742   5.114
 3671TIP3    H210957   7.875   3.628   5.085
 3672TIP3   OH210958   6.978   0.032   5.263
 3672TIP3    H110959   6.997   0.083   5.341
 3672TIP3    H210960   6.932  -0.046   5.295
 3673TIP3   OH210961   4.996   5.743   5.335
 3673TIP3    H110962   4.985   5.818   5.277
 3673TIP3    H210963   4.927   5.753   5.400
 3674TIP3   OH210964   7.813   7.208   0.552
 3674TIP3    H110965   7.867   7.250   0.619
 3674TIP3    H210966   7.732   7.185   0.598
 3675TIP3   OH210967   5.740   4.400   5.121
 3675TIP3    H110968   5.700   4.465   5.178
 3675TIP3    H210969   5.830   4.429   5.110
 3676TIP3   OH210970   4.817   1.652   4.003
 3676TIP3    H110971   4.843   1.604   3.924
 3676TIP3    H210972   4.802   1.584   4.068
 3677TIP3   OH210973   7.012   3.694   2.810
 3677TIP3    H110974   7.056   3.613   2.784
 3677TIP3    H210975   6.933   3.696   2.756
 3678TIP3   OH210976   0.822   7.375   1.381
 3678TIP3    H110977   0.800   7.284   1.403
 3678TIP3    H210978   0.917   7.377   1.379
 3679TIP3   OH210979   3.813   7.186   6.000
 3679TIP3    H110980   3.776   7.142   5.924
 3679TIP3    H210981   3.889   7.233   5.966
 3680TIP3   OH210982   3.230   5.854   4.549
 3680TIP3    H110983   3.244   5.858   4.643
 3680TIP3    H210984   3.287   5.923   4.513
 3681TIP3   OH210985   5.993   0.748   2.685
 3681TIP3    H110986   6.030   0.666   2.652
 3681TIP3    H210987   6.007   0.744   2.779
 3682TIP3   OH210988   0.960   6.315   0.113
 3682TIP3    H110989   0.940   6.400   0.152
 3682TIP3    H210990   1.044   6.290   0.151
 3683TIP3   OH210991   6.343   0.050   3.798
 3683TIP3    H110992   6.350  -0.041   3.824
 3683TIP3    H210993   6.274   0.086   3.853
 3684TIP3   OH210994   4.581  -0.016   4.651
 3684TIP3    H110995   4.598  -0.034   4.743
 3684TIP3    H210996   4.599   0.077   4.640
 3685TIP3   OH210997   5.395   2.202   2.463
 3685TIP3    H110998   5.367   2.283   2.419
 3685TIP3    H210999   5.408   2.228   2.554
 3686TIP3   OH211000   4.378   3.821   0.934
 3686TIP3    H111001   4.388   3.788   1.023
 3686TIP3    H211002   4.307   3.768   0.896
 3687TIP3   OH211003   5.770   6.194   1.711
 3687TIP3    H111004   5.858   6.179   1.678
 3687TIP3    H211005   5.748   6.115   1.760
 3688TIP3   OH211006   1.959   4.847   5.929
 3688TIP3    H111007   1.970   4.836   6.024
 3688TIP3    H211008   1.903   4.774   5.903
 3689TIP3   OH211009   7.707   6.264   3.481
 3689TIP3    H111010   7.769   6.323   3.524
 3689TIP3    H211011   7.758   6.187   3.458
 3690TIP3   OH211012   0.092   4.137   1.552
 3690TIP3    H111013   0.068   4.171   1.466
 3690TIP3    H211014   0.014   4.090   1.582
 3691TIP3   OH211015   5.126   1.827   1.269
 3691TIP3    H111016   5.141   1.914   1.304
 3691TIP3    H211017   5.076   1.841   1.189
 3692TIP3   OH211018   1.442   1.236   2.374
 3692TIP3    H111019   1.488   1.152   2.367
 3692TIP3    H211020   1.391   1.242   2.293
 3693TIP3   OH211021   1.496   2.751   5.114
 3693TIP3    H111022   1.432   2.784   5.177
 3693TIP3    H211023   1.462   2.778   5.028
 3694TIP3   OH211024   3.470   6.325   0.423
 3694TIP3    H111025   3.505   6.333   0.511
 3694TIP3    H211026   3.384   6.368   0.427
 3695TIP3   OH211027   2.197   3.402   2.081
 3695TIP3    H111028   2.254   3.463   2.127
 3695TIP3    H211029   2.257   3.337   2.043
 3696TIP3   OH211030   0.839   7.106   1.452
 3696TIP3    H111031   0.844   7.075   1.542
 3696TIP3    H211032   0.908   7.058   1.406
 3697TIP3   OH211033   1.995   0.711   0.532
 3697TIP3    H111034   2.028   0.782   0.587
 3697TIP3    H211035   2.051   0.636   0.551
 3698TIP3   OH211036   4.192   3.678   0.797
 3698TIP3    H111037   4.213   3.585   0.793
 3698TIP3    H211038   4.096   3.682   0.789
 3699TIP3   OH211039   3.984   2.347   1.002
 3699TIP3    H111040   3.965   2.305   0.918
 3699TIP3    H211041   3.935   2.430   0.998
 3700TIP3   OH211042   6.126   7.467   1.918
 3700TIP3    H111043   6.080   7.411   1.981
 3700TIP3    H211044   6.058   7.522   1.880
 3701TIP3   OH211045   7.657   5.135   0.633
 3701TIP3    H111046   7.677   5.043   0.617
 3701TIP3    H211047   7.717   5.160   0.703
 3702TIP3   OH211048   1.017   5.891   3.818
 3702TIP3    H111049   1.010   5.938   3.901
 3702TIP3    H211050   1.025   5.960   3.752
 3703TIP3   OH211051   6.054   3.006   2.560
 3703TIP3    H111052   5.997   2.929   2.554
 3703TIP3    H211053   6.133   2.981   2.513
 3704TIP3   OH211054   1.451   7.191   4.732
 3704TIP3    H111055   1.471   7.278   4.767
 3704TIP3    H211056   1.537   7.150   4.718
 3705TIP3   OH211057   5.265   4.694   0.668
 3705TIP3    H111058   5.318   4.623   0.704
 3705TIP3    H211059   5.235   4.743   0.745
 3706TIP3   OH211060   8.152   3.313   5.776
 3706TIP3    H111061   8.211   3.363   5.720
 3706TIP3    H211062   8.209   3.273   5.842
 3707TIP3   OH211063   0.331   3.005   6.078
 3707TIP3    H111064   0.344   2.912   6.059
 3707TIP3    H211065   0.283   3.005   6.161
 3708TIP3   OH211066   5.698   7.798   6.726
 3708TIP3    H111067   5.650   7.871   6.686
 3708TIP3    H211068   5.715   7.827   6.815
 3709TIP3   OH211069   2.106   3.213   6.356
 3709TIP3    H111070   2.099   3.193   6.263
 3709TIP3    H211071   2.048   3.149   6.399
 3710TIP3   OH211072   8.126   4.569   5.095
 3710TIP3    H111073   8.216   4.577   5.126
 3710TIP3    H211074   8.121   4.480   5.059
 3711TIP3   OH211075   0.421   1.768   4.936
 3711TIP3    H111076   0.406   1.677   4.961
 3711TIP3    H211077   0.472   1.763   4.855
 3712TIP3   OH211078   2.279   6.771   0.150
 3712TIP3    H111079   2.311   6.857   0.176
 3712TIP3    H211080   2.218   6.746   0.220
 3713TIP3   OH211081   0.588   2.391   3.132
 3713TIP3    H111082   0.570   2.422   3.221
 3713TIP3    H211083   0.586   2.471   3.079
 3714TIP3   OH211084   1.253   1.512   5.440
 3714TIP3    H111085   1.246   1.424   5.402
 3714TIP3    H211086   1.164   1.547   5.434
 3715TIP3   OH211087   5.808   2.683   3.798
 3715TIP3    H111088   5.825   2.623   3.725
 3715TIP3    H211089   5.894   2.699   3.836
 3716TIP3   OH211090   6.545   0.646   2.210
 3716TIP3    H111091   6.449   0.646   2.212
 3716TIP3    H211092   6.568   0.565   2.165
 3717TIP3   OH211093   1.942   3.907   5.633
 3717TIP3    H111094   1.918   3.942   5.547
 3717TIP3    H211095   1.970   3.983   5.683
 3718TIP3   OH211096   8.052   0.400   3.139
 3718TIP3    H111097   8.003   0.322   3.167
 3718TIP3    H211098   7.998   0.439   3.071
 3719TIP3   OH211099   6.944   0.297   6.385
 3719TIP3    H111100   7.002   0.326   6.315
 3719TIP3    H211101   6.996   0.233   6.435
 3720TIP3   OH211102   3.550   3.950   1.198
 3720TIP3    H111103   3.601   4.020   1.239
 3720TIP3    H211104   3.574   3.954   1.105
 3721TIP3   OH211105   4.124   6.872   6.003
 3721TIP3    H111106   4.090   6.904   5.919
 3721TIP3    H211107   4.118   6.777   5.997
 3722TIP3   OH211108   5.814   5.526   3.301
 3722TIP3    H111109   5.887   5.483   3.345
 3722TIP3    H211110   5.853   5.569   3.225
 3723TIP3   OH211111   1.998   2.895   0.330
 3723TIP3    H111112   1.977   2.988   0.338
 3723TIP3    H211113   1.916   2.855   0.300
 3724TIP3   OH211114   5.770   3.698   4.345
 3724TIP3    H111115   5.798   3.722   4.433
 3724TIP3    H211116   5.850   3.664   4.303
 3725TIP3   OH211117   2.594   4.575   0.728
 3725TIP3    H111118   2.579   4.636   0.800
 3725TIP3    H211119   2.507   4.561   0.690
 3726TIP3   OH211120   1.193   0.594   5.879
 3726TIP3    H111121   1.241   0.512   5.879
 3726TIP3    H211122   1.210   0.632   5.966
 3727TIP3   OH211123   4.143   5.913   5.302
 3727TIP3    H111124   4.092   5.836   5.275
 3727TIP3    H211125   4.088   5.957   5.366
 3728TIP3   OH211126   2.059   5.944   2.224
 3728TIP3    H111127   2.151   5.961   2.204
 3728TIP3    H211128   2.056   5.940   2.320
 3729TIP3   OH211129   6.704   2.842   4.491
 3729TIP3    H111130   6.628   2.893   4.463
 3729TIP3    H211131   6.669   2.779   4.554
 3730TIP3   OH211132   5.779   3.960   5.295
 3730TIP3    H111133   5.707   3.910   5.334
 3730TIP3    H211134   5.766   4.050   5.326
 3731TIP3   OH211135   0.215   4.932   1.644
 3731TIP3    H111136   0.168   4.848   1.638
 3731TIP3    H211137   0.294   4.912   1.695
 3732TIP3   OH211138   6.013   2.617   2.620
 3732TIP3    H111139   6.084   2.673   2.651
 3732TIP3    H211140   6.057   2.545   2.575
 3733TIP3   OH211141   3.353   2.255   2.689
 3733TIP3    H111142   3.409   2.258   2.767
 3733TIP3    H211143   3.382   2.177   2.642
 3734TIP3   OH211144   2.516   0.316   3.287
 3734TIP3    H111145   2.435   0.288   3.245
 3734TIP3    H211146   2.492   0.397   3.333
 3735TIP3   OH211147   5.506   2.200   5.907
 3735TIP3    H111148   5.596   2.207   5.939
 3735TIP3    H211149   5.513   2.208   5.812
 3736TIP3   OH211150   2.636   6.750   3.295
 3736TIP3    H111151   2.600   6.806   3.226
 3736TIP3    H211152   2.573   6.678   3.301
 3737TIP3   OH211153   7.401   5.881   2.905
 3737TIP3    H111154   7.382   5.971   2.879
 3737TIP3    H211155   7.329   5.856   2.962
 3738TIP3   OH211156   5.102   2.798   0.410
 3738TIP3    H111157   5.076   2.884   0.376
 3738TIP3    H211158   5.032   2.774   0.469
 3739TIP3   OH211159   2.433   4.365   6.440
 3739TIP3    H111160   2.505   4.333   6.495
 3739TIP3    H211161   2.354   4.334   6.483
 3740TIP3   OH211162   1.228   7.032   2.395
 3740TIP3    H111163   1.265   6.944   2.398
 3740TIP3    H211164   1.134   7.019   2.409
 3741TIP3   OH211165   7.966   7.501   6.365
 3741TIP3    H111166   7.901   7.542   6.308
 3741TIP3    H211167   7.915   7.464   6.436
 3742TIP3   OH211168   3.744   5.188   3.086
 3742TIP3    H111169   3.653   5.164   3.071
 3742TIP3    H211170   3.747   5.283   3.071
 3743TIP3   OH211171   3.276   7.485   4.661
 3743TIP3    H111172   3.260   7.446   4.575
 3743TIP3    H211173   3.305   7.574   4.642
 3744TIP3   OH211174   7.634   5.367   0.914
 3744TIP3    H111175   7.546   5.390   0.944
 3744TIP3    H211176   7.649   5.279   0.948
 3745TIP3   OH211177   4.082   0.288   1.116
 3745TIP3    H111178   4.002   0.263   1.070
 3745TIP3    H211179   4.151   0.281   1.050
 3746TIP3   OH211180   5.431   4.253   2.827
 3746TIP3    H111181   5.445   4.330   2.882
 3746TIP3    H211182   5.476   4.182   2.873
 3747TIP3   OH211183   5.215   0.234   0.206
 3747TIP3    H111184   5.175   0.204   0.124
 3747TIP3    H211185   5.306   0.251   0.183
 3748TIP3   OH211186   4.759   5.119   6.615
 3748TIP3    H111187   4.787   5.028   6.628
 3748TIP3    H211188   4.830   5.171   6.652
 3749TIP3   OH211189   7.554   2.760   0.845
 3749TIP3    H111190   7.531   2.768   0.938
 3749TIP3    H211191   7.599   2.843   0.825
 3750TIP3   OH211192   3.613   7.096   1.420
 3750TIP3    H111193   3.644   7.186   1.405
 3750TIP3    H211194   3.693   7.044   1.425
 3751TIP3   OH211195   7.569   5.020   5.653
 3751TIP3    H111196   7.523   4.936   5.648
 3751TIP3    H211197   7.589   5.031   5.746
 3752TIP3   OH211198   2.345   5.442   2.972
 3752TIP3    H111199   2.315   5.351   2.974
 3752TIP3    H211200   2.342   5.470   3.064
 3753TIP3   OH211201   0.125   0.931   6.751
 3753TIP3    H111202   0.063   0.870   6.792
 3753TIP3    H211203   0.069   0.991   6.701
 3754TIP3   OH211204   3.283   5.853   4.152
 3754TIP3    H111205   3.221   5.799   4.200
 3754TIP3    H211206   3.312   5.797   4.079
 3755TIP3   OH211207   1.651   0.365   0.710
 3755TIP3    H111208   1.617   0.450   0.684
 3755TIP3    H211209   1.607   0.303   0.652
 3756TIP3   OH211210   0.639   5.048   5.245
 3756TIP3    H111211   0.711   4.996   5.280
 3756TIP3    H211212   0.577   5.056   5.318
 3757TIP3   OH211213   2.281   3.842   3.346
 3757TIP3    H111214   2.201   3.883   3.312
 3757TIP3    H211215   2.266   3.748   3.334
 3758TIP3   OH211216   4.687   2.126   3.217
 3758TIP3    H111217   4.597   2.094   3.210
 3758TIP3    H211218   4.733   2.081   3.147
 3759TIP3   OH211219   4.394   6.579   3.301
 3759TIP3    H111220   4.309   6.605   3.335
 3759TIP3    H211221   4.375   6.512   3.236
 3760TIP3   OH211222   5.712   3.074   4.869
 3760TIP3    H111223   5.734   3.088   4.961
 3760TIP3    H211224   5.617   3.065   4.868
 3761TIP3   OH211225   4.733   4.160   4.833
 3761TIP3    H111226   4.823   4.187   4.812
 3761TIP3    H211227   4.706   4.220   4.903
 3762TIP3   OH211228   7.017   0.827   0.347
 3762TIP3    H111229   7.009   0.746   0.397
 3762TIP3    H211230   7.076   0.882   0.398
 3763TIP3   OH211231   5.313   7.002   1.829
 3763TIP3    H111232   5.398   7.041   1.849
 3763TIP3    H211233   5.262   7.073   1.791
 3764TIP3   OH211234   6.525   5.747   1.765
 3764TIP3    H111235   6.613   5.713   1.779
 3764TIP3    H211236   6.497   5.707   1.683
 3765TIP3   OH211237   3.141   2.252   3.043
 3765TIP3    H111238   3.217   2.201   3.073
 3765TIP3    H211239   3.090   2.190   2.990
 3766TIP3   OH211240   2.370   3.398   6.001
 3766TIP3    H111241   2.344   3.417   6.091
 3766TIP3    H211242   2.449   3.344   6.009
 3767TIP3   OH211243   6.479   4.911   0.152
 3767TIP3    H111244   6.401   4.927   0.206
 3767TIP3    H211245   6.485   4.986   0.094
 3768TIP3   OH211246   6.295   2.096   3.735
 3768TIP3    H111247   6.245   2.068   3.811
 3768TIP3    H211248   6.256   2.180   3.710
 3769TIP3   OH211249   0.734   2.330   5.276
 3769TIP3    H111250   0.683   2.404   5.308
 3769TIP3    H211251   0.821   2.367   5.259
 3770TIP3   OH211252   5.584   2.048   0.432
 3770TIP3    H111253   5.662   2.059   0.486
 3770TIP3    H211254   5.586   2.121   0.371
 3771TIP3   OH211255   0.891   3.646   0.911
 3771TIP3    H111256   0.855   3.733   0.897
 3771TIP3    H211257   0.819   3.595   0.946
 3772TIP3   OH211258   5.669   7.692   0.285
 3772TIP3    H111259   5.680   7.619   0.224
 3772TIP3    H211260   5.748   7.690   0.339
 3773TIP3   OH211261   7.891   7.134   3.836
 3773TIP3    H111262   7.891   7.184   3.755
 3773TIP3    H211263   7.832   7.182   3.894
 3774TIP3   OH211264   2.485   0.011   3.309
 3774TIP3    H111265   2.540   0.049   3.241
 3774TIP3    H211266   2.507   0.059   3.388
 3775TIP3   OH211267   7.066   2.692   1.316
 3775TIP3    H111268   7.085   2.770   1.264
 3775TIP3    H211269   7.095   2.619   1.261
 3776TIP3   OH211270   0.690   4.562   0.847
 3776TIP3    H111271   0.675   4.511   0.767
 3776TIP3    H211272   0.786   4.563   0.856
 3777TIP3   OH211273   6.892   2.095   5.293
 3777TIP3    H111274   6.811   2.141   5.271
 3777TIP3    H211275   6.897   2.100   5.388
 3778TIP3   OH211276   1.564   3.666   5.396
 3778TIP3    H111277   1.599   3.715   5.471
 3778TIP3    H211278   1.504   3.726   5.354
 3779TIP3   OH211279   0.204   5.293   3.378
 3779TIP3    H111280   0.300   5.297   3.375
 3779TIP3    H211281   0.181   5.338   3.460
 3780TIP3   OH211282   1.771   0.138   0.780
 3780TIP3    H111283   1.744   0.228   0.763
 3780TIP3    H211284   1.853   0.128   0.733
 3781TIP3   OH211285   6.080   3.362   0.887
 3781TIP3    H111286   6.121   3.320   0.962
 3781TIP3    H211287   6.002   3.404   0.922
 3782TIP3   OH211288   0.140   3.428   0.060
 3782TIP3    H111289   0.111   3.384   0.140
 3782TIP3    H211290   0.191   3.362   0.013
 3783TIP3   OH211291   7.076   7.717   4.610
 3783TIP3    H111292   7.015   7.648   4.637
 3783TIP3    H211293   7.082   7.707   4.515
 3784TIP3   OH211294   4.295   1.430   5.133
 3784TIP3    H111295   4.322   1.391   5.050
 3784TIP3    H211296   4.322   1.367   5.199
 3785TIP3   OH211297   0.115   7.401   0.934
 3785TIP3    H111298   0.057   7.428   1.005
 3785TIP3    H211299   0.083   7.449   0.858
 3786TIP3   OH211300   3.567   0.063   5.036
 3786TIP3    H111301   3.569   0.005   5.112
 3786TIP3    H211302   3.584   0.150   5.071
 3787TIP3   OH211303   0.518   0.686   5.886
 3787TIP3    H111304   0.553   0.775   5.887
 3787TIP3    H211305   0.538   0.652   5.973
 3788TIP3   OH211306   0.651   2.145   5.857
 3788TIP3    H111307   0.690   2.058   5.871
 3788TIP3    H211308   0.692   2.201   5.923
 3789TIP3   OH211309   3.307   3.422   2.507
 3789TIP3    H111310   3.274   3.457   2.425
 3789TIP3    H211311   3.231   3.421   2.565
 3790TIP3   OH211312   7.016   1.802   0.774
 3790TIP3    H111313   7.081   1.829   0.710
 3790TIP3    H211314   6.977   1.723   0.737
 3791TIP3   OH211315   5.194   0.988   1.489
 3791TIP3    H111316   5.112   1.036   1.471
 3791TIP3    H211317   5.263   1.046   1.458
 3792TIP3   OH211318   3.478   2.411   3.162
 3792TIP3    H111319   3.457   2.326   3.201
 3792TIP3    H211320   3.422   2.473   3.209
 3793TIP3   OH211321   8.032   2.961   2.041
 3793TIP3    H111322   8.031   2.908   2.121
 3793TIP3    H211323   8.122   2.994   2.036
 3794TIP3   OH211324   5.722   7.720   6.125
 3794TIP3    H111325   5.646   7.770   6.094
 3794TIP3    H211326   5.698   7.693   6.214
 3795TIP3   OH211327   2.710   2.286   3.203
 3795TIP3    H111328   2.666   2.207   3.172
 3795TIP3    H211329   2.757   2.319   3.127
 3796TIP3   OH211330   5.510   4.911   2.461
 3796TIP3    H111331   5.467   4.995   2.447
 3796TIP3    H211332   5.534   4.912   2.554
 3797TIP3   OH211333   8.018   1.444   6.649
 3797TIP3    H111334   7.966   1.376   6.606
 3797TIP3    H211335   8.102   1.402   6.668
 3798TIP3   OH211336   0.231   5.828   3.611
 3798TIP3    H111337   0.298   5.808   3.546
 3798TIP3    H211338   0.278   5.826   3.695
 3799TIP3   OH211339   3.102   6.099   6.369
 3799TIP3    H111340   3.122   6.188   6.339
 3799TIP3    H211341   3.078   6.109   6.461
 3800TIP3   OH211342   5.542   6.873   2.512
 3800TIP3    H111343   5.473   6.914   2.460
 3800TIP3    H211344   5.519   6.893   2.603
 3801TIP3   OH211345   4.904   6.541   4.104
 3801TIP3    H111346   4.898   6.495   4.020
 3801TIP3    H211347   4.851   6.488   4.164
 3802TIP3   OH211348   6.972   0.992   2.432
 3802TIP3    H111349   6.896   0.952   2.476
 3802TIP3    H211350   6.976   0.949   2.347
 3803TIP3   OH211351   1.381   1.719   6.784
 3803TIP3    H111352   1.307   1.717   6.723
 3803TIP3    H211353   1.413   1.629   6.786
 3804TIP3   OH211354   4.482   6.595   0.769
 3804TIP3    H111355   4.543   6.664   0.744
 3804TIP3    H211356   4.535   6.532   0.817
 3805TIP3   OH211357   5.737   2.331   4.109
 3805TIP3    H111358   5.681   2.397   4.068
 3805TIP3    H211359   5.826   2.360   4.091
 3806TIP3   OH211360   1.962   6.440   6.497
 3806TIP3    H111361   1.918   6.357   6.516
 3806TIP3    H211362   2.011   6.423   6.417
 3807TIP3   OH211363   5.452   6.671   3.698
 3807TIP3    H111364   5.459   6.727   3.775
 3807TIP3    H211365   5.543   6.646   3.679
 3808TIP3   OH211366   4.366   3.764   0.171
 3808TIP3    H111367   4.335   3.851   0.146
 3808TIP3    H211368   4.339   3.707   0.099
 3809TIP3   OH211369   3.932   1.260   3.227
 3809TIP3    H111370   4.007   1.320   3.226
 3809TIP3    H211371   3.923   1.236   3.320
 3810TIP3   OH211372   1.463   1.271   6.200
 3810TIP3    H111373   1.513   1.207   6.251
 3810TIP3    H211374   1.524   1.343   6.186
 3811TIP3   OH211375   0.213   4.528   6.265
 3811TIP3    H111376   0.302   4.496   6.280
 3811TIP3    H211377   0.161   4.449   6.251
 3812TIP3   OH211378   3.366   1.824   6.736
 3812TIP3    H111379   3.291   1.869   6.698
 3812TIP3    H211380   3.429   1.894   6.753
 3813TIP3   OH211381   1.502   7.039   2.212
 3813TIP3    H111382   1.497   7.072   2.302
 3813TIP3    H211383   1.509   6.944   2.222
 3814TIP3   OH211384   0.348   4.773   5.794
 3814TIP3    H111385   0.272   4.736   5.749
 3814TIP3    H211386   0.372   4.707   5.859
 3815TIP3   OH211387   7.777   4.245   5.919
 3815TIP3    H111388   7.717   4.171   5.920
 3815TIP3    H211389   7.864   4.205   5.932
 3816TIP3   OH211390   3.801   2.503   0.817
 3816TIP3    H111391   3.741   2.452   0.762
 3816TIP3    H211392   3.874   2.525   0.759
 3817TIP3   OH211393   1.442   4.100   4.176
 3817TIP3    H111394   1.435   4.087   4.270
 3817TIP3    H211395   1.407   4.188   4.161
 3818TIP3   OH211396   8.082   7.603   0.386
 3818TIP3    H111397   8.044   7.527   0.342
 3818TIP3    H211398   8.100   7.573   0.476
 3819TIP3   OH211399   6.341   5.534   4.908
 3819TIP3    H111400   6.357   5.457   4.853
 3819TIP3    H211401   6.392   5.518   4.988
 3820TIP3   OH211402   6.519   3.831   5.122
 3820TIP3    H111403   6.585   3.764   5.106
 3820TIP3    H211404   6.445   3.783   5.158
 3821TIP3   OH211405   7.223   3.444   1.473
 3821TIP3    H111406   7.241   3.531   1.438
 3821TIP3    H211407   7.236   3.384   1.399
 3822TIP3   OH211408   6.471   1.255   3.372
 3822TIP3    H111409   6.543   1.272   3.311
 3822TIP3    H211410   6.394   1.291   3.328
 3823TIP3   OH211411   5.209   6.680   5.202
 3823TIP3    H111412   5.278   6.614   5.197
 3823TIP3    H211413   5.249   6.760   5.168
 3824TIP3   OH211414   2.444   3.488   1.865
 3824TIP3    H111415   2.433   3.400   1.901
 3824TIP3    H211416   2.364   3.503   1.814
 3825TIP3   OH211417   2.914   0.207   0.684
 3825TIP3    H111418   2.981   0.140   0.693
 3825TIP3    H211419   2.877   0.192   0.597
 3826TIP3   OH211420   7.021   2.261   2.167
 3826TIP3    H111421   7.113   2.265   2.194
 3826TIP3    H211422   6.974   2.228   2.244
 3827TIP3   OH211423   1.898   4.504   3.661
 3827TIP3    H111424   1.970   4.508   3.725
 3827TIP3    H211425   1.828   4.555   3.701
 3828TIP3   OH211426   3.156   6.526   4.328
 3828TIP3    H111427   3.083   6.562   4.379
 3828TIP3    H211428   3.119   6.508   4.242
 3829TIP3   OH211429   3.181   6.595   3.289
 3829TIP3    H111430   3.097   6.635   3.265
 3829TIP3    H211431   3.220   6.570   3.206
 3830TIP3   OH211432   7.155   7.401   6.760
 3830TIP3    H111433   7.072   7.404   6.809
 3830TIP3    H211434   7.214   7.351   6.816
 3831TIP3   OH211435   7.930   5.375   5.190
 3831TIP3    H111436   8.002   5.425   5.229
 3831TIP3    H211437   7.851   5.421   5.217
 3832TIP3   OH211438   6.675   4.405   1.407
 3832TIP3    H111439   6.655   4.492   1.442
 3832TIP3    H211440   6.724   4.361   1.477
 3833TIP3   OH211441   5.272   1.265   1.682
 3833TIP3    H111442   5.303   1.237   1.596
 3833TIP3    H211443   5.344   1.244   1.742
 3834TIP3   OH211444   6.472   5.380   2.248
 3834TIP3    H111445   6.463   5.318   2.321
 3834TIP3    H211446   6.434   5.461   2.282
 3835TIP3   OH211447   4.692   0.080   2.893
 3835TIP3    H111448   4.638   0.049   2.967
 3835TIP3    H211449   4.670   0.173   2.885
 3836TIP3   OH211450   2.260   3.171   3.824
 3836TIP3    H111451   2.176   3.151   3.782
 3836TIP3    H211452   2.268   3.108   3.895
 3837TIP3   OH211453   7.993   0.769   2.553
 3837TIP3    H111454   7.904   0.736   2.544
 3837TIP3    H211455   8.018   0.795   2.464
 3838TIP3   OH211456   5.269   5.809   3.626
 3838TIP3    H111457   5.308   5.810   3.713
 3838TIP3    H211458   5.243   5.899   3.610
 3839TIP3   OH211459   6.869   6.470   0.682
 3839TIP3    H111460   6.869   6.563   0.704
 3839TIP3    H211461   6.904   6.426   0.760
 3840TIP3   OH211462   8.130   5.583   0.423
 3840TIP3    H111463   8.199   5.551   0.481
 3840TIP3    H211464   8.166   5.572   0.334
 3841TIP3   OH211465   0.784   1.461   3.563
 3841TIP3    H111466   0.777   1.512   3.644
 3841TIP3    H211467   0.721   1.389   3.574
 3842TIP3   OH211468   7.606   4.887   3.040
 3842TIP3    H111469   7.632   4.976   3.015
 3842TIP3    H211470   7.642   4.875   3.128
 3843TIP3   OH211471   0.538   5.715   4.672
 3843TIP3    H111472   0.513   5.763   4.593
 3843TIP3    H211473   0.633   5.722   4.675
 3844TIP3   OH211474   6.134   7.125   4.356
 3844TIP3    H111475   6.056   7.069   4.355
 3844TIP3    H211476   6.103   7.208   4.392
 3845TIP3   OH211477   4.689   5.032   0.699
 3845TIP3    H111478   4.743   5.075   0.765
 3845TIP3    H211479   4.689   5.091   0.624
 3846TIP3   OH211480   4.903   4.964   0.025
 3846TIP3    H111481   4.864   4.898   0.082
 3846TIP3    H211482   4.963   5.012   0.081
 3847TIP3   OH211483   7.603   2.329   0.977
 3847TIP3    H111484   7.630   2.377   0.898
 3847TIP3    H211485   7.612   2.393   1.048
 3848TIP3   OH211486   1.239   2.064   2.265
 3848TIP3    H111487   1.269   1.978   2.234
 3848TIP3    H211488   1.316   2.104   2.304
 3849TIP3   OH211489   6.601   3.215   4.445
 3849TIP3    H111490   6.650   3.213   4.363
 3849TIP3    H211491   6.660   3.256   4.508
 3850TIP3   OH211492   7.870   3.723   4.617
 3850TIP3    H111493   7.920   3.791   4.571
 3850TIP3    H211494   7.848   3.764   4.701
 3851TIP3   OH211495   8.093   4.887   4.356
 3851TIP3    H111496   8.170   4.940   4.333
 3851TIP3    H211497   8.116   4.846   4.440
 3852TIP3   OH211498   7.363   7.417   4.038
 3852TIP3    H111499   7.401   7.433   4.125
 3852TIP3    H211500   7.291   7.356   4.055
 3853TIP3   OH211501   8.247   0.136   5.333
 3853TIP3    H111502   8.339   0.116   5.320
 3853TIP3    H211503   8.218   0.172   5.249
 3854TIP3   OH211504   1.535   6.495   4.450
 3854TIP3    H111505   1.561   6.412   4.490
 3854TIP3    H211506   1.572   6.562   4.508
 3855TIP3   OH211507   1.053   0.465   2.115
 3855TIP3    H111508   1.027   0.413   2.191
 3855TIP3    H211509   1.053   0.555   2.147
 3856TIP3   OH211510   2.231   1.177   3.827
 3856TIP3    H111511   2.187   1.113   3.884
 3856TIP3    H211512   2.165   1.198   3.761
 3857TIP3   OH211513   5.280   0.464   2.944
 3857TIP3    H111514   5.310   0.549   2.977
 3857TIP3    H211515   5.192   0.454   2.979
 3858TIP3   OH211516   5.230   6.621   4.443
 3858TIP3    H111517   5.286   6.559   4.488
 3858TIP3    H211518   5.190   6.570   4.372
 3859TIP3   OH211519   2.179   2.495   4.286
 3859TIP3    H111520   2.166   2.520   4.195
 3859TIP3    H211521   2.217   2.407   4.281
 3860TIP3   OH211522   2.265   2.077   6.544
 3860TIP3    H111523   2.321   2.000   6.555
 3860TIP3    H211524   2.211   2.057   6.468
 3861TIP3   OH211525   6.806   3.353   3.893
 3861TIP3    H111526   6.861   3.376   3.819
 3861TIP3    H211527   6.786   3.436   3.936
 3862TIP3   OH211528   1.527   5.472   0.577
 3862TIP3    H111529   1.471   5.548   0.594
 3862TIP3    H211530   1.470   5.409   0.535
 3863TIP3   OH211531   4.100   7.525   6.669
 3863TIP3    H111532   4.027   7.472   6.702
 3863TIP3    H211533   4.177   7.493   6.716
 3864TIP3   OH211534   0.568   7.526   3.109
 3864TIP3    H111535   0.491   7.581   3.127
 3864TIP3    H211536   0.642   7.585   3.115
 3865TIP3   OH211537   6.818   0.433   0.078
 3865TIP3    H111538   6.845   0.355   0.029
 3865TIP3    H211539   6.893   0.454   0.134
 3866TIP3   OH211540   1.531   0.976   2.217
 3866TIP3    H111541   1.531   0.981   2.122
 3866TIP3    H211542   1.455   0.922   2.238
 3867TIP3   OH211543   6.159   7.701   1.769
 3867TIP3    H111544   6.183   7.672   1.681
 3867TIP3    H211545   6.184   7.628   1.826
 3868TIP3   OH211546   6.332   2.288   5.889
 3868TIP3    H111547   6.316   2.195   5.873
 3868TIP3    H211548   6.261   2.316   5.946
 3869TIP3   OH211549   0.667   4.096   4.719
 3869TIP3    H111550   0.646   4.132   4.633
 3869TIP3    H211551   0.604   4.026   4.733
 3870TIP3   OH211552   6.109   5.310   1.435
 3870TIP3    H111553   6.023   5.269   1.434
 3870TIP3    H211554   6.167   5.245   1.394
 3871TIP3   OH211555   0.822   7.534   5.088
 3871TIP3    H111556   0.841   7.473   5.159
 3871TIP3    H211557   0.902   7.585   5.078
 3872TIP3   OH211558   0.053   5.738   1.096
 3872TIP3    H111559   0.050   5.817   1.151
 3872TIP3    H211560  -0.013   5.680   1.134
 3873TIP3   OH211561   0.219   3.323   6.366
 3873TIP3    H111562   0.310   3.333   6.394
 3873TIP3    H211563   0.224   3.312   6.271
 3874TIP3   OH211564   2.317   0.427   0.954
 3874TIP3    H111565   2.409   0.407   0.968
 3874TIP3    H211566   2.318   0.497   0.888
 3875TIP3   OH211567   3.218   1.322   3.712
 3875TIP3    H111568   3.137   1.284   3.748
 3875TIP3    H211569   3.261   1.362   3.788
 3876TIP3   OH211570   2.232   2.451   3.512
 3876TIP3    H111571   2.143   2.459   3.476
 3876TIP3    H211572   2.289   2.485   3.443
 3877TIP3   OH211573   2.253   1.089   1.170
 3877TIP3    H111574   2.340   1.085   1.209
 3877TIP3    H211575   2.260   1.154   1.100
 3878TIP3   OH211576   4.316   6.208   0.666
 3878TIP3    H111577   4.349   6.145   0.731
 3878TIP3    H211578   4.345   6.173   0.582
 3879TIP3   OH211579   5.049   3.673   4.294
 3879TIP3    H111580   5.127   3.723   4.317
 3879TIP3    H211581   4.980   3.706   4.351
 3880TIP3   OH211582   3.011   7.795   2.178
 3880TIP3    H111583   2.998   7.736   2.103
 3880TIP3    H211584   3.016   7.882   2.139
 3881TIP3   OH211585   7.540   6.261   4.830
 3881TIP3    H111586   7.584   6.327   4.776
 3881TIP3    H211587   7.491   6.208   4.767
 3882TIP3   OH211588   3.423   4.837   3.352
 3882TIP3    H111589   3.360   4.888   3.404
 3882TIP3    H211590   3.373   4.808   3.276
 3883TIP3   OH211591   1.891   3.643   5.320
 3883TIP3    H111592   1.836   3.630   5.398
 3883TIP3    H211593   1.868   3.731   5.289
 3884TIP3   OH211594   7.314   6.142   6.735
 3884TIP3    H111595   7.395   6.091   6.731
 3884TIP3    H211596   7.258   6.094   6.797
 3885TIP3   OH211597   5.009   3.381   5.369
 3885TIP3    H111598   5.047   3.293   5.366
 3885TIP3    H211599   4.943   3.381   5.299
 3886TIP3   OH211600   5.287   2.373   5.735
 3886TIP3    H111601   5.364   2.327   5.702
 3886TIP3    H211602   5.314   2.410   5.819
 3887TIP3   OH211603   1.219   1.242   6.030
 3887TIP3    H111604   1.288   1.232   6.096
 3887TIP3    H211605   1.265   1.238   5.946
 3888TIP3   OH211606   7.253   1.402   0.972
 3888TIP3    H111607   7.314   1.429   1.041
 3888TIP3    H211608   7.168   1.435   1.002
 3889TIP3   OH211609   1.896   3.955   1.411
 3889TIP3    H111610   1.862   4.043   1.397
 3889TIP3    H211611   1.991   3.965   1.413
 3890TIP3   OH211612   1.099   7.559   6.177
 3890TIP3    H111613   1.109   7.650   6.147
 3890TIP3    H211614   1.039   7.520   6.114
 3891TIP3   OH211615   5.008   1.952   0.106
 3891TIP3    H111616   5.056   1.882   0.061
 3891TIP3    H211617   5.076   2.015   0.130
 3892TIP3   OH211618   2.565   3.525   3.829
 3892TIP3    H111619   2.538   3.433   3.824
 3892TIP3    H211620   2.490   3.570   3.868
 3893TIP3   OH211621   8.244   4.945   4.777
 3893TIP3    H111622   8.174   4.981   4.721
 3893TIP3    H211623   8.252   5.009   4.848
 3894TIP3   OH211624   3.448   5.119   6.402
 3894TIP3    H111625   3.361   5.089   6.428
 3894TIP3    H211626   3.433   5.200   6.354
 3895TIP3   OH211627   7.864   3.001   6.625
 3895TIP3    H111628   7.874   3.052   6.545
 3895TIP3    H211629   7.837   3.064   6.691
 3896TIP3   OH211630   3.488   7.763   5.151
 3896TIP3    H111631   3.481   7.817   5.072
 3896TIP3    H211632   3.524   7.680   5.121
 3897TIP3   OH211633   3.746   3.814   3.918
 3897TIP3    H111634   3.683   3.742   3.908
 3897TIP3    H211635   3.814   3.778   3.975
 3898TIP3   OH211636   7.845   4.046   6.776
 3898TIP3    H111637   7.824   4.113   6.710
 3898TIP3    H211638   7.888   3.976   6.726
 3899TIP3   OH211639   4.595   6.500   2.312
 3899TIP3    H111640   4.642   6.520   2.392
 3899TIP3    H211641   4.568   6.408   2.322
 3900TIP3   OH211642   7.350   4.989   2.043
 3900TIP3    H111643   7.347   5.051   1.970
 3900TIP3    H211644   7.310   5.036   2.116
 3901TIP3   OH211645   0.654   4.724   5.297
 3901TIP3    H111646   0.727   4.665   5.279
 3901TIP3    H211647   0.608   4.731   5.214
 3902TIP3   OH211648   4.575   6.412   3.528
 3902TIP3    H111649   4.619   6.421   3.443
 3902TIP3    H211650   4.639   6.442   3.592
 3903TIP3   OH211651   7.448   2.861   4.107
 3903TIP3    H111652   7.504   2.884   4.032
 3903TIP3    H211653   7.359   2.875   4.075
 3904TIP3   OH211654   3.026   5.866   6.688
 3904TIP3    H111655   3.119   5.856   6.667
 3904TIP3    H211656   2.986   5.897   6.607
 3905TIP3   OH211657   3.960   5.046   6.746
 3905TIP3    H111658   3.960   5.123   6.690
 3905TIP3    H211659   4.043   5.051   6.795
 3906TIP3   OH211660   7.104   5.314   0.796
 3906TIP3    H111661   7.099   5.249   0.726
 3906TIP3    H211662   7.198   5.324   0.812
 3907TIP3   OH211663   6.597   2.898   0.091
 3907TIP3    H111664   6.558   2.821   0.050
 3907TIP3    H211665   6.558   2.972   0.045
 3908TIP3   OH211666   4.039   3.182   3.348
 3908TIP3    H111667   3.951   3.217   3.330
 3908TIP3    H211668   4.074   3.240   3.415
 3909TIP3   OH211669   3.254   3.671   1.578
 3909TIP3    H111670   3.160   3.660   1.564
 3909TIP3    H211671   3.285   3.716   1.500
 3910TIP3   OH211672   6.112   6.807   2.978
 3910TIP3    H111673   6.030   6.853   2.997
 3910TIP3    H211674   6.095   6.717   3.006
 3911TIP3   OH211675   4.275   0.781   3.184
 3911TIP3    H111676   4.342   0.848   3.196
 3911TIP3    H211677   4.256   0.782   3.090
 3912TIP3   OH211678   2.975   4.562   4.175
 3912TIP3    H111679   2.951   4.581   4.266
 3912TIP3    H211680   3.070   4.578   4.172
 3913TIP3   OH211681   4.489   4.239   4.073
 3913TIP3    H111682   4.404   4.249   4.031
 3913TIP3    H211683   4.535   4.320   4.053
 3914TIP3   OH211684   2.027   1.818   4.111
 3914TIP3    H111685   2.012   1.856   4.197
 3914TIP3    H211686   1.992   1.729   4.118
 3915TIP3   OH211687   2.968   1.757   5.348
 3915TIP3    H111688   2.904   1.813   5.391
 3915TIP3    H211689   3.053   1.793   5.373
 3916TIP3   OH211690   4.698   3.195   1.665
 3916TIP3    H111691   4.721   3.244   1.587
 3916TIP3    H211692   4.634   3.249   1.710
 3917TIP3   OH211693   2.286   2.418   2.611
 3917TIP3    H111694   2.366   2.373   2.585
 3917TIP3    H211695   2.225   2.402   2.538
 3918TIP3   OH211696   4.274   1.138   5.024
 3918TIP3    H111697   4.301   1.146   4.933
 3918TIP3    H211698   4.350   1.102   5.070
 3919TIP3   OH211699   4.804   0.934   3.782
 3919TIP3    H111700   4.747   1.008   3.762
 3919TIP3    H211701   4.834   0.903   3.696
 3920TIP3   OH211702   6.688   5.806   5.186
 3920TIP3    H111703   6.676   5.878   5.249
 3920TIP3    H211704   6.676   5.727   5.238
 3921TIP3   OH211705   1.900   5.470   3.549
 3921TIP3    H111706   1.992   5.485   3.524
 3921TIP3    H211707   1.852   5.480   3.467
 3922TIP3   OH211708   8.108   7.263   6.300
 3922TIP3    H111709   8.152   7.283   6.382
 3922TIP3    H211710   8.058   7.342   6.279
 3923TIP3   OH211711   6.936   5.891   1.224
 3923TIP3    H111712   6.996   5.821   1.198
 3923TIP3    H211713   6.852   5.867   1.182
 3924TIP3   OH211714   5.115   4.058   2.244
 3924TIP3    H111715   5.028   4.018   2.247
 3924TIP3    H211716   5.102   4.148   2.273
 3925TIP3   OH211717   2.951   7.188   4.882
 3925TIP3    H111718   3.037   7.146   4.879
 3925TIP3    H211719   2.959   7.253   4.952
 3926TIP3   OH211720   3.975   4.867   3.813
 3926TIP3    H111721   4.034   4.808   3.767
 3926TIP3    H211722   4.028   4.906   3.882
 3927TIP3   OH211723   5.162   5.577   2.459
 3927TIP3    H111724   5.186   5.612   2.373
 3927TIP3    H211725   5.209   5.494   2.466
 3928TIP3   OH211726   1.892   7.344   1.604
 3928TIP3    H111727   1.970   7.400   1.609
 3928TIP3    H211728   1.868   7.329   1.696
 3929TIP3   OH211729   7.346   7.145   6.595
 3929TIP3    H111730   7.382   7.182   6.676
 3929TIP3    H211731   7.299   7.067   6.624
 3930TIP3   OH211732   3.131   2.669   4.461
 3930TIP3    H111733   3.111   2.689   4.369
 3930TIP3    H211734   3.210   2.720   4.479
 3931TIP3   OH211735   1.040   0.906   0.427
 3931TIP3    H111736   1.129   0.930   0.400
 3931TIP3    H211737   0.994   0.990   0.436
 3932TIP3   OH211738   0.072   6.207   3.183
 3932TIP3    H111739   0.144   6.145   3.176
 3932TIP3    H211740   0.048   6.206   3.276
 3933TIP3   OH211741   3.206   2.385   6.626
 3933TIP3    H111742   3.226   2.464   6.676
 3933TIP3    H211743   3.170   2.324   6.691
 3934TIP3   OH211744   2.892   3.501   2.660
 3934TIP3    H111745   2.808   3.463   2.633
 3934TIP3    H211746   2.874   3.539   2.746
 3935TIP3   OH211747   4.411   6.271   3.352
 3935TIP3    H111748   4.463   6.316   3.418
 3935TIP3    H211749   4.421   6.324   3.273
 3936TIP3   OH211750   5.864   0.198   6.302
 3936TIP3    H111751   5.921   0.234   6.235
 3936TIP3    H211752   5.834   0.114   6.266
 3937TIP3   OH211753   5.356   7.019   4.894
 3937TIP3    H111754   5.412   7.090   4.864
 3937TIP3    H211755   5.272   7.034   4.850
 3938TIP3   OH211756   5.212   3.730   3.605
 3938TIP3    H111757   5.227   3.661   3.540
 3938TIP3    H211758   5.293   3.736   3.654
 3939TIP3   OH211759   7.101   5.680   0.605
 3939TIP3    H111760   7.120   5.594   0.568
 3939TIP3    H211761   7.037   5.663   0.675
 3940TIP3   OH211762   3.154   2.883   3.616
 3940TIP3    H111763   3.227   2.874   3.554
 3940TIP3    H211764   3.147   2.796   3.657
 3941TIP3   OH211765   1.114   0.037   5.134
 3941TIP3    H111766   1.182   0.038   5.202
 3941TIP3    H211767   1.045  -0.019   5.170
 3942TIP3   OH211768   7.855   4.932   4.129
 3942TIP3    H111769   7.825   5.018   4.158
 3942TIP3    H211770   7.842   4.875   4.204
 3943TIP3   OH211771   7.842   5.543   4.459
 3943TIP3    H111772   7.911   5.537   4.525
 3943TIP3    H211773   7.825   5.636   4.450
 3944TIP3   OH211774   0.585   4.510   6.609
 3944TIP3    H111775   0.596   4.605   6.608
 3944TIP3    H211776   0.500   4.496   6.650
 3945TIP3   OH211777   0.534   1.202   2.219
 3945TIP3    H111778   0.466   1.147   2.181
 3945TIP3    H211779   0.571   1.250   2.145
 3946TIP3   OH211780   1.501   2.927   6.419
 3946TIP3    H111781   1.582   2.880   6.439
 3946TIP3    H211782   1.514   2.959   6.330
 3947TIP3   OH211783   5.195   5.498   0.122
 3947TIP3    H111784   5.126   5.536   0.068
 3947TIP3    H211785   5.276   5.535   0.088
 3948TIP3   OH211786   6.063   1.934   4.713
 3948TIP3    H111787   5.988   1.946   4.655
 3948TIP3    H211788   6.138   1.958   4.660
 3949TIP3   OH211789   0.594   7.694   0.977
 3949TIP3    H111790   0.608   7.665   1.067
 3949TIP3    H211791   0.500   7.709   0.971
 3950TIP3   OH211792   0.233   6.554   3.522
 3950TIP3    H111793   0.270   6.642   3.516
 3950TIP3    H211794   0.285   6.501   3.462
 3951TIP3   OH211795   2.221   2.341   0.966
 3951TIP3    H111796   2.188   2.348   0.876
 3951TIP3    H211797   2.172   2.407   1.015
 3952TIP3   OH211798   0.972   3.273   3.457
 3952TIP3    H111799   0.952   3.193   3.506
 3952TIP3    H211800   0.963   3.343   3.521
 3953TIP3   OH211801   6.793   6.942   6.519
 3953TIP3    H111802   6.724   6.886   6.555
 3953TIP3    H211803   6.833   6.889   6.450
 3954TIP3   OH211804   1.391   0.460   0.727
 3954TIP3    H111805   1.395   0.473   0.632
 3954TIP3    H211806   1.412   0.368   0.740
 3955TIP3   OH211807   0.681   6.314   3.761
 3955TIP3    H111808   0.632   6.231   3.758
 3955TIP3    H211809   0.772   6.287   3.768
 3956TIP3   OH211810   0.071   5.005   4.488
 3956TIP3    H111811   0.046   5.063   4.415
 3956TIP3    H211812  -0.012   4.975   4.525
 3957TIP3   OH211813   4.715   3.884   2.244
 3957TIP3    H111814   4.705   3.874   2.150
 3957TIP3    H211815   4.784   3.823   2.268
 3958TIP3   OH211816   4.697   6.822   1.043
 3958TIP3    H111817   4.747   6.752   1.084
 3958TIP3    H211818   4.731   6.902   1.083
 3959TIP3   OH211819   4.027   6.441   1.799
 3959TIP3    H111820   4.004   6.523   1.841
 3959TIP3    H211821   4.103   6.410   1.847
 3960TIP3   OH211822   3.054   7.188   2.244
 3960TIP3    H111823   3.118   7.191   2.315
 3960TIP3    H211824   3.088   7.250   2.179
 3961TIP3   OH211825   6.229   6.660   0.782
 3961TIP3    H111826   6.156   6.670   0.843
 3961TIP3    H211827   6.287   6.733   0.802
 3962TIP3   OH211828   7.889   7.816   0.416
 3962TIP3    H111829   7.966   7.842   0.365
 3962TIP3    H211830   7.893   7.720   0.417
 3963TIP3   OH211831   2.574   3.576   4.839
 3963TIP3    H111832   2.541   3.488   4.859
 3963TIP3    H211833   2.669   3.567   4.842
 3964TIP3   OH211834   0.646   1.130   5.564
 3964TIP3    H111835   0.609   1.216   5.542
 3964TIP3    H211836   0.650   1.084   5.481
 3965TIP3   OH211837   3.242   5.576   0.633
 3965TIP3    H111838   3.155   5.552   0.666
 3965TIP3    H211839   3.277   5.638   0.697
 3966TIP3   OH211840   2.824   7.028   0.713
 3966TIP3    H111841   2.766   6.955   0.738
 3966TIP3    H211842   2.770   7.106   0.725
 3967TIP3   OH211843   4.442   6.924   3.763
 3967TIP3    H111844   4.518   6.876   3.795
 3967TIP3    H211845   4.478   6.993   3.707
 3968TIP3   OH211846   3.750   2.154   5.321
 3968TIP3    H111847   3.715   2.132   5.407
 3968TIP3    H211848   3.830   2.204   5.340
 3969TIP3   OH211849   1.999   1.207   3.696
 3969TIP3    H111850   1.922   1.253   3.730
 3969TIP3    H211851   2.023   1.254   3.617
 3970TIP3   OH211852   6.100   2.474   5.648
 3970TIP3    H111853   6.124   2.448   5.737
 3970TIP3    H211854   6.161   2.545   5.627
 3971TIP3   OH211855   7.947   4.046   1.310
 3971TIP3    H111856   7.916   4.102   1.382
 3971TIP3    H211857   7.988   4.107   1.249
 3972TIP3   OH211858   0.766   3.560   4.109
 3972TIP3    H111859   0.750   3.634   4.169
 3972TIP3    H211860   0.699   3.570   4.042
 3973TIP3   OH211861   6.977   3.201   4.050
 3973TIP3    H111862   7.046   3.183   3.987
 3973TIP3    H211863   6.907   3.240   3.999
 3974TIP3   OH211864   4.814   2.589   1.051
 3974TIP3    H111865   4.895   2.596   1.001
 3974TIP3    H211866   4.838   2.621   1.138
 3975TIP3   OH211867   5.670   0.710   4.943
 3975TIP3    H111868   5.626   0.771   5.002
 3975TIP3    H211869   5.620   0.629   4.950
 3976TIP3   OH211870   4.047   3.116   4.075
 3976TIP3    H111871   3.987   3.169   4.127
 3976TIP3    H211872   4.021   3.026   4.092
 3977TIP3   OH211873   6.783   3.818   1.011
 3977TIP3    H111874   6.855   3.880   1.006
 3977TIP3    H211875   6.704   3.872   1.005
 3978TIP3   OH211876   7.816   4.951   6.337
 3978TIP3    H111877   7.816   4.875   6.279
 3978TIP3    H211878   7.893   5.002   6.310
 3979TIP3   OH211879   3.617   2.366   5.216
 3979TIP3    H111880   3.667   2.289   5.242
 3979TIP3    H211881   3.567   2.337   5.140
 3980TIP3   OH211882   0.514   1.623   3.655
 3980TIP3    H111883   0.431   1.655   3.692
 3980TIP3    H211884   0.581   1.665   3.708
 3981TIP3   OH211885   3.803   6.920   1.340
 3981TIP3    H111886   3.743   6.856   1.302
 3981TIP3    H211887   3.890   6.891   1.311
 3982TIP3   OH211888   2.412   0.034   4.575
 3982TIP3    H111889   2.474   0.069   4.638
 3982TIP3    H211890   2.372   0.111   4.535
 3983TIP3   OH211891   3.133   4.981   2.307
 3983TIP3    H111892   3.153   5.015   2.220
 3983TIP3    H211893   3.075   5.046   2.346
 3984TIP3   OH211894   1.254   2.484   6.617
 3984TIP3    H111895   1.187   2.530   6.668
 3984TIP3    H211896   1.314   2.450   6.683
 3985TIP3   OH211897   1.367   4.584   4.426
 3985TIP3    H111898   1.425   4.650   4.387
 3985TIP3    H211899   1.402   4.572   4.514
 3986TIP3   OH211900   3.756   3.290   1.436
 3986TIP3    H111901   3.688   3.225   1.456
 3986TIP3    H211902   3.790   3.316   1.521
 3987TIP3   OH211903   4.325   5.310   0.796
 3987TIP3    H111904   4.310   5.221   0.826
 3987TIP3    H211905   4.392   5.344   0.855
 3988TIP3   OH211906   5.742   3.842   0.960
 3988TIP3    H111907   5.761   3.910   1.025
 3988TIP3    H211908   5.655   3.811   0.982
 3989TIP3   OH211909   2.091   1.025   4.045
 3989TIP3    H111910   2.039   1.072   4.110
 3989TIP3    H211911   2.164   0.987   4.095
 3990TIP3   OH211912   1.644   4.924   6.204
 3990TIP3    H111913   1.594   4.844   6.194
 3990TIP3    H211914   1.730   4.896   6.236
 3991TIP3   OH211915   1.004   6.471   3.035
 3991TIP3    H111916   0.922   6.510   3.067
 3991TIP3    H211917   0.983   6.442   2.947
 3992TIP3   OH211918   3.672   3.716   0.822
 3992TIP3    H111919   3.731   3.736   0.895
 3992TIP3    H211920   3.607   3.786   0.824
 3993TIP3   OH211921   2.407   0.111   1.193
 3993TIP3    H111922   2.451   0.150   1.118
 3993TIP3    H211923   2.473   0.111   1.263
 3994TIP3   OH211924   7.928   3.494   6.227
 3994TIP3    H111925   7.861   3.432   6.254
 3994TIP3    H211926   7.970   3.521   6.309
 3995TIP3   OH211927   7.808   4.190   1.935
 3995TIP3    H111928   7.757   4.262   1.898
 3995TIP3    H211929   7.819   4.129   1.863
 3996TIP3   OH211930   4.573   3.187   2.121
 3996TIP3    H111931   4.665   3.212   2.109
 3996TIP3    H211932   4.523   3.252   2.073
 3997TIP3   OH211933   2.617   2.337   1.196
 3997TIP3    H111934   2.686   2.329   1.262
 3997TIP3    H211935   2.536   2.340   1.246
 3998TIP3   OH211936   4.384   7.341   3.994
 3998TIP3    H111937   4.467   7.351   4.041
 3998TIP3    H211938   4.324   7.303   4.058
 3999TIP3   OH211939   1.273   0.957   5.438
 3999TIP3    H111940   1.320   0.965   5.355
 3999TIP3    H211941   1.324   1.009   5.500
 4000TIP3   OH211942   0.709   4.297   6.479
 4000TIP3    H111943   0.638   4.234   6.487
 4000TIP3    H211944   0.676   4.377   6.520
 4001TIP3   OH211945   2.905   4.654   1.435
 4001TIP3    H111946   2.810   4.647   1.448
 4001TIP3    H211947   2.919   4.746   1.410
 4002TIP3   OH211948   7.792   3.623   4.153
 4002TIP3    H111949   7.710   3.610   4.202
 4002TIP3    H211950   7.794   3.716   4.133
 4003TIP3   OH211951   0.461   7.547   6.248
 4003TIP3    H111952   0.456   7.552   6.153
 4003TIP3    H211953   0.465   7.638   6.277
 4004TIP3   OH211954   1.311   4.002   2.292
 4004TIP3    H111955   1.252   4.075   2.304
 4004TIP3    H211956   1.254   3.927   2.274
 4005TIP3   OH211957   7.588   0.902   0.575
 4005TIP3    H111958   7.594   0.977   0.516
 4005TIP3    H211959   7.674   0.860   0.569
 4006TIP3   OH211960   1.714   3.985   1.642
 4006TIP3    H111961   1.748   3.957   1.557
 4006TIP3    H211962   1.791   3.991   1.698
 4007TIP3   OH211963   3.826   0.171   2.214
 4007TIP3    H111964   3.737   0.198   2.192
 4007TIP3    H211965   3.817   0.121   2.296
 4008TIP3   OH211966   1.598   4.570   2.954
 4008TIP3    H111967   1.659   4.571   3.027
 4008TIP3    H211968   1.637   4.630   2.890
 4009TIP3   OH211969   0.197   1.077   0.038
 4009TIP3    H111970   0.112   1.080  -0.006
 4009TIP3    H211971   0.192   1.001   0.095
 4010TIP3   OH211972   1.779   6.583   1.027
 4010TIP3    H111973   1.812   6.619   1.110
 4010TIP3    H211974   1.749   6.495   1.050
 4011TIP3   OH211975   4.343   1.846   0.428
 4011TIP3    H111976   4.399   1.878   0.499
 4011TIP3    H211977   4.255   1.845   0.466
 4012TIP3   OH211978   2.836   0.607   3.833
 4012TIP3    H111979   2.917   0.603   3.782
 4012TIP3    H211980   2.777   0.661   3.781
 4013TIP3   OH211981   2.568   0.937   0.867
 4013TIP3    H111982   2.488   0.919   0.916
 4013TIP3    H211983   2.597   0.852   0.835
 4014TIP3   OH211984   0.161   1.388   3.340
 4014TIP3    H111985   0.219   1.376   3.415
 4014TIP3    H211986   0.073   1.381   3.376
 4015TIP3   OH211987   0.105   4.687   1.684
 4015TIP3    H111988   0.040   4.618   1.696
 4015TIP3    H211989   0.186   4.641   1.663
 4016TIP3   OH211990   2.299   7.535   3.636
 4016TIP3    H111991   2.283   7.450   3.596
 4016TIP3    H211992   2.247   7.596   3.585
 4017TIP3   OH211993   6.629   5.874   0.813
 4017TIP3    H111994   6.707   5.854   0.761
 4017TIP3    H211995   6.580   5.792   0.817
 4018TIP3   OH211996   1.333   3.638   2.928
 4018TIP3    H111997   1.304   3.548   2.912
 4018TIP3    H211998   1.364   3.637   3.019
 4019TIP3   OH211999   7.346   1.052   5.797
 4019TIP3    H112000   7.265   1.003   5.786
 4019TIP3    H212001   7.376   1.070   5.708
 4020TIP3   OH212002   7.605   6.883   4.845
 4020TIP3    H112003   7.605   6.940   4.768
 4020TIP3    H212004   7.687   6.834   4.838
 4021TIP3   OH212005   7.731   3.385   3.628
 4021TIP3    H112006   7.818   3.384   3.668
 4021TIP3    H212007   7.747   3.409   3.536
 4022TIP3   OH212008   1.420   4.909   4.348
 4022TIP3    H112009   1.449   5.000   4.359
 4022TIP3    H212010   1.499   4.862   4.321
 4023TIP3   OH212011   0.364   1.771   4.608
 4023TIP3    H112012   0.458   1.787   4.605
 4023TIP3    H212013   0.324   1.855   4.585
 4024TIP3   OH212014   6.524   4.326   5.470
 4024TIP3    H112015   6.517   4.303   5.562
 4024TIP3    H212016   6.507   4.421   5.467
 4025TIP3   OH212017   6.414   3.311   4.771
 4025TIP3    H112018   6.494   3.311   4.719
 4025TIP3    H212019   6.350   3.358   4.717
 4026TIP3   OH212020   5.881   4.969   4.054
 4026TIP3    H112021   5.823   5.033   4.013
 4026TIP3    H212022   5.885   4.994   4.146
 4027TIP3   OH212023   3.451   1.223   1.854
 4027TIP3    H112024   3.460   1.194   1.945
 4027TIP3    H212025   3.507   1.301   1.849
 4028TIP3   OH212026   7.134   2.430   0.049
 4028TIP3    H112027   7.100   2.342   0.065
 4028TIP3    H212028   7.175   2.455   0.132
 4029TIP3   OH212029   6.307   7.693   2.100
 4029TIP3    H112030   6.360   7.644   2.037
 4029TIP3    H212031   6.266   7.626   2.154
 4030TIP3   OH212032   1.244   5.187   5.273
 4030TIP3    H112033   1.298   5.114   5.245
 4030TIP3    H212034   1.156   5.151   5.280
 4031TIP3   OH212035   3.731   2.283   0.659
 4031TIP3    H112036   3.705   2.191   0.650
 4031TIP3    H212037   3.680   2.329   0.592
 4032TIP3   OH212038   5.815   1.493   4.135
 4032TIP3    H112039   5.820   1.398   4.122
 4032TIP3    H212040   5.896   1.527   4.097
 4033TIP3   OH212041   7.841   0.777   0.568
 4033TIP3    H112042   7.869   0.833   0.496
 4033TIP3    H212043   7.923   0.750   0.611
 4034TIP3   OH212044   1.628   0.082   4.786
 4034TIP3    H112045   1.599   0.043   4.868
 4034TIP3    H212046   1.587   0.028   4.718
 4035TIP3   OH212047   3.079   4.523   1.883
 4035TIP3    H112048   3.091   4.574   1.803
 4035TIP3    H212049   3.093   4.585   1.953
 4036TIP3   OH212050   7.576   0.272   1.811
 4036TIP3    H112051   7.669   0.256   1.822
 4036TIP3    H212052   7.569   0.368   1.808
 4037TIP3   OH212053   0.324   1.339   1.982
 4037TIP3    H112054   0.405   1.387   2.000
 4037TIP3    H212055   0.342   1.290   1.902
 4038TIP3   OH212056   3.153   1.581   6.514
 4038TIP3    H112057   3.182   1.514   6.575
 4038TIP3    H212058   3.227   1.592   6.454
 4039TIP3   OH212059   0.280   1.593   1.564
 4039TIP3    H112060   0.313   1.523   1.507
 4039TIP3    H212061   0.185   1.580   1.565
 4040TIP3   OH212062   2.075   5.409   5.393
 4040TIP3    H112063   1.983   5.411   5.366
 4040TIP3    H212064   2.084   5.483   5.453
 4041TIP3   OH212065   6.228   5.446   0.635
 4041TIP3    H112066   6.228   5.450   0.730
 4041TIP3    H212067   6.254   5.356   0.615
 4042TIP3   OH212068   5.385   0.572   6.685
 4042TIP3    H112069   5.415   0.527   6.606
 4042TIP3    H212070   5.293   0.593   6.666
 4043TIP3   OH212071   2.134   3.953   4.550
 4043TIP3    H112072   2.058   3.918   4.598
 4043TIP3    H212073   2.096   4.019   4.492
 4044TIP3   OH212074   5.741   5.486   4.461
 4044TIP3    H112075   5.708   5.399   4.442
 4044TIP3    H212076   5.725   5.498   4.555
 4045TIP3   OH212077   4.356   6.606   2.208
 4045TIP3    H112078   4.388   6.666   2.141
 4045TIP3    H212079   4.435   6.561   2.238
 4046TIP3   OH212080   3.688   4.834   1.471
 4046TIP3    H112081   3.759   4.783   1.511
 4046TIP3    H212082   3.722   4.860   1.386
 4047TIP3   OH212083   1.366   1.208   5.606
 4047TIP3    H112084   1.387   1.256   5.687
 4047TIP3    H212085   1.434   1.236   5.544
 4048TIP3   OH212086   2.755   3.477   6.420
 4048TIP3    H112087   2.690   3.410   6.398
 4048TIP3    H212088   2.838   3.439   6.394
 4049TIP3   OH212089   7.803   6.434   1.920
 4049TIP3    H112090   7.776   6.515   1.875
 4049TIP3    H212091   7.897   6.428   1.905
 4050TIP3   OH212092   2.667   0.438   0.069
 4050TIP3    H112093   2.629   0.500   0.007
 4050TIP3    H212094   2.695   0.364   0.014
 4051TIP3   OH212095   5.993   6.345   4.999
 4051TIP3    H112096   5.935   6.299   4.937
 4051TIP3    H212097   5.957   6.324   5.085
 4052TIP3   OH212098   0.089   0.660   0.712
 4052TIP3    H112099   0.011   0.645   0.766
 4052TIP3    H212100   0.144   0.584   0.729
 4053TIP3   OH212101   4.577   5.983   6.143
 4053TIP3    H112102   4.492   6.025   6.129
 4053TIP3    H212103   4.555   5.898   6.181
 4054TIP3   OH212104   5.281   7.499   6.411
 4054TIP3    H112105   5.219   7.431   6.387
 4054TIP3    H212106   5.365   7.469   6.375
 4055TIP3   OH212107   7.674   5.604   3.394
 4055TIP3    H112108   7.688   5.552   3.316
 4055TIP3    H212109   7.605   5.666   3.370
 4056TIP3   OH212110   5.662   2.291   1.883
 4056TIP3    H112111   5.678   2.341   1.803
 4056TIP3    H212112   5.619   2.211   1.852
 4057TIP3   OH212113   3.841   6.141   0.000
 4057TIP3    H112114   3.834   6.187   0.084
 4057TIP3    H212115   3.864   6.051   0.023
 4058TIP3   OH212116   7.145   1.562   0.480
 4058TIP3    H112117   7.169   1.562   0.573
 4058TIP3    H212118   7.049   1.567   0.480
 4059TIP3   OH212119   5.586   4.418   6.158
 4059TIP3    H112120   5.510   4.375   6.118
 4059TIP3    H212121   5.582   4.508   6.126
 4060TIP3   OH212122   8.172   2.445   6.397
 4060TIP3    H112123   8.129   2.515   6.347
 4060TIP3    H212124   8.264   2.473   6.402
 4061TIP3   OH212125   0.259   2.676   5.001
 4061TIP3    H112126   0.235   2.618   4.928
 4061TIP3    H212127   0.175   2.698   5.042
 4062TIP3   OH212128   5.902   2.857   4.909
 4062TIP3    H112129   5.826   2.799   4.901
 4062TIP3    H212130   5.864   2.943   4.925
 4063TIP3   OH212131   2.723   5.263   0.121
 4063TIP3    H112132   2.763   5.212   0.050
 4063TIP3    H212133   2.738   5.354   0.096
 4064TIP3   OH212134   1.190   7.064   5.578
 4064TIP3    H112135   1.111   7.056   5.632
 4064TIP3    H212136   1.159   7.051   5.488
 4065TIP3   OH212137   0.173   6.036   4.212
 4065TIP3    H112138   0.186   5.974   4.284
 4065TIP3    H212139   0.168   6.121   4.255
 4066TIP3   OH212140   0.250   1.269   3.665
 4066TIP3    H112141   0.300   1.335   3.617
 4066TIP3    H212142   0.159   1.285   3.639
 4067TIP3   OH212143   7.821   0.567   6.005
 4067TIP3    H112144   7.728   0.589   6.009
 4067TIP3    H212145   7.858   0.632   5.945
 4068TIP3   OH212146   0.270   4.851   0.472
 4068TIP3    H112147   0.349   4.861   0.418
 4068TIP3    H212148   0.301   4.863   0.562
 4069TIP3   OH212149   0.849   3.917   5.848
 4069TIP3    H112150   0.881   3.900   5.936
 4069TIP3    H212151   0.902   3.990   5.817
 4070TIP3   OH212152   1.077   3.560   2.449
 4070TIP3    H112153   1.001   3.612   2.472
 4070TIP3    H212154   1.147   3.592   2.507
 4071TIP3   OH212155   5.202   7.731   2.096
 4071TIP3    H112156   5.291   7.702   2.118
 4071TIP3    H212157   5.175   7.782   2.172
 4072TIP3   OH212158   4.157   6.359   3.775
 4072TIP3    H112159   4.234   6.414   3.786
 4072TIP3    H212160   4.157   6.302   3.852
 4073TIP3   OH212161   7.966   7.084   3.464
 4073TIP3    H112162   8.031   7.050   3.403
 4073TIP3    H212163   8.005   7.164   3.500
 4074TIP3   OH212164   2.780   4.176   4.552
 4074TIP3    H112165   2.740   4.263   4.548
 4074TIP3    H212166   2.713   4.121   4.594
 4075TIP3   OH212167   1.300   5.361   0.925
 4075TIP3    H112168   1.296   5.429   0.992
 4075TIP3    H212169   1.287   5.279   0.973
 4076TIP3   OH212170   5.531   0.276   0.192
 4076TIP3    H112171   5.610   0.223   0.181
 4076TIP3    H212172   5.513   0.312   0.105
 4077TIP3   OH212173   5.141   7.456   0.684
 4077TIP3    H112174   5.209   7.523   0.676
 4077TIP3    H212175   5.186   7.382   0.725
 4078TIP3   OH212176   4.859   0.524   1.867
 4078TIP3    H112177   4.777   0.532   1.915
 4078TIP3    H212178   4.910   0.460   1.916
 4079TIP3   OH212179  -0.004   3.028   3.274
 4079TIP3    H112180  -0.049   3.111   3.283
 4079TIP3    H212181   0.050   3.038   3.195
 4080TIP3   OH212182   1.009   7.756   5.989
 4080TIP3    H112183   1.096   7.792   5.971
 4080TIP3    H212184   0.952   7.799   5.925
 4081TIP3   OH212185   1.355   5.833   5.137
 4081TIP3    H112186   1.337   5.776   5.063
 4081TIP3    H212187   1.334   5.780   5.214
 4082TIP3   OH212188   4.511   5.725   6.221
 4082TIP3    H112189   4.546   5.647   6.178
 4082TIP3    H212190   4.428   5.743   6.175
 4083TIP3   OH212191   0.335   2.260   1.783
 4083TIP3    H112192   0.366   2.346   1.753
 4083TIP3    H212193   0.310   2.214   1.703
 4084TIP3   OH212194   1.760   2.807   1.609
 4084TIP3    H112195   1.710   2.827   1.689
 4084TIP3    H212196   1.715   2.732   1.571
 4085TIP3   OH212197   3.262   5.041   5.924
 4085TIP3    H112198   3.334   4.990   5.962
 4085TIP3    H212199   3.284   5.050   5.832
 4086TIP3   OH212200   2.818   2.610   3.825
 4086TIP3    H112201   2.731   2.593   3.790
 4086TIP3    H212202   2.871   2.536   3.796
 4087TIP3   OH212203   1.259   0.061   4.786
 4087TIP3    H112204   1.269   0.057   4.691
 4087TIP3    H212205   1.202  -0.013   4.807
 4088TIP3   OH212206   4.162   2.273   2.463
 4088TIP3    H112207   4.134   2.360   2.493
 4088TIP3    H212208   4.223   2.292   2.391
 4089TIP3   OH212209   3.878   0.685   2.761
 4089TIP3    H112210   3.861   0.777   2.778
 4089TIP3    H212211   3.808   0.639   2.808
 4090TIP3   OH212212   2.428   4.253   0.626
 4090TIP3    H112213   2.368   4.275   0.555
 4090TIP3    H212214   2.500   4.207   0.583
 4091TIP3   OH212215   7.847   0.676   6.789
 4091TIP3    H112216   7.876   0.619   6.718
 4091TIP3    H212217   7.911   0.664   6.858
 4092TIP3   OH212218   0.290   3.401   1.515
 4092TIP3    H112219   0.282   3.334   1.447
 4092TIP3    H212220   0.203   3.441   1.519
 4093TIP3   OH212221   6.426   5.142   2.073
 4093TIP3    H112222   6.399   5.052   2.088
 4093TIP3    H212223   6.437   5.179   2.161
 4094TIP3   OH212224   0.366   7.525   4.712
 4094TIP3    H112225   0.452   7.516   4.754
 4094TIP3    H212226   0.369   7.610   4.669
 4095TIP3   OH212227   7.120   7.778   3.611
 4095TIP3    H112228   7.100   7.768   3.518
 4095TIP3    H212229   7.190   7.714   3.627
 4096TIP3   OH212230   5.970   1.110   1.824
 4096TIP3    H112231   6.027   1.084   1.752
 4096TIP3    H212232   5.889   1.062   1.808
 4097TIP3   OH212233   1.065   0.483   4.760
 4097TIP3    H112234   1.054   0.401   4.809
 4097TIP3    H212235   1.013   0.547   4.809
 4098TIP3   OH212236   2.357   0.494   4.275
 4098TIP3    H112237   2.313   0.444   4.207
 4098TIP3    H212238   2.294   0.562   4.300
 4099TIP3   OH212239   0.642   0.094   1.979
 4099TIP3    H112240   0.694   0.015   1.995
 4099TIP3    H212241   0.553   0.070   2.007
 4100TIP3   OH212242   2.662   4.659   6.056
 4100TIP3    H112243   2.736   4.648   6.115
 4100TIP3    H212244   2.586   4.667   6.114
 4101TIP3   OH212245   2.318   0.569   6.658
 4101TIP3    H112246   2.407   0.548   6.631
 4101TIP3    H212247   2.323   0.657   6.694
 4102TIP3   OH212248   0.176   5.356   5.084
 4102TIP3    H112249   0.194   5.276   5.132
 4102TIP3    H212250   0.229   5.349   5.005
 4103TIP3   OH212251   5.606   2.331   1.623
 4103TIP3    H112252   5.547   2.407   1.624
 4103TIP3    H212253   5.552   2.260   1.589
 4104TIP3   OH212254   4.005   2.013   6.289
 4104TIP3    H112255   4.090   1.973   6.274
 4104TIP3    H212256   3.986   1.998   6.381
 4105TIP3   OH212257   7.368   6.707   0.850
 4105TIP3    H112258   7.458   6.686   0.825
 4105TIP3    H212259   7.348   6.646   0.921
 4106TIP3   OH212260   6.058   4.940   4.698
 4106TIP3    H112261   6.015   5.017   4.736
 4106TIP3    H212262   6.003   4.866   4.726
 4107TIP3   OH212263   1.193   0.361   6.460
 4107TIP3    H112264   1.167   0.427   6.396
 4107TIP3    H212265   1.185   0.406   6.545
 4108TIP3   OH212266   0.818   4.345   1.614
 4108TIP3    H112267   0.761   4.421   1.605
 4108TIP3    H212268   0.892   4.377   1.666
 4109TIP3   OH212269   7.669   1.217   4.960
 4109TIP3    H112270   7.578   1.242   4.944
 4109TIP3    H212271   7.694   1.167   4.882
 4110TIP3   OH212272   7.742   6.578   2.192
 4110TIP3    H112273   7.772   6.558   2.104
 4110TIP3    H212274   7.748   6.674   2.199
 4111TIP3   OH212275   6.338   0.785   0.683
 4111TIP3    H112276   6.360   0.815   0.772
 4111TIP3    H212277   6.423   0.779   0.638
 4112TIP3   OH212278   4.445   6.216   5.810
 4112TIP3    H112279   4.386   6.199   5.884
 4112TIP3    H212280   4.524   6.252   5.849
 4113TIP3   OH212281   2.008   6.407   0.389
 4113TIP3    H112282   1.920   6.408   0.427
 4113TIP3    H212283   2.010   6.328   0.335
 4114TIP3   OH212284   2.356   4.339   3.297
 4114TIP3    H112285   2.316   4.278   3.358
 4114TIP3    H212286   2.450   4.336   3.317
 4115TIP3   OH212287   2.658   2.060   1.791
 4115TIP3    H112288   2.661   2.156   1.783
 4115TIP3    H212289   2.690   2.043   1.880
 4116TIP3   OH212290   5.945   1.743   3.535
 4116TIP3    H112291   5.957   1.833   3.566
 4116TIP3    H212292   6.011   1.692   3.582
 4117TIP3   OH212293   1.045   2.180   6.163
 4117TIP3    H112294   1.025   2.244   6.231
 4117TIP3    H212295   1.133   2.202   6.134
 4118TIP3   OH212296   4.596   2.809   6.308
 4118TIP3    H112297   4.547   2.727   6.300
 4118TIP3    H212298   4.617   2.834   6.218
 4119TIP3   OH212299   3.489   7.150   5.830
 4119TIP3    H112300   3.488   7.090   5.905
 4119TIP3    H212301   3.442   7.227   5.861
 4120TIP3   OH212302   3.501   4.473   5.829
 4120TIP3    H112303   3.574   4.477   5.768
 4120TIP3    H212304   3.429   4.436   5.778
 4121TIP3   OH212305   4.899   1.325   6.532
 4121TIP3    H112306   4.914   1.384   6.457
 4121TIP3    H212307   4.987   1.300   6.560
 4122TIP3   OH212308   2.624   5.010   5.269
 4122TIP3    H112309   2.632   5.033   5.361
 4122TIP3    H212310   2.539   5.045   5.243
 4123TIP3   OH212311   1.782   0.011   3.050
 4123TIP3    H112312   1.813  -0.013   3.137
 4123TIP3    H212313   1.817   0.099   3.036
 4124TIP3   OH212314   6.238   4.873   6.639
 4124TIP3    H112315   6.173   4.842   6.576
 4124TIP3    H212316   6.292   4.796   6.656
 4125TIP3   OH212317   6.417   6.073   0.361
 4125TIP3    H112318   6.462   6.008   0.415
 4125TIP3    H212319   6.355   6.022   0.309
 4126TIP3   OH212320   7.863   5.441   2.414
 4126TIP3    H112321   7.879   5.507   2.347
 4126TIP3    H212322   7.781   5.399   2.388
 4127TIP3   OH212323   1.261   7.217   1.912
 4127TIP3    H112324   1.247   7.139   1.966
 4127TIP3    H212325   1.192   7.214   1.846
 4128TIP3   OH212326   4.239   0.249   1.616
 4128TIP3    H112327   4.198   0.163   1.630
 4128TIP3    H212328   4.269   0.247   1.526
 4129TIP3   OH212329   4.367   3.748   6.513
 4129TIP3    H112330   4.414   3.677   6.558
 4129TIP3    H212331   4.277   3.740   6.542
 4130TIP3   OH212332   0.222   7.703   3.528
 4130TIP3    H112333   0.231   7.765   3.601
 4130TIP3    H212334   0.305   7.709   3.481
 4131TIP3   OH212335   1.586   3.293   1.984
 4131TIP3    H112336   1.589   3.357   2.055
 4131TIP3    H212337   1.507   3.315   1.935
 4132TIP3   OH212338   4.179   6.677   6.676
 4132TIP3    H112339   4.248   6.703   6.737
 4132TIP3    H212340   4.097   6.703   6.719
 4133TIP3   OH212341   3.011   2.486   5.356
 4133TIP3    H112342   3.014   2.427   5.432
 4133TIP3    H212343   2.930   2.462   5.311
 4134TIP3   OH212344   1.116   5.348   4.007
 4134TIP3    H112345   1.062   5.375   3.933
 4134TIP3    H212346   1.193   5.308   3.967
 4135TIP3   OH212347   5.138   6.743   1.063
 4135TIP3    H112348   5.196   6.672   1.089
 4135TIP3    H212349   5.154   6.812   1.127
 4136TIP3   OH212350   1.930   6.295   5.467
 4136TIP3    H112351   1.967   6.209   5.448
 4136TIP3    H212352   1.895   6.326   5.384
 4137TIP3   OH212353   4.688   1.805   5.512
 4137TIP3    H112354   4.712   1.792   5.420
 4137TIP3    H212355   4.677   1.899   5.520
 4138TIP3   OH212356   7.343   7.358   4.558
 4138TIP3    H112357   7.383   7.426   4.611
 4138TIP3    H212358   7.399   7.281   4.571
 4139TIP3   OH212359   2.213   7.456   5.225
 4139TIP3    H112360   2.135   7.458   5.170
 4139TIP3    H212361   2.276   7.513   5.181
 4140TIP3   OH212362   4.135   3.109   0.309
 4140TIP3    H112363   4.056   3.076   0.265
 4140TIP3    H212364   4.207   3.069   0.261
 4141TIP3   OH212365   5.270   3.506   5.843
 4141TIP3    H112366   5.252   3.506   5.937
 4141TIP3    H212367   5.315   3.423   5.827
 4142TIP3   OH212368   5.620   5.705   0.830
 4142TIP3    H112369   5.635   5.780   0.888
 4142TIP3    H212370   5.526   5.688   0.836
 4143TIP3   OH212371   2.509   2.594   3.741
 4143TIP3    H112372   2.490   2.512   3.696
 4143TIP3    H212373   2.435   2.650   3.719
 4144TIP3   OH212374   3.058   5.905   5.635
 4144TIP3    H112375   3.025   5.995   5.637
 4144TIP3    H212376   3.017   5.866   5.557
 4145TIP3   OH212377   3.735   4.723   3.831
 4145TIP3    H112378   3.821   4.766   3.836
 4145TIP3    H212379   3.673   4.794   3.819
 4146TIP3   OH212380   1.724   3.456   1.805
 4146TIP3    H112381   1.744   3.442   1.713
 4146TIP3    H212382   1.676   3.377   1.831
 4147TIP3   OH212383   5.224   4.765   2.598
 4147TIP3    H112384   5.210   4.768   2.503
 4147TIP3    H212385   5.173   4.689   2.627
 4148TIP3   OH212386   4.465   0.225   0.469
 4148TIP3    H112387   4.373   0.244   0.448
 4148TIP3    H212388   4.510   0.308   0.453
 4149TIP3   OH212389   7.913   0.853   1.017
 4149TIP3    H112390   7.946   0.940   0.992
 4149TIP3    H212391   7.822   0.869   1.042
 4150TIP3   OH212392   4.459   4.982   0.856
 4150TIP3    H112393   4.536   5.009   0.805
 4150TIP3    H212394   4.387   4.982   0.792
 4151TIP3   OH212395   4.161   1.401   0.783
 4151TIP3    H112396   4.251   1.427   0.799
 4151TIP3    H212397   4.162   1.363   0.695
 4152TIP3   OH212398   1.742   6.833   3.448
 4152TIP3    H112399   1.778   6.786   3.373
 4152TIP3    H212400   1.803   6.813   3.520
 4153TIP3   OH212401   5.798   4.889   3.553
 4153TIP3    H112402   5.892   4.880   3.570
 4153TIP3    H212403   5.763   4.801   3.566
 4154TIP3   OH212404   3.992   0.007   1.255
 4154TIP3    H112405   3.976   0.083   1.311
 4154TIP3    H212406   4.086   0.006   1.242
 4155TIP3   OH212407   2.671   6.404   6.573
 4155TIP3    H112408   2.583   6.378   6.597
 4155TIP3    H212409   2.682   6.373   6.483
 4156TIP3   OH212410   2.626   7.573   4.145
 4156TIP3    H112411   2.710   7.601   4.182
 4156TIP3    H212412   2.581   7.654   4.124
 4157TIP3   OH212413   0.355   7.074   1.790
 4157TIP3    H112414   0.341   7.135   1.717
 4157TIP3    H212415   0.377   6.991   1.748
 4158TIP3   OH212416   2.382   7.708   4.062
 4158TIP3    H112417   2.368   7.802   4.067
 4158TIP3    H212418   2.337   7.673   4.140
 4159TIP3   OH212419   2.420   1.570   6.591
 4159TIP3    H112420   2.403   1.664   6.591
 4159TIP3    H212421   2.510   1.562   6.622
 4160TIP3   OH212422   6.522   2.949   5.677
 4160TIP3    H112423   6.527   3.045   5.681
 4160TIP3    H212424   6.435   2.928   5.710
 4161TIP3   OH212425   4.800   2.568   3.635
 4161TIP3    H112426   4.819   2.475   3.639
 4161TIP3    H212427   4.834   2.603   3.717
 4162TIP3   OH212428   5.597   5.390   5.854
 4162TIP3    H112429   5.647   5.367   5.932
 4162TIP3    H212430   5.561   5.307   5.822
 4163TIP3   OH212431   0.761   5.424   2.430
 4163TIP3    H112432   0.828   5.356   2.430
 4163TIP3    H212433   0.771   5.468   2.514
 4164TIP3   OH212434   0.227   7.081   5.163
 4164TIP3    H112435   0.227   7.079   5.258
 4164TIP3    H212436   0.304   7.029   5.138
 4165TIP3   OH212437   8.224   1.062   5.136
 4165TIP3    H112438   8.140   1.043   5.177
 4165TIP3    H212439   8.202   1.104   5.053
 4166TIP3   OH212440   5.606   0.689   1.185
 4166TIP3    H112441   5.516   0.712   1.161
 4166TIP3    H212442   5.659   0.719   1.112
 4167TIP3   OH212443   0.286   2.799   2.705
 4167TIP3    H112444   0.355   2.769   2.764
 4167TIP3    H212445   0.205   2.787   2.754
 4168TIP3   OH212446   1.924   0.069   3.731
 4168TIP3    H112447   1.847   0.120   3.756
 4168TIP3    H212448   1.979   0.068   3.809
 4169TIP3   OH212449   6.503   4.264   1.029
 4169TIP3    H112450   6.595   4.265   1.055
 4169TIP3    H212451   6.461   4.209   1.094
 4170TIP3   OH212452   5.545   5.354   0.172
 4170TIP3    H112453   5.597   5.285   0.213
 4170TIP3    H212454   5.536   5.420   0.240
 4171TIP3   OH212455   4.391   3.698   1.188
 4171TIP3    H112456   4.469   3.740   1.224
 4171TIP3    H212457   4.345   3.664   1.264
 4172TIP3   OH212458   5.516   7.722   4.108
 4172TIP3    H112459   5.568   7.699   4.185
 4172TIP3    H212460   5.441   7.771   4.143
 4173TIP3   OH212461   3.802   6.092   6.077
 4173TIP3    H112462   3.839   6.154   6.141
 4173TIP3    H212463   3.711   6.081   6.104
 4174TIP3   OH212464   1.471   7.734   3.054
 4174TIP3    H112465   1.431   7.685   3.127
 4174TIP3    H212466   1.535   7.791   3.096
 4175TIP3   OH212467   1.604   6.258   4.593
 4175TIP3    H112468   1.685   6.249   4.644
 4175TIP3    H212469   1.571   6.169   4.585
 4176TIP3   OH212470   7.326   6.767   1.738
 4176TIP3    H112471   7.342   6.839   1.799
 4176TIP3    H212472   7.313   6.810   1.654
 4177TIP3   OH212473   4.692   6.588   6.774
 4177TIP3    H112474   4.628   6.625   6.715
 4177TIP3    H212475   4.777   6.615   6.738
 4178TIP3   OH212476   6.548   4.142   6.217
 4178TIP3    H112477   6.571   4.203   6.286
 4178TIP3    H212478   6.456   4.160   6.198
 4179TIP3   OH212479   1.479   5.143   2.086
 4179TIP3    H112480   1.513   5.202   2.019
 4179TIP3    H212481   1.398   5.109   2.049
 4180TIP3   OH212482   2.718   4.653   1.027
 4180TIP3    H112483   2.658   4.629   1.098
 4180TIP3    H212484   2.784   4.584   1.026
 4181TIP3   OH212485   4.840   4.267   1.499
 4181TIP3    H112486   4.902   4.289   1.569
 4181TIP3    H212487   4.863   4.326   1.427
 4182TIP3   OH212488   7.469   4.322   2.872
 4182TIP3    H112489   7.469   4.256   2.803
 4182TIP3    H212490   7.562   4.340   2.888
 4183TIP3   OH212491   1.993   5.780   6.328
 4183TIP3    H112492   2.013   5.816   6.414
 4183TIP3    H212493   1.898   5.788   6.320
 4184TIP3   OH212494   1.223   1.905   0.235
 4184TIP3    H112495   1.163   1.972   0.203
 4184TIP3    H212496   1.310   1.938   0.215
 4185TIP3   OH212497   4.952   1.483   3.842
 4185TIP3    H112498   4.902   1.410   3.806
 4185TIP3    H212499   5.018   1.443   3.898
 4186TIP3   OH212500   2.208   5.797   3.364
 4186TIP3    H112501   2.290   5.847   3.365
 4186TIP3    H212502   2.205   5.757   3.277
 4187TIP3   OH212503   3.238   4.484   4.107
 4187TIP3    H112504   3.316   4.463   4.158
 4187TIP3    H212505   3.167   4.436   4.151
 4188TIP3   OH212506   8.101   2.850   6.018
 4188TIP3    H112507   8.087   2.852   5.923
 4188TIP3    H212508   8.192   2.875   6.030
 4189TIP3   OH212509   3.534   6.801   5.754
 4189TIP3    H112510   3.518   6.772   5.664
 4189TIP3    H212511   3.449   6.793   5.796
 4190TIP3   OH212512   7.743   2.560   4.949
 4190TIP3    H112513   7.829   2.536   4.984
 4190TIP3    H212514   7.733   2.653   4.972
 4191TIP3   OH212515   6.056   2.783   5.362
 4191TIP3    H112516   6.089   2.746   5.281
 4191TIP3    H212517   6.134   2.813   5.408
 4192TIP3   OH212518   7.638   6.267   2.073
 4192TIP3    H112519   7.691   6.330   2.023
 4192TIP3    H212520   7.673   6.182   2.048
 4193TIP3   OH212521   1.341   4.431   0.800
 4193TIP3    H112522   1.322   4.368   0.729
 4193TIP3    H212523   1.263   4.428   0.856
 4194TIP3   OH212524   6.620   4.769   0.409
 4194TIP3    H112525   6.602   4.856   0.372
 4194TIP3    H212526   6.599   4.708   0.338
 4195TIP3   OH212527   5.816   1.131   2.138
 4195TIP3    H112528   5.892   1.188   2.153
 4195TIP3    H212529   5.741   1.190   2.143
 4196TIP3   OH212530   1.463   5.502   1.618
 4196TIP3    H112531   1.491   5.562   1.688
 4196TIP3    H212532   1.466   5.555   1.539
 4197TIP3   OH212533   4.080   4.288   2.492
 4197TIP3    H112534   4.110   4.297   2.582
 4197TIP3    H212535   4.002   4.343   2.487
 4198TIP3   OH212536   1.828   2.440   0.353
 4198TIP3    H112537   1.790   2.410   0.270
 4198TIP3    H212538   1.790   2.527   0.367
 4199TIP3   OH212539   2.621   1.707   6.259
 4199TIP3    H112540   2.601   1.800   6.266
 4199TIP3    H212541   2.690   1.702   6.192
 4200TIP3   OH212542   5.596  -0.011   3.819
 4200TIP3    H112543   5.576  -0.031   3.911
 4200TIP3    H212544   5.639   0.075   3.822
 4201TIP3   OH212545   0.081   3.359   5.365
 4201TIP3    H112546   0.121   3.409   5.436
 4201TIP3    H212547   0.154   3.314   5.322
 4202TIP3   OH212548   8.237   0.103   4.358
 4202TIP3    H112549   8.232   0.080   4.451
 4202TIP3    H212550   8.292   0.182   4.356
 4203TIP3   OH212551   7.455   0.975   4.427
 4203TIP3    H112552   7.422   1.048   4.375
 4203TIP3    H212553   7.525   0.937   4.373
 4204TIP3   OH212554   8.026   1.195   2.904
 4204TIP3    H112555   8.104   1.240   2.936
 4204TIP3    H212556   8.057   1.107   2.879
 4205TIP3   OH212557   0.744   3.367   0.060
 4205TIP3    H112558   0.713   3.296   0.003
 4205TIP3    H212559   0.818   3.330   0.107
 4206TIP3   OH212560   2.004   6.733   4.104
 4206TIP3    H112561   1.955   6.753   4.024
 4206TIP3    H212562   2.093   6.716   4.073
 4207TIP3   OH212563   0.972   4.238   6.702
 4207TIP3    H112564   0.929   4.316   6.737
 4207TIP3    H212565   1.018   4.269   6.624
 4208TIP3   OH212566   4.902   7.355   4.035
 4208TIP3    H112567   4.924   7.431   3.980
 4208TIP3    H212568   4.812   7.334   4.011
 4209TIP3   OH212569   4.725   6.930   5.621
 4209TIP3    H112570   4.665   6.908   5.550
 4209TIP3    H212571   4.715   7.025   5.633
 4210TIP3   OH212572   2.200   4.547   4.621
 4210TIP3    H112573   2.275   4.504   4.581
 4210TIP3    H212574   2.130   4.538   4.556
 4211TIP3   OH212575   7.656   5.793   2.307
 4211TIP3    H112576   7.599   5.756   2.375
 4211TIP3    H212577   7.730   5.733   2.303
 4212TIP3   OH212578   5.608   2.432   2.319
 4212TIP3    H112579   5.637   2.345   2.291
 4212TIP3    H212580   5.516   2.420   2.343
 4213TIP3   OH212581   6.060   3.920   4.673
 4213TIP3    H112582   6.008   3.984   4.722
 4213TIP3    H212583   5.995   3.865   4.629
 4214TIP3   OH212584   4.683   5.825   6.747
 4214TIP3    H112585   4.698   5.731   6.745
 4214TIP3    H212586   4.588   5.836   6.740
 4215TIP3   OH212587   3.882   0.330   5.116
 4215TIP3    H112588   3.852   0.415   5.083
 4215TIP3    H212589   3.809   0.298   5.169
 4216TIP3   OH212590   8.198   2.025   5.436
 4216TIP3    H112591   8.287   1.991   5.430
 4216TIP3    H212592   8.195   2.095   5.371
 4217TIP3   OH212593   3.888   2.913   4.248
 4217TIP3    H112594   3.811   2.968   4.258
 4217TIP3    H212595   3.860   2.843   4.190
 4218TIP3   OH212596   5.671   7.253   0.563
 4218TIP3    H112597   5.619   7.330   0.586
 4218TIP3    H212598   5.622   7.180   0.600
 4219TIP3   OH212599   5.303   6.349   5.654
 4219TIP3    H112600   5.366   6.413   5.684
 4219TIP3    H212601   5.355   6.282   5.609
 4220TIP3   OH212602   7.103   2.034   6.808
 4220TIP3    H112603   7.058   1.970   6.753
 4220TIP3    H212604   7.196   2.012   6.800
 4221TIP3   OH212605   0.621   4.738   6.357
 4221TIP3    H112606   0.580   4.754   6.442
 4221TIP3    H212607   0.671   4.819   6.340
 4222TIP3   OH212608   1.986   5.601   0.847
 4222TIP3    H112609   1.913   5.640   0.800
 4222TIP3    H212610   1.950   5.575   0.931
 4223TIP3   OH212611   7.122   1.142   6.272
 4223TIP3    H112612   7.101   1.220   6.222
 4223TIP3    H212613   7.076   1.071   6.227
 4224TIP3   OH212614   0.157   0.293   4.244
 4224TIP3    H112615   0.227   0.228   4.259
 4224TIP3    H212616   0.204   0.375   4.230
 4225TIP3   OH212617   3.613   2.117   0.311
 4225TIP3    H112618   3.699   2.150   0.284
 4225TIP3    H212619   3.602   2.149   0.400
 4226TIP3   OH212620   3.969   0.743   3.528
 4226TIP3    H112621   3.969   0.781   3.440
 4226TIP3    H212622   3.944   0.815   3.586
 4227TIP3   OH212623   6.845   4.385   5.280
 4227TIP3    H112624   6.793   4.465   5.274
 4227TIP3    H212625   6.856   4.356   5.189
 4228TIP3   OH212626   1.276   6.652   5.875
 4228TIP3    H112627   1.266   6.742   5.843
 4228TIP3    H212628   1.354   6.619   5.831
 4229TIP3   OH212629   2.695   6.892   1.394
 4229TIP3    H112630   2.761   6.823   1.387
 4229TIP3    H212631   2.740   6.963   1.439
 4230TIP3   OH212632   7.902   3.623   5.662
 4230TIP3    H112633   7.879   3.559   5.729
 4230TIP3    H212634   7.915   3.705   5.710
 4231TIP3   OH212635   1.077   3.722   6.264
 4231TIP3    H112636   1.169   3.711   6.288
 4231TIP3    H212637   1.057   3.645   6.211
 4232TIP3   OH212638   4.846   6.525   2.184
 4232TIP3    H112639   4.863   6.445   2.234
 4232TIP3    H212640   4.751   6.537   2.188
 4233TIP3   OH212641   5.010   0.508   2.942
 4233TIP3    H112642   4.936   0.569   2.950
 4233TIP3    H212643   4.977   0.426   2.977
 4234TIP3   OH212644   1.096   2.856   0.489
 4234TIP3    H112645   1.159   2.828   0.555
 4234TIP3    H212646   1.132   2.938   0.454
 4235TIP3   OH212647   6.014   6.142   0.615
 4235TIP3    H112648   6.067   6.202   0.563
 4235TIP3    H212649   6.054   6.056   0.602
 4236TIP3   OH212650   5.415   5.501   4.122
 4236TIP3    H112651   5.324   5.513   4.096
 4236TIP3    H212652   5.466   5.552   4.059
 4237TIP3   OH212653   0.195   5.464   2.952
 4237TIP3    H112654   0.247   5.383   2.956
 4237TIP3    H212655   0.203   5.501   3.040
 4238TIP3   OH212656   1.127   6.602   2.212
 4238TIP3    H112657   1.078   6.626   2.133
 4238TIP3    H212658   1.060   6.581   2.277
 4239TIP3   OH212659   0.706   0.159   5.588
 4239TIP3    H112660   0.739   0.153   5.498
 4239TIP3    H212661   0.772   0.115   5.641
 4240TIP3   OH212662   4.884   1.567   6.250
 4240TIP3    H112663   4.896   1.662   6.245
 4240TIP3    H212664   4.962   1.531   6.208
 4241TIP3   OH212665   1.297   6.874   0.609
 4241TIP3    H112666   1.322   6.915   0.527
 4241TIP3    H212667   1.207   6.843   0.594
 4242TIP3   OH212668   6.346   1.469   1.378
 4242TIP3    H112669   6.427   1.515   1.400
 4242TIP3    H212670   6.366   1.377   1.395
 4243TIP3   OH212671   2.393   7.786   3.423
 4243TIP3    H112672   2.305   7.753   3.438
 4243TIP3    H212673   2.448   7.707   3.421
 4244TIP3   OH212674   4.754   6.066   5.095
 4244TIP3    H112675   4.767   6.117   5.016
 4244TIP3    H212676   4.719   6.128   5.159
 4245TIP3   OH212677   2.295   0.464   4.976
 4245TIP3    H112678   2.354   0.462   5.052
 4245TIP3    H212679   2.294   0.373   4.945
 4246TIP3   OH212680   0.985   6.760   6.064
 4246TIP3    H112681   0.996   6.665   6.070
 4246TIP3    H212682   0.960   6.788   6.152
 4247TIP3   OH212683   1.586   3.638   5.804
 4247TIP3    H112684   1.603   3.693   5.881
 4247TIP3    H212685   1.495   3.657   5.781
 4248TIP3   OH212686   7.300   7.311   0.301
 4248TIP3    H112687   7.221   7.345   0.259
 4248TIP3    H212688   7.321   7.232   0.250
 4249TIP3   OH212689   2.383   5.598   6.141
 4249TIP3    H112690   2.463   5.607   6.193
 4249TIP3    H212691   2.325   5.666   6.174
 4250TIP3   OH212692   7.227   5.555   6.532
 4250TIP3    H112693   7.211   5.483   6.471
 4250TIP3    H212694   7.146   5.562   6.583
 4251TIP3   OH212695   2.791   0.035   0.072
 4251TIP3    H112696   2.817  -0.020  -0.002
 4251TIP3    H212697   2.855   0.106   0.073
 4252TIP3   OH212698   1.744   0.823   2.260
 4252TIP3    H112699   1.795   0.866   2.328
 4252TIP3    H212700   1.665   0.876   2.252
 4253TIP3   OH212701   6.893   7.569   5.010
 4253TIP3    H112702   6.894   7.474   4.998
 4253TIP3    H212703   6.804   7.588   5.042
 4254TIP3   OH212704   6.160   5.506   1.764
 4254TIP3    H112705   6.242   5.530   1.721
 4254TIP3    H212706   6.164   5.411   1.773
 4255TIP3   OH212707   4.633   3.329   0.064
 4255TIP3    H112708   4.603   3.288   0.145
 4255TIP3    H212709   4.709   3.382   0.091
 4256TIP3   OH212710   1.995   5.740   0.215
 4256TIP3    H112711   1.908   5.746   0.176
 4256TIP3    H212712   1.998   5.652   0.253
 4257TIP3   OH212713   2.571   4.415   1.470
 4257TIP3    H112714   2.556   4.440   1.561
 4257TIP3    H212715   2.655   4.368   1.472
 4258TIP3   OH212716   4.712   4.555   0.915
 4258TIP3    H112717   4.772   4.481   0.921
 4258TIP3    H212718   4.709   4.591   1.003
 4259TIP3   OH212719   7.721   0.175   0.609
 4259TIP3    H112720   7.630   0.154   0.631
 4259TIP3    H212721   7.772   0.108   0.654
 4260TIP3   OH212722   2.763   6.806   3.803
 4260TIP3    H112723   2.721   6.871   3.860
 4260TIP3    H212724   2.807   6.746   3.863
 4261TIP3   OH212725   0.950   1.090   4.128
 4261TIP3    H112726   0.893   1.147   4.180
 4261TIP3    H212727   1.033   1.090   4.175
 4262TIP3   OH212728   6.883   7.481   4.736
 4262TIP3    H112729   6.859   7.537   4.810
 4262TIP3    H212730   6.803   7.432   4.716
 4263TIP3   OH212731   4.358   7.581   0.673
 4263TIP3    H112732   4.431   7.530   0.637
 4263TIP3    H212733   4.280   7.532   0.647
 4264TIP3   OH212734   4.694   0.517   1.617
 4264TIP3    H112735   4.659   0.430   1.638
 4264TIP3    H212736   4.772   0.526   1.673
 4265TIP3   OH212737   6.208   3.977   1.478
 4265TIP3    H112738   6.170   4.008   1.396
 4265TIP3    H212739   6.136   3.978   1.540
 4266TIP3   OH212740   3.499   7.459   5.483
 4266TIP3    H112741   3.546   7.484   5.562
 4266TIP3    H212742   3.567   7.436   5.420
 4267TIP3   OH212743   3.879   2.139   0.320
 4267TIP3    H112744   3.942   2.148   0.391
 4267TIP3    H212745   3.921   2.080   0.258
 4268TIP3   OH212746   1.244   0.506   3.016
 4268TIP3    H112747   1.229   0.469   2.929
 4268TIP3    H212748   1.270   0.596   2.999
 4269TIP3   OH212749   3.854   1.511   5.104
 4269TIP3    H112750   3.870   1.427   5.060
 4269TIP3    H212751   3.937   1.533   5.144
 4270TIP3   OH212752   4.412   6.112   0.436
 4270TIP3    H112753   4.502   6.123   0.406
 4270TIP3    H212754   4.383   6.030   0.397
 4271TIP3   OH212755   3.977   2.623   6.535
 4271TIP3    H112756   3.984   2.528   6.541
 4271TIP3    H212757   3.995   2.654   6.623
 4272TIP3   OH212758   4.819   1.121   4.173
 4272TIP3    H112759   4.882   1.051   4.158
 4272TIP3    H212760   4.747   1.079   4.220
 4273TIP3   OH212761   6.392   3.290   3.148
 4273TIP3    H112762   6.310   3.259   3.110
 4273TIP3    H212763   6.421   3.360   3.089
 4274TIP3   OH212764   3.113   0.172   4.257
 4274TIP3    H112765   3.035   0.117   4.271
 4274TIP3    H212766   3.111   0.192   4.163
 4275TIP3   OH212767   0.251   3.129   6.713
 4275TIP3    H112768   0.167   3.095   6.745
 4275TIP3    H212769   0.226   3.195   6.648
 4276TIP3   OH212770   4.185   1.690   0.610
 4276TIP3    H112771   4.090   1.678   0.622
 4276TIP3    H212772   4.213   1.734   0.690
 4277TIP3   OH212773   6.202   5.980   3.622
 4277TIP3    H112774   6.148   5.996   3.545
 4277TIP3    H212775   6.259   6.057   3.626
 4278TIP3   OH212776   6.269   4.766   6.032
 4278TIP3    H112777   6.196   4.806   6.079
 4278TIP3    H212778   6.282   4.823   5.956
 4279TIP3   OH212779   6.584   6.266   4.951
 4279TIP3    H112780   6.570   6.222   5.035
 4279TIP3    H212781   6.635   6.344   4.973
 4280TIP3   OH212782   7.692   3.060   3.650
 4280TIP3    H112783   7.727   3.148   3.635
 4280TIP3    H212784   7.770   3.004   3.653
 4281TIP3   OH212785   4.451   3.937   3.684
 4281TIP3    H112786   4.515   4.005   3.661
 4281TIP3    H212787   4.416   3.965   3.768
 4282TIP3   OH212788   0.910   2.464   1.008
 4282TIP3    H112789   0.995   2.430   0.980
 4282TIP3    H212790   0.884   2.406   1.080
 4283TIP3   OH212791   7.048   1.250   5.000
 4283TIP3    H112792   7.104   1.305   5.054
 4283TIP3    H212793   6.991   1.312   4.954
 4284TIP3   OH212794   7.469   7.531   0.793
 4284TIP3    H112795   7.465   7.560   0.885
 4284TIP3    H212796   7.385   7.488   0.778
 4285TIP3   OH212797   6.547   2.499   6.079
 4285TIP3    H112798   6.582   2.532   6.163
 4285TIP3    H212799   6.528   2.407   6.096
 4286TIP3   OH212800   3.170   0.962   6.526
 4286TIP3    H112801   3.117   0.933   6.451
 4286TIP3    H212802   3.144   1.053   6.539
 4287TIP3   OH212803   8.210   5.198   3.653
 4287TIP3    H112804   8.205   5.103   3.665
 4287TIP3    H212805   8.299   5.221   3.678
 4288TIP3   OH212806   4.919   1.658   6.568
 4288TIP3    H112807   4.911   1.576   6.616
 4288TIP3    H212808   4.978   1.638   6.496
 4289TIP3   OH212809   3.601   1.956   3.124
 4289TIP3    H112810   3.635   1.875   3.163
 4289TIP3    H212811   3.646   2.026   3.170
 4290TIP3   OH212812   3.784   5.679   3.217
 4290TIP3    H112813   3.867   5.686   3.171
 4290TIP3    H212814   3.794   5.735   3.294
 4291TIP3   OH212815   2.474   0.959   3.849
 4291TIP3    H112816   2.444   0.877   3.889
 4291TIP3    H212817   2.449   1.027   3.911
 4292TIP3   OH212818   2.241   7.184   0.583
 4292TIP3    H112819   2.261   7.095   0.614
 4292TIP3    H212820   2.153   7.201   0.615
 4293TIP3   OH212821   3.490   2.324   5.779
 4293TIP3    H112822   3.406   2.352   5.743
 4293TIP3    H212823   3.549   2.323   5.704
 4294TIP3   OH212824   2.110   4.642   2.562
 4294TIP3    H112825   2.113   4.596   2.478
 4294TIP3    H212826   2.190   4.695   2.564
 4295TIP3   OH212827   4.432   2.679   5.675
 4295TIP3    H112828   4.366   2.748   5.681
 4295TIP3    H212829   4.449   2.655   5.766
 4296TIP3   OH212830   0.984   1.273   5.866
 4296TIP3    H112831   1.051   1.268   5.934
 4296TIP3    H212832   1.009   1.207   5.801
 4297TIP3   OH212833   2.663   7.154   4.204
 4297TIP3    H112834   2.646   7.060   4.195
 4297TIP3    H212835   2.757   7.159   4.223
 4298TIP3   OH212836   2.717   5.150   5.833
 4298TIP3    H112837   2.714   5.245   5.822
 4298TIP3    H212838   2.642   5.129   5.887
 4299TIP3   OH212839   4.758   4.592   4.371
 4299TIP3    H112840   4.826   4.527   4.386
 4299TIP3    H212841   4.676   4.542   4.374
 4300TIP3   OH212842   2.643   5.079   3.497
 4300TIP3    H112843   2.714   5.077   3.560
 4300TIP3    H212844   2.585   5.148   3.528
 4301TIP3   OH212845   6.236   4.882   3.458
 4301TIP3    H112846   6.172   4.838   3.514
 4301TIP3    H212847   6.289   4.811   3.422
 4302TIP3   OH212848   2.573   7.483   0.050
 4302TIP3    H112849   2.581   7.445  -0.037
 4302TIP3    H212850   2.567   7.408   0.109
 4303TIP3   OH212851   4.920   5.393   0.470
 4303TIP3    H112852   5.013   5.418   0.470
 4303TIP3    H212853   4.885   5.430   0.389
 4304TIP3   OH212854   5.036   7.134   5.862
 4304TIP3    H112855   5.035   7.229   5.862
 4304TIP3    H212856   4.951   7.109   5.825
 4305TIP3   OH212857   2.693   2.439   5.860
 4305TIP3    H112858   2.674   2.346   5.848
 4305TIP3    H212859   2.715   2.447   5.953
 4306TIP3   OH212860   5.357   2.199   5.388
 4306TIP3    H112861   5.423   2.223   5.323
 4306TIP3    H212862   5.405   2.145   5.452
 4307TIP3   OH212863   2.663   1.946   4.133
 4307TIP3    H112864   2.683   2.036   4.105
 4307TIP3    H212865   2.684   1.892   4.057
 4308TIP3   OH212866   7.509   6.499   2.591
 4308TIP3    H112867   7.558   6.470   2.668
 4308TIP3    H212868   7.538   6.439   2.521
 4309TIP3   OH212869   1.203   0.103   0.440
 4309TIP3    H112870   1.187   0.102   0.535
 4309TIP3    H212871   1.255   0.024   0.424
 4310TIP3   OH212872   0.652   6.912   0.977
 4310TIP3    H112873   0.723   6.941   0.919
 4310TIP3    H212874   0.633   6.988   1.031
 4311TIP3   OH212875   2.065   0.105   0.715
 4311TIP3    H112876   2.106   0.110   0.801
 4311TIP3    H212877   2.135   0.128   0.653
 4312TIP3   OH212878   7.673   3.912   3.166
 4312TIP3    H112879   7.591   3.911   3.216
 4312TIP3    H212880   7.694   4.005   3.158
 4313TIP3   OH212881   4.472   0.870   2.009
 4313TIP3    H112882   4.411   0.883   1.936
 4313TIP3    H212883   4.436   0.795   2.057
 4314TIP3   OH212884   5.744   3.808   6.705
 4314TIP3    H112885   5.820   3.862   6.685
 4314TIP3    H212886   5.773   3.750   6.775
 4315TIP3   OH212887   6.286   7.158   0.459
 4315TIP3    H112888   6.275   7.252   0.448
 4315TIP3    H212889   6.360   7.135   0.403
 4316TIP3   OH212890   5.414   6.445   1.836
 4316TIP3    H112891   5.352   6.501   1.883
 4316TIP3    H212892   5.496   6.456   1.884
 4317TIP3   OH212893   3.436   0.429   5.966
 4317TIP3    H112894   3.486   0.367   6.020
 4317TIP3    H212895   3.408   0.496   6.028
 4318TIP3   OH212896   3.587   1.968   6.271
 4318TIP3    H112897   3.570   1.974   6.365
 4318TIP3    H212898   3.505   1.996   6.230
 4319TIP3   OH212899   6.656   3.906   3.864
 4319TIP3    H112900   6.709   3.870   3.936
 4319TIP3    H212901   6.718   3.920   3.793
 4320TIP3   OH212902   4.684   2.437   5.104
 4320TIP3    H112903   4.668   2.492   5.027
 4320TIP3    H212904   4.711   2.352   5.068
 4321TIP3   OH212905   3.897   0.319   4.731
 4321TIP3    H112906   3.890   0.414   4.720
 4321TIP3    H212907   3.835   0.298   4.802
 4322TIP3   OH212908   6.878   0.388   5.268
 4322TIP3    H112909   6.915   0.443   5.338
 4322TIP3    H212910   6.817   0.330   5.314
 4323TIP3   OH212911   3.184   7.531   5.357
 4323TIP3    H112912   3.208   7.497   5.271
 4323TIP3    H212913   3.099   7.571   5.345
 4324TIP3   OH212914   1.320   0.884   0.541
 4324TIP3    H112915   1.396   0.827   0.553
 4324TIP3    H212916   1.327   0.950   0.609
 4325TIP3   OH212917   2.220   4.060   6.456
 4325TIP3    H112918   2.237   4.006   6.534
 4325TIP3    H212919   2.298   4.047   6.401
 4326TIP3   OH212920   2.982   5.430   1.778
 4326TIP3    H112921   3.073   5.439   1.806
 4326TIP3    H212922   2.958   5.340   1.803
 4327TIP3   OH212923   4.839   0.934   2.791
 4327TIP3    H112924   4.835   0.879   2.869
 4327TIP3    H212925   4.913   0.992   2.805
 4328TIP3   OH212926   1.290   6.299   4.775
 4328TIP3    H112927   1.316   6.327   4.687
 4328TIP3    H212928   1.347   6.224   4.793
 4329TIP3   OH212929   0.494   1.590   1.997
 4329TIP3    H112930   0.501   1.637   1.914
 4329TIP3    H212931   0.406   1.611   2.029
 4330TIP3   OH212932   7.809   7.770   4.899
 4330TIP3    H112933   7.840   7.700   4.957
 4330TIP3    H212934   7.799   7.727   4.814
 4331TIP3   OH212935   2.256   2.132   6.254
 4331TIP3    H112936   2.289   2.116   6.165
 4331TIP3    H212937   2.175   2.181   6.240
 4332TIP3   OH212938   0.856   6.134   2.892
 4332TIP3    H112939   0.934   6.102   2.937
 4332TIP3    H212940   0.784   6.120   2.954
 4333TIP3   OH212941   6.122   0.417   2.266
 4333TIP3    H112942   6.118   0.506   2.232
 4333TIP3    H212943   6.206   0.383   2.234
 4334TIP3   OH212944   8.095   6.800   4.211
 4334TIP3    H112945   8.119   6.722   4.261
 4334TIP3    H212946   8.048   6.855   4.274
 4335TIP3   OH212947   6.506   5.793   5.610
 4335TIP3    H112948   6.499   5.881   5.647
 4335TIP3    H212949   6.425   5.749   5.636
 4336TIP3   OH212950   8.271   6.939   5.830
 4336TIP3    H112951   8.355   6.919   5.872
 4336TIP3    H212952   8.238   7.014   5.879
 4337TIP3   OH212953   2.492   5.775   2.061
 4337TIP3    H112954   2.452   5.699   2.021
 4337TIP3    H212955   2.459   5.849   2.010
 4338TIP3   OH212956   7.792   3.136   4.955
 4338TIP3    H112957   7.822   3.119   4.866
 4338TIP3    H212958   7.867   3.112   5.011
 4339TIP3   OH212959   6.785   2.990   3.755
 4339TIP3    H112960   6.744   3.032   3.679
 4339TIP3    H212961   6.873   3.027   3.759
 4340TIP3   OH212962   0.215   6.876   2.266
 4340TIP3    H112963   0.307   6.897   2.279
 4340TIP3    H212964   0.173   6.898   2.350
 4341TIP3   OH212965   7.240   1.153   1.879
 4341TIP3    H112966   7.335   1.152   1.862
 4341TIP3    H212967   7.232   1.128   1.971
 4342TIP3   OH212968   2.729   4.100   1.656
 4342TIP3    H112969   2.654   4.109   1.714
 4342TIP3    H212970   2.765   4.013   1.676
 4343TIP3   OH212971   6.877   2.545   5.985
 4343TIP3    H112972   6.922   2.606   6.043
 4343TIP3    H212973   6.805   2.596   5.947
 4344TIP3   OH212974   2.867   4.914   1.085
 4344TIP3    H112975   2.913   4.899   1.002
 4344TIP3    H212976   2.845   4.826   1.116
 4345TIP3   OH212977   4.263   2.007   2.874
 4345TIP3    H112978   4.306   2.058   2.806
 4345TIP3    H212979   4.334   1.957   2.916
 4346TIP3   OH212980   2.058   6.223   2.030
 4346TIP3    H112981   2.015   6.141   2.056
 4346TIP3    H212982   2.090   6.260   2.112
 4347TIP3   OH212983   7.239   2.394   5.595
 4347TIP3    H112984   7.281   2.439   5.523
 4347TIP3    H212985   7.311   2.365   5.651
 4348TIP3   OH212986   6.858   5.380   4.658
 4348TIP3    H112987   6.882   5.292   4.686
 4348TIP3    H212988   6.935   5.433   4.680
 4349TIP3   OH212989   3.678   5.242   1.010
 4349TIP3    H112990   3.724   5.323   0.989
 4349TIP3    H212991   3.747   5.182   1.039
 4350TIP3   OH212992   1.863   5.147   1.782
 4350TIP3    H112993   1.890   5.096   1.859
 4350TIP3    H212994   1.933   5.134   1.718
 4351TIP3   OH212995   5.912   0.354   1.833
 4351TIP3    H112996   5.824   0.317   1.833
 4351TIP3    H212997   5.968   0.285   1.867
 4352TIP3   OH212998   5.164   5.491   0.406
 4352TIP3    H112999   5.242   5.537   0.437
 4352TIP3    H213000   5.161   5.510   0.312
 4353TIP3   OH213001   6.852   2.918   0.133
 4353TIP3    H113002   6.760   2.890   0.132
 4353TIP3    H213003   6.901   2.839   0.107
 4354TIP3   OH213004   2.662   3.653   2.468
 4354TIP3    H113005   2.720   3.720   2.503
 4354TIP3    H213006   2.702   3.626   2.385
 4355TIP3   OH213007   3.486   5.338   1.782
 4355TIP3    H113008   3.530   5.422   1.770
 4355TIP3    H213009   3.545   5.275   1.741
 4356TIP3   OH213010   4.485   6.239   2.352
 4356TIP3    H113011   4.477   6.231   2.447
 4356TIP3    H213012   4.421   6.176   2.318
 4357TIP3   OH213013   1.032   0.136   1.834
 4357TIP3    H113014   1.034   0.041   1.827
 4357TIP3    H213015   1.095   0.157   1.902
 4358TIP3   OH213016   7.518   6.353   5.714
 4358TIP3    H113017   7.599   6.393   5.746
 4358TIP3    H213018   7.522   6.263   5.748
 4359TIP3   OH213019   3.856   4.663   3.501
 4359TIP3    H113020   3.790   4.617   3.553
 4359TIP3    H213021   3.819   4.751   3.487
 4360TIP3   OH213022   3.921   5.647   0.230
 4360TIP3    H113023   4.016   5.642   0.221
 4360TIP3    H213024   3.896   5.562   0.266
 4361TIP3   OH213025   5.070   2.333   2.059
 4361TIP3    H113026   5.105   2.255   2.100
 4361TIP3    H213027   4.992   2.302   2.012
 4362TIP3   OH213028   0.340   0.556   3.209
 4362TIP3    H113029   0.301   0.635   3.246
 4362TIP3    H213030   0.434   0.575   3.206
 4363TIP3   OH213031   8.078   1.697   6.325
 4363TIP3    H113032   8.007   1.734   6.377
 4363TIP3    H213033   8.115   1.772   6.278
 4364TIP3   OH213034   5.329   7.589   4.490
 4364TIP3    H113035   5.402   7.636   4.448
 4364TIP3    H213036   5.261   7.585   4.422
 4365TIP3   OH213037   2.747   1.666   4.983
 4365TIP3    H113038   2.664   1.714   4.993
 4365TIP3    H213039   2.801   1.723   4.928
 4366TIP3   OH213040   2.520   5.898   3.457
 4366TIP3    H113041   2.573   5.917   3.380
 4366TIP3    H213042   2.522   5.978   3.508
 4367TIP3   OH213043   5.723   7.267   0.850
 4367TIP3    H113044   5.731   7.280   0.944
 4367TIP3    H213045   5.733   7.172   0.837
 4368TIP3   OH213046   2.152   5.899   5.836
 4368TIP3    H113047   2.115   5.861   5.757
 4368TIP3    H213048   2.228   5.843   5.856
 4369TIP3   OH213049   8.162   6.661   3.884
 4369TIP3    H113050   8.250   6.662   3.847
 4369TIP3    H213051   8.112   6.603   3.826
 4370TIP3   OH213052   5.316   3.653   6.458
 4370TIP3    H113053   5.251   3.583   6.457
 4370TIP3    H213054   5.276   3.723   6.406
 4371TIP3   OH213055   0.722   1.492   2.894
 4371TIP3    H113056   0.746   1.584   2.884
 4371TIP3    H213057   0.627   1.490   2.880
 4372TIP3   OH213058   3.083   2.746   5.329
 4372TIP3    H113059   3.002   2.758   5.280
 4372TIP3    H213060   3.081   2.653   5.354
 4373TIP3   OH213061   8.270   7.279   5.883
 4373TIP3    H113062   8.240   7.362   5.922
 4373TIP3    H213063   8.325   7.306   5.810
 4374TIP3   OH213064   5.251   5.382   4.853
 4374TIP3    H113065   5.159   5.356   4.852
 4374TIP3    H213066   5.249   5.475   4.878
 4375TIP3   OH213067   5.362   4.276   6.395
 4375TIP3    H113068   5.309   4.299   6.319
 4375TIP3    H213069   5.303   4.290   6.470
 4376TIP3   OH213070   5.720   7.418   2.767
 4376TIP3    H113071   5.730   7.510   2.792
 4376TIP3    H213072   5.724   7.370   2.850
 4377TIP3   OH213073   6.599   2.976   1.123
 4377TIP3    H113074   6.689   2.943   1.125
 4377TIP3    H213075   6.608   3.065   1.087
 4378TIP3   OH213076   7.726   2.659   1.882
 4378TIP3    H113077   7.662   2.720   1.845
 4378TIP3    H213078   7.811   2.696   1.860
 4379TIP3   OH213079   8.282   3.529   3.795
 4379TIP3    H113080   8.357   3.471   3.807
 4379TIP3    H213081   8.221   3.478   3.741
 4380TIP3   OH213082   5.111   0.228   6.694
 4380TIP3    H113083   5.183   0.236   6.632
 4380TIP3    H213084   5.137   0.282   6.769
 4381TIP3   OH213085   4.477   4.997   3.566
 4381TIP3    H113086   4.498   4.965   3.653
 4381TIP3    H213087   4.562   5.019   3.527
 4382TIP3   OH213088   7.231   4.887   6.491
 4382TIP3    H113089   7.184   4.877   6.574
 4382TIP3    H213090   7.320   4.857   6.510
 4383TIP3   OH213091   2.352   4.406   2.383
 4383TIP3    H113092   2.437   4.365   2.372
 4383TIP3    H213093   2.326   4.384   2.473
 4384TIP3   OH213094   2.220   6.273   0.552
 4384TIP3    H113095   2.163   6.322   0.492
 4384TIP3    H213096   2.179   6.283   0.637
 4385TIP3   OH213097   1.764   3.314   4.338
 4385TIP3    H113098   1.696   3.290   4.275
 4385TIP3    H213099   1.846   3.297   4.292
 4386TIP3   OH213100   7.075   1.086   0.086
 4386TIP3    H113101   7.125   1.010   0.059
 4386TIP3    H213102   7.138   1.158   0.086
 4387TIP3   OH213103   7.937   6.792   6.508
 4387TIP3    H113104   7.929   6.708   6.462
 4387TIP3    H213105   8.006   6.777   6.573
 4388TIP3   OH213106   0.628   2.402   1.732
 4388TIP3    H113107   0.593   2.452   1.805
 4388TIP3    H213108   0.591   2.443   1.654
 4389TIP3   OH213109   5.710   3.391   5.171
 4389TIP3    H113110   5.801   3.420   5.176
 4389TIP3    H213111   5.682   3.412   5.081
 4390TIP3   OH213112   6.239   6.983   6.532
 4390TIP3    H113113   6.149   6.958   6.553
 4390TIP3    H213114   6.286   6.980   6.615
 4391TIP3   OH213115   4.656   0.162   2.342
 4391TIP3    H113116   4.601   0.227   2.386
 4391TIP3    H213117   4.619   0.078   2.366
 4392TIP3   OH213118   7.415   4.994   4.876
 4392TIP3    H113119   7.388   4.904   4.860
 4392TIP3    H213120   7.493   5.006   4.822
 4393TIP3   OH213121   3.047   6.162   3.798
 4393TIP3    H113122   3.049   6.091   3.863
 4393TIP3    H213123   2.955   6.183   3.788
 4394TIP3   OH213124   0.506   1.509   4.928
 4394TIP3    H113125   0.522   1.539   5.017
 4394TIP3    H213126   0.593   1.487   4.894
 4395TIP3   OH213127   5.540   2.917   3.478
 4395TIP3    H113128   5.508   2.920   3.388
 4395TIP3    H213129   5.514   2.830   3.510
 4396TIP3   OH213130   2.286   5.503   0.076
 4396TIP3    H113131   2.244   5.464   0.153
 4396TIP3    H213132   2.347   5.436   0.046
 4397TIP3   OH213133   2.783   1.100   0.864
 4397TIP3    H113134   2.778   1.171   0.928
 4397TIP3    H213135   2.711   1.042   0.888
 4398TIP3   OH213136   0.062   1.645   3.593
 4398TIP3    H113137  -0.019   1.678   3.555
 4398TIP3    H213138   0.066   1.685   3.680
 4399TIP3   OH213139   4.728   1.817   3.087
 4399TIP3    H113140   4.790   1.753   3.050
 4399TIP3    H213141   4.736   1.804   3.182
 4400TIP3   OH213142   0.941   7.087   5.129
 4400TIP3    H113143   0.966   7.159   5.071
 4400TIP3    H213144   0.972   7.008   5.084
 4401TIP3   OH213145   3.538   0.470   0.226
 4401TIP3    H113146   3.605   0.536   0.210
 4401TIP3    H213147   3.576   0.388   0.194
 4402TIP3   OH213148   5.868   7.079   0.579
 4402TIP3    H113149   5.806   7.152   0.578
 4402TIP3    H213150   5.882   7.060   0.672
 4403TIP3   OH213151   6.763   5.824   3.836
 4403TIP3    H113152   6.787   5.839   3.745
 4403TIP3    H213153   6.667   5.833   3.837
 4404TIP3   OH213154   0.900   1.946   5.587
 4404TIP3    H113155   0.960   1.876   5.563
 4404TIP3    H213156   0.952   2.003   5.644
 4405TIP3   OH213157   6.117   6.472   1.341
 4405TIP3    H113158   6.164   6.513   1.268
 4405TIP3    H213159   6.089   6.545   1.396
 4406TIP3   OH213160   1.699   1.837   2.635
 4406TIP3    H113161   1.731   1.775   2.700
 4406TIP3    H213162   1.760   1.828   2.562
 4407TIP3   OH213163   0.302   0.263   3.268
 4407TIP3    H113164   0.310   0.358   3.257
 4407TIP3    H213165   0.351   0.244   3.348
 4408TIP3   OH213166   2.625   1.472   3.483
 4408TIP3    H113167   2.637   1.397   3.542
 4408TIP3    H213168   2.531   1.486   3.482
 4409TIP3   OH213169   7.642   1.757   5.030
 4409TIP3    H113170   7.647   1.819   5.102
 4409TIP3    H213171   7.548   1.739   5.020
 4410TIP3   OH213172   4.816   0.850   0.546
 4410TIP3    H113173   4.807   0.818   0.457
 4410TIP3    H213174   4.729   0.884   0.569
 4411TIP3   OH213175   1.211   5.840   0.812
 4411TIP3    H113176   1.231   5.928   0.845
 4411TIP3    H213177   1.129   5.816   0.855
 4412TIP3   OH213178   2.159   0.495   0.196
 4412TIP3    H113179   2.153   0.571   0.254
 4412TIP3    H213180   2.243   0.455   0.218
 4413TIP3   OH213181   7.167   1.757   5.710
 4413TIP3    H113182   7.083   1.794   5.737
 4413TIP3    H213183   7.167   1.669   5.748
 4414TIP3   OH213184   0.995   0.588   5.595
 4414TIP3    H113185   1.087   0.613   5.610
 4414TIP3    H213186   0.947   0.671   5.601
 4415TIP3   OH213187   7.347   7.696   4.479
 4415TIP3    H113188   7.355   7.791   4.478
 4415TIP3    H213189   7.344   7.673   4.572
 4416TIP3   OH213190   2.073   6.963   1.777
 4416TIP3    H113191   2.163   6.994   1.787
 4416TIP3    H213192   2.021   7.044   1.774
 4417TIP3   OH213193   2.178   7.328   6.337
 4417TIP3    H113194   2.124   7.389   6.286
 4417TIP3    H213195   2.222   7.384   6.401
 4418TIP3   OH213196   2.050   3.545   5.626
 4418TIP3    H113197   2.000   3.589   5.695
 4418TIP3    H213198   2.142   3.566   5.645
 4419TIP3   OH213199   7.122   1.987   6.401
 4419TIP3    H113200   7.073   1.905   6.397
 4419TIP3    H213201   7.169   1.982   6.485
 4420TIP3   OH213202   4.085   3.602   6.219
 4420TIP3    H113203   4.036   3.648   6.151
 4420TIP3    H213204   4.024   3.535   6.251
 4421TIP3   OH213205   4.205   3.452   2.465
 4421TIP3    H113206   4.220   3.543   2.491
 4421TIP3    H213207   4.265   3.438   2.392
 4422TIP3   OH213208   6.912   0.906   1.932
 4422TIP3    H113209   6.986   0.847   1.919
 4422TIP3    H213210   6.858   0.863   1.999
 4423TIP3   OH213211   8.291   7.211   1.401
 4423TIP3    H113212   8.362   7.275   1.398
 4423TIP3    H213213   8.249   7.226   1.485
 4424TIP3   OH213214   7.876   2.080   5.082
 4424TIP3    H113215   7.835   2.150   5.032
 4424TIP3    H213216   7.818   2.065   5.156
 4425TIP3   OH213217   4.204   3.979   2.629
 4425TIP3    H113218   4.136   3.990   2.695
 4425TIP3    H213219   4.157   3.969   2.546
 4426TIP3   OH213220   4.447   6.636   0.057
 4426TIP3    H113221   4.526   6.683   0.033
 4426TIP3    H213222   4.418   6.678   0.138
 4427TIP3   OH213223   1.926   2.323   2.798
 4427TIP3    H113224   1.891   2.411   2.811
 4427TIP3    H213225   1.869   2.283   2.733
 4428TIP3   OH213226   5.938   5.870   1.663
 4428TIP3    H113227   5.986   5.913   1.592
 4428TIP3    H213228   5.847   5.870   1.633
 4429TIP3   OH213229   7.716   0.074   4.959
 4429TIP3    H113230   7.729   0.168   4.947
 4429TIP3    H213231   7.631   0.055   4.920
 4430TIP3   OH213232   1.256   0.079   2.618
 4430TIP3    H113233   1.309   0.098   2.696
 4430TIP3    H213234   1.298   0.001   2.580
 4431TIP3   OH213235   4.926   0.946   4.465
 4431TIP3    H113236   4.982   0.923   4.391
 4431TIP3    H213237   4.974   1.014   4.512
 4432TIP3   OH213238   2.206   3.041   4.369
 4432TIP3    H113239   2.121   3.017   4.406
 4432TIP3    H213240   2.223   2.974   4.302
 4433TIP3   OH213241   4.543   4.076   4.289
 4433TIP3    H113242   4.516   4.115   4.207
 4433TIP3    H213243   4.463   4.070   4.341
 4434TIP3   OH213244   7.997   1.865   5.481
 4434TIP3    H113245   8.069   1.923   5.456
 4434TIP3    H213246   7.972   1.894   5.569
 4435TIP3   OH213247   3.666   7.576   6.700
 4435TIP3    H113248   3.638   7.493   6.739
 4435TIP3    H213249   3.584   7.618   6.673
 4436TIP3   OH213250   1.978   2.555   1.721
 4436TIP3    H113251   2.054   2.529   1.774
 4436TIP3    H213252   2.005   2.637   1.681
 4437TIP3   OH213253   0.956   0.661   3.921
 4437TIP3    H113254   0.917   0.656   3.833
 4437TIP3    H213255   1.028   0.598   3.919
 4438TIP3   OH213256   0.272   1.686   5.239
 4438TIP3    H113257   0.346   1.687   5.178
 4438TIP3    H213258   0.218   1.761   5.212
 4439TIP3   OH213259   6.250   2.918   0.422
 4439TIP3    H113260   6.321   2.982   0.432
 4439TIP3    H213261   6.220   2.902   0.512
 4440TIP3   OH213262   2.921   2.226   0.390
 4440TIP3    H113263   2.864   2.276   0.331
 4440TIP3    H213264   2.875   2.143   0.403
 4441TIP3   OH213265   4.352   6.001   5.659
 4441TIP3    H113266   4.371   6.094   5.673
 4441TIP3    H213267   4.361   5.990   5.564
 4442TIP3   OH213268   2.504   0.598   1.970
 4442TIP3    H113269   2.544   0.651   1.901
 4442TIP3    H213270   2.413   0.587   1.942
 4443TIP3   OH213271   6.158   2.708   3.209
 4443TIP3    H113272   6.116   2.757   3.279
 4443TIP3    H213273   6.120   2.743   3.129
 4444TIP3   OH213274   1.407   0.743   2.972
 4444TIP3    H113275   1.348   0.818   2.973
 4444TIP3    H213276   1.473   0.763   3.039
 4445TIP3   OH213277   7.535   2.154   6.598
 4445TIP3    H113278   7.623   2.156   6.635
 4445TIP3    H213279   7.537   2.221   6.529
 4446TIP3   OH213280   4.416   2.590   6.370
 4446TIP3    H113281   4.483   2.548   6.425
 4446TIP3    H213282   4.378   2.657   6.426
 4447TIP3   OH213283   4.080   7.672   3.582
 4447TIP3    H113284   4.125   7.740   3.631
 4447TIP3    H213285   4.121   7.672   3.496
 4448TIP3   OH213286   4.922   7.441   6.182
 4448TIP3    H113287   4.889   7.466   6.268
 4448TIP3    H213288   4.975   7.515   6.154
 4449TIP3   OH213289   3.447   0.651   6.715
 4449TIP3    H113290   3.382   0.588   6.684
 4449TIP3    H213291   3.423   0.733   6.672
 4450TIP3   OH213292   6.688   1.505   6.034
 4450TIP3    H113293   6.687   1.592   5.994
 4450TIP3    H213294   6.774   1.499   6.075
 4451TIP3   OH213295   3.127   2.040   4.716
 4451TIP3    H113296   3.211   2.084   4.702
 4451TIP3    H213297   3.062   2.098   4.679
 4452TIP3   OH213298   0.232   0.626   1.448
 4452TIP3    H113299   0.147   0.669   1.434
 4452TIP3    H213300   0.252   0.584   1.365
 4453TIP3   OH213301   0.066   0.712   3.739
 4453TIP3    H113302   0.134   0.779   3.739
 4453TIP3    H213303  -0.015   0.759   3.758
 4454TIP3   OH213304   1.910   5.353   2.804
 4454TIP3    H113305   1.922   5.447   2.792
 4454TIP3    H213306   1.997   5.316   2.794
 4455TIP3   OH213307   1.562   3.485   2.692
 4455TIP3    H113308   1.519   3.412   2.646
 4455TIP3    H213309   1.527   3.480   2.781
 4456TIP3   OH213310   3.841   7.220   3.952
 4456TIP3    H113311   3.902   7.146   3.946
 4456TIP3    H213312   3.761   7.182   3.988
 4457TIP3   OH213313   0.677   1.969   6.701
 4457TIP3    H113314   0.702   1.996   6.612
 4457TIP3    H213315   0.735   1.896   6.721
 4458TIP3   OH213316   7.207   1.362   4.164
 4458TIP3    H113317   7.122   1.343   4.203
 4458TIP3    H213318   7.196   1.337   4.072
 4459TIP3   OH213319   6.629   5.438   4.071
 4459TIP3    H113320   6.621   5.455   3.977
 4459TIP3    H213321   6.614   5.344   4.081
 4460TIP3   OH213322   1.227   2.092   0.900
 4460TIP3    H113323   1.309   2.125   0.935
 4460TIP3    H213324   1.189   2.167   0.854
 4461TIP3   OH213325   5.279   2.958   2.494
 4461TIP3    H113326   5.341   2.894   2.461
 4461TIP3    H213327   5.332   3.019   2.545
 4462TIP3   OH213328   5.050   4.014   1.596
 4462TIP3    H113329   5.041   4.086   1.659
 4462TIP3    H213330   5.140   3.984   1.607
 4463TIP3   OH213331   6.321   0.529   0.461
 4463TIP3    H113332   6.386   0.598   0.448
 4463TIP3    H213333   6.304   0.529   0.555
 4464TIP3   OH213334   5.430   7.697   5.825
 4464TIP3    H113335   5.453   7.743   5.906
 4464TIP3    H213336   5.498   7.631   5.815
 4465TIP3   OH213337   1.873   2.788   0.570
 4465TIP3    H113338   1.942   2.828   0.517
 4465TIP3    H213339   1.902   2.697   0.580
 4466TIP3   OH213340   3.176   0.636   1.791
 4466TIP3    H113341   3.224   0.659   1.711
 4466TIP3    H213342   3.245   0.625   1.858
 4467TIP3   OH213343   4.014   2.617   0.026
 4467TIP3    H113344   4.047   2.585   0.110
 4467TIP3    H213345   3.961   2.545  -0.008
 4468TIP3   OH213346   6.255   0.007   4.862
 4468TIP3    H113347   6.258  -0.049   4.785
 4468TIP3    H213348   6.261   0.096   4.828
 4469TIP3   OH213349   3.326   2.593   0.173
 4469TIP3    H113350   3.321   2.503   0.204
 4469TIP3    H213351   3.412   2.598   0.129
 4470TIP3   OH213352   6.210   1.013   5.112
 4470TIP3    H113353   6.262   1.036   5.034
 4470TIP3    H213354   6.138   1.075   5.111
 4471TIP3   OH213355   3.010   5.223   1.297
 4471TIP3    H113356   2.956   5.189   1.368
 4471TIP3    H213357   3.087   5.259   1.341
 4472TIP3   OH213358   7.557   3.547   2.164
 4472TIP3    H113359   7.590   3.473   2.113
 4472TIP3    H213360   7.480   3.576   2.116
 4473TIP3   OH213361   0.238   2.293   0.352
 4473TIP3    H113362   0.279   2.231   0.412
 4473TIP3    H213363   0.198   2.239   0.284
 4474TIP3   OH213364   0.726   0.038   3.451
 4474TIP3    H113365   0.757   0.112   3.503
 4474TIP3    H213366   0.806  -0.002   3.415
 4475TIP3   OH213367   7.358   5.484   0.748
 4475TIP3    H113368   7.381   5.391   0.742
 4475TIP3    H213369   7.408   5.526   0.679
 4476TIP3   OH213370   0.474   3.081   1.177
 4476TIP3    H113371   0.535   3.009   1.159
 4476TIP3    H213372   0.399   3.064   1.120
 4477TIP3   OH213373   1.756   1.133   3.179
 4477TIP3    H113374   1.711   1.201   3.229
 4477TIP3    H213375   1.835   1.115   3.229
 4478TIP3   OH213376   6.650   5.690   0.549
 4478TIP3    H113377   6.650   5.600   0.583
 4478TIP3    H213378   6.721   5.733   0.595
 4479TIP3   OH213379   2.435   4.047   0.078
 4479TIP3    H113380   2.365   4.056   0.012
 4479TIP3    H213381   2.405   4.101   0.151
 4480TIP3   OH213382   3.613   2.461   2.703
 4480TIP3    H113383   3.599   2.416   2.786
 4480TIP3    H213384   3.604   2.554   2.724
 4481TIP3   OH213385   5.696   4.542   2.018
 4481TIP3    H113386   5.763   4.493   1.971
 4481TIP3    H213387   5.708   4.633   1.990
 4482TIP3   OH213388   2.272   5.715   5.139
 4482TIP3    H113389   2.359   5.755   5.132
 4482TIP3    H213390   2.242   5.737   5.227
 4483TIP3   OH213391   4.405   2.762   1.476
 4483TIP3    H113392   4.369   2.686   1.430
 4483TIP3    H213393   4.348   2.835   1.451
 4484TIP3   OH213394   0.128   2.889   4.344
 4484TIP3    H113395   0.139   2.841   4.426
 4484TIP3    H213396   0.037   2.920   4.347
 4485TIP3   OH213397   2.819   5.066   5.095
 4485TIP3    H113398   2.760   5.012   5.147
 4485TIP3    H213399   2.793   5.156   5.112
 4486TIP3   OH213400   1.971   2.945   6.127
 4486TIP3    H113401   1.903   2.983   6.183
 4486TIP3    H213402   2.010   2.876   6.180
 4487TIP3   OH213403   6.822   7.598   5.330
 4487TIP3    H113404   6.766   7.542   5.383
 4487TIP3    H213405   6.808   7.686   5.363
 4488TIP3   OH213406   3.127   4.343   6.142
 4488TIP3    H113407   3.094   4.322   6.230
 4488TIP3    H213408   3.184   4.418   6.156
 4489TIP3   OH213409   3.466   4.655   1.730
 4489TIP3    H113410   3.458   4.639   1.824
 4489TIP3    H213411   3.510   4.740   1.723
 4490TIP3   OH213412   0.818   3.058   4.935
 4490TIP3    H113413   0.809   3.152   4.918
 4490TIP3    H213414   0.743   3.035   4.988
 4491TIP3   OH213415   1.005   2.766   3.536
 4491TIP3    H113416   0.978   2.735   3.622
 4491TIP3    H213417   1.087   2.719   3.518
 4492TIP3   OH213418   3.852   7.535   1.173
 4492TIP3    H113419   3.832   7.447   1.140
 4492TIP3    H213420   3.879   7.521   1.264
 4493TIP3   OH213421   7.742   2.762   3.699
 4493TIP3    H113422   7.833   2.790   3.697
 4493TIP3    H213423   7.709   2.782   3.611
 4494TIP3   OH213424   6.090   0.168   2.421
 4494TIP3    H113425   6.085   0.109   2.345
 4494TIP3    H213426   6.078   0.255   2.384
 4495TIP3   OH213427   0.622   6.057   2.310
 4495TIP3    H113428   0.539   6.021   2.279
 4495TIP3    H213429   0.604   6.085   2.399
 4496TIP3   OH213430   6.397   5.061   3.564
 4496TIP3    H113431   6.367   5.080   3.653
 4496TIP3    H213432   6.326   5.007   3.527
 4497TIP3   OH213433   4.724   0.919   1.135
 4497TIP3    H113434   4.694   0.833   1.105
 4497TIP3    H213435   4.819   0.909   1.144
 4498TIP3   OH213436   2.571   2.130   2.304
 4498TIP3    H113437   2.586   2.169   2.218
 4498TIP3    H213438   2.625   2.051   2.305
 4499TIP3   OH213439   1.592   2.368   6.331
 4499TIP3    H113440   1.580   2.316   6.251
 4499TIP3    H213441   1.595   2.303   6.401
 4500TIP3   OH213442   6.728   5.417   1.549
 4500TIP3    H113443   6.818   5.394   1.524
 4500TIP3    H213444   6.678   5.410   1.468
 4501TIP3   OH213445   8.056   6.465   5.733
 4501TIP3    H113446   8.060   6.386   5.787
 4501TIP3    H213447   8.084   6.536   5.792
 4502TIP3   OH213448   2.925   2.514   0.659
 4502TIP3    H113449   2.949   2.429   0.697
 4502TIP3    H213450   2.875   2.492   0.581
 4503TIP3   OH213451   4.009   2.656   4.643
 4503TIP3    H113452   3.995   2.699   4.727
 4503TIP3    H213453   3.923   2.622   4.619
 4504TIP3   OH213454   7.679   1.834   2.904
 4504TIP3    H113455   7.750   1.835   2.839
 4504TIP3    H213456   7.663   1.927   2.922
 4505TIP3   OH213457   7.314   4.122   2.023
 4505TIP3    H113458   7.365   4.181   2.079
 4505TIP3    H213459   7.263   4.180   1.967
 4506TIP3   OH213460   6.473   4.799   4.333
 4506TIP3    H113461   6.395   4.844   4.365
 4506TIP3    H213462   6.524   4.782   4.412
 4507TIP3   OH213463   5.902   4.277   6.433
 4507TIP3    H113464   5.992   4.264   6.403
 4507TIP3    H213465   5.848   4.234   6.367
 4508TIP3   OH213466   7.616   0.597   5.700
 4508TIP3    H113467   7.688   0.554   5.655
 4508TIP3    H213468   7.541   0.539   5.688
 4509TIP3   OH213469   7.226   4.654   3.499
 4509TIP3    H113470   7.225   4.748   3.481
 4509TIP3    H213471   7.318   4.631   3.508
 4510TIP3   OH213472   5.145   2.139   5.794
 4510TIP3    H113473   5.175   2.095   5.874
 4510TIP3    H213474   5.209   2.209   5.780
 4511TIP3   OH213475   7.798   0.016   2.277
 4511TIP3    H113476   7.715  -0.007   2.236
 4511TIP3    H213477   7.791  -0.020   2.366
 4512TIP3   OH213478   3.862   1.117   1.676
 4512TIP3    H113479   3.921   1.122   1.602
 4512TIP3    H213480   3.872   1.028   1.710
 4513TIP3   OH213481   4.978   0.014   1.409
 4513TIP3    H113482   4.982  -0.008   1.315
 4513TIP3    H213483   5.024   0.097   1.416
 4514TIP3   OH213484   7.599   1.563   0.999
 4514TIP3    H113485   7.669   1.607   1.047
 4514TIP3    H213486   7.592   1.611   0.916
 4515TIP3   OH213487   4.343   3.586   4.377
 4515TIP3    H113488   4.351   3.640   4.456
 4515TIP3    H213489   4.302   3.643   4.313
 4516TIP3   OH213490   4.212   0.211   5.490
 4516TIP3    H113491   4.161   0.244   5.416
 4516TIP3    H213492   4.265   0.140   5.453
 4517TIP3   OH213493   1.169   1.831   2.476
 4517TIP3    H113494   1.096   1.790   2.523
 4517TIP3    H213495   1.130   1.866   2.396
 4518TIP3   OH213496   1.964   6.973   0.104
 4518TIP3    H113497   1.959   6.896   0.047
 4518TIP3    H213498   1.919   6.946   0.184
 4519TIP3   OH213499   0.527   4.586   5.565
 4519TIP3    H113500   0.468   4.543   5.627
 4519TIP3    H213501   0.547   4.670   5.606
 4520TIP3   OH213502   2.661   0.298   5.805
 4520TIP3    H113503   2.725   0.369   5.806
 4520TIP3    H213504   2.580   0.339   5.836
 4521TIP3   OH213505   6.251   4.425   5.133
 4521TIP3    H113506   6.164   4.391   5.111
 4521TIP3    H213507   6.258   4.413   5.228
 4522TIP3   OH213508   2.496   7.485   3.228
 4522TIP3    H113509   2.564   7.417   3.229
 4522TIP3    H213510   2.533   7.556   3.281
 4523TIP3   OH213511   6.324   1.692   2.355
 4523TIP3    H113512   6.346   1.673   2.446
 4523TIP3    H213513   6.272   1.617   2.327
 4524TIP3   OH213514   8.039   6.810   3.137
 4524TIP3    H113515   8.058   6.764   3.055
 4524TIP3    H213516   7.987   6.748   3.188
 4525TIP3   OH213517   7.965   7.668   5.241
 4525TIP3    H113518   8.025   7.664   5.315
 4525TIP3    H213519   8.016   7.637   5.166
 4526TIP3   OH213520   2.705   6.502   0.268
 4526TIP3    H113521   2.734   6.410   0.270
 4526TIP3    H213522   2.625   6.501   0.216
 4527TIP3   OH213523   7.265   6.485   0.982
 4527TIP3    H113524   7.224   6.473   1.068
 4527TIP3    H213525   7.355   6.453   0.994
 4528TIP3   OH213526   5.484   1.373   3.880
 4528TIP3    H113527   5.501   1.281   3.859
 4528TIP3    H213528   5.516   1.421   3.803
 4529TIP3   OH213529   2.657   4.049   3.668
 4529TIP3    H113530   2.710   4.041   3.588
 4529TIP3    H213531   2.577   4.001   3.649
 4530TIP3   OH213532   4.843   2.938   3.595
 4530TIP3    H113533   4.810   3.020   3.632
 4530TIP3    H213534   4.822   2.872   3.661
 4531TIP3   OH213535   1.347   5.864   4.038
 4531TIP3    H113536   1.413   5.841   4.103
 4531TIP3    H213537   1.361   5.801   3.967
 4532TIP3   OH213538   6.070   5.229   1.825
 4532TIP3    H113539   6.101   5.156   1.879
 4532TIP3    H213540   6.037   5.188   1.745
 4533TIP3   OH213541   8.140   0.487   4.406
 4533TIP3    H113542   8.133   0.503   4.312
 4533TIP3    H213543   8.221   0.437   4.416
 4534TIP3   OH213544   6.380   6.826   1.561
 4534TIP3    H113545   6.427   6.883   1.623
 4534TIP3    H213546   6.383   6.739   1.602
 4535TIP3   OH213547   5.579   2.590   1.273
 4535TIP3    H113548   5.654   2.645   1.298
 4535TIP3    H213549   5.555   2.620   1.186
 4536TIP3   OH213550   0.763   1.066   3.475
 4536TIP3    H113551   0.684   1.120   3.480
 4536TIP3    H213552   0.799   1.084   3.388
 4537TIP3   OH213553   4.262   5.126   5.090
 4537TIP3    H113554   4.216   5.045   5.069
 4537TIP3    H213555   4.305   5.151   5.008
 4538TIP3   OH213556   7.654   0.551   0.119
 4538TIP3    H113557   7.713   0.493   0.070
 4538TIP3    H213558   7.576   0.558   0.064
 4539TIP3   OH213559   4.712   4.729   3.396
 4539TIP3    H113560   4.740   4.815   3.427
 4539TIP3    H213561   4.639   4.747   3.338
 4540TIP3   OH213562   3.204   6.966   2.515
 4540TIP3    H113563   3.262   7.013   2.455
 4540TIP3    H213564   3.188   6.882   2.471
 4541TIP3   OH213565   3.563   1.236   0.274
 4541TIP3    H113566   3.537   1.157   0.227
 4541TIP3    H213567   3.506   1.304   0.239
 4542TIP3   OH213568   4.459   0.416   5.217
 4542TIP3    H113569   4.468   0.387   5.127
 4542TIP3    H213570   4.491   0.343   5.270
 4543TIP3   OH213571   6.294   4.207   6.095
 4543TIP3    H113572   6.279   4.164   6.011
 4543TIP3    H213573   6.298   4.300   6.074
 4544TIP3   OH213574   7.242   4.512   6.781
 4544TIP3    H113575   7.329   4.476   6.766
 4544TIP3    H213576   7.183   4.451   6.735
 4545TIP3   OH213577   2.989   7.325   5.132
 4545TIP3    H113578   3.001   7.253   5.193
 4545TIP3    H213579   2.914   7.374   5.166
 4546TIP3   OH213580   6.530   6.974   5.156
 4546TIP3    H113581   6.572   7.020   5.084
 4546TIP3    H213582   6.530   6.882   5.130
 4547TIP3   OH213583   4.657   7.463   1.183
 4547TIP3    H113584   4.662   7.465   1.279
 4547TIP3    H213585   4.690   7.549   1.155
 4548TIP3   OH213586   2.432   2.126   3.889
 4548TIP3    H113587   2.510   2.165   3.850
 4548TIP3    H213588   2.459   2.037   3.914
 4549TIP3   OH213589   4.032   3.152   3.807
 4549TIP3    H113590   4.026   3.148   3.903
 4549TIP3    H213591   4.118   3.191   3.790
 4550TIP3   OH213592   0.609   3.867   6.355
 4550TIP3    H113593   0.692   3.842   6.396
 4550TIP3    H213594   0.618   3.837   6.264
 4551TIP3   OH213595   7.943   7.377   2.863
 4551TIP3    H113596   7.948   7.389   2.768
 4551TIP3    H213597   7.971   7.287   2.878
 4552TIP3   OH213598   3.926   4.074   5.056
 4552TIP3    H113599   3.880   4.157   5.062
 4552TIP3    H213600   3.857   4.008   5.058
 4553TIP3   OH213601   7.015   5.472   2.740
 4553TIP3    H113602   6.929   5.498   2.773
 4553TIP3    H213603   7.004   5.381   2.711
 4554TIP3   OH213604   2.236   6.847   4.980
 4554TIP3    H113605   2.231   6.940   4.958
 4554TIP3    H213606   2.195   6.802   4.906
 4555TIP3   OH213607   1.761   3.741   2.701
 4555TIP3    H113608   1.691   3.678   2.683
 4555TIP3    H213609   1.751   3.762   2.794
 4556TIP3   OH213610   3.462   1.524   2.646
 4556TIP3    H113611   3.396   1.581   2.684
 4556TIP3    H213612   3.419   1.482   2.572
 4557TIP3   OH213613   1.250   4.056   3.298
 4557TIP3    H113614   1.230   4.148   3.280
 4557TIP3    H213615   1.231   4.046   3.392
 4558TIP3   OH213616   1.746   0.214   1.231
 4558TIP3    H113617   1.680   0.281   1.247
 4558TIP3    H213618   1.818   0.260   1.190
 4559TIP3   OH213619   4.149   3.045   0.581
 4559TIP3    H113620   4.110   3.083   0.502
 4559TIP3    H213621   4.074   3.016   0.633
 4560TIP3   OH213622   7.562   7.751   3.497
 4560TIP3    H113623   7.630   7.812   3.469
 4560TIP3    H213624   7.524   7.792   3.575
 4561TIP3   OH213625   5.770   2.245   6.003
 4561TIP3    H113626   5.787   2.264   6.095
 4561TIP3    H213627   5.816   2.162   5.987
 4562TIP3   OH213628   0.331   6.708   6.401
 4562TIP3    H113629   0.422   6.679   6.396
 4562TIP3    H213630   0.325   6.781   6.340
 4563TIP3   OH213631   6.096   0.455   1.259
 4563TIP3    H113632   6.006   0.421   1.257
 4563TIP3    H213633   6.151   0.377   1.265
 4564TIP3   OH213634   3.622   1.209   6.288
 4564TIP3    H113635   3.700   1.263   6.301
 4564TIP3    H213636   3.603   1.217   6.195
 4565TIP3   OH213637   5.722   2.464   4.578
 4565TIP3    H113638   5.649   2.494   4.632
 4565TIP3    H213639   5.800   2.500   4.620
 4566TIP3   OH213640   3.573   1.249   4.140
 4566TIP3    H113641   3.642   1.205   4.090
 4566TIP3    H213642   3.596   1.342   4.137
 4567TIP3   OH213643   3.048   1.141   3.515
 4567TIP3    H113644   3.078   1.216   3.464
 4567TIP3    H213645   3.080   1.158   3.603
 4568TIP3   OH213646   0.180   0.955   4.589
 4568TIP3    H113647   0.133   0.943   4.506
 4568TIP3    H213648   0.273   0.952   4.563
 4569TIP3   OH213649   3.510   3.573   6.723
 4569TIP3    H113650   3.547   3.597   6.638
 4569TIP3    H213651   3.586   3.555   6.778
 4570TIP3   OH213652   3.329   0.884   3.722
 4570TIP3    H113653   3.240   0.876   3.756
 4570TIP3    H213654   3.364   0.962   3.764
 4571TIP3   OH213655   2.650   2.299   3.845
 4571TIP3    H113656   2.577   2.345   3.804
 4571TIP3    H213657   2.720   2.304   3.780
 4572TIP3   OH213658   0.356   4.655   2.391
 4572TIP3    H113659   0.355   4.659   2.487
 4572TIP3    H213660   0.303   4.730   2.363
 4573TIP3   OH213661   0.546   2.268   0.737
 4573TIP3    H113662   0.491   2.190   0.749
 4573TIP3    H213663   0.551   2.279   0.642
 4574TIP3   OH213664   7.058   7.340   4.060
 4574TIP3    H113665   7.057   7.245   4.057
 4574TIP3    H213666   7.006   7.362   4.138
 4575TIP3   OH213667   7.594   6.314   2.411
 4575TIP3    H113668   7.603   6.241   2.473
 4575TIP3    H213669   7.647   6.288   2.336
 4576TIP3   OH213670   4.840   1.260   2.309
 4576TIP3    H113671   4.772   1.214   2.358
 4576TIP3    H213672   4.886   1.191   2.261
 4577TIP3   OH213673   0.899   3.437   1.342
 4577TIP3    H113674   0.977   3.408   1.389
 4577TIP3    H213675   0.843   3.359   1.337
 4578TIP3   OH213676   0.533   3.085   5.025
 4578TIP3    H113677   0.513   3.083   4.931
 4578TIP3    H213678   0.455   3.124   5.065
 4579TIP3   OH213679   3.080   2.137   2.576
 4579TIP3    H113680   3.041   2.220   2.549
 4579TIP3    H213681   3.171   2.159   2.597
 4580TIP3   OH213682   5.728   4.909   1.653
 4580TIP3    H113683   5.719   4.814   1.664
 4580TIP3    H213684   5.740   4.921   1.559
 4581TIP3   OH213685   0.665   5.271   1.233
 4581TIP3    H113686   0.599   5.319   1.182
 4581TIP3    H213687   0.687   5.195   1.179
 4582TIP3   OH213688   7.346   5.557   4.951
 4582TIP3    H113689   7.426   5.522   4.989
 4582TIP3    H213690   7.376   5.617   4.883
 4583TIP3   OH213691   1.118   5.698   5.628
 4583TIP3    H113692   1.071   5.666   5.705
 4583TIP3    H213693   1.156   5.781   5.656
 4584TIP3   OH213694   7.485   6.830   2.839
 4584TIP3    H113695   7.464   6.774   2.914
 4584TIP3    H213696   7.578   6.849   2.849
 4585TIP3   OH213697   2.387   3.117   1.765
 4585TIP3    H113698   2.453   3.048   1.762
 4585TIP3    H213699   2.407   3.173   1.690
 4586TIP3   OH213700   6.413   3.777   1.126
 4586TIP3    H113701   6.472   3.704   1.110
 4586TIP3    H213702   6.346   3.770   1.058
 4587TIP3   OH213703   1.274   6.849   3.356
 4587TIP3    H113704   1.179   6.843   3.359
 4587TIP3    H213705   1.296   6.914   3.423
 4588TIP3   OH213706   3.904   2.496   5.559
 4588TIP3    H113707   3.913   2.402   5.576
 4588TIP3    H213708   3.915   2.505   5.465
 4589TIP3   OH213709   5.831   7.069   4.574
 4589TIP3    H113710   5.846   7.135   4.643
 4589TIP3    H213711   5.891   6.998   4.597
 4590TIP3   OH213712   6.391   0.844   2.826
 4590TIP3    H113713   6.358   0.910   2.765
 4590TIP3    H213714   6.317   0.784   2.838
 4591TIP3   OH213715   4.239   6.799   2.780
 4591TIP3    H113716   4.293   6.850   2.839
 4591TIP3    H213717   4.159   6.851   2.769
 4592TIP3   OH213718   6.838   1.774   3.547
 4592TIP3    H113719   6.850   1.743   3.457
 4592TIP3    H213720   6.808   1.697   3.595
 4593TIP3   OH213721   2.498   6.268   0.737
 4593TIP3    H113722   2.504   6.241   0.645
 4593TIP3    H213723   2.414   6.232   0.767
 4594TIP3   OH213724   4.967   0.796   1.532
 4594TIP3    H113725   5.041   0.831   1.484
 4594TIP3    H213726   4.991   0.805   1.625
 4595TIP3   OH213727   2.732   2.010   0.401
 4595TIP3    H113728   2.728   1.955   0.479
 4595TIP3    H213729   2.661   1.978   0.346
 4596TIP3   OH213730   5.599   1.222   4.428
 4596TIP3    H113731   5.535   1.207   4.358
 4596TIP3    H213732   5.670   1.269   4.385
 4597TIP3   OH213733   1.552   0.448   1.324
 4597TIP3    H113734   1.463   0.411   1.326
 4597TIP3    H213735   1.544   0.526   1.270
 4598TIP3   OH213736   6.656   1.760   5.967
 4598TIP3    H113737   6.573   1.745   6.013
 4598TIP3    H213738   6.684   1.846   5.997
 4599TIP3   OH213739   2.454   1.539   2.925
 4599TIP3    H113740   2.507   1.461   2.941
 4599TIP3    H213741   2.459   1.588   3.007
 4600TIP3   OH213742   5.350   1.943   6.372
 4600TIP3    H113743   5.256   1.949   6.355
 4600TIP3    H213744   5.384   1.885   6.304
 4601TIP3   OH213745   1.673   1.965   5.772
 4601TIP3    H113746   1.717   2.026   5.832
 4601TIP3    H213747   1.715   1.881   5.789
 4602TIP3   OH213748   6.801   0.058   5.930
 4602TIP3    H113749   6.864   0.111   5.979
 4602TIP3    H213750   6.803   0.093   5.842
 4603TIP3   OH213751   5.960   3.690   0.108
 4603TIP3    H113752   6.005   3.721   0.187
 4603TIP3    H213753   5.996   3.603   0.093
 4604TIP3   OH213754   4.166   1.441   5.432
 4604TIP3    H113755   4.248   1.393   5.430
 4604TIP3    H213756   4.141   1.451   5.340
 4605TIP3   OH213757   2.789   7.052   6.448
 4605TIP3    H113758   2.722   6.999   6.492
 4605TIP3    H213759   2.872   7.009   6.470
 4606TIP3   OH213760   5.433   3.194   1.859
 4606TIP3    H113761   5.414   3.189   1.766
 4606TIP3    H213762   5.505   3.133   1.873
 4607TIP3   OH213763   4.384   0.561   3.287
 4607TIP3    H113764   4.335   0.546   3.367
 4607TIP3    H213765   4.340   0.636   3.246
 4608TIP3   OH213766   4.769   4.972   5.954
 4608TIP3    H113767   4.839   5.034   5.973
 4608TIP3    H213768   4.727   4.956   6.039
 4609TIP3   OH213769   3.965   1.565   4.318
 4609TIP3    H113770   4.037   1.550   4.257
 4609TIP3    H213771   3.943   1.477   4.351
 4610TIP3   OH213772   7.665   5.297   6.130
 4610TIP3    H113773   7.610   5.306   6.052
 4610TIP3    H213774   7.629   5.362   6.191
 4611TIP3   OH213775   5.502   1.320   5.649
 4611TIP3    H113776   5.463   1.306   5.562
 4611TIP3    H213777   5.584   1.366   5.632
 4612TIP3   OH213778   4.306   0.701   2.199
 4612TIP3    H113779   4.256   0.667   2.274
 4612TIP3    H213780   4.250   0.683   2.123
 4613TIP3   OH213781   5.215   0.890   2.118
 4613TIP3    H113782   5.253   0.826   2.057
 4613TIP3    H213783   5.146   0.842   2.164
 4614TIP3   OH213784   3.238   6.458   0.377
 4614TIP3    H113785   3.217   6.431   0.288
 4614TIP3    H213786   3.155   6.450   0.425
 4615TIP3   OH213787   5.633   7.389   3.107
 4615TIP3    H113788   5.603   7.478   3.090
 4615TIP3    H213789   5.570   7.354   3.170
 4616TIP3   OH213790   3.844   3.781   2.231
 4616TIP3    H113791   3.915   3.748   2.286
 4616TIP3    H213792   3.885   3.849   2.177
 4617TIP3   OH213793   8.143   4.486   3.872
 4617TIP3    H113794   8.230   4.526   3.870
 4617TIP3    H213795   8.108   4.510   3.958
 4618TIP3   OH213796   6.032   2.572   2.279
 4618TIP3    H113797   5.982   2.537   2.352
 4618TIP3    H213798   5.987   2.541   2.201
 4619TIP3   OH213799   6.006   6.792   5.854
 4619TIP3    H113800   6.057   6.847   5.913
 4619TIP3    H213801   6.063   6.716   5.837
 4620TIP3   OH213802   3.086   0.128   5.178
 4620TIP3    H113803   3.019   0.061   5.170
 4620TIP3    H213804   3.052   0.188   5.244
 4621TIP3   OH213805   5.019   1.738   3.706
 4621TIP3    H113806   5.018   1.798   3.781
 4621TIP3    H213807   5.035   1.652   3.744
 4622TIP3   OH213808   7.466   4.771   5.634
 4622TIP3    H113809   7.470   4.708   5.563
 4622TIP3    H213810   7.431   4.722   5.708
 4623TIP3   OH213811   4.030   4.033   4.548
 4623TIP3    H113812   3.935   4.042   4.546
 4623TIP3    H213813   4.054   4.050   4.640
 4624TIP3   OH213814   5.025   7.303   1.961
 4624TIP3    H113815   5.087   7.282   2.031
 4624TIP3    H213816   5.037   7.396   1.944
 4625TIP3   OH213817   4.742   6.459   3.321
 4625TIP3    H113818   4.765   6.371   3.293
 4625TIP3    H213819   4.824   6.508   3.320
 4626TIP3   OH213820   3.478   4.963   1.571
 4626TIP3    H113821   3.558   4.916   1.551
 4626TIP3    H213822   3.439   4.982   1.485
 4627TIP3   OH213823   8.232   5.483   3.110
 4627TIP3    H113824   8.137   5.471   3.113
 4627TIP3    H213825   8.249   5.512   3.021
 4628TIP3   OH213826   8.178   1.747   4.849
 4628TIP3    H113827   8.259   1.774   4.806
 4628TIP3    H213828   8.152   1.823   4.901
 4629TIP3   OH213829   6.746   1.012   4.564
 4629TIP3    H113830   6.655   0.999   4.592
 4629TIP3    H213831   6.788   0.927   4.580
 4630TIP3   OH213832   3.954   1.137   2.560
 4630TIP3    H113833   3.942   1.211   2.620
 4630TIP3    H213834   3.870   1.128   2.516
 4631TIP3   OH213835   1.512   3.698   2.414
 4631TIP3    H113836   1.428   3.718   2.374
 4631TIP3    H213837   1.493   3.687   2.507
 4632TIP3   OH213838   8.030   1.252   5.036
 4632TIP3    H113839   8.048   1.341   5.006
 4632TIP3    H213840   8.031   1.257   5.131
 4633TIP3   OH213841   5.645   5.899   0.303
 4633TIP3    H113842   5.651   5.850   0.385
 4633TIP3    H213843   5.555   5.887   0.274
 4634TIP3   OH213844   4.312   0.331   4.488
 4634TIP3    H113845   4.320   0.370   4.400
 4634TIP3    H213846   4.288   0.404   4.544
 4635TIP3   OH213847   6.250   1.177   5.849
 4635TIP3    H113848   6.216   1.264   5.871
 4635TIP3    H213849   6.184   1.116   5.881
 4636TIP3   OH213850   4.955   2.442   5.134
 4636TIP3    H113851   4.877   2.471   5.089
 4636TIP3    H213852   5.018   2.422   5.065
 4637TIP3   OH213853   4.134   1.611   4.035
 4637TIP3    H113854   4.198   1.673   3.999
 4637TIP3    H213855   4.056   1.663   4.051
 4638TIP3   OH213856   5.512   3.676   4.296
 4638TIP3    H113857   5.590   3.722   4.324
 4638TIP3    H213858   5.479   3.634   4.376
 4639TIP3   OH213859   1.075   5.817   6.726
 4639TIP3    H113860   1.166   5.841   6.740
 4639TIP3    H213861   1.069   5.726   6.755
 4640TIP3   OH213862   4.553   0.757   1.718
 4640TIP3    H113863   4.556   0.686   1.783
 4640TIP3    H213864   4.600   0.721   1.643
 4641TIP3   OH213865   6.233   0.229   1.240
 4641TIP3    H113866   6.308   0.173   1.219
 4641TIP3    H213867   6.157   0.173   1.226
 4642TIP3   OH213868   4.244   1.769   5.351
 4642TIP3    H113869   4.280   1.736   5.433
 4642TIP3    H213870   4.316   1.762   5.288
 4643TIP3   OH213871   3.570   2.732   2.752
 4643TIP3    H113872   3.521   2.756   2.830
 4643TIP3    H213873   3.615   2.813   2.726
 4644TIP3   OH213874   7.107   5.592   4.446
 4644TIP3    H113875   7.046   5.632   4.384
 4644TIP3    H213876   7.094   5.498   4.437
 4645TIP3   OH213877   6.555   2.024   6.550
 4645TIP3    H113878   6.588   2.113   6.534
 4645TIP3    H213879   6.488   2.035   6.617
 4646TIP3   OH213880   0.565   4.909   5.774
 4646TIP3    H113881   0.474   4.880   5.769
 4646TIP3    H213882   0.612   4.854   5.711
 4647TIP3   OH213883   7.220   7.680   6.501
 4647TIP3    H113884   7.161   7.699   6.428
 4647TIP3    H213885   7.165   7.685   6.579
 4648TIP3   OH213886   6.557   6.211   2.014
 4648TIP3    H113887   6.529   6.148   1.948
 4648TIP3    H213888   6.647   6.233   1.990
 4649TIP3   OH213889   1.039   0.167   2.506
 4649TIP3    H113890   1.040   0.158   2.411
 4649TIP3    H213891   1.125   0.136   2.534
 4650TIP3   OH213892   3.599   1.259   5.111
 4650TIP3    H113893   3.594   1.320   5.037
 4650TIP3    H213894   3.508   1.243   5.135
 4651TIP3   OH213895   6.787   5.107   1.230
 4651TIP3    H113896   6.856   5.081   1.291
 4651TIP3    H213897   6.737   5.026   1.216
 4652TIP3   OH213898   5.753   5.114   5.208
 4652TIP3    H113899   5.677   5.063   5.235
 4652TIP3    H213900   5.821   5.049   5.189
 4653TIP3   OH213901   6.857   7.156   1.088
 4653TIP3    H113902   6.881   7.064   1.078
 4653TIP3    H213903   6.763   7.159   1.072
 4654TIP3   OH213904   2.902   0.411   1.432
 4654TIP3    H113905   2.967   0.478   1.412
 4654TIP3    H213906   2.875   0.378   1.346
 4655TIP3   OH213907   5.202   4.202   2.702
 4655TIP3    H113908   5.175   4.287   2.667
 4655TIP3    H213909   5.288   4.219   2.742
 4656TIP3   OH213910   7.003   2.092   1.940
 4656TIP3    H113911   7.005   2.165   2.002
 4656TIP3    H213912   6.997   2.014   1.995
 4657TIP3   OH213913   7.666   7.117   1.273
 4657TIP3    H113914   7.692   7.183   1.209
 4657TIP3    H213915   7.664   7.165   1.356
 4658TIP3   OH213916   0.676   5.945   5.488
 4658TIP3    H113917   0.619   5.979   5.556
 4658TIP3    H213918   0.617   5.901   5.427
 4659TIP3   OH213919   4.661   7.029   4.541
 4659TIP3    H113920   4.717   7.057   4.469
 4659TIP3    H213921   4.573   7.026   4.503
 4660TIP3   OH213922   1.530   3.729   3.759
 4660TIP3    H113923   1.546   3.750   3.668
 4660TIP3    H213924   1.435   3.734   3.770
 4661TIP3   OH213925   0.204   0.171   5.232
 4661TIP3    H113926   0.280   0.141   5.282
 4661TIP3    H213927   0.221   0.264   5.217
 4662TIP3   OH213928   7.237   2.062   4.943
 4662TIP3    H113929   7.229   1.984   4.887
 4662TIP3    H213930   7.184   2.042   5.020
 4663TIP3   OH213931   8.199   4.447   4.672
 4663TIP3    H113932   8.188   4.376   4.609
 4663TIP3    H213933   8.224   4.522   4.619
 4664TIP3   OH213934   0.583   7.390   5.108
 4664TIP3    H113935   0.667   7.436   5.096
 4664TIP3    H213936   0.573   7.337   5.029
 4665TIP3   OH213937   2.981   7.071   3.647
 4665TIP3    H113938   2.950   6.984   3.624
 4665TIP3    H213939   2.910   7.108   3.701
 4666TIP3   OH213940   6.094   2.749   0.856
 4666TIP3    H113941   6.186   2.766   0.835
 4666TIP3    H213942   6.096   2.678   0.920
 4667TIP3   OH213943   0.131   0.038   4.722
 4667TIP3    H113944   0.174   0.118   4.691
 4667TIP3    H213945   0.048   0.036   4.674
 4668TIP3   OH213946   5.243   2.742   5.431
 4668TIP3    H113947   5.182   2.790   5.376
 4668TIP3    H213948   5.249   2.655   5.391
 4669TIP3   OH213949   6.838   6.766   4.101
 4669TIP3    H113950   6.890   6.701   4.148
 4669TIP3    H213951   6.873   6.850   4.131
 4670TIP3   OH213952   5.991   0.138   1.185
 4670TIP3    H113953   5.987   0.067   1.120
 4670TIP3    H213954   5.900   0.167   1.193
 4671TIP3   OH213955   5.831   6.920   2.426
 4671TIP3    H113956   5.819   7.012   2.403
 4671TIP3    H213957   5.743   6.882   2.419
 4672TIP3   OH213958   2.353   7.492   4.979
 4672TIP3    H113959   2.308   7.467   4.898
 4672TIP3    H213960   2.377   7.584   4.966
 4673TIP3   OH213961   0.730   1.709   2.041
 4673TIP3    H113962   0.649   1.663   2.059
 4673TIP3    H213963   0.794   1.668   2.099
 4674TIP3   OH213964   5.110   7.578   3.551
 4674TIP3    H113965   5.089   7.643   3.618
 4674TIP3    H213966   5.044   7.590   3.483
 4675TIP3   OH213967   4.538   0.160   5.852
 4675TIP3    H113968   4.492   0.076   5.847
 4675TIP3    H213969   4.474   0.220   5.890
 4676TIP3   OH213970   1.382   3.922   0.298
 4676TIP3    H113971   1.427   3.839   0.314
 4676TIP3    H213972   1.452   3.984   0.275
 4677TIP3   OH213973   3.663   0.829   4.775
 4677TIP3    H113974   3.615   0.908   4.801
 4677TIP3    H213975   3.613   0.757   4.813
 4678TIP3   OH213976   4.437   1.443   5.756
 4678TIP3    H113977   4.403   1.512   5.813
 4678TIP3    H213978   4.362   1.384   5.743
 4679TIP3   OH213979   5.700   7.364   1.870
 4679TIP3    H113980   5.606   7.353   1.856
 4679TIP3    H213981   5.713   7.349   1.963
 4680TIP3   OH213982   1.577   5.819   2.849
 4680TIP3    H113983   1.514   5.824   2.777
 4680TIP3    H213984   1.662   5.816   2.806
 4681TIP3   OH213985   3.207   4.816   0.762
 4681TIP3    H113986   3.245   4.798   0.848
 4681TIP3    H213987   3.120   4.850   0.781
 4682TIP3   OH213988   3.037   1.235   3.229
 4682TIP3    H113989   3.123   1.269   3.201
 4682TIP3    H213990   2.994   1.211   3.147
 4683TIP3   OH213991   1.173   6.641   3.971
 4683TIP3    H113992   1.230   6.583   3.921
 4683TIP3    H213993   1.202   6.632   4.062
 4684TIP3   OH213994   5.123   6.738   5.449
 4684TIP3    H113995   5.165   6.718   5.365
 4684TIP3    H213996   5.124   6.655   5.497
 4685TIP3   OH213997   3.221   5.572   5.660
 4685TIP3    H113998   3.269   5.529   5.731
 4685TIP3    H213999   3.129   5.566   5.686
 4686TIP3   OH214000   1.494   7.375   5.294
 4686TIP3    H114001   1.523   7.288   5.268
 4686TIP3    H214002   1.521   7.383   5.386
 4687TIP3   OH214003   1.755   0.239   5.494
 4687TIP3    H114004   1.670   0.269   5.461
 4687TIP3    H214005   1.795   0.318   5.531
 4688TIP3   OH214006   4.800   2.979   2.898
 4688TIP3    H114007   4.789   2.931   2.980
 4688TIP3    H214008   4.721   3.031   2.890
 4689TIP3   OH214009   7.997   4.634   0.989
 4689TIP3    H114010   8.069   4.684   1.026
 4689TIP3    H214011   7.968   4.578   1.060
 4690TIP3   OH214012   3.827   0.500   6.339
 4690TIP3    H114013   3.822   0.405   6.339
 4690TIP3    H214014   3.836   0.524   6.431
 4691TIP3   OH214015   5.752   4.264   5.400
 4691TIP3    H114016   5.719   4.349   5.372
 4691TIP3    H214017   5.721   4.254   5.490
 4692TIP3   OH214018   6.371   5.144   0.300
 4692TIP3    H114019   6.442   5.164   0.239
 4692TIP3    H214020   6.296   5.194   0.267
 4693TIP3   OH214021   2.083   4.548   1.117
 4693TIP3    H114022   2.024   4.546   1.042
 4693TIP3    H214023   2.038   4.495   1.183
 4694TIP3   OH214024   5.397   3.618   5.495
 4694TIP3    H114025   5.384   3.671   5.574
 4694TIP3    H214026   5.318   3.564   5.488
 4695TIP3   OH214027   5.916   1.273   5.900
 4695TIP3    H114028   6.003   1.293   5.934
 4695TIP3    H214029   5.856   1.308   5.965
 4696TIP3   OH214030   5.525   1.818   1.327
 4696TIP3    H114031   5.608   1.865   1.322
 4696TIP3    H214032   5.458   1.886   1.331
 4697TIP3   OH214033   2.285   5.250   3.669
 4697TIP3    H114034   2.196   5.236   3.700
 4697TIP3    H214035   2.275   5.308   3.593
 4698TIP3   OH214036   1.647   4.717   3.517
 4698TIP3    H114037   1.717   4.662   3.483
 4698TIP3    H214038   1.684   4.805   3.518
 4699TIP3   OH214039   5.334   2.563   4.404
 4699TIP3    H114040   5.403   2.587   4.342
 4699TIP3    H214041   5.369   2.485   4.448
 4700TIP3   OH214042   2.283   3.184   5.219
 4700TIP3    H114043   2.322   3.116   5.164
 4700TIP3    H214044   2.318   3.168   5.306
 4701TIP3   OH214045   6.775   1.099   6.164
 4701TIP3    H114046   6.745   1.162   6.098
 4701TIP3    H214047   6.844   1.050   6.121
 4702TIP3   OH214048   3.591   6.224   4.187
 4702TIP3    H114049   3.611   6.282   4.260
 4702TIP3    H214050   3.580   6.138   4.228
 4703TIP3   OH214051   2.424   0.967   1.703
 4703TIP3    H114052   2.459   1.053   1.725
 4703TIP3    H214053   2.355   0.984   1.639
 4704TIP3   OH214054   3.660   1.357   5.351
 4704TIP3    H114055   3.650   1.296   5.278
 4704TIP3    H214056   3.750   1.344   5.380
 4705TIP3   OH214057   8.078   2.284   3.075
 4705TIP3    H114058   8.096   2.354   3.013
 4705TIP3    H214059   8.113   2.205   3.034
 4706TIP3   OH214060   7.089   1.668   2.105
 4706TIP3    H114061   7.130   1.652   2.190
 4706TIP3    H214062   7.155   1.644   2.041
 4707TIP3   OH214063   0.024   5.584   6.708
 4707TIP3    H114064   0.108   5.582   6.755
 4707TIP3    H214065  -0.031   5.642   6.760
 4708TIP3   OH214066   1.108   3.806   0.360
 4708TIP3    H114067   1.181   3.764   0.313
 4708TIP3    H214068   1.037   3.808   0.296
 4709TIP3   OH214069   2.462   4.673   2.319
 4709TIP3    H114070   2.511   4.621   2.255
 4709TIP3    H214071   2.407   4.609   2.365
 4710TIP3   OH214072   0.588   6.535   3.431
 4710TIP3    H114073   0.589   6.447   3.394
 4710TIP3    H214074   0.549   6.589   3.362
 4711TIP3   OH214075   7.530   6.624   5.293
 4711TIP3    H114076   7.478   6.704   5.287
 4711TIP3    H214077   7.468   6.553   5.280
 4712TIP3   OH214078   3.076   5.357   3.140
 4712TIP3    H114079   3.099   5.373   3.232
 4712TIP3    H214080   3.148   5.304   3.106
 4713TIP3   OH214081   6.947   1.969   4.643
 4713TIP3    H114082   6.889   1.904   4.682
 4713TIP3    H214083   6.986   1.925   4.568
 4714TIP3   OH214084   4.354   5.089   1.774
 4714TIP3    H114085   4.282   5.114   1.716
 4714TIP3    H214086   4.431   5.087   1.718
 4715TIP3   OH214087   1.457   1.147   1.707
 4715TIP3    H114088   1.443   1.235   1.742
 4715TIP3    H214089   1.433   1.154   1.614
 4716TIP3   OH214090   0.310   0.807   5.403
 4716TIP3    H114091   0.239   0.817   5.340
 4716TIP3    H214092   0.266   0.808   5.488
 4717TIP3   OH214093   3.501   2.407   1.050
 4717TIP3    H114094   3.409   2.392   1.073
 4717TIP3    H214095   3.500   2.487   0.998
 4718TIP3   OH214096   0.188   7.232   6.599
 4718TIP3    H114097   0.191   7.236   6.695
 4718TIP3    H214098   0.277   7.210   6.573
 4719TIP3   OH214099   0.836   4.008   1.808
 4719TIP3    H114100   0.810   3.919   1.783
 4719TIP3    H214101   0.756   4.060   1.801
 4720TIP3   OH214102   7.747   4.771   2.622
 4720TIP3    H114103   7.766   4.736   2.535
 4720TIP3    H214104   7.815   4.837   2.637
 4721TIP3   OH214105   2.207   1.271   3.510
 4721TIP3    H114106   2.270   1.341   3.530
 4721TIP3    H214107   2.251   1.191   3.538
 4722TIP3   OH214108   6.767   7.470   6.346
 4722TIP3    H114109   6.781   7.558   6.380
 4722TIP3    H214110   6.681   7.474   6.303
 4723TIP3   OH214111   5.202   1.582   5.500
 4723TIP3    H114112   5.125   1.543   5.541
 4723TIP3    H214113   5.255   1.507   5.472
 4724TIP3   OH214114   7.612   2.756   2.661
 4724TIP3    H114115   7.567   2.807   2.593
 4724TIP3    H214116   7.692   2.804   2.679
 4725TIP3   OH214117   7.451   3.550   2.974
 4725TIP3    H114118   7.468   3.644   2.965
 4725TIP3    H214119   7.488   3.511   2.895
 4726TIP3   OH214120   1.043   2.616   1.406
 4726TIP3    H114121   1.047   2.521   1.398
 4726TIP3    H214122   1.004   2.645   1.324
 4727TIP3   OH214123   0.920   0.473   0.386
 4727TIP3    H114124   0.991   0.533   0.406
 4727TIP3    H214125   0.960   0.407   0.329
 4728TIP3   OH214126   2.015   2.230   4.600
 4728TIP3    H114127   1.927   2.231   4.637
 4728TIP3    H214128   2.063   2.296   4.650
 4729TIP3   OH214129   4.307   2.558   1.057
 4729TIP3    H114130   4.235   2.602   1.103
 4729TIP3    H214131   4.386   2.597   1.094
 4730TIP3   OH214132   3.405   5.148   0.186
 4730TIP3    H114133   3.383   5.230   0.230
 4730TIP3    H214134   3.432   5.175   0.098
 4731TIP3   OH214135   2.879   5.158   3.279
 4731TIP3    H114136   2.903   5.215   3.206
 4731TIP3    H214137   2.841   5.218   3.343
 4732TIP3   OH214138   7.677   1.921   2.085
 4732TIP3    H114139   7.615   1.850   2.067
 4732TIP3    H214140   7.681   1.971   2.004
 4733TIP3   OH214141   2.775   1.899   3.035
 4733TIP3    H114142   2.742   1.916   3.123
 4733TIP3    H214143   2.704   1.853   2.991
 4734TIP3   OH214144   1.001   5.052   5.251
 4734TIP3    H114145   1.029   4.963   5.275
 4734TIP3    H214146   0.937   5.075   5.318
 4735TIP3   OH214147   3.880   0.548   4.941
 4735TIP3    H114148   3.967   0.548   4.979
 4735TIP3    H214149   3.880   0.624   4.882
 4736TIP3   OH214150   4.463   3.528   6.632
 4736TIP3    H114151   4.407   3.503   6.706
 4736TIP3    H214152   4.552   3.529   6.668
 4737TIP3   OH214153   1.205   4.377   1.679
 4737TIP3    H114154   1.147   4.453   1.675
 4737TIP3    H214155   1.153   4.308   1.720
 4738TIP3   OH214156   2.117   5.919   4.981
 4738TIP3    H114157   2.173   5.847   5.009
 4738TIP3    H214158   2.049   5.924   5.048
 4739TIP3   OH214159   4.162   3.348   6.499
 4739TIP3    H114160   4.106   3.387   6.433
 4739TIP3    H214161   4.115   3.361   6.581
 4740TIP3   OH214162   7.457   3.836   6.300
 4740TIP3    H114163   7.503   3.909   6.257
 4740TIP3    H214164   7.525   3.792   6.351
 4741TIP3   OH214165   4.380   6.607   0.384
 4741TIP3    H114166   4.343   6.558   0.458
 4741TIP3    H214167   4.414   6.540   0.325
 4742TIP3   OH214168   4.852   5.376   4.232
 4742TIP3    H114169   4.882   5.354   4.144
 4742TIP3    H214170   4.777   5.433   4.218
 4743TIP3   OH214171   7.643   6.438   6.678
 4743TIP3    H114172   7.568   6.427   6.619
 4743TIP3    H214173   7.604   6.442   6.765
 4744TIP3   OH214174   4.169   4.142   0.184
 4744TIP3    H114175   4.101   4.104   0.240
 4744TIP3    H214176   4.170   4.085   0.107
 4745TIP3   OH214177   6.134   0.231   5.180
 4745TIP3    H114178   6.160   0.323   5.190
 4745TIP3    H214179   6.212   0.181   5.200
 4746TIP3   OH214180   8.226   7.624   4.780
 4746TIP3    H114181   8.305   7.588   4.739
 4746TIP3    H214182   8.194   7.688   4.717
 4747TIP3   OH214183   1.194   4.329   3.338
 4747TIP3    H114184   1.143   4.352   3.416
 4747TIP3    H214185   1.267   4.391   3.338
 4748TIP3   OH214186   4.496   5.278   5.214
 4748TIP3    H114187   4.405   5.256   5.198
 4748TIP3    H214188   4.509   5.362   5.170
 4749TIP3   OH214189   8.275   6.533   1.354
 4749TIP3    H114190   8.312   6.609   1.310
 4749TIP3    H214191   8.242   6.477   1.284
 4750TIP3   OH214192   8.337   6.704   6.112
 4750TIP3    H114193   8.395   6.772   6.144
 4750TIP3    H214194   8.249   6.740   6.124
 4751TIP3   OH214195   6.931   6.542   0.384
 4751TIP3    H114196   6.920   6.536   0.479
 4751TIP3    H214197   6.928   6.451   0.354
 4752TIP3   OH214198   5.495   2.874   2.724
 4752TIP3    H114199   5.555   2.928   2.673
 4752TIP3    H214200   5.484   2.794   2.672
 4753TIP3   OH214201   5.681   1.779   2.272
 4753TIP3    H114202   5.605   1.788   2.329
 4753TIP3    H214203   5.645   1.781   2.184
 4754TIP3   OH214204   5.276   0.257   6.450
 4754TIP3    H114205   5.334   0.185   6.425
 4754TIP3    H214206   5.325   0.336   6.428
 4755TIP3   OH214207   5.511   4.197   3.803
 4755TIP3    H114208   5.589   4.230   3.758
 4755TIP3    H214209   5.443   4.197   3.736
 4756TIP3   OH214210   7.762   1.006   0.187
 4756TIP3    H114211   7.728   0.917   0.180
 4756TIP3    H214212   7.805   1.009   0.272
 4757TIP3   OH214213   5.403   5.576   4.400
 4757TIP3    H114214   5.334   5.535   4.452
 4757TIP3    H214215   5.389   5.543   4.312
 4758TIP3   OH214216   7.390   5.528   3.195
 4758TIP3    H114217   7.334   5.509   3.270
 4758TIP3    H214218   7.336   5.507   3.119
 4759TIP3   OH214219   6.343   2.598   0.495
 4759TIP3    H114220   6.333   2.507   0.465
 4759TIP3    H214221   6.253   2.628   0.511
 4760TIP3   OH214222   4.475   1.880   5.243
 4760TIP3    H114223   4.462   1.924   5.326
 4760TIP3    H214224   4.452   1.946   5.177
 4761TIP3   OH214225   1.379   3.057   5.872
 4761TIP3    H114226   1.441   3.053   5.800
 4761TIP3    H214227   1.300   3.097   5.834
 4762TIP3   OH214228   1.002   1.407   2.024
 4762TIP3    H114229   0.933   1.425   2.087
 4762TIP3    H214230   1.075   1.464   2.049
 4763TIP3   OH214231   2.951   1.622   6.703
 4763TIP3    H114232   2.975   1.696   6.758
 4763TIP3    H214233   2.992   1.641   6.619
 4764TIP3   OH214234   5.587   5.525   5.152
 4764TIP3    H114235   5.527   5.450   5.153
 4764TIP3    H214236   5.531   5.599   5.127
 4765TIP3   OH214237   6.291   5.636   2.829
 4765TIP3    H114238   6.234   5.680   2.767
 4765TIP3    H214239   6.264   5.668   2.915
 4766TIP3   OH214240   4.986   5.840   2.634
 4766TIP3    H114241   5.001   5.812   2.543
 4766TIP3    H214242   4.902   5.884   2.632
 4767TIP3   OH214243   2.189   4.632   5.781
 4767TIP3    H114244   2.161   4.673   5.863
 4767TIP3    H214245   2.204   4.705   5.721
 4768TIP3   OH214246   2.602   0.417   5.371
 4768TIP3    H114247   2.616   0.387   5.281
 4768TIP3    H214248   2.582   0.337   5.420
 4769TIP3   OH214249   0.310   2.204   6.558
 4769TIP3    H114250   0.305   2.281   6.501
 4769TIP3    H214251   0.313   2.130   6.498
 4770TIP3   OH214252   4.350   3.674   6.235
 4770TIP3    H114253   4.267   3.627   6.242
 4770TIP3    H214254   4.372   3.696   6.325
 4771TIP3   OH214255   8.044   7.327   4.391
 4771TIP3    H114256   8.121   7.326   4.333
 4771TIP3    H214257   7.975   7.368   4.338
 4772TIP3   OH214258   4.221   3.194   2.560
 4772TIP3    H114259   4.225   3.287   2.537
 4772TIP3    H214260   4.264   3.150   2.487
 4773TIP3   OH214261   4.710   1.402   0.901
 4773TIP3    H114262   4.630   1.408   0.953
 4773TIP3    H214263   4.719   1.308   0.882
 4774TIP3   OH214264   7.033   0.981   6.061
 4774TIP3    H114265   7.115   0.935   6.079
 4774TIP3    H214266   6.979   0.918   6.015
 4775TIP3   OH214267   0.981   2.832   6.270
 4775TIP3    H114268   1.075   2.831   6.253
 4775TIP3    H214269   0.944   2.888   6.202
 4776TIP3   OH214270   2.273   1.560   0.794
 4776TIP3    H114271   2.207   1.617   0.755
 4776TIP3    H214272   2.298   1.500   0.723
 4777TIP3   OH214273   7.555   0.671   6.052
 4777TIP3    H114274   7.533   0.746   5.996
 4777TIP3    H214275   7.534   0.702   6.141
 4778TIP3   OH214276   0.507   1.678   3.376
 4778TIP3    H114277   0.586   1.636   3.342
 4778TIP3    H214278   0.509   1.658   3.470
 4779TIP3   OH214279   8.025   6.101   3.931
 4779TIP3    H114280   7.991   6.036   3.993
 4779TIP3    H214281   7.946   6.143   3.895
 4780TIP3   OH214282   8.099   4.481   2.609
 4780TIP3    H114283   8.080   4.464   2.517
 4780TIP3    H214284   8.013   4.494   2.650
 4781TIP3   OH214285   6.151   3.902   5.506
 4781TIP3    H114286   6.232   3.929   5.548
 4781TIP3    H214287   6.179   3.859   5.425
 4782TIP3   OH214288   2.999   4.727   6.432
 4782TIP3    H114289   3.058   4.763   6.365
 4782TIP3    H214290   2.963   4.804   6.476
 4783TIP3   OH214291   1.154   6.477   2.554
 4783TIP3    H114292   1.190   6.418   2.489
 4783TIP3    H214293   1.223   6.487   2.620
 4784TIP3   OH214294   3.458   6.876   4.152
 4784TIP3    H114295   3.451   6.810   4.221
 4784TIP3    H214296   3.405   6.949   4.183
 4785TIP3   OH214297   2.795   3.406   0.187
 4785TIP3    H114298   2.884   3.372   0.182
 4785TIP3    H214299   2.803   3.489   0.234
 4786TIP3   OH214300   0.418   6.633   2.246
 4786TIP3    H114301   0.469   6.666   2.320
 4786TIP3    H214302   0.360   6.705   2.222
 4787TIP3   OH214303   3.101   5.771   2.150
 4787TIP3    H114304   3.041   5.785   2.077
 4787TIP3    H214305   3.081   5.841   2.212
 4788TIP3   OH214306   8.202   1.633   0.190
 4788TIP3    H114307   8.296   1.622   0.201
 4788TIP3    H214308   8.165   1.548   0.211
 4789TIP3   OH214309   4.715   4.839   1.893
 4789TIP3    H114310   4.805   4.838   1.859
 4789TIP3    H214311   4.725   4.839   1.988
 4790TIP3   OH214312   7.647   5.392   4.031
 4790TIP3    H114313   7.654   5.388   4.126
 4790TIP3    H214314   7.553   5.399   4.014
 4791TIP3   OH214315   7.406   6.988   1.887
 4791TIP3    H114316   7.389   7.073   1.930
 4791TIP3    H214317   7.435   6.931   1.958
 4792TIP3   OH214318   3.818   7.144   5.463
 4792TIP3    H114319   3.806   7.181   5.376
 4792TIP3    H214320   3.743   7.177   5.513
 4793TIP3   OH214321   1.082   3.482   4.245
 4793TIP3    H114322   1.126   3.560   4.279
 4793TIP3    H214323   1.038   3.444   4.321
 4794TIP3   OH214324   2.359   3.095   4.649
 4794TIP3    H114325   2.345   3.000   4.643
 4794TIP3    H214326   2.272   3.130   4.670
 4795TIP3   OH214327   0.200   7.686   1.291
 4795TIP3    H114328   0.109   7.695   1.265
 4795TIP3    H214329   0.225   7.772   1.324
 4796TIP3   OH214330   3.504   7.150   4.287
 4796TIP3    H114331   3.433   7.135   4.350
 4796TIP3    H214332   3.554   7.068   4.288
 4797TIP3   OH214333   1.378   4.739   3.023
 4797TIP3    H114334   1.448   4.802   3.037
 4797TIP3    H214335   1.414   4.655   3.051
 4798TIP3   OH214336   0.197   0.289   0.099
 4798TIP3    H114337   0.194   0.366   0.156
 4798TIP3    H214338   0.289   0.261   0.100
 4799TIP3   OH214339   7.818   5.085   1.454
 4799TIP3    H114340   7.804   5.179   1.442
 4799TIP3    H214341   7.878   5.079   1.527
 4800TIP3   OH214342   8.054   6.391   1.852
 4800TIP3    H114343   8.077   6.372   1.762
 4800TIP3    H214344   8.131   6.364   1.903
 4801TIP3   OH214345   4.569   7.814   0.326
 4801TIP3    H114346   4.613   7.744   0.374
 4801TIP3    H214347   4.496   7.839   0.381
 4802TIP3   OH214348   1.822   1.347   2.905
 4802TIP3    H114349   1.802   1.256   2.927
 4802TIP3    H214350   1.914   1.346   2.878
 4803TIP3   OH214351   2.295   3.552   4.805
 4803TIP3    H114352   2.290   3.494   4.881
 4803TIP3    H214353   2.384   3.587   4.808
 4804TIP3   OH214354   4.992   6.518   2.614
 4804TIP3    H114355   5.005   6.446   2.675
 4804TIP3    H214356   4.950   6.586   2.666
 4805TIP3   OH214357   5.330   1.934   2.611
 4805TIP3    H114358   5.325   2.024   2.643
 4805TIP3    H214359   5.362   1.884   2.686
 4806TIP3   OH214360   3.160   3.972   2.367
 4806TIP3    H114361   3.248   3.947   2.340
 4806TIP3    H214362   3.138   3.909   2.436
 4807TIP3   OH214363   3.532   5.635   4.625
 4807TIP3    H114364   3.569   5.639   4.713
 4807TIP3    H214365   3.439   5.616   4.638
 4808TIP3   OH214366   1.030   4.826   2.606
 4808TIP3    H114367   1.075   4.746   2.634
 4808TIP3    H214368   0.996   4.805   2.519
 4809TIP3   OH214369   7.560   0.752   5.132
 4809TIP3    H114370   7.527   0.835   5.098
 4809TIP3    H214371   7.485   0.693   5.130
 4810TIP3   OH214372   0.695   0.550   3.968
 4810TIP3    H114373   0.766   0.607   3.997
 4810TIP3    H214374   0.703   0.549   3.872
 4811TIP3   OH214375   6.340   3.828   5.916
 4811TIP3    H114376   6.253   3.821   5.878
 4811TIP3    H214377   6.371   3.914   5.889
 4812TIP3   OH214378   5.970   2.068   0.846
 4812TIP3    H114379   5.968   2.150   0.895
 4812TIP3    H214380   6.062   2.041   0.850
 4813TIP3   OH214381   7.813   5.954   4.498
 4813TIP3    H114382   7.824   6.025   4.562
 4813TIP3    H214383   7.749   5.989   4.436
 4814TIP3   OH214384   4.798   7.756   2.161
 4814TIP3    H114385   4.708   7.769   2.129
 4814TIP3    H214386   4.817   7.664   2.143
 4815TIP3   OH214387   0.119   0.902   5.226
 4815TIP3    H114388   0.027   0.931   5.230
 4815TIP3    H214389   0.121   0.840   5.154
 4816TIP3   OH214390   8.105   2.020   0.392
 4816TIP3    H114391   8.094   1.927   0.413
 4816TIP3    H214392   8.168   2.021   0.320
 4817TIP3   OH214393   7.050   3.145   4.403
 4817TIP3    H114394   7.054   3.232   4.444
 4817TIP3    H214395   7.131   3.139   4.353
 4818TIP3   OH214396   2.665   0.770   0.265
 4818TIP3    H114397   2.698   0.858   0.285
 4818TIP3    H214398   2.706   0.748   0.181
 4819TIP3   OH214399   7.693   2.050   1.823
 4819TIP3    H114400   7.617   2.042   1.766
 4819TIP3    H214401   7.753   2.108   1.775
 4820TIP3   OH214402   1.506   5.341   5.231
 4820TIP3    H114403   1.446   5.365   5.160
 4820TIP3    H214404   1.451   5.337   5.309
 4821TIP3   OH214405   7.166   1.482   5.508
 4821TIP3    H114406   7.071   1.481   5.506
 4821TIP3    H214407   7.189   1.430   5.585
 4822TIP3   OH214408   2.657   5.686   1.632
 4822TIP3    H114409   2.746   5.661   1.608
 4822TIP3    H214410   2.649   5.777   1.602
 4823TIP3   OH214411   1.519   7.444   4.851
 4823TIP3    H114412   1.574   7.405   4.919
 4823TIP3    H214413   1.565   7.524   4.826
 4824TIP3   OH214414   3.372   0.240   3.118
 4824TIP3    H114415   3.329   0.171   3.168
 4824TIP3    H214416   3.302   0.276   3.063
 4825TIP3   OH214417   0.109   0.051   1.541
 4825TIP3    H114418   0.195   0.031   1.505
 4825TIP3    H214419   0.059   0.083   1.465
 4826TIP3   OH214420   5.739   2.559   0.231
 4826TIP3    H114421   5.644   2.547   0.234
 4826TIP3    H214422   5.753   2.651   0.255
 4827TIP3   OH214423   2.584   3.271   6.351
 4827TIP3    H114424   2.545   3.184   6.343
 4827TIP3    H214425   2.522   3.330   6.308
 4828TIP3   OH214426   7.306   1.953   3.099
 4828TIP3    H114427   7.279   2.005   3.022
 4828TIP3    H214428   7.230   1.900   3.120
 4829TIP3   OH214429   7.528   6.668   0.292
 4829TIP3    H114430   7.457   6.653   0.230
 4829TIP3    H214431   7.487   6.714   0.365
 4830TIP3   OH214432   4.753   4.761   2.150
 4830TIP3    H114433   4.831   4.710   2.172
 4830TIP3    H214434   4.680   4.711   2.187
 4831TIP3   OH214435   6.416   5.888   3.175
 4831TIP3    H114436   6.512   5.887   3.174
 4831TIP3    H214437   6.391   5.917   3.087
 4832TIP3   OH214438   3.292   7.150  -0.002
 4832TIP3    H114439   3.265   7.241   0.014
 4832TIP3    H214440   3.210   7.102  -0.011
 4833TIP3   OH214441   0.666   2.831   1.219
 4833TIP3    H114442   0.643   2.871   1.303
 4833TIP3    H214443   0.758   2.808   1.228
 4834TIP3   OH214444   4.459   3.790   2.302
 4834TIP3    H114445   4.388   3.851   2.287
 4834TIP3    H214446   4.537   3.835   2.268
 4835TIP3   OH214447   7.296   3.642   0.303
 4835TIP3    H114448   7.298   3.657   0.208
 4835TIP3    H214449   7.309   3.548   0.313
 4836TIP3   OH214450   4.642   0.347   0.140
 4836TIP3    H114451   4.573   0.372   0.200
 4836TIP3    H214452   4.721   0.341   0.195
 4837TIP3   OH214453   2.819   1.912   5.509
 4837TIP3    H114454   2.862   1.955   5.583
 4837TIP3    H214455   2.726   1.926   5.524
 4838TIP3   OH214456   0.968   1.892   2.900
 4838TIP3    H114457   0.885   1.851   2.925
 4838TIP3    H214458   1.006   1.922   2.983
 4839TIP3   OH214459   0.061   6.545   3.755
 4839TIP3    H114460   0.091   6.579   3.671
 4839TIP3    H214461   0.133   6.491   3.787
 4840TIP3   OH214462   7.066   3.690   2.448
 4840TIP3    H114463   7.091   3.629   2.379
 4840TIP3    H214464   7.082   3.641   2.529
 4841TIP3   OH214465   1.426   0.984   3.782
 4841TIP3    H114466   1.475   1.066   3.786
 4841TIP3    H214467   1.417   0.966   3.689
 4842TIP3   OH214468   6.180   1.157   0.810
 4842TIP3    H114469   6.230   1.159   0.729
 4842TIP3    H214470   6.112   1.091   0.794
 4843TIP3   OH214471   3.430   2.636   0.896
 4843TIP3    H114472   3.455   2.716   0.850
 4843TIP3    H214473   3.336   2.627   0.878
 4844TIP3   OH214474   1.377   1.611   4.819
 4844TIP3    H114475   1.400   1.559   4.897
 4844TIP3    H214476   1.459   1.650   4.791
 4845TIP3   OH214477   5.941   7.671   2.978
 4845TIP3    H114478   5.936   7.749   3.033
 4845TIP3    H214479   5.913   7.700   2.892
 4846TIP3   OH214480   0.631   7.150   6.549
 4846TIP3    H114481   0.586   7.216   6.496
 4846TIP3    H214482   0.568   7.126   6.617
 4847TIP3   OH214483   0.136   7.546   5.755
 4847TIP3    H114484   0.232   7.539   5.751
 4847TIP3    H214485   0.108   7.536   5.664
 4848TIP3   OH214486   0.975   5.079   2.643
 4848TIP3    H114487   1.008   5.113   2.726
 4848TIP3    H214488   0.986   4.984   2.650
 4849TIP3   OH214489   1.366   3.455   5.207
 4849TIP3    H114490   1.346   3.502   5.288
 4849TIP3    H214491   1.456   3.480   5.186
 4850TIP3   OH214492   7.003   5.502   3.865
 4850TIP3    H114493   6.998   5.452   3.946
 4850TIP3    H214494   7.057   5.448   3.807
 4851TIP3   OH214495   0.384   3.764   4.954
 4851TIP3    H114496   0.359   3.688   5.007
 4851TIP3    H214497   0.431   3.822   5.014
 4852TIP3   OH214498   5.150   7.460   6.648
 4852TIP3    H114499   5.219   7.476   6.583
 4852TIP3    H214500   5.121   7.371   6.631
 4853TIP3   OH214501   2.434   2.118   5.043
 4853TIP3    H114502   2.438   2.213   5.052
 4853TIP3    H214503   2.343   2.099   5.021
 4854TIP3   OH214504   8.010   1.485   0.522
 4854TIP3    H114505   7.989   1.456   0.611
 4854TIP3    H214506   8.077   1.423   0.492
 4855TIP3   OH214507   0.077   2.228   0.076
 4855TIP3    H114508   0.015   2.183   0.019
 4855TIP3    H214509   0.044   2.318   0.080
 4856TIP3   OH214510   6.286   7.188   2.511
 4856TIP3    H114511   6.226   7.157   2.580
 4856TIP3    H214512   6.243   7.266   2.475
 4857TIP3   OH214513   1.147   5.367   6.476
 4857TIP3    H114514   1.167   5.383   6.569
 4857TIP3    H214515   1.226   5.325   6.442
 4858TIP3   OH214516   3.904   3.431   2.880
 4858TIP3    H114517   3.995   3.411   2.902
 4858TIP3    H214518   3.909   3.510   2.826
 4859TIP3   OH214519   1.105   0.238   4.943
 4859TIP3    H114520   1.146   0.200   4.865
 4859TIP3    H214521   1.109   0.169   5.009
 4860TIP3   OH214522   3.015   0.667   3.620
 4860TIP3    H114523   3.022   0.751   3.665
 4860TIP3    H214524   3.087   0.667   3.558
 4861TIP3   OH214525   6.279   7.619   1.249
 4861TIP3    H114526   6.221   7.694   1.254
 4861TIP3    H214527   6.281   7.596   1.156
 4862TIP3   OH214528   6.047   3.688   0.375
 4862TIP3    H114529   6.138   3.712   0.392
 4862TIP3    H214530   6.033   3.608   0.426
 4863TIP3   OH214531   1.455   7.556   3.623
 4863TIP3    H114532   1.499   7.608   3.691
 4863TIP3    H214533   1.365   7.590   3.622
 4864TIP3   OH214534   6.959   3.131   3.518
 4864TIP3    H114535   6.864   3.132   3.526
 4864TIP3    H214536   6.981   3.039   3.508
 4865TIP3   OH214537   3.347   4.036   6.057
 4865TIP3    H114538   3.381   4.001   6.139
 4865TIP3    H214539   3.388   4.123   6.049
 4866TIP3   OH214540   5.368   4.048   6.608
 4866TIP3    H114541   5.341   3.985   6.542
 4866TIP3    H214542   5.344   4.007   6.691
 4867TIP3   OH214543   4.528   4.224   2.077
 4867TIP3    H114544   4.487   4.307   2.054
 4867TIP3    H214545   4.588   4.205   2.005
 4868TIP3   OH214546   5.553   1.558   4.097
 4868TIP3    H114547   5.634   1.520   4.129
 4868TIP3    H214548   5.512   1.487   4.047
 4869TIP3   OH214549   3.260   0.390   2.897
 4869TIP3    H114550   3.280   0.481   2.876
 4869TIP3    H214551   3.172   0.377   2.864
 4870TIP3   OH214552   6.804   5.759   5.500
 4870TIP3    H114553   6.832   5.668   5.491
 4870TIP3    H214554   6.710   5.753   5.519
 4871TIP3   OH214555   4.932   4.587   2.511
 4871TIP3    H114556   4.941   4.578   2.416
 4871TIP3    H214557   4.847   4.546   2.531
 4872TIP3   OH214558   7.127   7.271   0.064
 4872TIP3    H114559   7.037   7.262   0.032
 4872TIP3    H214560   7.177   7.208   0.013
 4873TIP3   OH214561   7.067   5.710   6.209
 4873TIP3    H114562   7.097   5.727   6.120
 4873TIP3    H214563   7.059   5.797   6.249
 4874TIP3   OH214564   5.817   2.768   2.121
 4874TIP3    H114565   5.851   2.684   2.091
 4874TIP3    H214566   5.791   2.753   2.212
 4875TIP3   OH214567   4.466   5.735   1.898
 4875TIP3    H114568   4.372   5.754   1.896
 4875TIP3    H214569   4.500   5.777   1.819
 4876TIP3   OH214570   7.133   0.638   0.991
 4876TIP3    H114571   7.188   0.615   0.916
 4876TIP3    H214572   7.105   0.728   0.973
 4877TIP3   OH214573   4.204   4.475   4.210
 4877TIP3    H114574   4.266   4.494   4.140
 4877TIP3    H214575   4.239   4.520   4.287
 4878TIP3   OH214576   7.443   2.981   2.849
 4878TIP3    H114577   7.513   2.953   2.790
 4878TIP3    H214578   7.479   2.968   2.937
 4879TIP3   OH214579   4.179   7.073   5.306
 4879TIP3    H114580   4.156   7.133   5.377
 4879TIP3    H214581   4.202   6.991   5.350
 4880TIP3   OH214582   3.107   2.751   2.605
 4880TIP3    H114583   3.140   2.662   2.590
 4880TIP3    H214584   3.141   2.774   2.692
 4881TIP3   OH214585   5.553   2.587   6.480
 4881TIP3    H114586   5.464   2.620   6.471
 4881TIP3    H214587   5.568   2.584   6.575
 4882TIP3   OH214588   2.692   2.443   0.919
 4882TIP3    H114589   2.639   2.426   0.997
 4882TIP3    H214590   2.719   2.534   0.928
 4883TIP3   OH214591   2.646   4.018   4.953
 4883TIP3    H114592   2.573   4.073   4.925
 4883TIP3    H214593   2.627   3.932   4.915
 4884TIP3   OH214594   4.106   4.335   0.381
 4884TIP3    H114595   4.138   4.281   0.310
 4884TIP3    H214596   4.181   4.343   0.441
 4885TIP3   OH214597   7.315   2.272   2.209
 4885TIP3    H114598   7.273   2.267   2.294
 4885TIP3    H214599   7.402   2.309   2.226
 4886TIP3   OH214600   7.832   5.131   4.515
 4886TIP3    H114601   7.902   5.178   4.470
 4886TIP3    H214602   7.798   5.070   4.449
 4887TIP3   OH214603   4.533   7.275   6.086
 4887TIP3    H114604   4.589   7.303   6.014
 4887TIP3    H214605   4.447   7.264   6.046
 4888TIP3   OH214606   5.881   4.078   1.406
 4888TIP3    H114607   5.909   4.059   1.316
 4888TIP3    H214608   5.938   4.149   1.434
 4889TIP3   OH214609   0.455   6.064   0.714
 4889TIP3    H114610   0.362   6.082   0.701
 4889TIP3    H214611   0.498   6.107   0.641
 4890TIP3   OH214612   3.898   3.162   0.887
 4890TIP3    H114613   3.989   3.142   0.865
 4890TIP3    H214614   3.901   3.247   0.930
 4891TIP3   OH214615   7.934   4.276   4.522
 4891TIP3    H114616   7.878   4.318   4.456
 4891TIP3    H214617   8.013   4.253   4.474
 4892TIP3   OH214618   2.093   3.687   4.426
 4892TIP3    H114619   2.092   3.598   4.460
 4892TIP3    H214620   2.083   3.742   4.504
 4893TIP3   OH214621   0.953   2.691   1.163
 4893TIP3    H114622   0.919   2.628   1.099
 4893TIP3    H214623   1.046   2.699   1.141
 4894TIP3   OH214624   4.230   3.689   2.604
 4894TIP3    H114625   4.305   3.641   2.639
 4894TIP3    H214626   4.248   3.781   2.626
 4895TIP3   OH214627   5.825   6.138   6.789
 4895TIP3    H114628   5.854   6.082   6.717
 4895TIP3    H214629   5.886   6.120   6.860
 4896TIP3   OH214630   4.421   4.244   1.267
 4896TIP3    H114631   4.362   4.218   1.338
 4896TIP3    H214632   4.369   4.235   1.188
 4897TIP3   OH214633   3.662   0.231   4.827
 4897TIP3    H114634   3.624   0.164   4.885
 4897TIP3    H214635   3.601   0.304   4.832
 4898TIP3   OH214636   4.066   2.453   5.011
 4898TIP3    H114637   4.151   2.461   4.967
 4898TIP3    H214638   4.087   2.433   5.102
 4899TIP3   OH214639   6.976   4.915   4.917
 4899TIP3    H114640   6.902   4.867   4.955
 4899TIP3    H214641   7.053   4.882   4.964
 4900TIP3   OH214642   2.433   2.809   1.107
 4900TIP3    H114643   2.416   2.861   1.028
 4900TIP3    H214644   2.505   2.854   1.150
 4901TIP3   OH214645   3.650   3.091   0.870
 4901TIP3    H114646   3.740   3.118   0.891
 4901TIP3    H214647   3.632   3.130   0.785
 4902TIP3   OH214648   1.039   3.001   2.100
 4902TIP3    H114649   1.050   3.095   2.113
 4902TIP3    H214650   1.073   2.961   2.181
 4903TIP3   OH214651   1.672   6.189   0.990
 4903TIP3    H114652   1.753   6.141   1.005
 4903TIP3    H214653   1.648   6.223   1.076
 4904TIP3   OH214654   6.710   7.433   0.853
 4904TIP3    H114655   6.731   7.451   0.944
 4904TIP3    H214656   6.785   7.382   0.820
 4905TIP3   OH214657   7.557   7.556   3.858
 4905TIP3    H114658   7.510   7.617   3.800
 4905TIP3    H214659   7.489   7.498   3.892
 4906TIP3   OH214660   2.938   4.357   5.838
 4906TIP3    H114661   2.846   4.377   5.854
 4906TIP3    H214662   2.966   4.313   5.919
 4907TIP3   OH214663   6.091   2.060   0.232
 4907TIP3    H114664   6.171   2.011   0.215
 4907TIP3    H214665   6.081   2.117   0.155
 4908TIP3   OH214666   6.346   1.320   2.951
 4908TIP3    H114667   6.271   1.310   3.009
 4908TIP3    H214668   6.347   1.241   2.898
 4909TIP3   OH214669   1.444   6.254   0.803
 4909TIP3    H114670   1.529   6.211   0.792
 4909TIP3    H214671   1.426   6.293   0.718
 4910TIP3   OH214672   6.536   4.155   3.838
 4910TIP3    H114673   6.455   4.128   3.880
 4910TIP3    H214674   6.591   4.077   3.839
 4911TIP3   OH214675   0.431   3.725   3.174
 4911TIP3    H114676   0.484   3.804   3.166
 4911TIP3    H214677   0.455   3.688   3.258
 4912TIP3   OH214678   0.235   0.548   1.145
 4912TIP3    H114679   0.142   0.559   1.161
 4912TIP3    H214680   0.249   0.454   1.144
 4913TIP3   OH214681   0.268   5.578   1.122
 4913TIP3    H114682   0.222   5.558   1.204
 4913TIP3    H214683   0.207   5.633   1.073
 4914TIP3   OH214684   2.717   2.860   4.438
 4914TIP3    H114685   2.782   2.841   4.505
 4914TIP3    H214686   2.683   2.946   4.462
 4915TIP3   OH214687   2.581   3.094   3.249
 4915TIP3    H114688   2.536   3.031   3.192
 4915TIP3    H214689   2.533   3.090   3.331
 4916TIP3   OH214690   2.313   2.288   5.870
 4916TIP3    H114691   2.271   2.362   5.914
 4916TIP3    H214692   2.265   2.279   5.787
 4917TIP3   OH214693   4.204   5.231   4.210
 4917TIP3    H114694   4.121   5.232   4.258
 4917TIP3    H214695   4.203   5.311   4.158
 4918TIP3   OH214696   6.731   7.453   0.223
 4918TIP3    H114697   6.760   7.362   0.236
 4918TIP3    H214698   6.803   7.506   0.258
 4919TIP3   OH214699   6.552   1.641   6.569
 4919TIP3    H114700   6.641   1.610   6.586
 4919TIP3    H214701   6.559   1.691   6.488
 4920TIP3   OH214702   1.193   6.369   5.048
 4920TIP3    H114703   1.213   6.342   4.958
 4920TIP3    H214704   1.155   6.292   5.089
 4921TIP3   OH214705   0.338   4.563   0.173
 4921TIP3    H114706   0.290   4.609   0.104
 4921TIP3    H214707   0.286   4.576   0.252
 4922TIP3   OH214708   7.054   5.165   1.983
 4922TIP3    H114709   6.997   5.111   2.038
 4922TIP3    H214710   7.012   5.166   1.898
 4923TIP3   OH214711   7.154   0.132   2.463
 4923TIP3    H114712   7.132   0.202   2.524
 4923TIP3    H214713   7.242   0.104   2.489
 4924TIP3   OH214714   7.835   4.040   3.534
 4924TIP3    H114715   7.752   4.026   3.579
 4924TIP3    H214716   7.860   3.954   3.501
 4925TIP3   OH214717   2.757   4.390   0.415
 4925TIP3    H114718   2.719   4.378   0.328
 4925TIP3    H214719   2.736   4.480   0.439
 4926TIP3   OH214720   3.889   2.972   0.683
 4926TIP3    H114721   3.824   2.930   0.627
 4926TIP3    H214722   3.838   3.031   0.739
 4927TIP3   OH214723   3.439   5.201   2.351
 4927TIP3    H114724   3.365   5.247   2.312
 4927TIP3    H214725   3.496   5.180   2.277
 4928TIP3   OH214726   6.602   3.384   6.781
 4928TIP3    H114727   6.692   3.414   6.770
 4928TIP3    H214728   6.551   3.465   6.790
 4929TIP3   OH214729   5.101   1.993   2.247
 4929TIP3    H114730   5.185   2.036   2.235
 4929TIP3    H214731   5.067   1.981   2.158
 4930TIP3   OH214732   3.542   5.747   3.113
 4930TIP3    H114733   3.481   5.681   3.080
 4930TIP3    H214734   3.622   5.698   3.132
 4931TIP3   OH214735   4.819   3.751   5.425
 4931TIP3    H114736   4.874   3.698   5.483
 4931TIP3    H214737   4.822   3.706   5.341
 4932TIP3   OH214738   8.089   5.484   2.113
 4932TIP3    H114739   8.111   5.402   2.158
 4932TIP3    H214740   8.169   5.537   2.117
 4933TIP3   OH214741   5.394   2.080   1.275
 4933TIP3    H114742   5.417   2.112   1.188
 4933TIP3    H214743   5.301   2.101   1.284
 4934TIP3   OH214744   2.857   3.220   1.217
 4934TIP3    H114745   2.818   3.306   1.201
 4934TIP3    H214746   2.937   3.220   1.163
 4935TIP3   OH214747   2.203   1.980   5.612
 4935TIP3    H114748   2.247   1.989   5.528
 4935TIP3    H214749   2.175   1.888   5.615
 4936TIP3   OH214750   7.723   4.786   6.122
 4936TIP3    H114751   7.643   4.838   6.123
 4936TIP3    H214752   7.773   4.820   6.047
 4937TIP3   OH214753   6.217   1.444   2.742
 4937TIP3    H114754   6.239   1.437   2.834
 4937TIP3    H214755   6.301   1.457   2.698
 4938TIP3   OH214756   4.802   6.065   2.732
 4938TIP3    H114757   4.713   6.045   2.761
 4938TIP3    H214758   4.792   6.096   2.642
 4939TIP3   OH214759   3.390   2.193   0.699
 4939TIP3    H114760   3.321   2.150   0.648
 4939TIP3    H214761   3.379   2.286   0.682
 4940TIP3   OH214762   2.174   6.640   6.615
 4940TIP3    H114763   2.086   6.615   6.586
 4940TIP3    H214764   2.164   6.730   6.646
 4941TIP3   OH214765   0.710   2.085   4.211
 4941TIP3    H114766   0.642   2.035   4.165
 4941TIP3    H214767   0.734   2.030   4.286
 4942TIP3   OH214768   3.064   0.702   0.257
 4942TIP3    H114769   3.130   0.640   0.227
 4942TIP3    H214770   3.041   0.753   0.180
 4943TIP3   OH214771   2.579   5.902   2.798
 4943TIP3    H114772   2.650   5.866   2.850
 4943TIP3    H214773   2.585   5.997   2.811
 4944TIP3   OH214774   3.604   4.284   4.379
 4944TIP3    H114775   3.525   4.324   4.343
 4944TIP3    H214776   3.590   4.190   4.371
 4945TIP3   OH214777   7.482   5.567   6.657
 4945TIP3    H114778   7.413   5.538   6.597
 4945TIP3    H214779   7.518   5.486   6.694
 4946TIP3   OH214780   7.324   6.250   4.524
 4946TIP3    H114781   7.252   6.191   4.545
 4946TIP3    H214782   7.299   6.334   4.562
 4947TIP3   OH214783   3.164   3.870   5.568
 4947TIP3    H114784   3.086   3.920   5.590
 4947TIP3    H214785   3.217   3.873   5.648
 4948TIP3   OH214786   7.829   0.202   6.348
 4948TIP3    H114787   7.924   0.191   6.348
 4948TIP3    H214788   7.811   0.248   6.266
 4949TIP3   OH214789   5.954   5.107   4.316
 4949TIP3    H114790   6.049   5.118   4.322
 4949TIP3    H214791   5.920   5.155   4.392
 4950TIP3   OH214792   0.073   0.289   1.073
 4950TIP3    H114793   0.107   0.217   1.020
 4950TIP3    H214794  -0.017   0.300   1.044
 4951TIP3   OH214795   4.978   3.112   5.045
 4951TIP3    H114796   4.926   3.056   5.102
 4951TIP3    H214797   4.922   3.125   4.968
 4952TIP3   OH214798   1.976   4.189   2.053
 4952TIP3    H114799   1.906   4.176   1.989
 4952TIP3    H214800   2.034   4.114   2.042
 4953TIP3   OH214801   3.696   3.140   4.246
 4953TIP3    H114802   3.630   3.166   4.181
 4953TIP3    H214803   3.768   3.202   4.233
 4954TIP3   OH214804   1.186   7.004   2.055
 4954TIP3    H114805   1.200   7.062   2.130
 4954TIP3    H214806   1.109   6.953   2.078
 4955TIP3   OH214807   4.846   3.087   4.809
 4955TIP3    H114808   4.760   3.124   4.788
 4955TIP3    H214809   4.886   3.067   4.724
 4956TIP3   OH214810   2.630   3.760   2.760
 4956TIP3    H114811   2.612   3.851   2.784
 4956TIP3    H214812   2.692   3.768   2.686
 4957TIP3   OH214813   6.941   3.440   3.662
 4957TIP3    H114814   7.031   3.473   3.653
 4957TIP3    H214815   6.931   3.377   3.591
 4958TIP3   OH214816   3.174   6.213   5.848
 4958TIP3    H114817   3.109   6.195   5.781
 4958TIP3    H214818   3.134   6.279   5.904
 4959TIP3   OH214819   0.387   6.425   5.527
 4959TIP3    H114820   0.348   6.507   5.498
 4959TIP3    H214821   0.312   6.367   5.541
 4960TIP3   OH214822   0.128   1.267   5.875
 4960TIP3    H114823   0.114   1.175   5.899
 4960TIP3    H214824   0.220   1.283   5.895
 4961TIP3   OH214825   5.181   6.455   6.718
 4961TIP3    H114826   5.115   6.451   6.650
 4961TIP3    H214827   5.218   6.367   6.722
 4962TIP3   OH214828   3.606   6.917   3.310
 4962TIP3    H114829   3.659   6.857   3.362
 4962TIP3    H214830   3.516   6.898   3.334
 4963TIP3   OH214831   5.727   7.431   3.452
 4963TIP3    H114832   5.650   7.374   3.444
 4963TIP3    H214833   5.700   7.499   3.514
 4964TIP3   OH214834   4.947   6.832   4.813
 4964TIP3    H114835   4.892   6.910   4.808
 4964TIP3    H214836   4.964   6.820   4.906
 4965TIP3   OH214837   5.585   5.244   4.464
 4965TIP3    H114838   5.537   5.270   4.542
 4965TIP3    H214839   5.568   5.151   4.455
 4966TIP3   OH214840   2.196   2.024   3.701
 4966TIP3    H114841   2.228   1.941   3.736
 4966TIP3    H214842   2.251   2.091   3.743
 4967TIP3   OH214843   1.348   5.454   2.242
 4967TIP3    H114844   1.347   5.481   2.150
 4967TIP3    H214845   1.440   5.448   2.264
 4968TIP3   OH214846   1.844   4.926   3.385
 4968TIP3    H114847   1.904   4.852   3.393
 4968TIP3    H214848   1.825   4.952   3.475
 4969TIP3   OH214849   0.960   4.744   3.635
 4969TIP3    H114850   0.943   4.731   3.728
 4969TIP3    H214851   1.027   4.812   3.632
 4970TIP3   OH214852   6.854   4.718   2.687
 4970TIP3    H114853   6.876   4.723   2.595
 4970TIP3    H214854   6.914   4.652   2.723
 4971TIP3   OH214855   2.206   5.318   6.276
 4971TIP3    H114856   2.298   5.305   6.300
 4971TIP3    H214857   2.199   5.412   6.259
 4972TIP3   OH214858   1.145   0.564   1.466
 4972TIP3    H114859   1.059   0.547   1.427
 4972TIP3    H214860   1.192   0.615   1.400
 4973TIP3   OH214861   5.867   5.491   1.668
 4973TIP3    H114862   5.848   5.553   1.597
 4973TIP3    H214863   5.951   5.518   1.703
 4974TIP3   OH214864   4.321   3.355   1.742
 4974TIP3    H114865   4.239   3.308   1.758
 4974TIP3    H214866   4.337   3.343   1.648
 4975TIP3   OH214867   6.865   4.205   6.476
 4975TIP3    H114868   6.784   4.182   6.521
 4975TIP3    H214869   6.929   4.141   6.505
 4976TIP3   OH214870   4.637   3.934   1.067
 4976TIP3    H114871   4.609   3.894   1.149
 4976TIP3    H214872   4.632   3.862   1.003
 4977TIP3   OH214873   1.461   1.590   5.846
 4977TIP3    H114874   1.461   1.685   5.837
 4977TIP3    H214875   1.451   1.575   5.940
 4978TIP3   OH214876   4.425   1.109   0.441
 4978TIP3    H114877   4.483   1.087   0.368
 4978TIP3    H214878   4.337   1.100   0.406
 4979TIP3   OH214879   4.877   6.312   0.271
 4979TIP3    H114880   4.963   6.292   0.308
 4979TIP3    H214881   4.896   6.361   0.191
 4980TIP3   OH214882   0.515   2.911   2.977
 4980TIP3    H114883   0.473   2.972   3.037
 4980TIP3    H214884   0.457   2.834   2.976
 4981TIP3   OH214885   3.759   5.877   3.423
 4981TIP3    H114886   3.809   5.912   3.497
 4981TIP3    H214887   3.748   5.951   3.364
 4982TIP3   OH214888   8.081   3.511   2.129
 4982TIP3    H114889   8.139   3.585   2.111
 4982TIP3    H214890   8.098   3.488   2.220
 4983TIP3   OH214891   3.436   6.697   2.233
 4983TIP3    H114892   3.480   6.621   2.194
 4983TIP3    H214893   3.460   6.770   2.176
 4984TIP3   OH214894   8.142   3.429   0.935
 4984TIP3    H114895   8.074   3.458   0.874
 4984TIP3    H214896   8.131   3.485   1.012
 4985TIP3   OH214897   6.674   2.452   0.530
 4985TIP3    H114898   6.639   2.387   0.591
 4985TIP3    H214899   6.660   2.536   0.575
 4986TIP3   OH214900   4.985   0.955   0.766
 4986TIP3    H114901   4.944   0.911   0.691
 4986TIP3    H214902   4.912   0.975   0.825
 4987TIP3   OH214903   7.080   5.366   6.028
 4987TIP3    H114904   7.020   5.419   5.976
 4987TIP3    H214905   7.085   5.283   5.980
 4988TIP3   OH214906   4.279   2.165   0.395
 4988TIP3    H114907   4.233   2.160   0.311
 4988TIP3    H214908   4.370   2.141   0.373
 4989TIP3   OH214909   0.389   4.353   0.421
 4989TIP3    H114910   0.417   4.287   0.358
 4989TIP3    H214911   0.327   4.408   0.373
 4990TIP3   OH214912   2.878   6.802   4.295
 4990TIP3    H114913   2.785   6.799   4.272
 4990TIP3    H214914   2.890   6.728   4.355
 4991TIP3   OH214915   4.519   2.979   4.296
 4991TIP3    H114916   4.508   2.890   4.328
 4991TIP3    H214917   4.550   2.968   4.206
 4992TIP3   OH214918   7.047   7.784   0.002
 4992TIP3    H114919   7.100   7.815   0.075
 4992TIP3    H214920   7.024   7.694   0.025
 4993TIP3   OH214921   5.466   3.685   4.762
 4993TIP3    H114922   5.417   3.653   4.685
 4993TIP3    H214923   5.445   3.622   4.831
 4994TIP3   OH214924   3.088   6.668   0.127
 4994TIP3    H114925   3.091   6.653   0.032
 4994TIP3    H214926   3.176   6.644   0.158
 4995TIP3   OH214927   3.637   6.620   4.159
 4995TIP3    H114928   3.630   6.641   4.252
 4995TIP3    H214929   3.729   6.596   4.147
 4996TIP3   OH214930   0.112   7.800   2.120
 4996TIP3    H114931   0.170   7.791   2.044
 4996TIP3    H214932   0.084   7.892   2.117
 4997TIP3   OH214933   6.728   6.943   0.858
 4997TIP3    H114934   6.654   6.983   0.904
 4997TIP3    H214935   6.769   6.886   0.923
 4998TIP3   OH214936   2.849   5.345   3.485
 4998TIP3    H114937   2.756   5.357   3.505
 4998TIP3    H214938   2.887   5.313   3.567
 4999TIP3   OH214939   3.323   7.403   5.797
 4999TIP3    H114940   3.300   7.396   5.705
 4999TIP3    H214941   3.265   7.470   5.832
 5000TIP3   OH214942   6.512   6.434   6.561
 5000TIP3    H114943   6.557   6.390   6.633
 5000TIP3    H214944   6.541   6.388   6.482
 5001TIP3   OH214945   5.589   0.540   6.188
 5001TIP3    H114946   5.523   0.520   6.121
 5001TIP3    H214947   5.652   0.596   6.142
 5002TIP3   OH214948   7.962   0.358   4.666
 5002TIP3    H114949   7.939   0.363   4.759
 5002TIP3    H214950   7.923   0.276   4.635
 5003TIP3   OH214951   3.537   2.410   0.486
 5003TIP3    H114952   3.480   2.471   0.531
 5003TIP3    H214953   3.495   2.395   0.402
 5004TIP3   OH214954   3.381   6.305   2.194
 5004TIP3    H114955   3.309   6.358   2.162
 5004TIP3    H214956   3.365   6.295   2.288
 5005TIP3   OH214957   5.995   1.491   3.398
 5005TIP3    H114958   5.999   1.582   3.369
 5005TIP3    H214959   5.929   1.451   3.341
 5006TIP3   OH214960   2.354   2.405   4.029
 5006TIP3    H114961   2.326   2.336   3.968
 5006TIP3    H214962   2.285   2.471   4.023
 5007TIP3   OH214963   7.467   4.431   5.612
 5007TIP3    H114964   7.417   4.434   5.529
 5007TIP3    H214965   7.400   4.422   5.679
 5008TIP3   OH214966   4.095   5.991   5.766
 5008TIP3    H114967   4.186   5.960   5.763
 5008TIP3    H214968   4.060   5.970   5.680
 5009TIP3   OH214969   7.846   7.396   4.679
 5009TIP3    H114970   7.829   7.401   4.773
 5009TIP3    H214971   7.940   7.375   4.674
 5010TIP3   OH214972   6.686   0.391   6.700
 5010TIP3    H114973   6.692   0.362   6.609
 5010TIP3    H214974   6.611   0.343   6.736
 5011TIP3   OH214975   8.215   4.236   4.460
 5011TIP3    H114976   8.207   4.245   4.365
 5011TIP3    H214977   8.309   4.232   4.476
 5012TIP3   OH214978   6.113   0.898   2.000
 5012TIP3    H114979   6.122   0.855   1.915
 5012TIP3    H214980   6.074   0.983   1.981
 5013TIP3   OH214981   2.608   3.687   4.324
 5013TIP3    H114982   2.596   3.753   4.392
 5013TIP3    H214983   2.551   3.716   4.252
 5014TIP3   OH214984   7.912   3.413   6.673
 5014TIP3    H114985   7.821   3.439   6.681
 5014TIP3    H214986   7.938   3.442   6.586
 5015TIP3   OH214987   0.245   1.158   4.746
 5015TIP3    H114988   0.226   1.096   4.675
 5015TIP3    H214989   0.244   1.104   4.825
 5016TIP3   OH214990   3.679   1.396   4.448
 5016TIP3    H114991   3.701   1.414   4.540
 5016TIP3    H214992   3.679   1.301   4.442
 5017TIP3   OH214993   6.467   5.722   3.392
 5017TIP3    H114994   6.443   5.765   3.310
 5017TIP3    H214995   6.386   5.721   3.444
 5018TIP3   OH214996   1.154   4.245   5.932
 5018TIP3    H114997   1.201   4.174   5.975
 5018TIP3    H214998   1.097   4.202   5.869
 5019TIP3   OH214999   1.953   4.063   6.442
 5019TIP3    H115000   1.942   4.156   6.426
 5019TIP3    H215001   2.048   4.049   6.439
 5020TIP3   OH215002   2.452   4.225   4.896
 5020TIP3    H115003   2.404   4.177   4.964
 5020TIP3    H215004   2.425   4.184   4.814
 5021TIP3   OH215005   5.272   3.296   0.070
 5021TIP3    H115006   5.341   3.230   0.065
 5021TIP3    H215007   5.305   3.359   0.134
 5022TIP3   OH215008   3.021   0.027   0.296
 5022TIP3    H115009   3.031  -0.066   0.274
 5022TIP3    H215010   3.046   0.074   0.216
 5023TIP3   OH215011   0.730   6.044   1.396
 5023TIP3    H115012   0.819   6.045   1.361
 5023TIP3    H215013   0.739   6.081   1.484
 5024TIP3   OH215014   8.078   5.256   0.017
 5024TIP3    H115015   8.097   5.282   0.107
 5024TIP3    H215016   8.098   5.334  -0.035
 5025TIP3   OH215017   4.250   5.065   2.159
 5025TIP3    H115018   4.233   5.012   2.081
 5025TIP3    H215019   4.197   5.024   2.228
 5026TIP3   OH215020   2.649   7.250   3.043
 5026TIP3    H115021   2.708   7.321   3.067
 5026TIP3    H215022   2.597   7.235   3.122
 5027TIP3   OH215023   4.409   1.602   1.113
 5027TIP3    H115024   4.481   1.582   1.174
 5027TIP3    H215025   4.337   1.545   1.141
 5028TIP3   OH215026   0.420   4.586   4.509
 5028TIP3    H115027   0.473   4.625   4.579
 5028TIP3    H215028   0.466   4.607   4.429
 5029TIP3   OH215029   4.482   0.951   3.142
 5029TIP3    H115030   4.457   1.029   3.191
 5029TIP3    H215031   4.563   0.975   3.098
 5030TIP3   OH215032   7.749   0.006   1.332
 5030TIP3    H115033   7.713   0.071   1.391
 5030TIP3    H215034   7.840  -0.004   1.358
 5031TIP3   OH215035   6.993   5.147   3.142
 5031TIP3    H115036   7.044   5.146   3.061
 5031TIP3    H215037   6.913   5.193   3.119
 5032TIP3   OH215038   1.697   5.117   4.524
 5032TIP3    H115039   1.776   5.147   4.478
 5032TIP3    H215040   1.629   5.116   4.456
 5033TIP3   OH215041   2.745   2.223   5.333
 5033TIP3    H115042   2.726   2.129   5.327
 5033TIP3    H215043   2.661   2.263   5.357
 5034TIP3   OH215044   3.855   2.670   1.975
 5034TIP3    H115045   3.789   2.709   2.031
 5034TIP3    H215046   3.836   2.576   1.975
 5035TIP3   OH215047   1.869   0.016   5.746
 5035TIP3    H115048   1.802  -0.045   5.716
 5035TIP3    H215049   1.905   0.053   5.665
 5036TIP3   OH215050   1.746   7.744   0.386
 5036TIP3    H115051   1.716   7.764   0.474
 5036TIP3    H215052   1.828   7.792   0.377
 5037TIP3   OH215053   8.172   6.438   6.392
 5037TIP3    H115054   8.085   6.476   6.406
 5037TIP3    H215055   8.196   6.400   6.477
 5038TIP3   OH215056   8.297   2.392   6.775
 5038TIP3    H115057   8.248   2.386   6.692
 5038TIP3    H215058   8.232   2.373   6.842
 5039TIP3   OH215059   3.586   3.896   4.129
 5039TIP3    H115060   3.652   3.917   4.064
 5039TIP3    H215061   3.503   3.907   4.084
 5040TIP3   OH215062   2.851   3.409   5.560
 5040TIP3    H115063   2.759   3.391   5.582
 5040TIP3    H215064   2.870   3.350   5.488
 5041TIP3   OH215065   7.282   2.183   1.931
 5041TIP3    H115066   7.197   2.224   1.913
 5041TIP3    H215067   7.289   2.185   2.027
 5042TIP3   OH215068   3.085   2.953   1.962
 5042TIP3    H115069   3.065   3.022   1.898
 5042TIP3    H215070   3.005   2.947   2.015
 5043TIP3   OH215071   3.918   6.611   5.616
 5043TIP3    H115072   3.863   6.538   5.588
 5043TIP3    H215073   3.985   6.618   5.548
 5044TIP3   OH215074   8.063   2.729   4.111
 5044TIP3    H115075   7.969   2.721   4.091
 5044TIP3    H215076   8.093   2.639   4.121
 5045TIP3   OH215077   4.426   7.285   1.171
 5045TIP3    H115078   4.380   7.305   1.090
 5045TIP3    H215079   4.497   7.349   1.176
 5046TIP3   OH215080   0.118   1.840   4.731
 5046TIP3    H115081   0.188   1.904   4.745
 5046TIP3    H215082   0.161   1.755   4.741
 5047TIP3   OH215083   4.547   4.579   0.469
 5047TIP3    H115084   4.536   4.674   0.457
 5047TIP3    H215085   4.626   4.571   0.523
 5048TIP3   OH215086   5.957   2.164   5.703
 5048TIP3    H115087   5.925   2.228   5.766
 5048TIP3    H215088   5.893   2.165   5.632
 5049TIP3   OH215089   0.169   7.417   1.341
 5049TIP3    H115090   0.196   7.509   1.335
 5049TIP3    H215091   0.160   7.389   1.250
 5050TIP3   OH215092   6.120   5.940   5.800
 5050TIP3    H115093   6.112   6.005   5.730
 5050TIP3    H215094   6.070   5.976   5.873
 5051TIP3   OH215095   0.497   4.983   2.451
 5051TIP3    H115096   0.535   4.985   2.363
 5051TIP3    H215097   0.551   4.920   2.498
 5052TIP3   OH215098   1.066   2.846   5.490
 5052TIP3    H115099   1.048   2.935   5.458
 5052TIP3    H215100   1.072   2.856   5.585
 5053TIP3   OH215101   8.263   5.485   1.146
 5053TIP3    H115102   8.168   5.486   1.131
 5053TIP3    H215103   8.300   5.469   1.060
 5054TIP3   OH215104   5.955   3.526   0.586
 5054TIP3    H115105   5.939   3.434   0.607
 5054TIP3    H215106   5.912   3.574   0.657
 5055TIP3   OH215107   8.121   3.476   2.402
 5055TIP3    H115108   8.188   3.458   2.468
 5055TIP3    H215109   8.070   3.548   2.439
 5056TIP3   OH215110   6.713   2.766   6.230
 5056TIP3    H115111   6.637   2.823   6.241
 5056TIP3    H215112   6.689   2.685   6.277
 5057TIP3   OH215113   4.573   7.489   6.286
 5057TIP3    H115114   4.536   7.430   6.220
 5057TIP3    H215115   4.529   7.464   6.368
 5058TIP3   OH215116   7.751   1.787   6.695
 5058TIP3    H115117   7.762   1.707   6.746
 5058TIP3    H215118   7.657   1.793   6.679
 5059TIP3   OH215119   7.811   6.459   3.675
 5059TIP3    H115120   7.898   6.496   3.661
 5059TIP3    H215121   7.799   6.463   3.770
 5060TIP3   OH215122   5.504   3.048   2.940
 5060TIP3    H115123   5.425   3.101   2.950
 5060TIP3    H215124   5.477   2.976   2.882
 5061TIP3   OH215125   0.892   4.171  -0.025
 5061TIP3    H115126   0.901   4.112  -0.100
 5061TIP3    H215127   0.818   4.135   0.025
 5062TIP3   OH215128   3.395   6.783   4.755
 5062TIP3    H115129   3.394   6.879   4.754
 5062TIP3    H215130   3.487   6.760   4.760
 5063TIP3   OH215131   7.794   2.486   6.243
 5063TIP3    H115132   7.823   2.566   6.198
 5063TIP3    H215133   7.867   2.425   6.233
 5064TIP3   OH215134   1.386   1.813   3.900
 5064TIP3    H115135   1.380   1.900   3.861
 5064TIP3    H215136   1.371   1.827   3.994
 5065TIP3   OH215137   1.888   5.766   2.085
 5065TIP3    H115138   1.940   5.829   2.135
 5065TIP3    H215139   1.900   5.683   2.131
 5066TIP3   OH215140   1.194   3.713   4.401
 5066TIP3    H115141   1.281   3.716   4.440
 5066TIP3    H215142   1.187   3.794   4.350
 5067TIP3   OH215143   6.980   7.516   5.579
 5067TIP3    H115144   6.922   7.592   5.567
 5067TIP3    H215145   7.040   7.544   5.648
 5068TIP3   OH215146   1.583   0.387   6.057
 5068TIP3    H115147   1.608   0.398   6.149
 5068TIP3    H215148   1.652   0.332   6.020
 5069TIP3   OH215149   5.673   5.395   1.368
 5069TIP3    H115150   5.743   5.444   1.325
 5069TIP3    H215151   5.688   5.304   1.343
 5070TIP3   OH215152   6.037   3.626   4.294
 5070TIP3    H115153   6.112   3.586   4.252
 5070TIP3    H215154   6.013   3.565   4.364
 5071TIP3   OH215155   6.291   5.488   0.918
 5071TIP3    H115156   6.291   5.573   0.962
 5071TIP3    H215157   6.226   5.436   0.966
 5072TIP3   OH215158   4.948   1.238   5.410
 5072TIP3    H115159   4.858   1.254   5.380
 5072TIP3    H215160   4.972   1.155   5.369
 5073TIP3   OH215161   6.550   6.193   5.222
 5073TIP3    H115162   6.539   6.104   5.256
 5073TIP3    H215163   6.634   6.222   5.257
 5074TIP3   OH215164   5.349   4.984   0.093
 5074TIP3    H115165   5.306   4.936   0.163
 5074TIP3    H215166   5.290   5.058   0.075
 5075TIP3   OH215167   2.655   4.846   0.840
 5075TIP3    H115168   2.691   4.791   0.910
 5075TIP3    H215169   2.561   4.850   0.860
 5076TIP3   OH215170   4.340   4.004   2.163
 5076TIP3    H115171   4.331   3.943   2.090
 5076TIP3    H215172   4.390   4.078   2.127
 5077TIP3   OH215173   7.761   6.542   0.395
 5077TIP3    H115174   7.813   6.503   0.325
 5077TIP3    H215175   7.689   6.585   0.349
 5078TIP3   OH215176   5.757   5.758   5.683
 5078TIP3    H115177   5.826   5.745   5.749
 5078TIP3    H215178   5.785   5.836   5.634
 5079TIP3   OH215179   5.561   6.578   2.752
 5079TIP3    H115180   5.556   6.565   2.657
 5079TIP3    H215181   5.479   6.544   2.786
 5080TIP3   OH215182   7.036   7.229   3.691
 5080TIP3    H115183   6.992   7.206   3.772
 5080TIP3    H215184   7.090   7.152   3.670
 5081TIP3   OH215185   5.831   5.088   1.962
 5081TIP3    H115186   5.925   5.076   1.953
 5081TIP3    H215187   5.823   5.149   2.036
 5082TIP3   OH215188   0.747   3.352   6.297
 5082TIP3    H115189   0.799   3.347   6.217
 5082TIP3    H215190   0.688   3.277   6.292
 5083TIP3   OH215191   7.842   5.155   1.881
 5083TIP3    H115192   7.785   5.081   1.900
 5083TIP3    H215193   7.784   5.231   1.877
 5084TIP3   OH215194   4.087   5.997   6.060
 5084TIP3    H115195   4.094   5.982   5.966
 5084TIP3    H215196   4.001   6.037   6.072
 5085TIP3   OH215197   8.016   4.025   0.609
 5085TIP3    H115198   8.022   4.057   0.519
 5085TIP3    H215199   8.060   3.940   0.607
 5086TIP3   OH215200   5.746   3.351   4.491
 5086TIP3    H115201   5.726   3.439   4.522
 5086TIP3    H215202   5.782   3.306   4.567
 5087TIP3   OH215203   3.354   1.234   1.583
 5087TIP3    H115204   3.353   1.223   1.678
 5087TIP3    H215205   3.429   1.183   1.554
 5088TIP3   OH215206   1.576   6.770   3.001
 5088TIP3    H115207   1.600   6.692   3.051
 5088TIP3    H215208   1.562   6.738   2.912
 5089TIP3   OH215209   4.508   6.060   4.898
 5089TIP3    H115210   4.423   6.074   4.939
 5089TIP3    H215211   4.549   5.992   4.951
 5090TIP3   OH215212   5.866   2.041   6.691
 5090TIP3    H115213   5.786   1.992   6.708
 5090TIP3    H215214   5.872   2.102   6.764
 5091TIP3   OH215215   2.673   7.524   0.323
 5091TIP3    H115216   2.744   7.584   0.344
 5091TIP3    H215217   2.658   7.536   0.229
 5092TIP3   OH215218   0.594   5.368   3.908
 5092TIP3    H115219   0.596   5.283   3.863
 5092TIP3    H215220   0.636   5.428   3.847
 5093TIP3   OH215221   3.820   5.654   2.372
 5093TIP3    H115222   3.810   5.579   2.313
 5093TIP3    H215223   3.730   5.682   2.390
 5094TIP3   OH215224   5.732   5.158   0.296
 5094TIP3    H115225   5.686   5.091   0.346
 5094TIP3    H215226   5.733   5.125   0.206
 5095TIP3   OH215227   1.909   3.078   1.399
 5095TIP3    H115228   1.906   3.151   1.337
 5095TIP3    H215229   1.823   3.036   1.392
 5096TIP3   OH215230   2.716   4.389   3.029
 5096TIP3    H115231   2.778   4.396   2.956
 5096TIP3    H215232   2.635   4.359   2.988
 5097TIP3   OH215233   1.597   3.044   3.471
 5097TIP3    H115234   1.602   3.034   3.566
 5097TIP3    H215235   1.560   3.132   3.458
 5098TIP3   OH215236   5.811   3.825   0.481
 5098TIP3    H115237   5.765   3.792   0.404
 5098TIP3    H215238   5.903   3.808   0.463
 5099TIP3   OH215239   8.217   0.126   2.475
 5099TIP3    H115240   8.292   0.103   2.529
 5099TIP3    H215241   8.254   0.152   2.391
 5100TIP3   OH215242   1.475   3.315   3.368
 5100TIP3    H115243   1.386   3.280   3.373
 5100TIP3    H215244   1.463   3.410   3.370
 5101TIP3   OH215245   3.643   2.703   5.990
 5101TIP3    H115246   3.628   2.741   5.903
 5101TIP3    H215247   3.593   2.621   5.989
 5102TIP3   OH215248   7.327   5.884   5.083
 5102TIP3    H115249   7.291   5.795   5.088
 5102TIP3    H215250   7.389   5.881   5.010
 5103TIP3   OH215251   8.131   3.150   4.347
 5103TIP3    H115252   8.156   3.058   4.340
 5103TIP3    H215253   8.161   3.176   4.434
 5104TIP3   OH215254   3.609   2.710   2.116
 5104TIP3    H115255   3.519   2.709   2.083
 5104TIP3    H215256   3.635   2.801   2.113
 5105TIP3   OH215257   7.334   1.436   6.689
 5105TIP3    H115258   7.254   1.438   6.741
 5105TIP3    H215259   7.312   1.385   6.612
 5106TIP3   OH215260   7.465   4.334   3.260
 5106TIP3    H115261   7.420   4.299   3.337
 5106TIP3    H215262   7.551   4.292   3.261
 5107TIP3   OH215263   1.726   7.102   6.504
 5107TIP3    H115264   1.639   7.135   6.480
 5107TIP3    H215265   1.762   7.169   6.562
 5108TIP3   OH215266   2.074   0.861   5.776
 5108TIP3    H115267   2.065   0.813   5.859
 5108TIP3    H215268   2.118   0.943   5.801
 5109TIP3   OH215269   3.459   3.035   1.736
 5109TIP3    H115270   3.495   3.061   1.651
 5109TIP3    H215271   3.388   3.098   1.751
 5110TIP3   OH215272   8.056   4.344   3.151
 5110TIP3    H115273   8.042   4.253   3.177
 5110TIP3    H215274   8.067   4.340   3.056
 5111TIP3   OH215275   0.421   5.917   2.167
 5111TIP3    H115276   0.341   5.944   2.123
 5111TIP3    H215277   0.429   5.824   2.146
 5112TIP3   OH215278   1.236   4.781   2.230
 5112TIP3    H115279   1.296   4.855   2.235
 5112TIP3    H215280   1.149   4.820   2.240
 5113TIP3   OH215281   2.974   0.974   5.539
 5113TIP3    H115282   2.967   1.070   5.538
 5113TIP3    H215283   3.017   0.954   5.623
 5114TIP3   OH215284   5.351   1.563   6.644
 5114TIP3    H115285   5.324   1.648   6.609
 5114TIP3    H215286   5.419   1.533   6.584
 5115TIP3   OH215287   5.652   1.127   3.889
 5115TIP3    H115288   5.684   1.080   3.812
 5115TIP3    H215289   5.720   1.192   3.907
 5116TIP3   OH215290   2.089   1.621   4.428
 5116TIP3    H115291   2.098   1.626   4.333
 5116TIP3    H215292   2.081   1.527   4.446
 5117TIP3   OH215293   3.603   7.328   2.267
 5117TIP3    H115294   3.587   7.376   2.186
 5117TIP3    H215295   3.589   7.236   2.243
 5118TIP3   OH215296   4.064   5.245   6.604
 5118TIP3    H115297   4.065   5.278   6.514
 5118TIP3    H215298   4.045   5.322   6.658
 5119TIP3   OH215299   3.130   2.651   1.138
 5119TIP3    H115300   3.137   2.582   1.072
 5119TIP3    H215301   3.061   2.708   1.106
 5120TIP3   OH215302   4.268   0.626   1.924
 5120TIP3    H115303   4.331   0.560   1.894
 5120TIP3    H215304   4.217   0.648   1.846
 5121TIP3   OH215305   4.446   1.727   0.212
 5121TIP3    H115306   4.542   1.731   0.208
 5121TIP3    H215307   4.424   1.761   0.298
 5122TIP3   OH215308   7.456   2.331   3.599
 5122TIP3    H115309   7.542   2.294   3.621
 5122TIP3    H215310   7.400   2.307   3.672
 5123TIP3   OH215311   3.150   4.013   0.881
 5123TIP3    H115312   3.230   4.062   0.903
 5123TIP3    H215313   3.082   4.054   0.935
 5124TIP3   OH215314   0.870   6.573   2.316
 5124TIP3    H115315   0.860   6.501   2.253
 5124TIP3    H215316   0.872   6.529   2.401
 5125TIP3   OH215317   1.784   3.830   0.274
 5125TIP3    H115318   1.866   3.781   0.271
 5125TIP3    H215319   1.778   3.873   0.189
 5126TIP3   OH215320   1.241   1.883   2.758
 5126TIP3    H115321   1.178   1.850   2.822
 5126TIP3    H215322   1.228   1.828   2.681
 5127TIP3   OH215323   0.701   6.805   4.804
 5127TIP3    H115324   0.726   6.887   4.761
 5127TIP3    H215325   0.647   6.760   4.739
 5128TIP3   OH215326   7.172   1.175   2.785
 5128TIP3    H115327   7.246   1.235   2.775
 5128TIP3    H215328   7.111   1.221   2.842
 5129TIP3   OH215329   2.540   6.662   1.138
 5129TIP3    H115330   2.503   6.675   1.226
 5129TIP3    H215331   2.616   6.605   1.153
 5130TIP3   OH215332   2.779   7.267   2.314
 5130TIP3    H115333   2.764   7.277   2.219
 5130TIP3    H215334   2.873   7.251   2.322
 5131TIP3   OH215335   1.272   0.518   6.146
 5131TIP3    H115336   1.215   0.586   6.182
 5131TIP3    H215337   1.355   0.530   6.192
 5132TIP3   OH215338   2.313   4.192   2.691
 5132TIP3    H115339   2.311   4.110   2.642
 5132TIP3    H215340   2.237   4.241   2.660
 5133TIP3   OH215341   5.273   7.720   6.676
 5133TIP3    H115342   5.280   7.634   6.634
 5133TIP3    H215343   5.181   7.727   6.701
 5134TIP3   OH215344   2.636   2.729   1.586
 5134TIP3    H115345   2.607   2.641   1.560
 5134TIP3    H215346   2.652   2.722   1.680
 5135TIP3   OH215347   5.755   7.430   6.200
 5135TIP3    H115348   5.748   7.484   6.121
 5135TIP3    H215349   5.829   7.467   6.248
 5136TIP3   OH215350   7.110   6.305   1.954
 5136TIP3    H115351   7.081   6.217   1.975
 5136TIP3    H215352   7.200   6.295   1.925
 5137TIP3   OH215353   1.235   3.592   5.459
 5137TIP3    H115354   1.299   3.662   5.451
 5137TIP3    H215355   1.165   3.617   5.399
 5138TIP3   OH215356   6.239   4.460   5.987
 5138TIP3    H115357   6.294   4.470   5.910
 5138TIP3    H215358   6.265   4.532   6.045
 5139TIP3   OH215359   4.661   7.033   1.432
 5139TIP3    H115360   4.573   7.024   1.394
 5139TIP3    H215361   4.650   7.006   1.523
 5140TIP3   OH215362   2.138   5.031   1.731
 5140TIP3    H115363   2.148   4.969   1.660
 5140TIP3    H215364   2.115   4.977   1.807
 5141TIP3   OH215365   6.179   6.359   6.714
 5141TIP3    H115366   6.100   6.409   6.735
 5141TIP3    H215367   6.150   6.268   6.709
 5142TIP3   OH215368   6.900   6.910   3.243
 5142TIP3    H115369   6.931   6.821   3.226
 5142TIP3    H215370   6.933   6.930   3.331
 5143TIP3   OH215371   3.705   4.593   3.210
 5143TIP3    H115372   3.749   4.527   3.264
 5143TIP3    H215373   3.613   4.588   3.236
 5144TIP3   OH215374   4.276   3.076   4.439
 5144TIP3    H115375   4.288   3.041   4.527
 5144TIP3    H215376   4.230   3.007   4.392
 5145TIP3   OH215377   3.801   5.422   2.610
 5145TIP3    H115378   3.745   5.433   2.533
 5145TIP3    H215379   3.890   5.435   2.576
 5146TIP3   OH215380   2.216   7.808   5.170
 5146TIP3    H115381   2.236   7.859   5.091
 5146TIP3    H215382   2.277   7.735   5.168
 5147TIP3   OH215383   3.700   7.450   3.268
 5147TIP3    H115384   3.688   7.406   3.183
 5147TIP3    H215385   3.693   7.380   3.332
 5148TIP3   OH215386   1.736   5.855   4.724
 5148TIP3    H115387   1.679   5.793   4.679
 5148TIP3    H215388   1.683   5.887   4.797
 5149TIP3   OH215389   5.540   2.609   4.204
 5149TIP3    H115390   5.544   2.583   4.112
 5149TIP3    H215391   5.523   2.703   4.201
 5150TIP3   OH215392   2.153   0.716  -0.034
 5150TIP3    H115393   2.239   0.754  -0.056
 5150TIP3    H215394   2.166   0.676   0.053
 5151TIP3   OH215395   5.089   6.208   4.420
 5151TIP3    H115396   5.094   6.287   4.366
 5151TIP3    H215397   5.063   6.239   4.506
 5152TIP3   OH215398   7.098   0.789   4.876
 5152TIP3    H115399   7.160   0.860   4.890
 5152TIP3    H215400   7.059   0.775   4.963
 5153TIP3   OH215401   4.898   6.089   1.598
 5153TIP3    H115402   4.959   6.082   1.525
 5153TIP3    H215403   4.937   6.155   1.656
 5154TIP3   OH215404   0.432   3.085   5.769
 5154TIP3    H115405   0.359   3.026   5.790
 5154TIP3    H215406   0.472   3.046   5.691
 5155TIP3   OH215407   2.435   6.464   2.618
 5155TIP3    H115408   2.363   6.526   2.632
 5155TIP3    H215409   2.513   6.519   2.615
 5156TIP3   OH215410   6.411   7.339   1.607
 5156TIP3    H115411   6.463   7.415   1.581
 5156TIP3    H215412   6.475   7.274   1.636
 5157TIP3   OH215413   0.383   5.251   3.015
 5157TIP3    H115414   0.475   5.268   3.039
 5157TIP3    H215415   0.353   5.188   3.081
 5158TIP3   OH215416   1.745   2.149   2.653
 5158TIP3    H115417   1.670   2.184   2.605
 5158TIP3    H215418   1.781   2.082   2.595
 5159TIP3   OH215419   4.677   6.487   0.344
 5159TIP3    H115420   4.725   6.419   0.298
 5159TIP3    H215421   4.739   6.519   0.410
 5160TIP3   OH215422   6.458   2.783   5.120
 5160TIP3    H115423   6.371   2.758   5.089
 5160TIP3    H215424   6.458   2.878   5.118
 5161TIP3   OH215425   6.230   3.503   0.669
 5161TIP3    H115426   6.263   3.415   0.690
 5161TIP3    H215427   6.142   3.504   0.707
 5162TIP3   OH215428   6.010   5.663   0.685
 5162TIP3    H115429   5.985   5.646   0.776
 5162TIP3    H215430   6.066   5.589   0.662
 5163TIP3   OH215431   7.416   4.473   3.968
 5163TIP3    H115432   7.450   4.521   3.892
 5163TIP3    H215433   7.368   4.538   4.019
 5164TIP3   OH215434   2.115   3.337   1.503
 5164TIP3    H115435   2.184   3.273   1.522
 5164TIP3    H215436   2.075   3.306   1.422
 5165TIP3   OH215437   5.185   6.409   5.022
 5165TIP3    H115438   5.131   6.343   5.066
 5165TIP3    H215439   5.205   6.371   4.937
 5166TIP3   OH215440   5.321   7.365   3.709
 5166TIP3    H115441   5.393   7.397   3.763
 5166TIP3    H215442   5.363   7.336   3.628
 5167TIP3   OH215443   8.223   4.890   1.055
 5167TIP3    H115444   8.195   4.869   1.144
 5167TIP3    H215445   8.244   4.983   1.057
 5168TIP3   OH215446   3.500   1.181   2.662
 5168TIP3    H115447   3.404   1.180   2.669
 5168TIP3    H215448   3.530   1.206   2.749
 5169TIP3   OH215449   6.364   3.069   5.963
 5169TIP3    H115450   6.459   3.081   5.962
 5169TIP3    H215451   6.352   2.980   5.997
 5170TIP3   OH215452   2.503   0.755   3.048
 5170TIP3    H115453   2.564   0.781   3.117
 5170TIP3    H215454   2.533   0.801   2.970
 5171TIP3   OH215455   8.125   6.425   0.033
 5171TIP3    H115456   8.047   6.441   0.085
 5171TIP3    H215457   8.105   6.346  -0.017
 5172TIP3   OH215458   6.085   7.603   0.641
 5172TIP3    H115459   6.079   7.509   0.629
 5172TIP3    H215460   6.114   7.637   0.556
 5173TIP3   OH215461   0.599   1.907   5.575
 5173TIP3    H115462   0.589   1.890   5.669
 5173TIP3    H215463   0.525   1.861   5.535
 5174TIP3   OH215464   0.545   4.760   5.052
 5174TIP3    H115465   0.529   4.855   5.054
 5174TIP3    H215466   0.492   4.728   4.979
 5175TIP3   OH215467   2.327   3.212   6.648
 5175TIP3    H115468   2.404   3.165   6.680
 5175TIP3    H215469   2.337   3.210   6.552
 5176TIP3   OH215470   6.915   4.035   3.539
 5176TIP3    H115471   6.896   4.093   3.612
 5176TIP3    H215472   6.900   3.947   3.573
 5177TIP3   OH215473   5.044   1.851   6.710
 5177TIP3    H115474   5.009   1.789   6.646
 5177TIP3    H215475   5.040   1.804   6.793
 5178TIP3   OH215476   4.573   1.098   3.684
 5178TIP3    H115477   4.565   1.041   3.608
 5178TIP3    H215478   4.522   1.175   3.662
 5179TIP3   OH215479   0.625   0.932   6.554
 5179TIP3    H115480   0.694   0.909   6.616
 5179TIP3    H215481   0.543   0.919   6.602
 5180TIP3   OH215482   5.158   7.008   6.448
 5180TIP3    H115483   5.170   6.915   6.467
 5180TIP3    H215484   5.092   7.010   6.378
 5181TIP3   OH215485   0.569   2.211   6.336
 5181TIP3    H115486   0.656   2.249   6.323
 5181TIP3    H215487   0.577   2.120   6.305
 5182TIP3   OH215488   0.608   0.619   3.481
 5182TIP3    H115489   0.524   0.666   3.490
 5182TIP3    H215490   0.583   0.530   3.458
 5183TIP3   OH215491   1.245   5.797   3.036
 5183TIP3    H115492   1.195   5.733   3.086
 5183TIP3    H215493   1.330   5.801   3.080
 5184TIP3   OH215494   0.689   2.775   4.366
 5184TIP3    H115495   0.775   2.745   4.396
 5184TIP3    H215496   0.637   2.695   4.360
 5185TIP3   OH215497   2.610   3.335   5.650
 5185TIP3    H115498   2.518   3.352   5.672
 5185TIP3    H215499   2.611   3.245   5.619
 5186TIP3   OH215500   1.152   1.259   0.582
 5186TIP3    H115501   1.198   1.318   0.641
 5186TIP3    H215502   1.139   1.179   0.632
 5187TIP3   OH215503   7.493   0.796   4.788
 5187TIP3    H115504   7.484   0.801   4.884
 5187TIP3    H215505   7.569   0.740   4.774
 5188TIP3   OH215506   7.564   4.676   0.250
 5188TIP3    H115507   7.511   4.623   0.309
 5188TIP3    H215508   7.515   4.758   0.240
 5189TIP3   OH215509   1.126   6.684   2.877
 5189TIP3    H115510   1.056   6.699   2.813
 5189TIP3    H215511   1.092   6.722   2.959
 5190TIP3   OH215512   6.126   1.544   3.001
 5190TIP3    H115513   6.215   1.577   3.017
 5190TIP3    H215514   6.086   1.609   2.945
 5191TIP3   OH215515   1.571   1.715   1.531
 5191TIP3    H115516   1.623   1.743   1.455
 5191TIP3    H215517   1.567   1.620   1.523
 5192TIP3   OH215518   1.478   0.138   5.263
 5192TIP3    H115519   1.516   0.057   5.298
 5192TIP3    H215520   1.442   0.113   5.178
 5193TIP3   OH215521   2.723   1.516   2.551
 5193TIP3    H115522   2.686   1.437   2.590
 5193TIP3    H215523   2.705   1.507   2.457
 5194TIP3   OH215524   3.608   1.177   1.203
 5194TIP3    H115525   3.663   1.211   1.274
 5194TIP3    H215526   3.590   1.253   1.148
 5195TIP3   OH215527   5.022   4.085   0.926
 5195TIP3    H115528   5.060   4.169   0.954
 5195TIP3    H215529   5.096   4.024   0.928
 5196TIP3   OH215530   0.795   3.266   3.247
 5196TIP3    H115531   0.847   3.278   3.327
 5196TIP3    H215532   0.767   3.174   3.250
 5197TIP3   OH215533   4.301   4.120   6.219
 5197TIP3    H115534   4.265   4.047   6.170
 5197TIP3    H215535   4.357   4.080   6.286
 5198TIP3   OH215536   7.478   4.075   1.217
 5198TIP3    H115537   7.444   4.088   1.129
 5198TIP3    H215538   7.514   4.161   1.242
 5199TIP3   OH215539   6.686   5.937   3.070
 5199TIP3    H115540   6.711   6.018   3.026
 5199TIP3    H215541   6.753   5.873   3.044
 5200TIP3   OH215542   7.386   4.124   0.959
 5200TIP3    H115543   7.298   4.091   0.940
 5200TIP3    H215544   7.405   4.185   0.889
 5201TIP3   OH215545   0.316   1.314   0.186
 5201TIP3    H115546   0.259   1.240   0.209
 5201TIP3    H215547   0.275   1.352   0.108
 5202TIP3   OH215548   6.298   1.717   4.819
 5202TIP3    H115549   6.239   1.659   4.772
 5202TIP3    H215550   6.310   1.792   4.761
 5203TIP3   OH215551   3.440   1.621   1.834
 5203TIP3    H115552   3.490   1.570   1.770
 5203TIP3    H215553   3.349   1.617   1.802
 5204TIP3   OH215554   7.688   0.455   3.574
 5204TIP3    H115555   7.779   0.472   3.551
 5204TIP3    H215556   7.675   0.497   3.659
 5205TIP3   OH215557   4.218   3.742   3.587
 5205TIP3    H115558   4.175   3.793   3.656
 5205TIP3    H215559   4.312   3.749   3.606
 5206TIP3   OH215560   4.429   4.421   5.677
 5206TIP3    H115561   4.409   4.464   5.594
 5206TIP3    H215562   4.401   4.330   5.664
 5207TIP3   OH215563   8.102   3.464   4.493
 5207TIP3    H115564   8.051   3.533   4.452
 5207TIP3    H215565   8.172   3.446   4.430
 5208TIP3   OH215566   4.801   7.428   4.981
 5208TIP3    H115567   4.772   7.466   4.898
 5208TIP3    H215568   4.885   7.469   4.998
 5209TIP3   OH215569   3.937   6.621   0.731
 5209TIP3    H115570   3.956   6.548   0.789
 5209TIP3    H215571   3.946   6.699   0.786
 5210TIP3   OH215572   7.029   5.898   1.770
 5210TIP3    H115573   7.029   5.909   1.865
 5210TIP3    H215574   6.976   5.819   1.755
 5211TIP3   OH215575   8.049   0.210   1.577
 5211TIP3    H115576   8.042   0.131   1.523
 5211TIP3    H215577   8.135   0.246   1.557
 5212TIP3   OH215578   0.475   0.808   2.713
 5212TIP3    H115579   0.426   0.728   2.732
 5212TIP3    H215580   0.491   0.847   2.798
 5213TIP3   OH215581   0.948   4.723   4.715
 5213TIP3    H115582   1.012   4.667   4.671
 5213TIP3    H215583   0.940   4.800   4.659
 5214TIP3   OH215584   6.873   6.731   3.816
 5214TIP3    H115585   6.837   6.734   3.905
 5214TIP3    H215586   6.966   6.711   3.829
 5215TIP3   OH215587   0.107   0.500   1.875
 5215TIP3    H115588   0.039   0.530   1.815
 5215TIP3    H215589   0.188   0.540   1.842
 5216TIP3   OH215590   0.924   5.781   6.095
 5216TIP3    H115591   0.980   5.798   6.171
 5216TIP3    H215592   0.981   5.738   6.032
 5217TIP3   OH215593   0.177   3.546   5.031
 5217TIP3    H115594   0.113   3.586   4.973
 5217TIP3    H215595   0.126   3.493   5.092
 5218TIP3   OH215596   6.079   5.138   6.736
 5218TIP3    H115597   6.003   5.081   6.720
 5218TIP3    H215598   6.102   5.121   6.827
 5219TIP3   OH215599   2.662   3.804   1.412
 5219TIP3    H115600   2.675   3.897   1.435
 5219TIP3    H215601   2.668   3.758   1.495
 5220TIP3   OH215602   0.303   3.724   4.093
 5220TIP3    H115603   0.365   3.656   4.119
 5220TIP3    H215604   0.217   3.689   4.117
 5221TIP3   OH215605   0.662   4.632   1.733
 5221TIP3    H115606   0.610   4.700   1.775
 5221TIP3    H215607   0.743   4.676   1.707
 5222TIP3   OH215608   5.228   4.675   5.293
 5222TIP3    H115609   5.147   4.691   5.245
 5222TIP3    H215610   5.292   4.655   5.225
 5223TIP3   OH215611   4.578   2.706   4.019
 5223TIP3    H115612   4.561   2.688   3.926
 5223TIP3    H215613   4.672   2.692   4.029
 5224TIP3   OH215614   0.293   4.799   3.066
 5224TIP3    H115615   0.379   4.774   3.034
 5224TIP3    H215616   0.254   4.717   3.097
 5225TIP3   OH215617   4.277   6.564   1.659
 5225TIP3    H115618   4.240   6.609   1.583
 5225TIP3    H215619   4.201   6.532   1.707
 5226TIP3   OH215620   1.496   5.131   2.719
 5226TIP3    H115621   1.455   5.139   2.805
 5226TIP3    H215622   1.583   5.095   2.737
 5227TIP3   OH215623   5.671   6.622   2.446
 5227TIP3    H115624   5.613   6.557   2.406
 5227TIP3    H215625   5.614   6.695   2.469
 5228TIP3   OH215626   7.510   4.464   3.590
 5228TIP3    H115627   7.505   4.526   3.663
 5228TIP3    H215628   7.530   4.519   3.513
 5229TIP3   OH215629   0.477   4.444   2.187
 5229TIP3    H115630   0.426   4.484   2.257
 5229TIP3    H215631   0.435   4.475   2.107
 5230TIP3   OH215632   7.232   1.873   1.940
 5230TIP3    H115633   7.229   1.968   1.925
 5230TIP3    H215634   7.186   1.861   2.023
 5231TIP3   OH215635   0.949   1.207   2.588
 5231TIP3    H115636   1.022   1.269   2.593
 5231TIP3    H215637   0.964   1.158   2.507
 5232TIP3   OH215638   2.468   3.669   3.042
 5232TIP3    H115639   2.544   3.724   3.022
 5232TIP3    H215640   2.491   3.626   3.125
 5233TIP3   OH215641   1.256   7.392   4.653
 5233TIP3    H115642   1.318   7.461   4.628
 5233TIP3    H215643   1.307   7.312   4.649
 5234TIP3   OH215644   6.628   2.861   1.415
 5234TIP3    H115645   6.690   2.924   1.452
 5234TIP3    H215646   6.683   2.799   1.367
 5235TIP3   OH215647   5.866   5.858   1.950
 5235TIP3    H115648   5.884   5.871   1.857
 5235TIP3    H215649   5.802   5.787   1.953
 5236TIP3   OH215650   5.379   2.388   4.834
 5236TIP3    H115651   5.436   2.389   4.912
 5236TIP3    H215652   5.380   2.478   4.803
 5237TIP3   OH215653   3.771   5.199   1.382
 5237TIP3    H115654   3.814   5.114   1.368
 5237TIP3    H215655   3.818   5.259   1.323
 5238TIP3   OH215656   2.239   6.673   2.629
 5238TIP3    H115657   2.246   6.733   2.555
 5238TIP3    H215658   2.168   6.614   2.606
 5239TIP3   OH215659   6.137   6.694   2.600
 5239TIP3    H115660   6.184   6.661   2.676
 5239TIP3    H215661   6.088   6.770   2.634
 5240TIP3   OH215662   7.423   0.054   2.359
 5240TIP3    H115663   7.473   0.000   2.298
 5240TIP3    H215664   7.432   0.010   2.444
 5241TIP3   OH215665   7.450   7.781   1.109
 5241TIP3    H115666   7.429   7.873   1.096
 5241TIP3    H215667   7.534   7.781   1.155
 5242TIP3   OH215668   7.210   6.518   4.806
 5242TIP3    H115669   7.152   6.515   4.882
 5242TIP3    H215670   7.291   6.556   4.839
 5243TIP3   OH215671   3.135   5.310   0.577
 5243TIP3    H115672   3.109   5.335   0.489
 5243TIP3    H215673   3.222   5.348   0.588
 5244TIP3   OH215674   1.596   3.342   1.553
 5244TIP3    H115675   1.637   3.368   1.471
 5244TIP3    H215676   1.525   3.404   1.566
 5245TIP3   OH215677   0.975   6.526   5.217
 5245TIP3    H115678   0.965   6.492   5.128
 5245TIP3    H215679   0.941   6.456   5.273
 5246TIP3   OH215680   6.647   4.305   2.143
 5246TIP3    H115681   6.645   4.309   2.239
 5246TIP3    H215682   6.739   4.319   2.121
 5247TIP3   OH215683   3.893   3.481   5.191
 5247TIP3    H115684   3.887   3.396   5.236
 5247TIP3    H215685   3.895   3.545   5.261
 5248TIP3   OH215686   3.747   4.334   2.880
 5248TIP3    H115687   3.680   4.393   2.913
 5248TIP3    H215688   3.723   4.248   2.913
 5249TIP3   OH215689   1.705   4.188   4.819
 5249TIP3    H115690   1.796   4.163   4.804
 5249TIP3    H215691   1.708   4.282   4.833
 5250TIP3   OH215692   3.009   0.353   5.351
 5250TIP3    H115693   3.076   0.415   5.322
 5250TIP3    H215694   2.952   0.406   5.408
 5251TIP3   OH215695   7.993   5.230   2.515
 5251TIP3    H115696   7.951   5.310   2.484
 5251TIP3    H215697   8.043   5.258   2.592
 5252TIP3   OH215698   4.928   1.635   0.199
 5252TIP3    H115699   4.862   1.566   0.188
 5252TIP3    H215700   4.882   1.706   0.244
 5253TIP3   OH215701   6.719   6.709   5.357
 5253TIP3    H115702   6.808   6.724   5.389
 5253TIP3    H215703   6.731   6.675   5.268
 5254TIP3   OH215704   0.589   0.168   0.315
 5254TIP3    H115705   0.581   0.150   0.221
 5254TIP3    H215706   0.639   0.249   0.320
 5255TIP3   OH215707   6.423   3.402   3.845
 5255TIP3    H115708   6.372   3.482   3.829
 5255TIP3    H215709   6.359   3.340   3.880
 5256TIP3   OH215710   8.016   0.307   5.930
 5256TIP3    H115711   7.987   0.367   5.861
 5256TIP3    H215712   8.056   0.234   5.883
 5257TIP3   OH215713   2.539   3.720   0.414
 5257TIP3    H115714   2.623   3.680   0.433
 5257TIP3    H215715   2.490   3.714   0.496
 5258TIP3   OH215716   2.746   5.644   6.571
 5258TIP3    H115717   2.715   5.734   6.559
 5258TIP3    H215718   2.667   5.590   6.563
 5259TIP3   OH215719   3.733   7.094   2.119
 5259TIP3    H115720   3.823   7.111   2.145
 5259TIP3    H215721   3.692   7.054   2.196
 5260TIP3   OH215722   3.539   2.035   3.752
 5260TIP3    H115723   3.504   2.122   3.772
 5260TIP3    H215724   3.530   2.028   3.657
 5261TIP3   OH215725   5.485   4.243   5.128
 5261TIP3    H115726   5.477   4.170   5.190
 5261TIP3    H215727   5.574   4.276   5.141
 5262TIP3   OH215728   0.368   3.225   0.211
 5262TIP3    H115729   0.459   3.241   0.235
 5262TIP3    H215730   0.365   3.240   0.117
 5263TIP3   OH215731   6.540   0.903   4.403
 5263TIP3    H115732   6.569   0.994   4.401
 5263TIP3    H215733   6.490   0.895   4.484
 5264TIP3   OH215734   3.883   5.586   5.968
 5264TIP3    H115735   3.972   5.553   5.968
 5264TIP3    H215736   3.831   5.514   5.931
 5265TIP3   OH215737   5.757   3.335   4.210
 5265TIP3    H115738   5.780   3.359   4.300
 5265TIP3    H215739   5.720   3.415   4.172
 5266TIP3   OH215740   8.018   6.819   2.273
 5266TIP3    H115741   8.022   6.743   2.214
 5266TIP3    H215742   7.925   6.841   2.278
 5267TIP3   OH215743   7.196   6.964   6.079
 5267TIP3    H115744   7.154   7.049   6.095
 5267TIP3    H215745   7.254   6.951   6.154
 5268TIP3   OH215746   1.156   2.533   2.889
 5268TIP3    H115747   1.199   2.616   2.872
 5268TIP3    H215748   1.221   2.467   2.866
 5269TIP3   OH215749   4.100   3.742   2.334
 5269TIP3    H115750   4.134   3.743   2.423
 5269TIP3    H215751   4.115   3.830   2.302
 5270TIP3   OH215752   2.579   3.716   1.670
 5270TIP3    H115753   2.570   3.637   1.723
 5270TIP3    H215754   2.499   3.766   1.687
 5271TIP3   OH215755   7.440   7.468   1.478
 5271TIP3    H115756   7.357   7.472   1.431
 5271TIP3    H215757   7.422   7.411   1.553
 5272TIP3   OH215758   7.914   2.741   5.631
 5272TIP3    H115759   7.913   2.690   5.550
 5272TIP3    H215760   7.822   2.763   5.646
 5273TIP3   OH215761   5.691   3.018   0.899
 5273TIP3    H115762   5.747   2.948   0.933
 5273TIP3    H215763   5.690   3.084   0.968
 5274TIP3   OH215764   4.582   5.434   3.157
 5274TIP3    H115765   4.575   5.377   3.081
 5274TIP3    H215766   4.565   5.522   3.123
 5275TIP3   OH215767   7.487   4.390   6.251
 5275TIP3    H115768   7.412   4.447   6.270
 5275TIP3    H215769   7.563   4.442   6.280
 5276TIP3   OH215770   7.771   2.925   6.328
 5276TIP3    H115771   7.832   2.873   6.380
 5276TIP3    H215772   7.825   2.964   6.259
 5277TIP3   OH215773   5.617   3.570   6.606
 5277TIP3    H115774   5.539   3.625   6.614
 5277TIP3    H215775   5.665   3.608   6.533
 5278TIP3   OH215776   7.673   5.680   5.874
 5278TIP3    H115777   7.677   5.655   5.781
 5278TIP3    H215778   7.736   5.623   5.917
 5279TIP3   OH215779   7.978   3.214   2.321
 5279TIP3    H115780   8.039   3.141   2.326
 5279TIP3    H215781   8.028   3.290   2.349
 5280TIP3   OH215782   7.339   3.834   4.900
 5280TIP3    H115783   7.356   3.767   4.966
 5280TIP3    H215784   7.273   3.794   4.842
 5281TIP3   OH215785   1.433   7.210   3.182
 5281TIP3    H115786   1.375   7.235   3.254
 5281TIP3    H215787   1.405   7.266   3.109
 5282TIP3   OH215788   5.112   1.362   5.873
 5282TIP3    H115789   5.047   1.304   5.914
 5282TIP3    H215790   5.078   1.377   5.785
 5283TIP3   OH215791   3.747   5.791   0.779
 5283TIP3    H115792   3.761   5.707   0.736
 5283TIP3    H215793   3.692   5.840   0.718
 5284TIP3   OH215794   3.398   2.333   1.758
 5284TIP3    H115795   3.424   2.280   1.833
 5284TIP3    H215796   3.305   2.314   1.746
 5285TIP3   OH215797   4.057   1.813   6.610
 5285TIP3    H115798   4.048   1.906   6.591
 5285TIP3    H215799   4.057   1.808   6.706
 5286TIP3   OH215800   1.739   5.995   1.783
 5286TIP3    H115801   1.731   6.020   1.875
 5286TIP3    H215802   1.699   6.068   1.735
 5287TIP3   OH215803   7.685   1.303   4.230
 5287TIP3    H115804   7.716   1.341   4.147
 5287TIP3    H215805   7.673   1.378   4.288
 5288TIP3   OH215806   4.094   4.599   3.961
 5288TIP3    H115807   4.065   4.531   3.900
 5288TIP3    H215808   4.048   4.579   4.042
 5289TIP3   OH215809   0.973   7.059   3.111
 5289TIP3    H115810   0.959   6.981   3.165
 5289TIP3    H215811   1.054   7.042   3.064
 5290TIP3   OH215812   1.967   0.353   2.997
 5290TIP3    H115813   1.934   0.330   2.910
 5290TIP3    H215814   2.049   0.400   2.979
 5291TIP3   OH215815   7.137   0.069   6.059
 5291TIP3    H115816   7.087   0.149   6.072
 5291TIP3    H215817   7.148   0.033   6.147
 5292TIP3   OH215818   3.618   5.026   5.738
 5292TIP3    H115819   3.648   5.015   5.828
 5292TIP3    H215820   3.534   5.071   5.746
 5293TIP3   OH215821   0.424   7.474   5.696
 5293TIP3    H115822   0.498   7.423   5.728
 5293TIP3    H215823   0.451   7.505   5.609
 5294TIP3   OH215824   3.219   1.922   1.189
 5294TIP3    H115825   3.311   1.923   1.215
 5294TIP3    H215826   3.216   1.973   1.108
 5295TIP3   OH215827   1.598   2.211   4.171
 5295TIP3    H115828   1.623   2.181   4.083
 5295TIP3    H215829   1.678   2.199   4.223
 5296TIP3   OH215830   2.542   3.046   2.093
 5296TIP3    H115831   2.588   2.997   2.161
 5296TIP3    H215832   2.506   2.978   2.036
 5297TIP3   OH215833   6.067   0.165   1.979
 5297TIP3    H115834   6.001   0.173   2.048
 5297TIP3    H215835   6.146   0.137   2.025
 5298TIP3   OH215836   5.285   4.648   4.651
 5298TIP3    H115837   5.285   4.555   4.672
 5298TIP3    H215838   5.217   4.685   4.708
 5299TIP3   OH215839   2.800   0.088   1.505
 5299TIP3    H115840   2.893   0.087   1.485
 5299TIP3    H215841   2.792   0.147   1.580
 5300TIP3   OH215842   6.834   3.830   2.354
 5300TIP3    H115843   6.830   3.924   2.338
 5300TIP3    H215844   6.926   3.813   2.374
 5301TIP3   OH215845   0.045   6.342   5.916
 5301TIP3    H115846   0.041   6.249   5.940
 5301TIP3    H215847   0.015   6.388   5.994
 5302TIP3   OH215848   2.746   6.089   6.410
 5302TIP3    H115849   2.655   6.106   6.435
 5302TIP3    H215850   2.786   6.176   6.406
 5303TIP3   OH215851   8.062   0.902   2.873
 5303TIP3    H115852   8.072   0.820   2.825
 5303TIP3    H215853   8.045   0.876   2.963
 5304TIP3   OH215854   2.281   5.998   4.103
 5304TIP3    H115855   2.229   5.921   4.081
 5304TIP3    H215856   2.230   6.044   4.169
 5305TIP3   OH215857   3.621   0.825   2.853
 5305TIP3    H115858   3.544   0.816   2.909
 5305TIP3    H215859   3.615   0.752   2.792
 5306TIP3   OH215860   7.522   4.735   1.600
 5306TIP3    H115861   7.459   4.704   1.535
 5306TIP3    H215862   7.538   4.826   1.576
 5307TIP3   OH215863   3.634   3.022   2.727
 5307TIP3    H115864   3.649   3.086   2.797
 5307TIP3    H215865   3.642   3.072   2.646
 5308TIP3   OH215866   0.551   4.180   1.039
 5308TIP3    H115867   0.597   4.158   0.959
 5308TIP3    H215868   0.551   4.100   1.091
 5309TIP3   OH215869   2.520   6.996   5.954
 5309TIP3    H115870   2.451   7.031   6.010
 5309TIP3    H215871   2.592   6.976   6.013
 5310TIP3   OH215872  -0.006   0.779   4.092
 5310TIP3    H115873   0.084   0.759   4.066
 5310TIP3    H215874  -0.047   0.809   4.011
 5311TIP3   OH215875   2.855   6.332   1.987
 5311TIP3    H115876   2.783   6.365   2.040
 5311TIP3    H215877   2.838   6.367   1.899
 5312TIP3   OH215878   3.998   5.295   3.634
 5312TIP3    H115879   4.000   5.213   3.585
 5312TIP3    H215880   4.073   5.288   3.694
 5313TIP3   OH215881   1.849   2.399   1.040
 5313TIP3    H115882   1.775   2.384   1.099
 5313TIP3    H215883   1.830   2.345   0.963
 5314TIP3   OH215884   5.702   5.546   6.711
 5314TIP3    H115885   5.612   5.573   6.734
 5314TIP3    H215886   5.757   5.589   6.777
 5315TIP3   OH215887   2.970   2.401   1.671
 5315TIP3    H115888   2.991   2.441   1.586
 5315TIP3    H215889   3.000   2.310   1.662
 5316TIP3   OH215890   1.442   0.786   6.711
 5316TIP3    H115891   1.399   0.787   6.625
 5316TIP3    H215892   1.518   0.729   6.700
 5317TIP3   OH215893   2.346   1.516   3.578
 5317TIP3    H115894   2.357   1.555   3.664
 5317TIP3    H215895   2.305   1.584   3.525
 5318TIP3   OH215896   5.185   0.228   6.148
 5318TIP3    H115897   5.106   0.202   6.101
 5318TIP3    H215898   5.211   0.149   6.196
 5319TIP3   OH215899   2.185   0.725   4.287
 5319TIP3    H115900   2.242   0.798   4.262
 5319TIP3    H215901   2.152   0.748   4.373
 5320TIP3   OH215902   1.515   2.679   2.636
 5320TIP3    H115903   1.484   2.640   2.554
 5320TIP3    H215904   1.439   2.678   2.694
 5321TIP3   OH215905   7.869   0.315   5.329
 5321TIP3    H115906   7.853   0.370   5.252
 5321TIP3    H215907   7.844   0.226   5.301
 5322TIP3   OH215908   7.268   1.253   3.272
 5322TIP3    H115909   7.248   1.240   3.364
 5322TIP3    H215910   7.189   1.226   3.226
 5323TIP3   OH215911   2.567   6.869   2.103
 5323TIP3    H115912   2.527   6.921   2.173
 5323TIP3    H215913   2.527   6.902   2.022
 5324TIP3   OH215914   3.165   1.769   2.133
 5324TIP3    H115915   3.148   1.677   2.112
 5324TIP3    H215916   3.118   1.784   2.214
 5325TIP3   OH215917   2.502   3.382   4.089
 5325TIP3    H115918   2.521   3.353   4.000
 5325TIP3    H215919   2.587   3.403   4.126
 5326TIP3   OH215920   0.511   0.635   0.575
 5326TIP3    H115921   0.443   0.678   0.523
 5326TIP3    H215922   0.545   0.705   0.631
 5327TIP3   OH215923   2.102   5.606   5.924
 5327TIP3    H115924   2.190   5.624   5.956
 5327TIP3    H215925   2.049   5.596   6.004
 5328TIP3   OH215926   7.267   6.181   1.026
 5328TIP3    H115927   7.240   6.267   0.995
 5328TIP3    H215928   7.198   6.155   1.087
 5329TIP3   OH215929   6.800   1.466   3.094
 5329TIP3    H115930   6.714   1.452   3.054
 5329TIP3    H215931   6.800   1.557   3.121
 5330TIP3   OH215932   5.992   6.127   1.995
 5330TIP3    H115933   5.971   6.173   2.076
 5330TIP3    H215934   5.907   6.109   1.955
 5331TIP3   OH215935   0.866   7.326   5.258
 5331TIP3    H115936   0.838   7.241   5.224
 5331TIP3    H215937   0.943   7.306   5.311
 5332TIP3   OH215938   4.062   0.015   5.284
 5332TIP3    H115939   4.085   0.108   5.284
 5332TIP3    H215940   3.966   0.014   5.280
 5333TIP3   OH215941   5.003   7.182   6.615
 5333TIP3    H115942   5.071   7.132   6.569
 5333TIP3    H215943   4.926   7.126   6.613
 5334TIP3   OH215944   6.601   4.115   6.602
 5334TIP3    H115945   6.635   4.190   6.649
 5334TIP3    H215946   6.559   4.152   6.524
 5335TIP3   OH215947   7.324   7.056   3.683
 5335TIP3    H115948   7.373   7.034   3.763
 5335TIP3    H215949   7.281   6.974   3.658
 5336TIP3   OH215950   7.845   1.778   0.998
 5336TIP3    H115951   7.850   1.870   1.023
 5336TIP3    H215952   7.899   1.733   1.063
 5337TIP3   OH215953   3.853   7.733   0.994
 5337TIP3    H115954   3.938   7.774   1.011
 5337TIP3    H215955   3.861   7.645   1.031
 5338TIP3   OH215956   2.525   5.666   1.294
 5338TIP3    H115957   2.505   5.621   1.376
 5338TIP3    H215958   2.621   5.668   1.292
 5339TIP3   OH215959   0.526   3.685   5.410
 5339TIP3    H115960   0.597   3.693   5.345
 5339TIP3    H215961   0.446   3.681   5.357
 5340TIP3   OH215962   5.140   0.493   1.684
 5340TIP3    H115963   5.063   0.436   1.682
 5340TIP3    H215964   5.105   0.579   1.706
 5341TIP3   OH215965   3.472   2.322   4.950
 5341TIP3    H115966   3.457   2.315   4.855
 5341TIP3    H215967   3.451   2.235   4.984
 5342TIP3   OH215968   1.248   4.707   4.853
 5342TIP3    H115969   1.265   4.676   4.942
 5342TIP3    H215970   1.152   4.713   4.848
 5343TIP3   OH215971   1.126   5.246   0.313
 5343TIP3    H115972   1.067   5.211   0.246
 5343TIP3    H215973   1.074   5.312   0.359
 5344TIP3   OH215974   2.634   5.829   1.069
 5344TIP3    H115975   2.564   5.850   1.006
 5344TIP3    H215976   2.595   5.764   1.127
 5345TIP3   OH215977   2.006   6.411   5.768
 5345TIP3    H115978   2.086   6.399   5.820
 5345TIP3    H215979   2.038   6.428   5.679
 5346TIP3   OH215980   6.299   0.907   6.171
 5346TIP3    H115981   6.392   0.908   6.193
 5346TIP3    H215982   6.259   0.847   6.235
 5347TIP3   OH215983   2.882   6.762   1.807
 5347TIP3    H115984   2.958   6.705   1.810
 5347TIP3    H215985   2.818   6.719   1.863
 5348TIP3   OH215986   6.469   3.896   6.390
 5348TIP3    H115987   6.421   3.928   6.314
 5348TIP3    H215988   6.561   3.916   6.370
 5349TIP3   OH215989   5.583   1.597   4.593
 5349TIP3    H115990   5.641   1.539   4.544
 5349TIP3    H215991   5.630   1.680   4.598
 5350TIP3   OH215992   3.033   7.178   0.971
 5350TIP3    H115993   3.070   7.187   1.059
 5350TIP3    H215994   2.966   7.110   0.981
 5351TIP3   OH215995   7.236   4.143   3.312
 5351TIP3    H115996   7.258   4.195   3.390
 5351TIP3    H215997   7.142   4.152   3.303
 5352TIP3   OH215998   3.333   0.439   2.488
 5352TIP3    H115999   3.396   0.368   2.501
 5352TIP3    H216000   3.388   0.515   2.467
 5353TIP3   OH216001   0.460   4.880   0.284
 5353TIP3    H116002   0.522   4.822   0.239
 5353TIP3    H216003   0.394   4.900   0.217
 5354TIP3   OH216004   3.474   4.808   1.234
 5354TIP3    H116005   3.570   4.815   1.239
 5354TIP3    H216006   3.443   4.897   1.251
 5355TIP3   OH216007   1.148   5.829   0.535
 5355TIP3    H116008   1.228   5.802   0.490
 5355TIP3    H216009   1.172   5.832   0.627
 5356TIP3   OH216010   1.818   6.132   5.945
 5356TIP3    H116011   1.833   6.066   5.877
 5356TIP3    H216012   1.884   6.113   6.011
 5357TIP3   OH216013   1.805   5.047   1.428
 5357TIP3    H116014   1.849   5.020   1.508
 5357TIP3    H216015   1.789   4.966   1.380
 5358TIP3   OH216016   3.168   5.316   3.383
 5358TIP3    H116017   3.110   5.288   3.454
 5358TIP3    H216018   3.231   5.374   3.425
 5359TIP3   OH216019   7.848   4.963   3.833
 5359TIP3    H116020   7.844   4.922   3.919
 5359TIP3    H216021   7.827   5.055   3.848
 5360TIP3   OH216022   0.743   7.724   3.355
 5360TIP3    H116023   0.762   7.630   3.355
 5360TIP3    H216024   0.797   7.759   3.426
 5361TIP3   OH216025   3.607   2.578   0.063
 5361TIP3    H116026   3.569   2.514   0.003
 5361TIP3    H216027   3.658   2.525   0.124
 5362TIP3   OH216028   4.103   0.089   0.427
 5362TIP3    H116029   4.113  -0.002   0.456
 5362TIP3    H216030   4.073   0.136   0.504
 5363TIP3   OH216031   0.799   7.133   5.579
 5363TIP3    H116032   0.811   7.208   5.521
 5363TIP3    H216033   0.826   7.058   5.527
 5364TIP3   OH216034   5.146   7.202   2.188
 5364TIP3    H116035   5.124   7.135   2.123
 5364TIP3    H216036   5.230   7.174   2.224
 5365TIP3   OH216037   6.983   7.842   5.010
 5365TIP3    H116038   6.994   7.747   5.001
 5365TIP3    H216039   6.894   7.859   4.980
 5366TIP3   OH216040   6.821   7.810   1.184
 5366TIP3    H116041   6.887   7.752   1.145
 5366TIP3    H216042   6.754   7.820   1.116
 5367TIP3   OH216043   6.086   0.932   4.684
 5367TIP3    H116044   6.046   0.966   4.604
 5367TIP3    H216045   6.015   0.933   4.748
 5368TIP3   OH216046   1.513   0.265   1.615
 5368TIP3    H116047   1.607   0.277   1.601
 5368TIP3    H216048   1.507   0.211   1.694
 5369TIP3   OH216049   7.745   6.017   6.488
 5369TIP3    H116050   7.722   6.009   6.396
 5369TIP3    H216051   7.820   5.958   6.499
 5370TIP3   OH216052   6.071   6.320   1.007
 5370TIP3    H116053   6.121   6.379   0.950
 5370TIP3    H216054   6.116   6.325   1.091
 5371TIP3   OH216055   4.853   3.357   5.157
 5371TIP3    H116056   4.875   3.268   5.128
 5371TIP3    H216057   4.760   3.366   5.139
 5372TIP3   OH216058   2.400   2.606   6.272
 5372TIP3    H116059   2.407   2.521   6.315
 5372TIP3    H216060   2.340   2.591   6.199
 5373TIP3   OH216061   6.386   7.268   2.919
 5373TIP3    H116062   6.305   7.222   2.897
 5373TIP3    H216063   6.407   7.239   3.008
 5374TIP3   OH216064   7.386   0.696   0.506
 5374TIP3    H116065   7.432   0.612   0.505
 5374TIP3    H216066   7.455   0.761   0.518
 5375TIP3   OH216067   7.502   2.835   4.606
 5375TIP3    H116068   7.540   2.759   4.650
 5375TIP3    H216069   7.447   2.797   4.537
 5376TIP3   OH216070   0.852   4.115   6.296
 5376TIP3    H116071   0.794   4.165   6.353
 5376TIP3    H216072   0.917   4.076   6.356
 5377TIP3   OH216073   1.905   0.940   3.645
 5377TIP3    H116074   1.812   0.919   3.655
 5377TIP3    H216075   1.915   1.022   3.694
 5378TIP3   OH216076   1.286   1.124   2.587
 5378TIP3    H116077   1.349   1.068   2.541
 5378TIP3    H216078   1.203   1.075   2.583
 5379TIP3   OH216079   2.059   7.288   5.594
 5379TIP3    H116080   2.030   7.306   5.505
 5379TIP3    H216081   1.979   7.292   5.647
 5380TIP3   OH216082   4.331   7.555   0.220
 5380TIP3    H116083   4.259   7.532   0.278
 5380TIP3    H216084   4.407   7.565   0.278
 5381TIP3   OH216085   8.028   0.630   2.070
 5381TIP3    H116086   7.996   0.541   2.056
 5381TIP3    H216087   8.117   0.618   2.104
 5382TIP3   OH216088   2.915   1.588   2.956
 5382TIP3    H116089   2.819   1.586   2.952
 5382TIP3    H216090   2.940   1.654   2.892
 5383TIP3   OH216091   6.093   1.821   3.298
 5383TIP3    H116092   6.078   1.896   3.356
 5383TIP3    H216093   6.188   1.812   3.295
 5384TIP3   OH216094   0.914   3.004   3.988
 5384TIP3    H116095   0.836   2.951   4.002
 5384TIP3    H216096   0.889   3.067   3.921
 5385TIP3   OH216097   6.698   1.959   2.730
 5385TIP3    H116098   6.760   2.026   2.702
 5385TIP3    H216099   6.738   1.920   2.807
 5386TIP3   OH216100   1.592   6.035   5.428
 5386TIP3    H116101   1.631   5.964   5.377
 5386TIP3    H216102   1.508   6.052   5.384
 5387TIP3   OH216103   2.877   6.464   2.939
 5387TIP3    H116104   2.969   6.484   2.922
 5387TIP3    H216105   2.830   6.544   2.914
 5388TIP3   OH216106   4.727   0.242   1.207
 5388TIP3    H116107   4.700   0.317   1.154
 5388TIP3    H216108   4.803   0.206   1.161
 5389TIP3   OH216109   6.980   0.716   2.742
 5389TIP3    H116110   6.897   0.757   2.765
 5389TIP3    H216111   7.047   0.777   2.774
 5390TIP3   OH216112   2.319   5.610   1.133
 5390TIP3    H116113   2.277   5.535   1.176
 5390TIP3    H216114   2.405   5.615   1.174
 5391TIP3   OH216115   6.012   3.417   0.051
 5391TIP3    H116116   5.926   3.393   0.085
 5391TIP3    H216117   6.057   3.333   0.038
 5392TIP3   OH216118   3.702   2.851   0.528
 5392TIP3    H116119   3.758   2.789   0.480
 5392TIP3    H216120   3.633   2.874   0.466
 5393TIP3   OH216121   3.056   0.324   4.023
 5393TIP3    H116122   2.967   0.306   3.991
 5393TIP3    H216123   3.042   0.380   4.099
 5394TIP3   OH216124   8.133   3.614   1.593
 5394TIP3    H116125   8.208   3.663   1.560
 5394TIP3    H216126   8.148   3.608   1.688
 5395TIP3   OH216127   1.285   4.596   4.166
 5395TIP3    H116128   1.211   4.654   4.181
 5395TIP3    H216129   1.319   4.577   4.254
 5396TIP3   OH216130   0.367   0.120   3.807
 5396TIP3    H116131   0.286   0.162   3.836
 5396TIP3    H216132   0.430   0.137   3.878
 5397TIP3   OH216133   1.172   2.116   2.524
 5397TIP3    H116134   1.183   2.027   2.558
 5397TIP3    H216135   1.202   2.111   2.433
 5398TIP3   OH216136   1.624   3.899   6.010
 5398TIP3    H116137   1.685   3.918   6.081
 5398TIP3    H216138   1.635   3.805   5.993
 5399TIP3   OH216139   7.674   1.142   0.743
 5399TIP3    H116140   7.607   1.106   0.686
 5399TIP3    H216141   7.731   1.193   0.685
 5400TIP3   OH216142   3.718   6.850   4.732
 5400TIP3    H116143   3.680   6.928   4.692
 5400TIP3    H216144   3.682   6.848   4.820
 5401TIP3   OH216145   4.315   2.015   4.605
 5401TIP3    H116146   4.388   1.973   4.649
 5401TIP3    H216147   4.242   2.005   4.666
 5402TIP3   OH216148   2.389   3.401   2.992
 5402TIP3    H116149   2.413   3.493   2.986
 5402TIP3    H216150   2.387   3.370   2.902
 5403TIP3   OH216151   0.259   7.485   4.143
 5403TIP3    H116152   0.314   7.442   4.077
 5403TIP3    H216153   0.304   7.568   4.161
 5404TIP3   OH216154   7.486   1.494   4.031
 5404TIP3    H116155   7.394   1.507   4.011
 5404TIP3    H216156   7.513   1.574   4.075
 5405TIP3   OH216157   2.070   1.670   1.090
 5405TIP3    H116158   2.012   1.715   1.030
 5405TIP3    H216159   2.015   1.604   1.133
 5406TIP3   OH216160   2.886   7.444   1.272
 5406TIP3    H116161   2.852   7.388   1.203
 5406TIP3    H216162   2.921   7.384   1.337
 5407TIP3   OH216163   3.101   6.192   1.409
 5407TIP3    H116164   3.051   6.191   1.491
 5407TIP3    H216165   3.038   6.164   1.343
 5408TIP3   OH216166   2.937   5.674   4.724
 5408TIP3    H116167   2.955   5.580   4.723
 5408TIP3    H216168   2.851   5.682   4.682
 5409TIP3   OH216169   6.369   1.958   4.667
 5409TIP3    H116170   6.368   2.044   4.709
 5409TIP3    H216171   6.429   1.968   4.593
 5410TIP3   OH216172   6.682   2.554   6.412
 5410TIP3    H116173   6.748   2.486   6.429
 5410TIP3    H216174   6.634   2.562   6.495
 5411TIP3   OH216175   2.396   4.667   1.617
 5411TIP3    H116176   2.359   4.703   1.536
 5411TIP3    H216177   2.325   4.670   1.680
 5412TIP3   OH216178   8.170   3.995   2.898
 5412TIP3    H116179   8.196   3.996   2.805
 5412TIP3    H216180   8.224   3.925   2.937
 5413TIP3   OH216181   7.539   3.506   2.464
 5413TIP3    H116182   7.500   3.534   2.381
 5413TIP3    H216183   7.478   3.441   2.498
 5414TIP3   OH216184   1.888   5.638   6.618
 5414TIP3    H116185   1.908   5.547   6.596
 5414TIP3    H216186   1.959   5.665   6.676
 5415TIP3   OH216187   6.158   5.798   1.263
 5415TIP3    H116188   6.167   5.729   1.328
 5415TIP3    H216189   6.125   5.874   1.311
 5416TIP3   OH216190   3.091   5.366   5.366
 5416TIP3    H116191   3.130   5.296   5.314
 5416TIP3    H216192   3.038   5.320   5.431
 5417TIP3   OH216193   7.743   0.963   3.337
 5417TIP3    H116194   7.817   0.943   3.394
 5417TIP3    H216195   7.666   0.933   3.386
 5418TIP3   OH216196   5.420   0.502   3.467
 5418TIP3    H116197   5.366   0.500   3.547
 5418TIP3    H216198   5.429   0.410   3.441
 5419TIP3   OH216199   1.530   4.323   3.157
 5419TIP3    H116200   1.609   4.273   3.136
 5419TIP3    H216201   1.528   4.393   3.091
 5420TIP3   OH216202   2.364   1.405   2.439
 5420TIP3    H116203   2.289   1.349   2.420
 5420TIP3    H216204   2.416   1.405   2.359
 5421TIP3   OH216205   7.169   3.364   1.998
 5421TIP3    H116206   7.162   3.269   2.011
 5421TIP3    H216207   7.108   3.383   1.927
 5422TIP3   OH216208   6.202   4.688   5.140
 5422TIP3    H116209   6.229   4.596   5.134
 5422TIP3    H216210   6.206   4.720   5.049
 5423TIP3   OH216211   5.525   5.914   4.622
 5423TIP3    H116212   5.441   5.956   4.606
 5423TIP3    H216213   5.548   5.874   4.537
 5424TIP3   OH216214   2.950   2.658   5.659
 5424TIP3    H116215   2.966   2.620   5.746
 5424TIP3    H216216   2.970   2.751   5.670
 5425TIP3   OH216217   2.566   6.353   4.653
 5425TIP3    H116218   2.544   6.274   4.704
 5425TIP3    H216219   2.627   6.401   4.709
 5426TIP3   OH216220   0.184   4.905   4.954
 5426TIP3    H116221   0.115   4.940   4.898
 5426TIP3    H216222   0.201   4.818   4.919
 5427TIP3   OH216223   7.716   0.960   2.027
 5427TIP3    H116224   7.731   1.046   2.066
 5427TIP3    H216225   7.734   0.898   2.097
 5428TIP3   OH216226   3.299   0.824   2.044
 5428TIP3    H116227   3.221   0.877   2.057
 5428TIP3    H216228   3.342   0.863   1.967
 5429TIP3   OH216229   3.648   6.834   3.759
 5429TIP3    H116230   3.586   6.766   3.731
 5429TIP3    H216231   3.634   6.841   3.853
 5430TIP3   OH216232   1.167   3.423   0.008
 5430TIP3    H116233   1.140   3.404  -0.081
 5430TIP3    H216234   1.120   3.359   0.062
 5431TIP3   OH216235   3.069   4.136   3.530
 5431TIP3    H116236   3.089   4.079   3.604
 5431TIP3    H216237   3.135   4.206   3.535
 5432TIP3   OH216238   7.860   6.832   5.105
 5432TIP3    H116239   7.845   6.801   5.194
 5432TIP3    H216240   7.787   6.890   5.086
 5433TIP3   OH216241   0.690   2.696   3.100
 5433TIP3    H116242   0.638   2.763   3.056
 5433TIP3    H216243   0.690   2.723   3.192
 5434TIP3   OH216244   4.939   0.074   2.334
 5434TIP3    H116245   4.947   0.094   2.427
 5434TIP3    H216246   4.848   0.091   2.313
 5435TIP3   OH216247   1.475   3.683   4.486
 5435TIP3    H116248   1.540   3.752   4.492
 5435TIP3    H216249   1.502   3.630   4.411
 5436TIP3   OH216250   2.197   0.129   6.351
 5436TIP3    H116251   2.280   0.087   6.325
 5436TIP3    H216252   2.186   0.200   6.287
 5437TIP3   OH216253   7.139   2.936   5.076
 5437TIP3    H116254   7.046   2.923   5.092
 5437TIP3    H216255   7.153   2.908   4.985
 5438TIP3   OH216256   2.989   3.855   2.818
 5438TIP3    H116257   3.001   3.933   2.873
 5438TIP3    H216258   3.065   3.855   2.760
 5439TIP3   OH216259   6.393   4.303   1.422
 5439TIP3    H116260   6.486   4.313   1.403
 5439TIP3    H216261   6.390   4.250   1.502
 5440TIP3   OH216262   6.079   4.987   0.235
 5440TIP3    H116263   6.085   5.075   0.196
 5440TIP3    H216264   6.043   4.933   0.164
 5441TIP3   OH216265   2.350   2.368   1.664
 5441TIP3    H116266   2.414   2.374   1.593
 5441TIP3    H216267   2.279   2.314   1.628
 5442TIP3   OH216268   5.362   3.085   4.165
 5442TIP3    H116269   5.282   3.072   4.216
 5442TIP3    H216270   5.419   3.138   4.221
 5443TIP3   OH216271   1.432   2.334   3.427
 5443TIP3    H116272   1.369   2.278   3.472
 5443TIP3    H216273   1.492   2.273   3.384
 5444TIP3   OH216274   2.364   5.874   5.578
 5444TIP3    H116275   2.440   5.815   5.580
 5444TIP3    H216276   2.335   5.872   5.487
 5445TIP3   OH216277   1.885   4.218   4.166
 5445TIP3    H116278   1.825   4.149   4.195
 5445TIP3    H216279   1.828   4.289   4.135
 5446TIP3   OH216280   1.676   3.544   3.906
 5446TIP3    H116281   1.639   3.457   3.921
 5446TIP3    H216282   1.607   3.593   3.862
 5447TIP3   OH216283   3.659   2.182   2.666
 5447TIP3    H116284   3.632   2.274   2.658
 5447TIP3    H216285   3.713   2.180   2.745
 5448TIP3   OH216286   4.251   2.238   4.161
 5448TIP3    H116287   4.166   2.281   4.158
 5448TIP3    H216288   4.273   2.233   4.254
 5449TIP3   OH216289   7.717   6.590   4.886
 5449TIP3    H116290   7.713   6.528   4.959
 5449TIP3    H216291   7.810   6.601   4.869
 5450TIP3   OH216292   1.890   6.677   1.266
 5450TIP3    H116293   1.968   6.622   1.265
 5450TIP3    H216294   1.904   6.735   1.341
 5451TIP3   OH216295   1.303   0.132   4.213
 5451TIP3    H116296   1.325   0.165   4.126
 5451TIP3    H216297   1.350   0.049   4.220
 5452TIP3   OH216298   7.231   2.762   1.545
 5452TIP3    H116299   7.255   2.853   1.523
 5452TIP3    H216300   7.167   2.738   1.478
 5453TIP3   OH216301   7.229   1.369   1.583
 5453TIP3    H116302   7.214   1.289   1.533
 5453TIP3    H216303   7.260   1.339   1.669
 5454TIP3   OH216304   3.117   4.148   5.943
 5454TIP3    H116305   3.187   4.084   5.955
 5454TIP3    H216306   3.115   4.197   6.025
 5455TIP3   OH216307   5.238   3.042   4.966
 5455TIP3    H116308   5.145   3.051   4.987
 5455TIP3    H216309   5.281   3.037   5.052
 5456TIP3   OH216310   7.618   2.603   5.711
 5456TIP3    H116311   7.586   2.676   5.658
 5456TIP3    H216312   7.592   2.625   5.801
 5457TIP3   OH216313   4.157   1.677   5.931
 5457TIP3    H116314   4.252   1.664   5.936
 5457TIP3    H216315   4.144   1.769   5.953
 5458TIP3   OH216316   0.118   1.330   2.674
 5458TIP3    H116317   0.131   1.381   2.594
 5458TIP3    H216318   0.201   1.284   2.686
 5459TIP3   OH216319   7.118   5.784   1.458
 5459TIP3    H116320   7.097   5.742   1.374
 5459TIP3    H216321   7.034   5.796   1.501
 5460TIP3   OH216322   5.867   6.164   4.836
 5460TIP3    H116323   5.903   6.081   4.867
 5460TIP3    H216324   5.776   6.144   4.815
 5461TIP3   OH216325   0.657   2.987   4.177
 5461TIP3    H116326   0.676   2.928   4.250
 5461TIP3    H216327   0.589   3.046   4.211
 5462TIP3   OH216328   7.905   4.653   0.124
 5462TIP3    H116329   7.885   4.587   0.191
 5462TIP3    H216330   7.820   4.682   0.093
 5463TIP3   OH216331   6.443   6.363   5.409
 5463TIP3    H116332   6.507   6.319   5.354
 5463TIP3    H216333   6.358   6.337   5.372
 5464TIP3   OH216334   7.731   0.492   4.362
 5464TIP3    H116335   7.644   0.515   4.330
 5464TIP3    H216336   7.735   0.397   4.351
 5465TIP3   OH216337   5.146   6.444   4.253
 5465TIP3    H116338   5.056   6.459   4.226
 5465TIP3    H216339   5.188   6.406   4.176
 5466TIP3   OH216340   2.457   6.549   5.163
 5466TIP3    H116341   2.452   6.639   5.194
 5466TIP3    H216342   2.444   6.495   5.241
 5467TIP3   OH216343   7.469   5.795   3.433
 5467TIP3    H116344   7.411   5.797   3.510
 5467TIP3    H216345   7.497   5.886   3.423
 5468TIP3   OH216346   0.075   4.859   1.942
 5468TIP3    H116347   0.051   4.788   2.000
 5468TIP3    H216348   0.051   4.828   1.854
 5469TIP3   OH216349   7.398   2.042   1.711
 5469TIP3    H116350   7.352   1.972   1.665
 5469TIP3    H216351   7.346   2.059   1.790
 5470TIP3   OH216352   5.981   6.538   4.432
 5470TIP3    H116353   6.076   6.538   4.431
 5470TIP3    H216354   5.956   6.447   4.417
 5471TIP3   OH216355   3.989   2.902   3.164
 5471TIP3    H116356   3.946   2.985   3.186
 5471TIP3    H216357   3.920   2.850   3.123
 5472TIP3   OH216358   1.426   7.506   6.635
 5472TIP3    H116359   1.424   7.601   6.625
 5472TIP3    H216360   1.334   7.481   6.640
 5473TIP3   OH216361   2.385   7.775   0.982
 5473TIP3    H116362   2.349   7.763   0.895
 5473TIP3    H216363   2.475   7.805   0.967
 5474TIP3   OH216364   4.896   0.406   5.012
 5474TIP3    H116365   4.877   0.499   5.022
 5474TIP3    H216366   4.851   0.381   4.931
 5475TIP3   OH216367   6.054   7.585   4.644
 5475TIP3    H116368   5.959   7.581   4.646
 5475TIP3    H216369   6.078   7.636   4.722
 5476TIP3   OH216370   6.497   1.339   0.423
 5476TIP3    H116371   6.535   1.265   0.377
 5476TIP3    H216372   6.431   1.374   0.363
 5477TIP3   OH216373   1.871   2.818   4.330
 5477TIP3    H116374   1.866   2.729   4.363
 5477TIP3    H216375   1.916   2.867   4.399
 5478TIP3   OH216376   4.563   3.776   0.373
 5478TIP3    H116377   4.482   3.748   0.331
 5478TIP3    H216378   4.536   3.811   0.458
 5479TIP3   OH216379   7.622   7.455   2.624
 5479TIP3    H116380   7.605   7.517   2.695
 5479TIP3    H216381   7.548   7.394   2.627
 5480TIP3   OH216382   0.535   7.667   5.026
 5480TIP3    H116383   0.629   7.661   5.045
 5480TIP3    H216384   0.521   7.608   4.953
 5481TIP3   OH216385   6.389   2.984   3.866
 5481TIP3    H116386   6.474   3.027   3.872
 5481TIP3    H216387   6.329   3.042   3.912
 5482TIP3   OH216388   2.773   0.611   1.018
 5482TIP3    H116389   2.730   0.656   0.946
 5482TIP3    H216390   2.864   0.600   0.989
 5483TIP3   OH216391   3.371   1.894   0.021
 5483TIP3    H116392   3.397   1.808  -0.013
 5483TIP3    H216393   3.395   1.890   0.114
 5484TIP3   OH216394   1.365   1.872   4.165
 5484TIP3    H116395   1.392   1.958   4.196
 5484TIP3    H216396   1.298   1.844   4.227
 5485TIP3   OH216397   6.820   4.577   4.802
 5485TIP3    H116398   6.789   4.629   4.877
 5485TIP3    H216399   6.748   4.517   4.784
 5486TIP3   OH216400   3.363   6.816   3.093
 5486TIP3    H116401   3.303   6.880   3.053
 5486TIP3    H216402   3.326   6.731   3.069
 5487TIP3   OH216403   4.464   2.999   6.429
 5487TIP3    H116404   4.416   2.932   6.478
 5487TIP3    H216405   4.505   2.951   6.356
 5488TIP3   OH216406   8.113   0.559   4.128
 5488TIP3    H116407   8.183   0.623   4.124
 5488TIP3    H216408   8.099   0.533   4.037
 5489TIP3   OH216409   5.057   1.901   1.553
 5489TIP3    H116410   5.010   1.877   1.473
 5489TIP3    H216411   5.102   1.983   1.530
 5490TIP3   OH216412   7.084   6.656   5.457
 5490TIP3    H116413   7.017   6.602   5.498
 5490TIP3    H216414   7.148   6.672   5.526
 5491TIP3   OH216415   2.331   3.804   1.747
 5491TIP3    H116416   2.269   3.867   1.708
 5491TIP3    H216417   2.299   3.719   1.719
 5492TIP3   OH216418   3.606   5.888   1.413
 5492TIP3    H116419   3.664   5.935   1.353
 5492TIP3    H216420   3.519   5.921   1.394
 5493TIP3   OH216421   5.235   2.953   1.518
 5493TIP3    H116422   5.291   2.896   1.466
 5493TIP3    H216423   5.252   2.928   1.609
 5494TIP3   OH216424   0.641   6.879   6.432
 5494TIP3    H116425   0.636   6.952   6.494
 5494TIP3    H216426   0.597   6.807   6.476
 5495TIP3   OH216427   4.400   3.057   5.348
 5495TIP3    H116428   4.486   3.016   5.356
 5495TIP3    H216429   4.402   3.130   5.411
 5496TIP3   OH216430   7.558   2.864   0.442
 5496TIP3    H116431   7.576   2.820   0.359
 5496TIP3    H216432   7.484   2.815   0.479
 5497TIP3   OH216433   7.272   4.422   5.366
 5497TIP3    H116434   7.307   4.352   5.309
 5497TIP3    H216435   7.201   4.380   5.414
 5498TIP3   OH216436   0.073   2.851   6.056
 5498TIP3    H116437   0.137   2.835   6.125
 5498TIP3    H216438   0.119   2.827   5.975
 5499TIP3   OH216439   4.641   1.962   0.860
 5499TIP3    H116440   4.601   2.047   0.879
 5499TIP3    H216441   4.640   1.916   0.944
 5500TIP3   OH216442   6.555   5.040   5.511
 5500TIP3    H116443   6.460   5.039   5.524
 5500TIP3    H216444   6.585   4.954   5.538
 5501TIP3   OH216445   6.373   4.086   0.503
 5501TIP3    H116446   6.307   4.107   0.438
 5501TIP3    H216447   6.327   4.032   0.567
 5502TIP3   OH216448   4.869   1.898   0.319
 5502TIP3    H116449   4.892   1.984   0.354
 5502TIP3    H216450   4.914   1.893   0.235
 5503TIP3   OH216451   3.027   0.776   0.691
 5503TIP3    H116452   3.030   0.813   0.602
 5503TIP3    H216453   3.064   0.845   0.746
 5504TIP3   OH216454   1.996   6.992   1.003
 5504TIP3    H116455   1.990   6.903   0.967
 5504TIP3    H216456   2.069   7.031   0.955
 5505TIP3   OH216457   8.079   6.261   0.932
 5505TIP3    H116458   8.042   6.173   0.938
 5505TIP3    H216459   8.150   6.253   0.868
 5506TIP3   OH216460   7.385   0.042   5.886
 5506TIP3    H116461   7.435  -0.032   5.920
 5506TIP3    H216462   7.297   0.030   5.921
 5507TIP3   OH216463   7.223   7.639   3.902
 5507TIP3    H116464   7.255   7.588   3.977
 5507TIP3    H216465   7.269   7.604   3.827
 5508TIP3   OH216466   6.902   1.315   4.761
 5508TIP3    H116467   6.878   1.378   4.693
 5508TIP3    H216468   6.901   1.230   4.717
 5509TIP3   OH216469   1.462   2.467   0.519
 5509TIP3    H116470   1.551   2.447   0.548
 5509TIP3    H216471   1.473   2.533   0.451
 5510TIP3   OH216472   6.491   7.094   0.305
 5510TIP3    H116473   6.551   7.168   0.311
 5510TIP3    H216474   6.518   7.048   0.225
 5511TIP3   OH216475   2.117   1.272   2.370
 5511TIP3    H116476   2.117   1.283   2.275
 5511TIP3    H216477   2.072   1.189   2.384
 5512TIP3   OH216478   0.527   0.323   5.772
 5512TIP3    H116479   0.467   0.266   5.724
 5512TIP3    H216480   0.471   0.384   5.819
 5513TIP3   OH216481   1.717   1.474   4.389
 5513TIP3    H116482   1.793   1.440   4.343
 5513TIP3    H216483   1.753   1.529   4.458
 5514TIP3   OH216484   0.282   3.737   5.306
 5514TIP3    H116485   0.222   3.782   5.246
 5514TIP3    H216486   0.234   3.731   5.388
 5515TIP3   OH216487   6.159   1.571   4.623
 5515TIP3    H116488   6.251   1.560   4.600
 5515TIP3    H216489   6.119   1.608   4.545
 5516TIP3   OH216490   5.709   6.797   6.503
 5516TIP3    H116491   5.654   6.873   6.483
 5516TIP3    H216492   5.706   6.743   6.425
 5517TIP3   OH216493   1.854   1.040   6.752
 5517TIP3    H116494   1.927   1.101   6.747
 5517TIP3    H216495   1.776   1.093   6.737
 5518TIP3   OH216496   2.151   4.293   6.116
 5518TIP3    H116497   2.139   4.209   6.161
 5518TIP3    H216498   2.235   4.284   6.070
 5519TIP3   OH216499   1.354   6.054   5.320
 5519TIP3    H116500   1.271   6.057   5.368
 5519TIP3    H216501   1.352   5.969   5.275
 5520TIP3   OH216502   1.985   7.740   5.346
 5520TIP3    H116503   2.070   7.756   5.385
 5520TIP3    H216504   2.002   7.741   5.251
 5521TIP3   OH216505   6.596   2.408   4.792
 5521TIP3    H116506   6.590   2.452   4.707
 5521TIP3    H216507   6.687   2.381   4.799
 5522TIP3   OH216508   8.177   4.229   5.292
 5522TIP3    H116509   8.131   4.145   5.293
 5522TIP3    H216510   8.108   4.294   5.288
 5523TIP3   OH216511   1.148   5.672   3.690
 5523TIP3    H116512   1.088   5.672   3.615
 5523TIP3    H216513   1.124   5.750   3.739
 5524TIP3   OH216514   3.720   5.252   3.485
 5524TIP3    H116515   3.689   5.212   3.566
 5524TIP3    H216516   3.815   5.248   3.491
 5525TIP3   OH216517   7.782   5.642   6.227
 5525TIP3    H116518   7.703   5.642   6.173
 5525TIP3    H216519   7.754   5.675   6.312
 5526TIP3   OH216520   2.738   4.177   1.054
 5526TIP3    H116521   2.697   4.159   0.970
 5526TIP3    H216522   2.668   4.167   1.118
 5527TIP3   OH216523   1.843   7.716   2.735
 5527TIP3    H116524   1.874   7.794   2.780
 5527TIP3    H216525   1.758   7.698   2.775
 5528TIP3   OH216526   6.890   2.897   2.986
 5528TIP3    H116527   6.971   2.886   3.036
 5528TIP3    H216528   6.899   2.983   2.944
 5529TIP3   OH216529   1.479   0.385   6.586
 5529TIP3    H116530   1.511   0.394   6.675
 5529TIP3    H216531   1.392   0.426   6.587
 5530TIP3   OH216532   5.126   4.520   1.922
 5530TIP3    H116533   5.178   4.515   1.842
 5530TIP3    H216534   5.188   4.496   1.991
 5531TIP3   OH216535   4.139   4.228   5.609
 5531TIP3    H116536   4.188   4.277   5.543
 5531TIP3    H216537   4.153   4.277   5.690
 5532TIP3   OH216538   8.115   6.955   5.118
 5532TIP3    H116539   8.020   6.949   5.113
 5532TIP3    H216540   8.141   6.879   5.170
 5533TIP3   OH216541   3.528   0.212   2.565
 5533TIP3    H116542   3.551   0.161   2.487
 5533TIP3    H216543   3.578   0.293   2.556
 5534TIP3   OH216544   5.870   0.821   0.610
 5534TIP3    H116545   5.960   0.792   0.591
 5534TIP3    H216546   5.821   0.800   0.531
 5535TIP3   OH216547   1.738   4.446   6.544
 5535TIP3    H116548   1.706   4.357   6.538
 5535TIP3    H216549   1.668   4.500   6.509
 5536TIP3   OH216550   2.095   6.759   6.280
 5536TIP3    H116551   2.104   6.848   6.313
 5536TIP3    H216552   2.141   6.759   6.196
 5537TIP3   OH216553   2.290   0.187   4.951
 5537TIP3    H116554   2.310   0.100   4.917
 5537TIP3    H216555   2.307   0.181   5.045
 5538TIP3   OH216556   6.297   6.470   1.127
 5538TIP3    H116557   6.261   6.547   1.084
 5538TIP3    H216558   6.333   6.417   1.055
 5539TIP3   OH216559   5.508   0.680   4.028
 5539TIP3    H116560   5.527   0.773   4.017
 5539TIP3    H216561   5.567   0.652   4.098
 5540TIP3   OH216562   3.293   1.049   2.907
 5540TIP3    H116563   3.337   1.089   2.982
 5540TIP3    H216564   3.274   1.122   2.848
 5541TIP3   OH216565   0.547   0.235   1.121
 5541TIP3    H116566   0.498   0.205   1.045
 5541TIP3    H216567   0.601   0.307   1.089
 5542TIP3   OH216568   0.657   6.224   1.628
 5542TIP3    H116569   0.575   6.240   1.582
 5542TIP3    H216570   0.636   6.238   1.720
 5543TIP3   OH216571   7.080   7.229   4.836
 5543TIP3    H116572   7.002   7.276   4.862
 5543TIP3    H216573   7.075   7.145   4.882
 5544TIP3   OH216574   6.730   5.213   0.880
 5544TIP3    H116575   6.690   5.298   0.896
 5544TIP3    H216576   6.736   5.172   0.967
 5545TIP3   OH216577   3.464   3.437   4.350
 5545TIP3    H116578   3.381   3.454   4.306
 5545TIP3    H216579   3.524   3.503   4.314
 5546TIP3   OH216580   2.571   0.169   5.093
 5546TIP3    H116581   2.501   0.149   5.156
 5546TIP3    H216582   2.647   0.120   5.126
 5547TIP3   OH216583   7.121   0.029   0.652
 5547TIP3    H116584   7.038   0.041   0.698
 5547TIP3    H216585   7.131  -0.066   0.645
 5548TIP3   OH216586   6.872   0.491   3.100
 5548TIP3    H116587   6.823   0.468   3.021
 5548TIP3    H216588   6.958   0.452   3.087
 5549TIP3   OH216589   6.307   5.422   4.042
 5549TIP3    H116590   6.328   5.515   4.048
 5549TIP3    H216591   6.286   5.408   3.950
 5550TIP3   OH216592   0.693   6.267   3.417
 5550TIP3    H116593   0.611   6.245   3.462
 5550TIP3    H216594   0.681   6.234   3.328
 5551TIP3   OH216595   8.180   3.947   1.399
 5551TIP3    H116596   8.101   3.995   1.375
 5551TIP3    H216597   8.198   3.974   1.489
 5552TIP3   OH216598   3.178   0.525   4.682
 5552TIP3    H116599   3.194   0.599   4.741
 5552TIP3    H216600   3.141   0.457   4.738
 5553TIP3   OH216601   3.693   5.165   0.238
 5553TIP3    H116602   3.723   5.180   0.327
 5553TIP3    H216603   3.600   5.189   0.240
 5554TIP3   OH216604   3.563   6.234   1.204
 5554TIP3    H116605   3.494   6.197   1.258
 5554TIP3    H216606   3.527   6.317   1.173
 5555TIP3   OH216607   7.457   3.251   4.581
 5555TIP3    H116608   7.546   3.215   4.589
 5555TIP3    H216609   7.404   3.195   4.638
 5556TIP3   OH216610   6.555   1.521   2.948
 5556TIP3    H116611   6.525   1.611   2.952
 5556TIP3    H216612   6.478   1.469   2.972
 5557TIP3   OH216613   3.098   5.710   3.815
 5557TIP3    H116614   3.125   5.798   3.841
 5557TIP3    H216615   3.013   5.723   3.773
 5558TIP3   OH216616   3.723   7.719   3.239
 5558TIP3    H116617   3.694   7.629   3.250
 5558TIP3    H216618   3.650   7.772   3.272
 5559TIP3   OH216619   4.466   4.493   3.686
 5559TIP3    H116620   4.475   4.475   3.779
 5559TIP3    H216621   4.554   4.520   3.658
 5560TIP3   OH216622   5.277   7.409   3.397
 5560TIP3    H116623   5.212   7.462   3.445
 5560TIP3    H216624   5.353   7.466   3.389
 5561TIP3   OH216625   6.888   0.816   5.914
 5561TIP3    H116626   6.848   0.853   5.835
 5561TIP3    H216627   6.973   0.782   5.885
 5562TIP3   OH216628   7.138   4.979   2.536
 5562TIP3    H116629   7.060   4.962   2.483
 5562TIP3    H216630   7.129   4.921   2.611
 5563TIP3   OH216631   1.465   3.809   0.618
 5563TIP3    H116632   1.408   3.876   0.656
 5563TIP3    H216633   1.430   3.726   0.649
 5564TIP3   OH216634   2.360   2.365   2.255
 5564TIP3    H116635   2.403   2.372   2.340
 5564TIP3    H216636   2.431   2.344   2.194
 5565TIP3   OH216637   5.354   0.890   1.754
 5565TIP3    H116638   5.263   0.871   1.778
 5565TIP3    H216639   5.373   0.973   1.796
 5566TIP3   OH216640   5.703   6.048   2.499
 5566TIP3    H116641   5.663   6.010   2.421
 5566TIP3    H216642   5.755   5.977   2.537
 5567TIP3   OH216643   3.485   7.539   0.764
 5567TIP3    H116644   3.445   7.537   0.851
 5567TIP3    H216645   3.425   7.592   0.712
 5568TIP3   OH216646   7.329   4.291   4.937
 5568TIP3    H116647   7.356   4.235   4.864
 5568TIP3    H216648   7.411   4.328   4.971
 5569TIP3   OH216649   1.204   1.865   5.677
 5569TIP3    H116650   1.287   1.847   5.722
 5569TIP3    H216651   1.229   1.879   5.586
 5570TIP3   OH216652   5.537   4.336   2.097
 5570TIP3    H116653   5.583   4.416   2.070
 5570TIP3    H216654   5.603   4.286   2.145
 5571TIP3   OH216655   2.961   1.431   2.693
 5571TIP3    H116656   2.913   1.393   2.767
 5571TIP3    H216657   2.895   1.476   2.641
 5572TIP3   OH216658   4.252   0.964   2.250
 5572TIP3    H116659   4.310   1.034   2.281
 5572TIP3    H216660   4.311   0.890   2.233
 5573TIP3   OH216661   2.468   1.371   1.213
 5573TIP3    H116662   2.533   1.419   1.264
 5573TIP3    H216663   2.425   1.439   1.161
 5574TIP3   OH216664   4.631   0.480   2.009
 5574TIP3    H116665   4.540   0.462   2.034
 5574TIP3    H216666   4.678   0.400   2.032
 5575TIP3   OH216667   1.569   6.376   3.971
 5575TIP3    H116668   1.638   6.435   4.003
 5575TIP3    H216669   1.566   6.306   4.036
 5576TIP3   OH216670   3.973   6.033   5.525
 5576TIP3    H116671   3.953   6.127   5.520
 5576TIP3    H216672   3.889   5.991   5.541
 5577TIP3   OH216673   7.154   5.582   0.897
 5577TIP3    H116674   7.156   5.678   0.903
 5577TIP3    H216675   7.230   5.559   0.844
 5578TIP3   OH216676   2.622   6.023   6.740
 5578TIP3    H116677   2.556   6.062   6.796
 5578TIP3    H216678   2.589   5.934   6.722
 5579TIP3   OH216679   4.625   3.863   1.981
 5579TIP3    H116680   4.621   3.768   1.965
 5579TIP3    H216681   4.534   3.893   1.971
 5580TIP3   OH216682   2.240   0.393   1.726
 5580TIP3    H116683   2.224   0.385   1.632
 5580TIP3    H216684   2.219   0.307   1.761
 5581TIP3   OH216685   4.319   4.992   3.091
 5581TIP3    H116686   4.316   4.898   3.107
 5581TIP3    H216687   4.399   5.021   3.134
 5582TIP3   OH216688   4.156   0.946   5.195
 5582TIP3    H116689   4.157   1.032   5.152
 5582TIP3    H216690   4.246   0.915   5.187
 5583TIP3   OH216691   1.502   0.750   5.444
 5583TIP3    H116692   1.591   0.749   5.409
 5583TIP3    H216693   1.505   0.818   5.512
 5584TIP3   OH216694   2.693   2.365   1.771
 5584TIP3    H116695   2.776   2.373   1.725
 5584TIP3    H216696   2.626   2.379   1.704
 5585TIP3   OH216697   4.446   5.603   4.061
 5585TIP3    H116698   4.365   5.576   4.104
 5585TIP3    H216699   4.512   5.600   4.130
 5586TIP3   OH216700   6.370   0.740   4.536
 5586TIP3    H116701   6.391   0.732   4.443
 5586TIP3    H216702   6.282   0.704   4.545
 5587TIP3   OH216703   7.666   5.154   3.633
 5587TIP3    H116704   7.681   5.229   3.690
 5587TIP3    H216705   7.693   5.184   3.546
 5588TIP3   OH216706   6.631   7.603   4.543
 5588TIP3    H116707   6.612   7.578   4.453
 5588TIP3    H216708   6.650   7.697   4.539
 5589TIP3   OH216709   6.918   3.420   5.648
 5589TIP3    H116710   6.970   3.346   5.616
 5589TIP3    H216711   6.917   3.482   5.575
 5590TIP3   OH216712   5.483   5.256   4.222
 5590TIP3    H116713   5.510   5.281   4.310
 5590TIP3    H216714   5.483   5.338   4.173
 5591TIP3   OH216715   4.427   3.452   1.066
 5591TIP3    H116716   4.512   3.417   1.094
 5591TIP3    H216717   4.417   3.532   1.117
 5592TIP3   OH216718   2.170   5.656   2.138
 5592TIP3    H116719   2.113   5.626   2.067
 5592TIP3    H216720   2.246   5.692   2.094
 5593TIP3   OH216721   0.198   3.633   6.415
 5593TIP3    H116722   0.162   3.556   6.458
 5593TIP3    H216723   0.293   3.619   6.415
 5594TIP3   OH216724   8.216   4.062   2.209
 5594TIP3    H116725   8.124   4.038   2.223
 5594TIP3    H216726   8.236   4.121   2.282
 5595TIP3   OH216727   7.612   3.802   4.473
 5595TIP3    H116728   7.588   3.755   4.393
 5595TIP3    H216729   7.666   3.740   4.522
 5596TIP3   OH216730   6.973   1.795   6.214
 5596TIP3    H116731   6.917   1.856   6.166
 5596TIP3    H216732   7.061   1.811   6.181
 5597TIP3   OH216733   1.318   7.629   5.792
 5597TIP3    H116734   1.249   7.673   5.742
 5597TIP3    H216735   1.398   7.673   5.766
 5598TIP3   OH216736   3.382   2.867   3.422
 5598TIP3    H116737   3.383   2.777   3.391
 5598TIP3    H216738   3.463   2.905   3.389
 5599TIP3   OH216739   3.151   5.137   4.706
 5599TIP3    H116740   3.076   5.079   4.717
 5599TIP3    H216741   3.227   5.079   4.719
 5600TIP3   OH216742   4.662   4.615   5.857
 5600TIP3    H116743   4.577   4.656   5.838
 5600TIP3    H216744   4.640   4.534   5.902
 5601TIP3   OH216745   2.017   5.232   4.514
 5601TIP3    H116746   1.965   5.275   4.446
 5601TIP3    H216747   1.971   5.251   4.596
 5602TIP3   OH216748   0.325   2.514   1.260
 5602TIP3    H116749   0.376   2.532   1.181
 5602TIP3    H216750   0.324   2.597   1.308
 5603TIP3   OH216751   7.353   6.336   3.365
 5603TIP3    H116752   7.404   6.408   3.401
 5603TIP3    H216753   7.322   6.368   3.280
 5604TIP3   OH216754   6.898   0.188   2.388
 5604TIP3    H116755   6.908   0.276   2.425
 5604TIP3    H216756   6.983   0.147   2.402
 5605TIP3   OH216757   6.440   1.861   2.157
 5605TIP3    H116758   6.363   1.917   2.157
 5605TIP3    H216759   6.425   1.799   2.229
 5606TIP3   OH216760   3.785   3.330   2.624
 5606TIP3    H116761   3.825   3.381   2.694
 5606TIP3    H216762   3.840   3.346   2.548
 5607TIP3   OH216763   2.401   3.984   0.760
 5607TIP3    H116764   2.373   4.035   0.684
 5607TIP3    H216765   2.338   4.005   0.828
 5608TIP3   OH216766   4.603   1.741   1.868
 5608TIP3    H116767   4.576   1.699   1.950
 5608TIP3    H216768   4.698   1.725   1.864
 5609TIP3   OH216769   6.720   5.396   4.426
 5609TIP3    H116770   6.773   5.336   4.373
 5609TIP3    H216771   6.761   5.394   4.513
 5610TIP3   OH216772   3.622   5.616   1.807
 5610TIP3    H116773   3.636   5.648   1.718
 5610TIP3    H216774   3.707   5.578   1.832
 5611TIP3   OH216775   7.395   0.315   2.333
 5611TIP3    H116776   7.409   0.221   2.342
 5611TIP3    H216777   7.482   0.353   2.335
 5612TIP3   OH216778   1.978   3.674   0.160
 5612TIP3    H116779   1.990   3.596   0.214
 5612TIP3    H216780   2.065   3.715   0.157
 5613TIP3   OH216781   3.640   3.267   0.650
 5613TIP3    H116782   3.631   3.360   0.632
 5613TIP3    H216783   3.709   3.238   0.590
 5614TIP3   OH216784   6.694   1.247   3.207
 5614TIP3    H116785   6.774   1.285   3.170
 5614TIP3    H216786   6.664   1.185   3.141
 5615TIP3   OH216787   3.674   1.740   2.798
 5615TIP3    H116788   3.627   1.664   2.763
 5615TIP3    H216789   3.611   1.782   2.857
 5616TIP3   OH216790   4.068   7.206   5.548
 5616TIP3    H116791   3.975   7.187   5.538
 5616TIP3    H216792   4.073   7.302   5.542
 5617TIP3   OH216793   1.029   2.694   4.570
 5617TIP3    H116794   1.027   2.779   4.613
 5617TIP3    H216795   1.107   2.651   4.605
 5618TIP3   OH216796   6.649   6.282   1.433
 5618TIP3    H116797   6.596   6.253   1.507
 5618TIP3    H216798   6.702   6.205   1.410
 5619TIP3   OH216799   6.266   7.410   3.521
 5619TIP3    H116800   6.212   7.474   3.568
 5619TIP3    H216801   6.209   7.333   3.513
 5620TIP3   OH216802   3.971   5.554   3.665
 5620TIP3    H116803   4.002   5.608   3.592
 5620TIP3    H216804   3.967   5.465   3.629
 5621TIP3   OH216805   0.624   1.772   4.699
 5621TIP3    H116806   0.692   1.813   4.753
 5621TIP3    H216807   0.661   1.688   4.672
 5622TIP3   OH216808   0.655   1.680   1.125
 5622TIP3    H116809   0.719   1.665   1.055
 5622TIP3    H216810   0.652   1.598   1.174
 5623TIP3   OH216811   8.245   4.500   5.545
 5623TIP3    H116812   8.245   4.410   5.580
 5623TIP3    H216813   8.277   4.490   5.455
 5624TIP3   OH216814   4.677   4.065   2.655
 5624TIP3    H116815   4.697   4.056   2.748
 5624TIP3    H216816   4.606   4.003   2.640
 5625TIP3   OH216817   2.239   7.841   2.063
 5625TIP3    H116818   2.225   7.755   2.025
 5625TIP3    H216819   2.233   7.828   2.158
 5626TIP3   OH216820   4.183   2.698   3.003
 5626TIP3    H116821   4.207   2.647   3.080
 5626TIP3    H216822   4.106   2.748   3.030
 5627TIP3   OH216823   3.310   4.865   0.518
 5627TIP3    H116824   3.366   4.793   0.490
 5627TIP3    H216825   3.268   4.833   0.598
 5628TIP3   OH216826   6.387   3.166   2.564
 5628TIP3    H116827   6.427   3.230   2.505
 5628TIP3    H216828   6.373   3.214   2.645
 5629TIP3   OH216829   6.544   6.289   3.730
 5629TIP3    H116830   6.562   6.380   3.706
 5629TIP3    H216831   6.624   6.241   3.706
 5630TIP3   OH216832   7.333   5.001   2.933
 5630TIP3    H116833   7.415   4.975   2.890
 5630TIP3    H216834   7.357   5.080   2.982
 5631TIP3   OH216835   0.820   3.806   2.547
 5631TIP3    H116836   0.840   3.717   2.576
 5631TIP3    H216837   0.870   3.862   2.606
 5632TIP3   OH216838   0.501   5.311   2.307
 5632TIP3    H116839   0.583   5.351   2.337
 5632TIP3    H216840   0.526   5.260   2.230
 5633TIP3   OH216841   5.008   2.897   5.327
 5633TIP3    H116842   4.968   2.822   5.371
 5633TIP3    H216843   5.015   2.871   5.236
 5634TIP3   OH216844   4.394   6.813   6.051
 5634TIP3    H116845   4.298   6.806   6.054
 5634TIP3    H216846   4.416   6.863   6.130
 5635TIP3   OH216847   7.329   2.896   1.890
 5635TIP3    H116848   7.379   2.826   1.849
 5635TIP3    H216849   7.390   2.938   1.951
 5636TIP3   OH216850   2.419   1.377   6.285
 5636TIP3    H116851   2.357   1.365   6.357
 5636TIP3    H216852   2.500   1.338   6.316
 5637TIP3   OH216853   3.231   7.156   4.934
 5637TIP3    H116854   3.322   7.167   4.906
 5637TIP3    H216855   3.230   7.189   5.024
 5638TIP3   OH216856   5.644   4.905   6.623
 5638TIP3    H116857   5.731   4.942   6.607
 5638TIP3    H216858   5.584   4.969   6.586
 5639TIP3   OH216859   0.254   4.030   1.872
 5639TIP3    H116860   0.230   3.947   1.914
 5639TIP3    H216861   0.171   4.074   1.855
 5640TIP3   OH216862   2.335   5.936   1.223
 5640TIP3    H116863   2.322   5.843   1.202
 5640TIP3    H216864   2.343   5.979   1.138
 5641TIP3   OH216865   1.155   4.855   5.820
 5641TIP3    H116866   1.231   4.853   5.878
 5641TIP3    H216867   1.121   4.766   5.821
 5642TIP3   OH216868   8.044   6.247   5.553
 5642TIP3    H116869   8.051   6.299   5.634
 5642TIP3    H216870   8.107   6.288   5.494
 5643TIP3   OH216871   4.697   6.009   2.466
 5643TIP3    H116872   4.655   5.924   2.480
 5643TIP3    H216873   4.624   6.071   2.460
 5644TIP3   OH216874   5.868   3.995   5.914
 5644TIP3    H116875   5.818   4.076   5.915
 5644TIP3    H216876   5.894   3.984   5.823
 5645TIP3   OH216877   0.578   1.162   5.076
 5645TIP3    H116878   0.587   1.090   5.139
 5645TIP3    H216879   0.593   1.121   4.991
 5646TIP3   OH216880   3.685   3.368   5.030
 5646TIP3    H116881   3.623   3.392   5.099
 5646TIP3    H216882   3.770   3.390   5.066
 5647TIP3   OH216883   1.992   6.459   3.914
 5647TIP3    H116884   1.981   6.419   4.001
 5647TIP3    H216885   2.085   6.482   3.909
 5648TIP3   OH216886   6.560   4.344   6.396
 5648TIP3    H116887   6.612   4.409   6.444
 5648TIP3    H216888   6.483   4.392   6.367
 5649TIP3   OH216889   5.194   6.974   1.226
 5649TIP3    H116890   5.162   6.925   1.302
 5649TIP3    H216891   5.146   7.057   1.229
 5650TIP3   OH216892   3.192   0.891   5.398
 5650TIP3    H116893   3.122   0.938   5.443
 5650TIP3    H216894   3.212   0.817   5.455
 5651TIP3   OH216895   2.966   6.213   6.077
 5651TIP3    H116896   2.994   6.251   6.160
 5651TIP3    H216897   2.881   6.254   6.059
 5652TIP3   OH216898   3.666   6.377   2.742
 5652TIP3    H116899   3.753   6.417   2.737
 5652TIP3    H216900   3.608   6.450   2.765
 5653TIP3   OH216901   3.344   2.063   2.413
 5653TIP3    H116902   3.390   2.015   2.345
 5653TIP3    H216903   3.353   2.009   2.492
 5654TIP3   OH216904   1.303   5.340   1.245
 5654TIP3    H116905   1.324   5.432   1.228
 5654TIP3    H216906   1.291   5.335   1.340
 5655TIP3   OH216907   7.585   1.982   1.361
 5655TIP3    H116908   7.551   1.978   1.272
 5655TIP3    H216909   7.670   2.025   1.352
 5656TIP3   OH216910   6.636   4.050   3.116
 5656TIP3    H116911   6.716   4.010   3.081
 5656TIP3    H216912   6.600   3.983   3.174
 5657TIP3   OH216913   3.775   5.897   5.211
 5657TIP3    H116914   3.750   5.981   5.252
 5657TIP3    H216915   3.786   5.837   5.284
 5658TIP3   OH216916   8.217   0.719   0.954
 5658TIP3    H116917   8.135   0.749   0.994
 5658TIP3    H216918   8.255   0.661   1.019
 5659TIP3   OH216919   1.531   1.354   4.050
 5659TIP3    H116920   1.524   1.430   4.108
 5659TIP3    H216921   1.553   1.281   4.109
 5660TIP3   OH216922   0.053   5.415   5.499
 5660TIP3    H116923   0.028   5.332   5.459
 5660TIP3    H216924   0.142   5.431   5.468
 5661TIP3   OH216925   5.230   5.588   5.027
 5661TIP3    H116926   5.320   5.620   5.032
 5661TIP3    H216927   5.196   5.625   4.946
 5662TIP3   OH216928   5.936   3.232   0.392
 5662TIP3    H116929   6.000   3.296   0.363
 5662TIP3    H216930   5.854   3.260   0.353
 5663TIP3   OH216931   6.972   1.432   1.266
 5663TIP3    H116932   7.042   1.495   1.249
 5663TIP3    H216933   6.957   1.438   1.360
 5664TIP3   OH216934   1.355   4.957   5.171
 5664TIP3    H116935   1.367   4.985   5.080
 5664TIP3    H216936   1.337   4.863   5.164
 5665TIP3   OH216937   6.251   0.323   3.304
 5665TIP3    H116938   6.325   0.278   3.345
 5665TIP3    H216939   6.197   0.352   3.377
 5666TIP3   OH216940   4.397   0.388   1.830
 5666TIP3    H116941   4.484   0.347   1.825
 5666TIP3    H216942   4.342   0.333   1.774
 5667TIP3   OH216943   1.560   5.252   3.637
 5667TIP3    H116944   1.643   5.288   3.605
 5667TIP3    H216945   1.520   5.323   3.687
 5668TIP3   OH216946   5.881   5.207   1.555
 5668TIP3    H116947   5.797   5.187   1.514
 5668TIP3    H216948   5.872   5.297   1.585
 5669TIP3   OH216949  -0.012   1.998   0.211
 5669TIP3    H116950   0.006   2.081   0.168
 5669TIP3    H216951   0.036   1.933   0.159
 5670TIP3   OH216952   6.430   4.985   2.836
 5670TIP3    H116953   6.384   4.944   2.762
 5670TIP3    H216954   6.496   4.921   2.861
 5671TIP3   OH216955   1.864   6.382   5.232
 5671TIP3    H116956   1.897   6.437   5.161
 5671TIP3    H216957   1.771   6.405   5.239
 5672TIP3   OH216958   5.574   6.200   6.078
 5672TIP3    H116959   5.603   6.286   6.046
 5672TIP3    H216960   5.594   6.140   6.006
 5673TIP3   OH216961   0.061   0.587   3.366
 5673TIP3    H116962   0.140   0.591   3.312
 5673TIP3    H216963  -0.001   0.645   3.322
 5674TIP3   OH216964   2.867   2.924   3.669
 5674TIP3    H116965   2.817   2.883   3.598
 5674TIP3    H216966   2.957   2.926   3.637
 5675TIP3   OH216967   5.347   5.362   1.004
 5675TIP3    H116968   5.443   5.357   1.009
 5675TIP3    H216969   5.329   5.454   0.984
 5676TIP3   OH216970   7.308   5.777   3.685
 5676TIP3    H116971   7.288   5.779   3.778
 5676TIP3    H216972   7.225   5.758   3.642
 5677TIP3   OH216973   3.787   1.309   4.722
 5677TIP3    H116974   3.839   1.325   4.801
 5677TIP3    H216975   3.715   1.253   4.751
 5678TIP3   OH216976   4.737   0.735   4.824
 5678TIP3    H116977   4.788   0.737   4.905
 5678TIP3    H216978   4.679   0.660   4.835
 5679TIP3   OH216979   7.080   1.783   4.454
 5679TIP3    H116980   7.107   1.840   4.382
 5679TIP3    H216981   7.092   1.694   4.421
 5680TIP3   OH216982   2.213   3.966   6.114
 5680TIP3    H116983   2.160   3.897   6.154
 5680TIP3    H216984   2.206   3.950   6.020
 5681TIP3   OH216985   4.411   4.703   5.128
 5681TIP3    H116986   4.379   4.682   5.041
 5681TIP3    H216987   4.433   4.796   5.124
 5682TIP3   OH216988   8.234   3.755   1.220
 5682TIP3    H116989   8.171   3.689   1.251
 5682TIP3    H216990   8.224   3.828   1.281
 5683TIP3   OH216991   0.510   3.970   5.085
 5683TIP3    H116992   0.490   4.062   5.067
 5683TIP3    H216993   0.505   3.962   5.181
 5684TIP3   OH216994   2.279   2.196   4.804
 5684TIP3    H116995   2.296   2.238   4.720
 5684TIP3    H216996   2.236   2.263   4.856
 5685TIP3   OH216997   4.550   6.687   4.575
 5685TIP3    H116998   4.603   6.684   4.495
 5685TIP3    H216999   4.477   6.627   4.559
 5686TIP3   OH217000   7.558   3.487   6.013
 5686TIP3    H117001   7.625   3.554   5.997
 5686TIP3    H217002   7.574   3.421   5.945
 5687TIP3   OH217003   2.611   2.152   5.866
 5687TIP3    H117004   2.615   2.066   5.910
 5687TIP3    H217005   2.518   2.175   5.867
 5688TIP3   OH217006   7.403   7.005   1.304
 5688TIP3    H117007   7.384   7.038   1.391
 5688TIP3    H217008   7.497   7.019   1.293
 5689TIP3   OH217009   4.920   3.674   6.235
 5689TIP3    H117010   4.907   3.686   6.141
 5689TIP3    H217011   4.854   3.730   6.275
 5690TIP3   OH217012   1.633   2.905   4.267
 5690TIP3    H117013   1.639   2.991   4.225
 5690TIP3    H217014   1.724   2.874   4.269
 5691TIP3   OH217015   2.133   1.446   3.899
 5691TIP3    H117016   2.174   1.362   3.918
 5691TIP3    H217017   2.063   1.425   3.837
 5692TIP3   OH217018   4.198   3.325   3.572
 5692TIP3    H117019   4.208   3.362   3.660
 5692TIP3    H217020   4.165   3.399   3.520
 5693TIP3   OH217021   1.334   6.129   6.288
 5693TIP3    H117022   1.253   6.141   6.238
 5693TIP3    H217023   1.363   6.217   6.309
 5694TIP3   OH217024   3.061   1.744   0.155
 5694TIP3    H117025   3.128   1.810   0.174
 5694TIP3    H217026   3.008   1.741   0.235
 5695TIP3   OH217027   7.445   2.516   2.658
 5695TIP3    H117028   7.528   2.470   2.642
 5695TIP3    H217029   7.460   2.604   2.623
 5696TIP3   OH217030   2.730   2.807   3.459
 5696TIP3    H117031   2.679   2.839   3.384
 5696TIP3    H217032   2.798   2.753   3.420
 5697TIP3   OH217033   1.163   4.191   3.066
 5697TIP3    H117034   1.210   4.110   3.087
 5697TIP3    H217035   1.202   4.257   3.124
 5698TIP3   OH217036   7.643   6.869   0.082
 5698TIP3    H117037   7.551   6.876   0.056
 5698TIP3    H217038   7.661   6.775   0.082
 5699TIP3   OH217039   1.707   1.675   3.945
 5699TIP3    H117040   1.643   1.632   4.002
 5699TIP3    H217041   1.702   1.767   3.968
 5700TIP3   OH217042   2.965   2.243   3.857
 5700TIP3    H117043   2.944   2.166   3.804
 5700TIP3    H217044   3.043   2.218   3.907
 5701TIP3   OH217045   0.389   3.629   1.366
 5701TIP3    H117046   0.446   3.672   1.430
 5701TIP3    H217047   0.358   3.550   1.411
 5702TIP3   OH217048   6.890   3.244   2.948
 5702TIP3    H117049   6.860   3.219   3.035
 5702TIP3    H217050   6.985   3.256   2.958
 5703TIP3   OH217051   8.288   0.778   6.213
 5703TIP3    H117052   8.214   0.820   6.169
 5703TIP3    H217053   8.341   0.742   6.141
 5704TIP3   OH217054   4.638   1.081   6.590
 5704TIP3    H117055   4.612   0.992   6.612
 5704TIP3    H217056   4.698   1.071   6.516
 5705TIP3   OH217057   3.533   6.420   6.706
 5705TIP3    H117058   3.601   6.438   6.771
 5705TIP3    H217059   3.474   6.359   6.751
 5706TIP3   OH217060   3.178   1.496   5.344
 5706TIP3    H117061   3.103   1.540   5.304
 5706TIP3    H217062   3.207   1.556   5.413
 5707TIP3   OH217063   5.430   1.729   3.909
 5707TIP3    H117064   5.433   1.661   3.842
 5707TIP3    H217065   5.457   1.684   3.990
 5708TIP3   OH217066   4.761   5.144   5.593
 5708TIP3    H117067   4.723   5.229   5.616
 5708TIP3    H217068   4.691   5.081   5.610
 5709TIP3   OH217069   6.905   1.648   5.015
 5709TIP3    H117070   6.841   1.662   4.945
 5709TIP3    H217071   6.857   1.597   5.081
 5710TIP3   OH217072   4.137   0.207   6.594
 5710TIP3    H117073   4.136   0.248   6.508
 5710TIP3    H217074   4.223   0.227   6.630
 5711TIP3   OH217075   4.840   4.721   1.152
 5711TIP3    H117076   4.754   4.758   1.169
 5711TIP3    H217077   4.862   4.750   1.064
 5712TIP3   OH217078   4.037   2.379   1.287
 5712TIP3    H117079   4.005   2.358   1.199
 5712TIP3    H217080   3.958   2.400   1.337
 5713TIP3   OH217081   0.585   6.333   4.538
 5713TIP3    H117082   0.680   6.345   4.532
 5713TIP3    H217083   0.554   6.349   4.449
 5714TIP3   OH217084   6.473   5.727   6.791
 5714TIP3    H117085   6.427   5.675   6.726
 5714TIP3    H217086   6.552   5.758   6.747
 5715TIP3   OH217087   2.501   2.111   0.747
 5715TIP3    H117088   2.483   2.092   0.839
 5715TIP3    H217089   2.594   2.134   0.746
 5716TIP3   OH217090   0.632   7.461   6.673
 5716TIP3    H117091   0.665   7.381   6.632
 5716TIP3    H217092   0.565   7.430   6.734
 5717TIP3   OH217093   6.755   6.470   2.488
 5717TIP3    H117094   6.694   6.448   2.417
 5717TIP3    H217095   6.841   6.472   2.445
 5718TIP3   OH217096   7.173   3.770   3.493
 5718TIP3    H117097   7.201   3.835   3.557
 5718TIP3    H217098   7.135   3.821   3.422
 5719TIP3   OH217099   0.155   3.553   1.943
 5719TIP3    H117100   0.180   3.619   1.879
 5719TIP3    H217101   0.238   3.521   1.978
 5720TIP3   OH217102   7.514   3.022   1.559
 5720TIP3    H117103   7.555   3.107   1.569
 5720TIP3    H217104   7.424   3.035   1.589
 5721TIP3   OH217105   0.149   6.349   5.641
 5721TIP3    H117106   0.084   6.418   5.653
 5721TIP3    H217107   0.145   6.298   5.723
 5722TIP3   OH217108   4.167   6.645   1.971
 5722TIP3    H117109   4.075   6.665   1.987
 5722TIP3    H217110   4.201   6.724   1.928
 5723TIP3   OH217111   0.439   6.399   1.415
 5723TIP3    H117112   0.418   6.403   1.322
 5723TIP3    H217113   0.357   6.417   1.460
 5724TIP3   OH217114   1.402   7.400   1.310
 5724TIP3    H117115   1.452   7.354   1.378
 5724TIP3    H217116   1.377   7.483   1.351
 5725TIP3   OH217117   7.795   0.540   4.089
 5725TIP3    H117118   7.872   0.488   4.065
 5725TIP3    H217119   7.783   0.523   4.182
 5726TIP3   OH217120   1.595   6.938   0.509
 5726TIP3    H117121   1.600   6.970   0.599
 5726TIP3    H217122   1.654   6.863   0.507
 5727TIP3   OH217123   2.149   5.187   6.700
 5727TIP3    H117124   2.125   5.131   6.626
 5727TIP3    H217125   2.089   5.161   6.770
 5728TIP3   OH217126   7.014   4.889   3.227
 5728TIP3    H117127   7.016   4.983   3.207
 5728TIP3    H217128   6.950   4.853   3.165
 5729TIP3   OH217129   2.413   3.901   1.340
 5729TIP3    H117130   2.457   3.828   1.384
 5729TIP3    H217131   2.320   3.891   1.363
 5730TIP3   OH217132   2.995   6.860   2.640
 5730TIP3    H117133   3.048   6.923   2.590
 5730TIP3    H217134   2.908   6.900   2.642
 5731TIP3   OH217135  -0.002   1.704   5.602
 5731TIP3    H117136   0.036   1.616   5.603
 5731TIP3    H217137   0.074   1.762   5.603
 5732TIP3   OH217138   0.389   1.376   1.393
 5732TIP3    H117139   0.341   1.350   1.314
 5732TIP3    H217140   0.450   1.305   1.409
 5733TIP3   OH217141   7.631   2.886   5.305
 5733TIP3    H117142   7.600   2.949   5.241
 5733TIP3    H217143   7.581   2.806   5.286
 5734TIP3   OH217144   2.976   4.810   0.476
 5734TIP3    H117145   2.979   4.905   0.464
 5734TIP3    H217146   2.883   4.788   0.473
 5735TIP3   OH217147   8.255   2.111   4.273
 5735TIP3    H117148   8.345   2.079   4.266
 5735TIP3    H217149   8.255   2.168   4.350
 5736TIP3   OH217150   3.913   1.698   0.971
 5736TIP3    H117151   4.001   1.690   1.010
 5736TIP3    H217152   3.925   1.671   0.880
 5737TIP3   OH217153   5.609   1.045   0.929
 5737TIP3    H117154   5.520   1.071   0.905
 5737TIP3    H217155   5.628   1.096   1.008
 5738TIP3   OH217156   4.282   2.805   6.501
 5738TIP3    H117157   4.220   2.795   6.428
 5738TIP3    H217158   4.227   2.802   6.579
 5739TIP3   OH217159   4.636   5.610   1.633
 5739TIP3    H117160   4.653   5.589   1.725
 5739TIP3    H217161   4.707   5.568   1.585
 5740TIP3   OH217162   1.200   2.828   0.049
 5740TIP3    H117163   1.209   2.923   0.039
 5740TIP3    H217164   1.115   2.808   0.009
 5741TIP3   OH217165   6.807   2.480   3.470
 5741TIP3    H117166   6.737   2.531   3.429
 5741TIP3    H217167   6.886   2.502   3.419
 5742TIP3   OH217168   3.701   1.987   2.003
 5742TIP3    H117169   3.714   1.986   1.908
 5742TIP3    H217170   3.644   2.063   2.018
 5743TIP3   OH217171   4.715   1.412   0.060
 5743TIP3    H117172   4.715   1.334   0.005
 5743TIP3    H217173   4.622   1.434   0.071
 5744TIP3   OH217174   6.784   6.240   4.080
 5744TIP3    H117175   6.759   6.326   4.045
 5744TIP3    H217176   6.867   6.220   4.037
 5745TIP3   OH217177   5.411   7.659   0.391
 5745TIP3    H117178   5.385   7.568   0.381
 5745TIP3    H217179   5.505   7.660   0.376
 5746TIP3   OH217180   2.426   7.287   3.890
 5746TIP3    H117181   2.479   7.304   3.968
 5746TIP3    H217182   2.336   7.295   3.920
 5747TIP3   OH217183   1.261   1.569   3.532
 5747TIP3    H117184   1.228   1.481   3.521
 5747TIP3    H217185   1.286   1.574   3.624
 5748TIP3   OH217186   5.972   0.671   6.549
 5748TIP3    H117187   5.947   0.616   6.475
 5748TIP3    H217188   5.890   0.692   6.593
 5749TIP3   OH217189   0.748   7.425   5.485
 5749TIP3    H117190   0.686   7.482   5.440
 5749TIP3    H217191   0.799   7.385   5.414
 5750TIP3   OH217192   1.746   2.234   1.980
 5750TIP3    H117193   1.708   2.284   1.908
 5750TIP3    H217194   1.674   2.177   2.011
 5751TIP3   OH217195   0.441   3.800   6.582
 5751TIP3    H117196   0.485   3.824   6.500
 5751TIP3    H217197   0.495   3.837   6.651
 5752TIP3   OH217198   6.423   5.097   6.515
 5752TIP3    H117199   6.419   5.063   6.426
 5752TIP3    H217200   6.353   5.051   6.561
 5753TIP3   OH217201   1.570   6.103   6.074
 5753TIP3    H117202   1.623   6.112   5.994
 5753TIP3    H217203   1.628   6.131   6.145
 5754TIP3   OH217204   2.423   3.733   2.006
 5754TIP3    H117205   2.459   3.646   1.989
 5754TIP3    H217206   2.383   3.759   1.923
 5755TIP3   OH217207   0.483   6.345   6.265
 5755TIP3    H117208   0.410   6.284   6.257
 5755TIP3    H217209   0.544   6.303   6.325
 5756TIP3   OH217210   5.861   7.182   5.721
 5756TIP3    H117211   5.838   7.235   5.644
 5756TIP3    H217212   5.931   7.125   5.692
 5757TIP3   OH217213   6.538   2.693   2.760
 5757TIP3    H117214   6.563   2.777   2.798
 5757TIP3    H217215   6.616   2.639   2.769
 5758TIP3   OH217216   4.734   5.865   4.324
 5758TIP3    H117217   4.813   5.910   4.294
 5758TIP3    H217218   4.693   5.928   4.384
 5759TIP3   OH217219   2.809   2.430   6.395
 5759TIP3    H117220   2.902   2.446   6.410
 5759TIP3    H217221   2.765   2.470   6.471
 5760TIP3   OH217222   6.556   6.038   5.709
 5760TIP3    H117223   6.543   6.128   5.681
 5760TIP3    H217224   6.647   6.034   5.738
 5761TIP3   OH217225   7.825   5.946   3.641
 5761TIP3    H117226   7.863   5.859   3.629
 5761TIP3    H217227   7.832   5.988   3.555
 5762TIP3   OH217228   7.747   4.619   1.695
 5762TIP3    H117229   7.670   4.653   1.649
 5762TIP3    H217230   7.753   4.671   1.775
 5763TIP3   OH217231   7.596   2.908   5.617
 5763TIP3    H117232   7.567   2.923   5.527
 5763TIP3    H217233   7.679   2.956   5.624
 5764TIP3   OH217234   2.322   5.108   3.351
 5764TIP3    H117235   2.415   5.091   3.336
 5764TIP3    H217236   2.313   5.203   3.345
 5765TIP3   OH217237   1.583   7.277   2.340
 5765TIP3    H117238   1.489   7.283   2.320
 5765TIP3    H217239   1.607   7.365   2.367
 5766TIP3   OH217240   7.595   7.691   0.602
 5766TIP3    H117241   7.520   7.643   0.637
 5766TIP3    H217242   7.570   7.783   0.608
 5767TIP3   OH217243   2.079   5.071   6.207
 5767TIP3    H117244   1.992   5.089   6.173
 5767TIP3    H217245   2.114   5.158   6.228
 5768TIP3   OH217246   6.236   3.964   5.163
 5768TIP3    H117247   6.309   4.008   5.206
 5768TIP3    H217248   6.242   3.873   5.193
 5769TIP3   OH217249   5.267   6.249   3.405
 5769TIP3    H117250   5.284   6.334   3.364
 5769TIP3    H217251   5.322   6.188   3.358
 5770TIP3   OH217252   1.733   4.177   4.542
 5770TIP3    H117253   1.721   4.269   4.516
 5770TIP3    H217254   1.711   4.176   4.635
 5771TIP3   OH217255   1.879   7.298   1.872
 5771TIP3    H117256   1.892   7.390   1.896
 5771TIP3    H217257   1.860   7.254   1.956
 5772TIP3   OH217258   2.249   0.422   1.466
 5772TIP3    H117259   2.256   0.401   1.373
 5772TIP3    H217260   2.329   0.470   1.485
 5773TIP3   OH217261   5.522   4.660   2.294
 5773TIP3    H117262   5.511   4.690   2.204
 5773TIP3    H217263   5.497   4.734   2.348
 5774TIP3   OH217264   1.259   6.218   1.791
 5774TIP3    H117265   1.257   6.300   1.840
 5774TIP3    H217266   1.352   6.204   1.771
 5775TIP3   OH217267   5.800   4.234   6.188
 5775TIP3    H117268   5.743   4.308   6.166
 5775TIP3    H217269   5.885   4.259   6.153
 5776TIP3   OH217270   3.062   0.410   3.274
 5776TIP3    H117271   3.066   0.454   3.189
 5776TIP3    H217272   3.058   0.481   3.338
 5777TIP3   OH217273   5.058   3.887   5.758
 5777TIP3    H117274   4.986   3.839   5.719
 5777TIP3    H217275   5.027   3.910   5.845
 5778TIP3   OH217276   2.789   1.165   5.308
 5778TIP3    H117277   2.836   1.179   5.225
 5778TIP3    H217278   2.840   1.215   5.372
 5779TIP3   OH217279   8.324   6.181   3.711
 5779TIP3    H117280   8.298   6.093   3.739
 5779TIP3    H217281   8.243   6.222   3.681
 5780TIP3   OH217282   6.065   0.879   3.238
 5780TIP3    H117283   6.111   0.930   3.172
 5780TIP3    H217284   6.120   0.802   3.252
 5781TIP3   OH217285   3.093   5.208   3.607
 5781TIP3    H117286   3.148   5.280   3.639
 5781TIP3    H217287   3.080   5.152   3.684
 5782TIP3   OH217288   4.931   6.795   5.721
 5782TIP3    H117289   4.850   6.830   5.683
 5782TIP3    H217290   4.915   6.701   5.727
 5783TIP3   OH217291   0.243   1.427   4.200
 5783TIP3    H117292   0.248   1.435   4.295
 5783TIP3    H217293   0.334   1.416   4.172
 5784TIP3   OH217294   7.529   5.724   6.173
 5784TIP3    H117295   7.482   5.655   6.127
 5784TIP3    H217296   7.483   5.733   6.256
 5785TIP3   OH217297   4.176   6.596   3.056
 5785TIP3    H117298   4.139   6.598   3.144
 5785TIP3    H217299   4.234   6.672   3.052
 5786TIP3   OH217300   5.186   5.172   1.129
 5786TIP3    H117301   5.203   5.079   1.117
 5786TIP3    H217302   5.262   5.216   1.090
 5787TIP3   OH217303   2.455   3.719   6.563
 5787TIP3    H117304   2.537   3.736   6.516
 5787TIP3    H217305   2.480   3.660   6.633
 5788TIP3   OH217306   4.964   0.720   5.332
 5788TIP3    H117307   5.051   0.682   5.343
 5788TIP3    H217308   4.925   0.715   5.419
 5789TIP3   OH217309   7.053   5.442   2.456
 5789TIP3    H117310   6.962   5.416   2.445
 5789TIP3    H217311   7.067   5.442   2.551
 5790TIP3   OH217312   6.464   7.693   5.260
 5790TIP3    H117313   6.374   7.666   5.242
 5790TIP3    H217314   6.478   7.670   5.352
 5791TIP3   OH217315   7.760   2.764   3.421
 5791TIP3    H117316   7.725   2.683   3.383
 5791TIP3    H217317   7.850   2.742   3.444
 5792TIP3   OH217318   8.225   1.951   1.888
 5792TIP3    H117319   8.193   1.999   1.964
 5792TIP3    H217320   8.156   1.962   1.822
 5793TIP3   OH217321   4.530   2.277   4.900
 5793TIP3    H117322   4.611   2.249   4.942
 5793TIP3    H217323   4.550   2.277   4.806
 5794TIP3   OH217324   1.984   6.218   0.200
 5794TIP3    H117325   1.893   6.232   0.172
 5794TIP3    H217326   2.036   6.249   0.127
 5795TIP3   OH217327   4.515   0.940   3.958
 5795TIP3    H117328   4.421   0.947   3.972
 5795TIP3    H217329   4.525   0.949   3.863
 5796TIP3   OH217330   1.140   7.571   4.838
 5796TIP3    H117331   1.086   7.543   4.764
 5796TIP3    H217332   1.174   7.490   4.875
 5797TIP3   OH217333   5.097   2.686   3.316
 5797TIP3    H117334   5.119   2.635   3.394
 5797TIP3    H217335   5.065   2.769   3.350
 5798TIP3   OH217336   5.684   2.185   2.876
 5798TIP3    H117337   5.778   2.167   2.867
 5798TIP3    H217338   5.680   2.265   2.928
 5799TIP3   OH217339   7.118   6.933   4.750
 5799TIP3    H117340   7.129   6.939   4.845
 5799TIP3    H217341   7.087   6.843   4.735
 5800TIP3   OH217342   1.470   5.355   4.123
 5800TIP3    H117343   1.382   5.378   4.152
 5800TIP3    H217344   1.483   5.404   4.041
 5801TIP3   OH217345   1.129   5.259   3.384
 5801TIP3    H117346   1.177   5.307   3.452
 5801TIP3    H217347   1.052   5.225   3.429
 5802TIP3   OH217348   7.361   7.205   4.898
 5802TIP3    H117349   7.284   7.238   4.853
 5802TIP3    H217350   7.352   7.236   4.988
 5803TIP3   OH217351   5.311   4.005   2.444
 5803TIP3    H117352   5.277   4.071   2.505
 5803TIP3    H217353   5.255   4.010   2.368
 5804TIP3   OH217354   7.646   5.960   5.067
 5804TIP3    H117355   7.626   5.886   5.010
 5804TIP3    H217356   7.691   6.023   5.010
 5805TIP3   OH217357   7.688   5.083   4.274
 5805TIP3    H117358   7.715   5.175   4.277
 5805TIP3    H217359   7.615   5.082   4.212
 5806TIP3   OH217360   7.003   3.463   0.853
 5806TIP3    H117361   6.958   3.387   0.816
 5806TIP3    H217362   6.960   3.479   0.937
 5807TIP3   OH217363   5.032   0.395   5.864
 5807TIP3    H117364   4.952   0.413   5.814
 5807TIP3    H217365   5.005   0.403   5.956
 5808TIP3   OH217366   7.168   3.605   4.676
 5808TIP3    H117367   7.130   3.683   4.634
 5808TIP3    H217368   7.256   3.599   4.638
 5809TIP3   OH217369   2.175   1.794   3.847
 5809TIP3    H117370   2.143   1.812   3.935
 5809TIP3    H217371   2.109   1.735   3.810
 5810TIP3   OH217372   2.311   5.608   2.741
 5810TIP3    H117373   2.339   5.537   2.682
 5810TIP3    H217374   2.328   5.574   2.829
 5811TIP3   OH217375   0.437   7.535   2.466
 5811TIP3    H117376   0.478   7.599   2.408
 5811TIP3    H217377   0.414   7.585   2.545
 5812TIP3   OH217378   2.037   1.645   3.315
 5812TIP3    H117379   1.957   1.644   3.368
 5812TIP3    H217380   2.007   1.660   3.226
 5813TIP3   OH217381   3.474   1.921   4.759
 5813TIP3    H117382   3.427   1.941   4.841
 5813TIP3    H217383   3.405   1.890   4.700
 5814TIP3   OH217384   2.841   5.564   1.976
 5814TIP3    H117385   2.887   5.539   1.896
 5814TIP3    H217386   2.858   5.657   1.986
 5815TIP3   OH217387   5.088   2.496   0.102
 5815TIP3    H117388   5.029   2.513   0.028
 5815TIP3    H217389   5.038   2.437   0.159
 5816TIP3   OH217390   5.992   6.398   1.930
 5816TIP3    H117391   6.066   6.412   1.871
 5816TIP3    H217392   5.998   6.306   1.956
 5817TIP3   OH217393   5.869   5.695   4.336
 5817TIP3    H117394   5.946   5.641   4.358
 5817TIP3    H217395   5.794   5.637   4.352
 5818TIP3   OH217396   6.562   6.830   6.597
 5818TIP3    H117397   6.473   6.815   6.565
 5818TIP3    H217398   6.569   6.777   6.676
 5819TIP3   OH217399   1.533   5.451   3.001
 5819TIP3    H117400   1.599   5.510   3.036
 5819TIP3    H217401   1.453   5.504   2.995
 5820TIP3   OH217402   1.359   6.912   5.733
 5820TIP3    H117403   1.397   6.887   5.648
 5820TIP3    H217404   1.279   6.960   5.710
 5821TIP3   OH217405   3.902   1.998   2.206
 5821TIP3    H117406   3.827   1.987   2.148
 5821TIP3    H217407   3.864   2.024   2.290
 5822TIP3   OH217408   3.575   3.670   4.287
 5822TIP3    H117409   3.590   3.718   4.206
 5822TIP3    H217410   3.550   3.736   4.350
 5823TIP3   OH217411   3.284   1.857   0.298
 5823TIP3    H117412   3.260   1.803   0.374
 5823TIP3    H217413   3.378   1.844   0.289
 5824TIP3   OH217414   5.520   1.330   6.571
 5824TIP3    H117415   5.527   1.235   6.582
 5824TIP3    H217416   5.539   1.345   6.479
 5825TIP3   OH217417   5.005   7.013   1.601
 5825TIP3    H117418   4.957   7.066   1.536
 5825TIP3    H217419   4.937   6.982   1.660
 5826TIP3   OH217420   5.446   3.746   2.830
 5826TIP3    H117421   5.412   3.817   2.775
 5826TIP3    H217422   5.370   3.716   2.880
 5827TIP3   OH217423   5.371   4.962   1.164
 5827TIP3    H117424   5.410   5.050   1.166
 5827TIP3    H217425   5.385   4.928   1.252
 5828TIP3   OH217426   4.529   0.766   2.407
 5828TIP3    H117427   4.548   0.743   2.498
 5828TIP3    H217428   4.435   0.753   2.398
 5829TIP3   OH217429   7.034   3.840   0.198
 5829TIP3    H117430   6.948   3.798   0.203
 5829TIP3    H217431   7.019   3.930   0.224
 5830TIP3   OH217432   7.865   7.573   1.543
 5830TIP3    H117433   7.927   7.537   1.480
 5830TIP3    H217434   7.919   7.597   1.619
 5831TIP3   OH217435   5.102   2.386   4.808
 5831TIP3    H117436   5.191   2.355   4.825
 5831TIP3    H217437   5.057   2.311   4.769
 5832TIP3   OH217438   6.703   3.912   6.129
 5832TIP3    H117439   6.788   3.956   6.134
 5832TIP3    H217440   6.639   3.980   6.150
 5833TIP3   OH217441   2.651   1.235   6.353
 5833TIP3    H117442   2.607   1.161   6.312
 5833TIP3    H217443   2.743   1.224   6.328
 5834TIP3   OH217444   1.309   6.338   4.489
 5834TIP3    H117445   1.233   6.396   4.497
 5834TIP3    H217446   1.381   6.397   4.469
 5835TIP3   OH217447   4.279   4.166   1.512
 5835TIP3    H117448   4.357   4.129   1.553
 5835TIP3    H217449   4.219   4.183   1.585
 5836TIP3   OH217450   3.706   3.887   4.686
 5836TIP3    H117451   3.724   3.847   4.601
 5836TIP3    H217452   3.724   3.980   4.673
 5837TIP3   OH217453   0.879   0.515   3.209
 5837TIP3    H117454   0.817   0.500   3.137
 5837TIP3    H217455   0.870   0.608   3.228
 5838TIP3   OH217456   8.268   3.731   5.392
 5838TIP3    H117457   8.253   3.747   5.299
 5838TIP3    H217458   8.342   3.788   5.414
 5839TIP3   OH217459   4.138   7.322   1.078
 5839TIP3    H117460   4.066   7.361   1.029
 5839TIP3    H217461   4.132   7.228   1.060
 5840TIP3   OH217462   4.034   6.901   3.449
 5840TIP3    H117463   4.060   6.946   3.530
 5840TIP3    H217464   4.023   6.971   3.385
 5841TIP3   OH217465   5.152   2.758   5.099
 5841TIP3    H117466   5.094   2.740   5.025
 5841TIP3    H217467   5.223   2.809   5.061
 5842TIP3   OH217468   3.667   2.675   3.362
 5842TIP3    H117469   3.656   2.665   3.457
 5842TIP3    H217470   3.733   2.610   3.339
 5843TIP3   OH217471   7.598   3.357   1.895
 5843TIP3    H117472   7.547   3.400   1.827
 5843TIP3    H217473   7.675   3.412   1.906
 5844TIP3   OH217474   3.643   0.362   1.369
 5844TIP3    H117475   3.658   0.345   1.276
 5844TIP3    H217476   3.570   0.304   1.392
 5845TIP3   OH217477   8.129   0.922   4.538
 5845TIP3    H117478   8.171   1.002   4.568
 5845TIP3    H217479   8.141   0.860   4.610
 5846TIP3   OH217480   5.140   6.415   5.851
 5846TIP3    H117481   5.209   6.403   5.786
 5846TIP3    H217482   5.121   6.327   5.883
 5847TIP3   OH217483   5.602   6.919   1.497
 5847TIP3    H117484   5.618   6.895   1.588
 5847TIP3    H217485   5.530   6.862   1.469
 5848TIP3   OH217486   3.990   3.276   5.354
 5848TIP3    H117487   4.029   3.190   5.339
 5848TIP3    H217488   3.952   3.270   5.442
 5849TIP3   OH217489   1.819   4.454   0.211
 5849TIP3    H117490   1.788   4.375   0.257
 5849TIP3    H217491   1.740   4.507   0.201
 5850TIP3   OH217492   2.880   4.424   1.034
 5850TIP3    H117493   2.940   4.396   0.966
 5850TIP3    H217494   2.829   4.346   1.056
 5851TIP3   OH217495   1.102   5.390   5.978
 5851TIP3    H117496   1.171   5.347   6.028
 5851TIP3    H217497   1.035   5.323   5.965
 5852TIP3   OH217498   3.429   3.259   0.814
 5852TIP3    H117499   3.495   3.235   0.749
 5852TIP3    H217500   3.346   3.237   0.773
 5853TIP3   OH217501   2.285   3.521   3.979
 5853TIP3    H117502   2.332   3.454   4.029
 5853TIP3    H217503   2.271   3.592   4.042
 5854TIP3   OH217504   1.439   6.476   2.699
 5854TIP3    H117505   1.471   6.566   2.707
 5854TIP3    H217506   1.393   6.460   2.781
 5855TIP3   OH217507   0.332   6.633   0.800
 5855TIP3    H117508   0.383   6.713   0.788
 5855TIP3    H217509   0.248   6.651   0.758
 5856TIP3   OH217510   0.622   7.500   4.795
 5856TIP3    H117511   0.688   7.569   4.796
 5856TIP3    H217512   0.670   7.419   4.810
 5857TIP3   OH217513   6.297   3.515   1.063
 5857TIP3    H117514   6.228   3.551   1.118
 5857TIP3    H217515   6.256   3.502   0.977
 5858TIP3   OH217516   2.685   5.944   3.202
 5858TIP3    H117517   2.689   5.852   3.174
 5858TIP3    H217518   2.762   5.984   3.162
 5859TIP3   OH217519   0.181   1.366   4.997
 5859TIP3    H117520   0.186   1.271   4.999
 5859TIP3    H217521   0.250   1.395   5.057
 5860TIP3   OH217522   1.474   1.542   4.479
 5860TIP3    H117523   1.536   1.529   4.408
 5860TIP3    H217524   1.446   1.634   4.471
 5861TIP3   OH217525   0.103   2.290   4.740
 5861TIP3    H117526   0.024   2.238   4.754
 5861TIP3    H217527   0.175   2.227   4.744
 5862TIP3   OH217528   3.748   4.842   1.203
 5862TIP3    H117529   3.836   4.816   1.177
 5862TIP3    H217530   3.715   4.894   1.130
 5863TIP3   OH217531   5.756   3.780   6.051
 5863TIP3    H117532   5.752   3.702   5.994
 5863TIP3    H217533   5.804   3.844   5.999
 5864TIP3   OH217534   1.363   3.758   4.128
 5864TIP3    H117535   1.363   3.812   4.048
 5864TIP3    H217536   1.309   3.807   4.190
 5865TIP3   OH217537   4.693   1.853   2.317
 5865TIP3    H117538   4.657   1.876   2.402
 5865TIP3    H217539   4.723   1.936   2.279
 5866TIP3   OH217540   6.689   3.227   1.047
 5866TIP3    H117541   6.639   3.269   1.117
 5866TIP3    H217542   6.779   3.225   1.080
 5867TIP3   OH217543   7.572   5.717   3.101
 5867TIP3    H117544   7.527   5.798   3.125
 5867TIP3    H217545   7.513   5.647   3.129
 5868TIP3   OH217546   5.640   6.220   5.045
 5868TIP3    H117547   5.657   6.259   4.959
 5868TIP3    H217548   5.546   6.204   5.046
 5869TIP3   OH217549   2.944   4.486   0.146
 5869TIP3    H117550   2.944   4.416   0.212
 5869TIP3    H217551   2.991   4.558   0.187
 5870TIP3   OH217552   5.229   3.845   3.265
 5870TIP3    H117553   5.284   3.914   3.301
 5870TIP3    H217554   5.275   3.764   3.287
 5871TIP3   OH217555   7.881   1.931   4.593
 5871TIP3    H117556   7.842   1.950   4.678
 5871TIP3    H217557   7.837   1.851   4.563
 5872TIP3   OH217558   0.970   5.047   2.201
 5872TIP3    H117559   0.915   5.116   2.238
 5872TIP3    H217560   1.046   5.093   2.167
 5873TIP3   OH217561   4.654   3.457   2.557
 5873TIP3    H117562   4.742   3.490   2.542
 5873TIP3    H217563   4.656   3.366   2.526
 5874TIP3   OH217564   8.246   6.051   5.930
 5874TIP3    H117565   8.303   5.986   5.889
 5874TIP3    H217566   8.184   5.999   5.982
 5875TIP3   OH217567   6.589   5.127   3.945
 5875TIP3    H117568   6.639   5.162   3.871
 5875TIP3    H217569   6.643   5.057   3.980
 5876TIP3   OH217570   6.514   5.668   1.451
 5876TIP3    H117571   6.587   5.667   1.389
 5876TIP3    H217572   6.478   5.756   1.444
 5877TIP3   OH217573   6.979   7.072   5.698
 5877TIP3    H117574   6.923   7.055   5.773
 5877TIP3    H217575   7.058   7.020   5.715
 5878TIP3   OH217576   6.048   5.337   5.649
 5878TIP3    H117577   6.023   5.285   5.573
 5878TIP3    H217578   5.966   5.379   5.678
 5879TIP3   OH217579   2.182   5.535   3.837
 5879TIP3    H117580   2.121   5.498   3.902
 5879TIP3    H217581   2.149   5.504   3.753
 5880TIP3   OH217582   1.685   1.534   5.443
 5880TIP3    H117583   1.696   1.440   5.459
 5880TIP3    H217584   1.632   1.565   5.516
 5881TIP3   OH217585   5.875   4.567   6.361
 5881TIP3    H117586   5.878   4.486   6.411
 5881TIP3    H217587   5.800   4.615   6.397
 5882TIP3   OH217588   4.707   6.285   5.287
 5882TIP3    H117589   4.739   6.278   5.377
 5882TIP3    H217590   4.744   6.367   5.255
 5883TIP3   OH217591   4.007   5.253   5.732
 5883TIP3    H117592   3.934   5.310   5.710
 5883TIP3    H217593   3.966   5.172   5.763
 5884TIP3   OH217594   6.062   7.628   3.796
 5884TIP3    H117595   5.977   7.593   3.823
 5884TIP3    H217596   6.110   7.641   3.878
 5885TIP3   OH217597   2.809   2.026   2.038
 5885TIP3    H117598   2.868   2.091   2.075
 5885TIP3    H217599   2.777   1.976   2.114
 5886TIP3   OH217600   5.816   6.832   6.183
 5886TIP3    H117601   5.827   6.925   6.203
 5886TIP3    H217602   5.750   6.829   6.114
 5887TIP3   OH217603   0.986   5.042   4.977
 5887TIP3    H117604   0.909   4.986   4.965
 5887TIP3    H217605   1.009   5.032   5.069
 5888TIP3   OH217606   2.332   2.663   2.697
 5888TIP3    H117607   2.324   2.572   2.671
 5888TIP3    H217608   2.252   2.681   2.747
 5889TIP3   OH217609   1.611   2.094   2.910
 5889TIP3    H117610   1.562   2.015   2.934
 5889TIP3    H217611   1.603   2.100   2.815
 5890TIP3   OH217612   6.536   1.023   4.738
 5890TIP3    H117613   6.462   0.967   4.759
 5890TIP3    H217614   6.524   1.101   4.793
 5891TIP3   OH217615   6.633   1.233   1.225
 5891TIP3    H117616   6.579   1.296   1.273
 5891TIP3    H217617   6.591   1.149   1.238
 5892TIP3   OH217618   6.978   3.183   4.804
 5892TIP3    H117619   7.000   3.266   4.846
 5892TIP3    H217620   6.921   3.139   4.867
 5893TIP3   OH217621   1.370   7.225   4.061
 5893TIP3    H117622   1.282   7.233   4.025
 5893TIP3    H217623   1.388   7.310   4.100
 5894TIP3   OH217624   5.341   1.128   0.901
 5894TIP3    H117625   5.317   1.049   0.852
 5894TIP3    H217626   5.276   1.193   0.875
 5895TIP3   OH217627   2.899   2.440   1.966
 5895TIP3    H117628   2.851   2.424   1.885
 5895TIP3    H217629   2.979   2.485   1.938
 5896TIP3   OH217630   3.439   1.874   1.879
 5896TIP3    H117631   3.446   1.781   1.901
 5896TIP3    H217632   3.515   1.891   1.825
 5897TIP3   OH217633   1.651   2.625   3.426
 5897TIP3    H117634   1.666   2.555   3.490
 5897TIP3    H217635   1.572   2.598   3.379
 5898TIP3   OH217636   4.890   5.988   5.940
 5898TIP3    H117637   4.856   6.000   5.851
 5898TIP3    H217638   4.974   6.034   5.939
 5899TIP3   OH217639   6.642   0.927   0.448
 5899TIP3    H117640   6.556   0.961   0.422
 5899TIP3    H217641   6.636   0.919   0.543
 5900TIP3   OH217642   3.837   6.284   5.871
 5900TIP3    H117643   3.789   6.204   5.892
 5900TIP3    H217644   3.802   6.349   5.932
 5901TIP3   OH217645   5.964   2.348   0.090
 5901TIP3    H117646   6.056   2.357   0.067
 5901TIP3    H217647   5.938   2.435   0.120
 5902TIP3   OH217648   6.872   0.963   3.824
 5902TIP3    H117649   6.847   0.891   3.882
 5902TIP3    H217650   6.790   1.008   3.803
 5903TIP3   OH217651   3.401   0.593   6.222
 5903TIP3    H117652   3.474   0.614   6.280
 5903TIP3    H217653   3.327   0.640   6.259
 5904TIP3   OH217654   7.470   2.195   1.509
 5904TIP3    H117655   7.516   2.130   1.456
 5904TIP3    H217656   7.437   2.146   1.585
 5905TIP3   OH217657   5.244   5.702   5.936
 5905TIP3    H117658   5.192   5.705   5.855
 5905TIP3    H217659   5.335   5.709   5.907
 5906TIP3   OH217660   3.210   4.614   6.012
 5906TIP3    H117661   3.182   4.524   5.993
 5906TIP3    H217662   3.261   4.640   5.936
 5907TIP3   OH217663   5.330   1.816   1.980
 5907TIP3    H117664   5.289   1.806   1.895
 5907TIP3    H217665   5.280   1.758   2.038
 5908TIP3   OH217666   5.747   2.714   5.861
 5908TIP3    H117667   5.679   2.756   5.808
 5908TIP3    H217668   5.704   2.696   5.945
 5909TIP3   OH217669   5.449   5.838   6.760
 5909TIP3    H117670   5.394   5.841   6.682
 5909TIP3    H217671   5.449   5.927   6.794
 5910TIP3   OH217672   0.559   6.881   1.636
 5910TIP3    H117673   0.500   6.807   1.622
 5910TIP3    H217674   0.565   6.924   1.551
 5911TIP3   OH217675   1.399   5.591   4.951
 5911TIP3    H117676   1.473   5.535   4.931
 5911TIP3    H217677   1.330   5.531   4.981
 5912TIP3   OH217678   2.238   7.679   4.306
 5912TIP3    H117679   2.169   7.744   4.320
 5912TIP3    H217680   2.274   7.664   4.394
 5913TIP3   OH217681   3.845   3.303   2.116
 5913TIP3    H117682   3.797   3.250   2.180
 5913TIP3    H217683   3.782   3.319   2.046
 5914TIP3   OH217684   0.358   6.612   3.882
 5914TIP3    H117685   0.402   6.636   3.800
 5914TIP3    H217686   0.329   6.522   3.868
 5915TIP3   OH217687   4.644   4.479   2.539
 5915TIP3    H117688   4.582   4.461   2.609
 5915TIP3    H217689   4.615   4.424   2.466
 5916TIP3   OH217690   1.245   2.219   1.945
 5916TIP3    H117691   1.225   2.293   1.889
 5916TIP3    H217692   1.294   2.256   2.018
 5917TIP3   OH217693   5.706   5.802   4.111
 5917TIP3    H117694   5.730   5.745   4.038
 5917TIP3    H217695   5.770   5.782   4.180
 5918TIP3   OH217696   3.530   4.125   1.466
 5918TIP3    H117697   3.506   4.167   1.383
 5918TIP3    H217698   3.625   4.123   1.466
 5919TIP3   OH217699   1.144   7.735   1.008
 5919TIP3    H117700   1.180   7.778   1.085
 5919TIP3    H217701   1.198   7.657   0.995
 5920TIP3   OH217702   4.946   3.003   0.324
 5920TIP3    H117703   4.909   3.005   0.412
 5920TIP3    H217704   4.902   3.074   0.278
 5921TIP3   OH217705   0.315   5.676   2.410
 5921TIP3    H117706   0.328   5.614   2.482
 5921TIP3    H217707   0.220   5.680   2.400
 5922TIP3   OH217708   6.714   0.834   2.468
 5922TIP3    H117709   6.634   0.843   2.416
 5922TIP3    H217710   6.725   0.740   2.479
 5923TIP3   OH217711   4.385   5.721   0.578
 5923TIP3    H117712   4.364   5.762   0.662
 5923TIP3    H217713   4.479   5.703   0.582
 5924TIP3   OH217714   2.070   6.134   1.762
 5924TIP3    H117715   2.059   6.179   1.846
 5924TIP3    H217716   2.050   6.043   1.781
 5925TIP3   OH217717   3.938   1.651   2.156
 5925TIP3    H117718   3.873   1.619   2.218
 5925TIP3    H217719   4.001   1.699   2.210
 5926TIP3   OH217720   7.184   0.376   5.945
 5926TIP3    H117721   7.244   0.347   6.014
 5926TIP3    H217722   7.143   0.455   5.980
 5927TIP3   OH217723   7.610   3.609   0.703
 5927TIP3    H117724   7.653   3.524   0.693
 5927TIP3    H217725   7.666   3.658   0.763
 5928TIP3   OH217726   0.623   0.581   4.517
 5928TIP3    H117727   0.676   0.620   4.447
 5928TIP3    H217728   0.620   0.488   4.495
 5929TIP3   OH217729   1.252   0.121   6.371
 5929TIP3    H117730   1.241   0.214   6.389
 5929TIP3    H217731   1.344   0.103   6.391
 5930TIP3   OH217732   7.426   3.067   3.565
 5930TIP3    H117733   7.519   3.051   3.553
 5930TIP3    H217734   7.385   3.024   3.489
 5931TIP3   OH217735   5.243   4.403   5.826
 5931TIP3    H117736   5.307   4.474   5.825
 5931TIP3    H217737   5.173   4.433   5.768
 5932TIP3   OH217738   2.258   3.308   4.272
 5932TIP3    H117739   2.351   3.322   4.254
 5932TIP3    H217740   2.250   3.214   4.286
 5933TIP3   OH217741   3.502   3.958   6.520
 5933TIP3    H117742   3.577   3.919   6.565
 5933TIP3    H217743   3.510   4.052   6.538
 5934TIP3   OH217744   5.787   3.274   6.119
 5934TIP3    H117745   5.842   3.257   6.196
 5934TIP3    H217746   5.730   3.198   6.112
 5935TIP3   OH217747   1.268   1.329   4.271
 5935TIP3    H117748   1.240   1.390   4.202
 5935TIP3    H217749   1.364   1.335   4.271
 5936TIP3   OH217750   5.359   6.212   4.288
 5936TIP3    H117751   5.283   6.175   4.334
 5936TIP3    H217752   5.432   6.199   4.349
 5937TIP3   OH217753   0.770   0.963   0.896
 5937TIP3    H117754   0.830   0.927   0.831
 5937TIP3    H217755   0.767   1.057   0.877
 5938TIP3   OH217756   5.507   3.172   4.382
 5938TIP3    H117757   5.517   3.248   4.439
 5938TIP3    H217758   5.597   3.148   4.358
 5939TIP3   OH217759   2.991   0.115   3.687
 5939TIP3    H117760   3.049   0.190   3.699
 5939TIP3    H217761   2.944   0.134   3.606
 5940TIP3   OH217762   3.588   3.108   5.958
 5940TIP3    H117763   3.509   3.061   5.982
 5940TIP3    H217764   3.643   3.104   6.037
 5941TIP3   OH217765   7.127   7.591   2.189
 5941TIP3    H117766   7.139   7.546   2.273
 5941TIP3    H217767   7.183   7.668   2.195
 5942TIP3   OH217768   2.272   0.257   2.530
 5942TIP3    H117769   2.344   0.235   2.589
 5942TIP3    H217770   2.269   0.353   2.530
 5943TIP3   OH217771   5.332   2.968   6.546
 5943TIP3    H117772   5.310   2.905   6.614
 5943TIP3    H217773   5.248   2.997   6.511
 5944TIP3   OH217774   7.366   1.998   5.644
 5944TIP3    H117775   7.428   2.071   5.634
 5944TIP3    H217776   7.284   2.040   5.669
 5945TIP3   OH217777   0.687   3.369   4.298
 5945TIP3    H117778   0.750   3.311   4.340
 5945TIP3    H217779   0.739   3.416   4.233
 5946TIP3   OH217780   3.097   2.443   0.407
 5946TIP3    H117781   3.063   2.357   0.432
 5946TIP3    H217782   3.178   2.452   0.457
 5947TIP3   OH217783   1.954   7.011   0.662
 5947TIP3    H117784   1.868   7.028   0.700
 5947TIP3    H217785   1.961   6.915   0.660
 5948TIP3   OH217786   4.278   4.589   1.461
 5948TIP3    H117787   4.357   4.536   1.470
 5948TIP3    H217788   4.293   4.665   1.517
 5949TIP3   OH217789   2.504   6.423   1.613
 5949TIP3    H117790   2.420   6.393   1.578
 5949TIP3    H217791   2.560   6.432   1.536
 5950TIP3   OH217792   6.391   4.423   2.968
 5950TIP3    H117793   6.359   4.356   2.907
 5950TIP3    H217794   6.316   4.444   3.023
 5951TIP3   OH217795   3.453   7.518   3.019
 5951TIP3    H117796   3.476   7.609   3.039
 5951TIP3    H217797   3.420   7.522   2.929
 5952TIP3   OH217798   2.968   4.977   3.507
 5952TIP3    H117799   2.981   5.072   3.516
 5952TIP3    H217800   2.907   4.968   3.434
 5953TIP3   OH217801   3.424   1.726   5.799
 5953TIP3    H117802   3.461   1.643   5.771
 5953TIP3    H217803   3.491   1.765   5.854
 5954TIP3   OH217804   3.784   5.451   3.064
 5954TIP3    H117805   3.765   5.531   3.114
 5954TIP3    H217806   3.775   5.478   2.972
 5955TIP3   OH217807   5.681   6.789   3.932
 5955TIP3    H117808   5.716   6.705   3.963
 5955TIP3    H217809   5.592   6.792   3.967
 5956TIP3   OH217810   4.722   4.114   2.951
 5956TIP3    H117811   4.799   4.069   2.916
 5956TIP3    H217812   4.756   4.199   2.981
 5957TIP3   OH217813   7.806   3.867   4.855
 5957TIP3    H117814   7.711   3.883   4.860
 5957TIP3    H217815   7.827   3.824   4.938
 5958TIP3   OH217816   0.668   3.661   2.945
 5958TIP3    H117817   0.686   3.703   3.029
 5958TIP3    H217818   0.663   3.733   2.883
 5959TIP3   OH217819   7.041   4.923   0.398
 5959TIP3    H117820   7.104   4.856   0.424
 5959TIP3    H217821   6.960   4.898   0.444
 5960TIP3   OH217822   2.697   4.999   2.060
 5960TIP3    H117823   2.741   5.012   2.143
 5960TIP3    H217824   2.721   4.910   2.034
 5961TIP3   OH217825   5.485   0.970   3.997
 5961TIP3    H117826   5.401   0.985   3.953
 5961TIP3    H217827   5.538   1.046   3.975
 5962TIP3   OH217828   3.466   4.054   2.647
 5962TIP3    H117829   3.529   4.122   2.625
 5962TIP3    H217830   3.473   3.991   2.575
 5963TIP3   OH217831   1.568   1.451   1.599
 5963TIP3    H117832   1.498   1.423   1.658
 5963TIP3    H217833   1.540   1.422   1.512
 5964TIP3   OH217834   1.905   1.509   4.887
 5964TIP3    H117835   1.969   1.554   4.944
 5964TIP3    H217836   1.936   1.419   4.883
 5965TIP3   OH217837   2.711   6.619   1.991
 5965TIP3    H117838   2.703   6.540   2.043
 5965TIP3    H217839   2.638   6.674   2.019
 5966TIP3   OH217840   2.308   5.644   0.412
 5966TIP3    H117841   2.232   5.639   0.470
 5966TIP3    H217842   2.379   5.674   0.469
 5967TIP3   OH217843   5.095   6.103   2.823
 5967TIP3    H117844   5.046   6.068   2.749
 5967TIP3    H217845   5.030   6.114   2.892
 5968TIP3   OH217846   6.083   6.351   3.664
 5968TIP3    H117847   6.143   6.299   3.611
 5968TIP3    H217848   6.109   6.335   3.754
 5969TIP3   OH217849   3.381   4.873   5.267
 5969TIP3    H117850   3.345   4.814   5.333
 5969TIP3    H217851   3.304   4.909   5.222
 5970TIP3   OH217852   0.289   5.439   1.899
 5970TIP3    H117853   0.310   5.530   1.878
 5970TIP3    H217854   0.202   5.443   1.939
 5971TIP3   OH217855   0.965   4.144   3.428
 5971TIP3    H117856   0.970   4.088   3.505
 5971TIP3    H217857   0.960   4.082   3.354
 5972TIP3   OH217858   2.750   0.855   5.453
 5972TIP3    H117859   2.693   0.914   5.404
 5972TIP3    H217860   2.836   0.897   5.449
 5973TIP3   OH217861   0.341   4.235   0.762
 5973TIP3    H117862   0.266   4.260   0.708
 5973TIP3    H217863   0.302   4.204   0.843
 5974TIP3   OH217864   4.830   2.276   2.677
 5974TIP3    H117865   4.802   2.187   2.652
 5974TIP3    H217866   4.889   2.262   2.750
 5975TIP3   OH217867   5.736   6.860   5.798
 5975TIP3    H117868   5.816   6.878   5.847
 5975TIP3    H217869   5.759   6.876   5.707
 5976TIP3   OH217870   1.943   5.733   5.198
 5976TIP3    H117871   1.900   5.693   5.122
 5976TIP3    H217872   1.910   5.823   5.200
 5977TIP3   OH217873   7.485   5.513   5.675
 5977TIP3    H117874   7.492   5.418   5.678
 5977TIP3    H217875   7.567   5.542   5.635
 5978TIP3   OH217876   4.848   0.984   6.440
 5978TIP3    H117877   4.812   1.031   6.365
 5978TIP3    H217878   4.834   0.892   6.419
 5979TIP3   OH217879   7.203   4.509   0.358
 5979TIP3    H117880   7.289   4.522   0.399
 5979TIP3    H217881   7.155   4.455   0.421
 5980TIP3   OH217882   4.558   4.324   2.338
 5980TIP3    H117883   4.611   4.262   2.388
 5980TIP3    H217884   4.545   4.283   2.253
 5981TIP3   OH217885   3.440   2.937   4.998
 5981TIP3    H117886   3.457   2.843   4.991
 5981TIP3    H217887   3.356   2.949   4.954
 5982TIP3   OH217888   1.930   1.449   5.217
 5982TIP3    H117889   1.997   1.466   5.151
 5982TIP3    H217890   1.899   1.536   5.243
 5983TIP3   OH217891   1.626   2.466   5.738
 5983TIP3    H117892   1.654   2.392   5.685
 5983TIP3    H217893   1.706   2.496   5.782
 5984TIP3   OH217894   1.691   2.507   0.669
 5984TIP3    H117895   1.679   2.595   0.703
 5984TIP3    H217896   1.786   2.494   0.670
 5985TIP3   OH217897   0.434   6.189   6.616
 5985TIP3    H117898   0.446   6.271   6.569
 5985TIP3    H217899   0.388   6.213   6.697
 5986TIP3   OH217900   4.845   1.885   6.198
 5986TIP3    H117901   4.873   1.916   6.112
 5986TIP3    H217902   4.856   1.962   6.255
 5987TIP3   OH217903   8.037   0.524   5.726
 5987TIP3    H117904   7.966   0.489   5.673
 5987TIP3    H217905   8.013   0.616   5.740
 5988TIP3   OH217906   4.904   3.877   2.014
 5988TIP3    H117907   4.816   3.885   1.978
 5988TIP3    H217908   4.946   3.960   1.993
 5989TIP3   OH217909   7.353   7.227   2.139
 5989TIP3    H117910   7.301   7.288   2.087
 5989TIP3    H217911   7.442   7.235   2.104
 5990TIP3   OH217912   0.053   2.672   3.301
 5990TIP3    H117913   0.095   2.696   3.218
 5990TIP3    H217914  -0.012   2.606   3.276
 5991TIP3   OH217915   5.916   6.914   1.661
 5991TIP3    H117916   5.853   6.947   1.725
 5991TIP3    H217917   5.896   6.961   1.580
 5992TIP3   OH217918   4.836   4.500   1.302
 5992TIP3    H117919   4.866   4.582   1.263
 5992TIP3    H217920   4.755   4.480   1.255
 5993TIP3   OH217921   0.930   5.179   6.030
 5993TIP3    H117922   0.896   5.219   6.110
 5993TIP3    H217923   0.990   5.111   6.060
 5994TIP3   OH217924   0.431   5.878   4.351
 5994TIP3    H117925   0.398   5.957   4.395
 5994TIP3    H217926   0.523   5.897   4.334
 5995TIP3   OH217927   3.080   1.482   5.027
 5995TIP3    H117928   3.015   1.481   5.097
 5995TIP3    H217929   3.118   1.570   5.031
 5996TIP3   OH217930   0.407   6.700   5.943
 5996TIP3    H117931   0.370   6.788   5.945
 5996TIP3    H217932   0.491   6.708   5.989
 5997TIP3   OH217933   2.355   0.697   1.550
 5997TIP3    H117934   2.259   0.698   1.561
 5997TIP3    H217935   2.388   0.736   1.631
 5998TIP3   OH217936   0.864   2.670   4.005
 5998TIP3    H117937   0.897   2.724   4.077
 5998TIP3    H217938   0.874   2.580   4.036
 5999TIP3   OH217939   6.464   3.931   4.688
 5999TIP3    H117940   6.456   4.015   4.643
 5999TIP3    H217941   6.411   3.871   4.635
 6000TIP3   OH217942   7.098   4.411   1.444
 6000TIP3    H117943   7.169   4.398   1.381
 6000TIP3    H217944   7.085   4.324   1.483
 6001TIP3   OH217945   3.580   0.669   6.427
 6001TIP3    H117946   3.618   0.607   6.489
 6001TIP3    H217947   3.546   0.740   6.482
 6002TIP3   OH217948   0.722   6.109   4.886
 6002TIP3    H117949   0.727   6.114   4.981
 6002TIP3    H217950   0.757   6.193   4.855
 6003TIP3   OH217951   1.349   5.494   1.955
 6003TIP3    H117952   1.373   5.414   1.908
 6003TIP3    H217953   1.271   5.526   1.909
 6004TIP3   OH217954   6.496   4.771   3.705
 6004TIP3    H117955   6.480   4.862   3.682
 6004TIP3    H217956   6.507   4.727   3.621
 6005TIP3   OH217957   2.063   6.015   3.525
 6005TIP3    H117958   2.130   5.975   3.469
 6005TIP3    H217959   2.098   6.101   3.547
 6006TIP3   OH217960   7.537   2.350   1.985
 6006TIP3    H117961   7.516   2.432   1.939
 6006TIP3    H217962   7.464   2.292   1.964
 6007TIP3   OH217963   3.945   2.890   6.510
 6007TIP3    H117964   3.986   2.891   6.423
 6007TIP3    H217965   3.941   2.797   6.533
 6008TIP3   OH217966   6.631   2.950   4.148
 6008TIP3    H117967   6.714   2.978   4.187
 6008TIP3    H217968   6.620   3.006   4.071
 6009TIP3   OH217969   2.989   6.919   2.274
 6009TIP3    H117970   2.989   7.002   2.226
 6009TIP3    H217971   3.081   6.892   2.275
 6010TIP3   OH217972   4.703   3.576   3.438
 6010TIP3    H117973   4.639   3.643   3.461
 6010TIP3    H217974   4.774   3.587   3.500
 6011TIP3   OH217975   1.692   3.781   2.995
 6011TIP3    H117976   1.755   3.803   3.064
 6011TIP3    H217977   1.671   3.689   3.010
 6012TIP3   OH217978   6.418   7.804   4.912
 6012TIP3    H117979   6.439   7.843   4.997
 6012TIP3    H217980   6.502   7.777   4.876
 6013TIP3   OH217981   2.933   4.909   1.374
 6013TIP3    H117982   2.914   4.930   1.283
 6013TIP3    H217983   2.898   4.983   1.423
 6014TIP3   OH217984   6.467   3.472   0.010
 6014TIP3    H117985   6.447   3.422  -0.069
 6014TIP3    H217986   6.382   3.501   0.043
 6015TIP3   OH217987   5.359   1.302   2.757
 6015TIP3    H117988   5.425   1.246   2.800
 6015TIP3    H217989   5.357   1.271   2.667
 6016TIP3   OH217990   2.548   0.814   4.352
 6016TIP3    H117991   2.574   0.810   4.260
 6016TIP3    H217992   2.614   0.763   4.398
 6017TIP3   OH217993   3.247   7.800   0.979
 6017TIP3    H117994   3.266   7.707   0.967
 6017TIP3    H217995   3.303   7.844   0.915
 6018TIP3   OH217996   0.944   5.491   5.146
 6018TIP3    H117997   1.026   5.481   5.194
 6018TIP3    H217998   0.902   5.406   5.153
 6019TIP3   OH217999   3.481   2.010   5.340
 6019TIP3    H118000   3.522   1.966   5.414
 6019TIP3    H218001   3.427   1.944   5.298
 6020TIP3   OH218002   7.781   4.846   1.299
 6020TIP3    H118003   7.820   4.914   1.353
 6020TIP3    H218004   7.800   4.764   1.346
 6021TIP3   OH218005   4.720   4.354   5.032
 6021TIP3    H118006   4.642   4.400   5.062
 6021TIP3    H218007   4.792   4.391   5.084
 6022TIP3   OH218008   5.206   5.351   5.413
 6022TIP3    H118009   5.264   5.278   5.436
 6022TIP3    H218010   5.249   5.428   5.449
 6023TIP3   OH218011   5.494   4.461   1.574
 6023TIP3    H118012   5.471   4.371   1.553
 6023TIP3    H218013   5.468   4.511   1.496
 6024TIP3   OH218014   8.203   5.539   4.582
 6024TIP3    H118015   8.193   5.521   4.675
 6024TIP3    H218016   8.138   5.607   4.563
 6025TIP3   OH218017   1.911   6.627   2.020
 6025TIP3    H118018   1.817   6.645   2.022
 6025TIP3    H218019   1.939   6.657   1.933
 6026TIP3   OH218020   0.770   7.299   0.665
 6026TIP3    H118021   0.794   7.350   0.742
 6026TIP3    H218022   0.844   7.238   0.653
 6027TIP3   OH218023   3.208   7.754   3.643
 6027TIP3    H118024   3.244   7.697   3.576
 6027TIP3    H218025   3.246   7.840   3.624
 6028TIP3   OH218026   2.666   2.263   6.620
 6028TIP3    H118027   2.725   2.243   6.547
 6028TIP3    H218028   2.695   2.348   6.652
 6029TIP3   OH218029   5.282   3.714   2.234
 6029TIP3    H118030   5.241   3.632   2.207
 6029TIP3    H218031   5.319   3.750   2.154
 6030TIP3   OH218032   2.589   4.649   5.632
 6030TIP3    H118033   2.534   4.604   5.697
 6030TIP3    H218034   2.588   4.741   5.659
 6031TIP3   OH218035   3.986   3.498   0.459
 6031TIP3    H118036   3.902   3.499   0.413
 6031TIP3    H218037   4.034   3.573   0.424
 6032TIP3   OH218038   1.122   4.797   6.726
 6032TIP3    H118039   1.102   4.722   6.669
 6032TIP3    H218040   1.179   4.761   6.793
 6033TIP3   OH218041   1.407   5.681   2.438
 6033TIP3    H118042   1.484   5.643   2.396
 6033TIP3    H218043   1.338   5.616   2.425
 6034TIP3   OH218044   1.858   6.340   1.256
 6034TIP3    H118045   1.928   6.325   1.192
 6034TIP3    H218046   1.891   6.300   1.337
 6035TIP3   OH218047   3.523   6.446   3.062
 6035TIP3    H118048   3.541   6.363   3.017
 6035TIP3    H218049   3.596   6.503   3.039
 6036TIP3   OH218050   4.043   2.565   0.695
 6036TIP3    H118051   4.098   2.523   0.629
 6036TIP3    H218052   4.090   2.646   0.716
 6037TIP3   OH218053   3.086   7.131   5.323
 6037TIP3    H118054   3.064   7.040   5.305
 6037TIP3    H218055   3.181   7.135   5.311
 6038TIP3   OH218056   4.076   6.281   5.466
 6038TIP3    H118057   4.101   6.361   5.420
 6038TIP3    H218058   4.130   6.281   5.545
 6039TIP3   OH218059   1.381   6.035   1.356
 6039TIP3    H118060   1.355   6.109   1.301
 6039TIP3    H218061   1.393   6.074   1.443
 6040TIP3   OH218062   6.472   1.095   3.590
 6040TIP3    H118063   6.471   1.006   3.557
 6040TIP3    H218064   6.455   1.149   3.513
 6041TIP3   OH218065   1.332   3.223   4.746
 6041TIP3    H118066   1.336   3.301   4.691
 6041TIP3    H218067   1.414   3.223   4.794
 6042TIP3   OH218068   0.879   1.493   0.308
 6042TIP3    H118069   0.934   1.558   0.265
 6042TIP3    H218070   0.791   1.511   0.277
 6043TIP3   OH218071   1.985   5.387   6.544
 6043TIP3    H118072   1.976   5.337   6.463
 6043TIP3    H218073   2.051   5.341   6.594
 6044TIP3   OH218074   6.233   5.092   6.087
 6044TIP3    H118075   6.139   5.094   6.069
 6044TIP3    H218076   6.270   5.163   6.035
 6045TIP3   OH218077   5.787   3.839   3.990
 6045TIP3    H118078   5.766   3.893   3.913
 6045TIP3    H218079   5.711   3.849   4.047
 6046TIP3   OH218080   5.716   1.979   5.243
 6046TIP3    H118081   5.699   1.894   5.200
 6046TIP3    H218082   5.659   1.978   5.320
 6047TIP3   OH218083   6.022   1.779   0.249
 6047TIP3    H118084   6.117   1.781   0.248
 6047TIP3    H218085   5.995   1.869   0.229
 6048TIP3   OH218086   7.081   3.726   5.077
 6048TIP3    H118087   7.017   3.793   5.101
 6048TIP3    H218088   7.152   3.736   5.141
 6049TIP3   OH218089   3.685   5.565   4.902
 6049TIP3    H118090   3.713   5.654   4.926
 6049TIP3    H218091   3.689   5.517   4.984
 6050TIP3   OH218092   1.286   4.683   5.122
 6050TIP3    H118093   1.200   4.698   5.160
 6050TIP3    H218094   1.328   4.621   5.182
 6051TIP3   OH218095   1.551   5.299   2.493
 6051TIP3    H118096   1.520   5.243   2.564
 6051TIP3    H218097   1.589   5.238   2.429
 6052TIP3   OH218098   4.662   0.902   0.171
 6052TIP3    H118099   4.656   0.997   0.176
 6052TIP3    H218100   4.578   0.870   0.204
 6053TIP3   OH218101  -0.023   2.781   3.660
 6053TIP3    H118102  -0.005   2.688   3.676
 6053TIP3    H218103   0.063   2.823   3.662
 6054TIP3   OH218104   6.005   3.569   6.670
 6054TIP3    H118105   6.054   3.562   6.588
 6054TIP3    H218106   6.047   3.642   6.716
 6055TIP3   OH218107   1.146   3.457   5.699
 6055TIP3    H118108   1.216   3.471   5.762
 6055TIP3    H218109   1.185   3.477   5.614
 6056TIP3   OH218110   1.002   5.437   1.663
 6056TIP3    H118111   1.006   5.504   1.594
 6056TIP3    H218112   0.939   5.471   1.726
 6057TIP3   OH218113   0.511   2.522   4.640
 6057TIP3    H118114   0.598   2.529   4.680
 6057TIP3    H218115   0.519   2.568   4.557
 6058TIP3   OH218116   2.602   4.041   2.789
 6058TIP3    H118117   2.651   4.097   2.728
 6058TIP3    H218118   2.516   4.032   2.748
 6059TIP3   OH218119   3.801   0.087   3.154
 6059TIP3    H118120   3.838   0.073   3.241
 6059TIP3    H218121   3.762   0.002   3.130
 6060TIP3   OH218122   5.801   5.919   5.338
 6060TIP3    H118123   5.721   5.880   5.373
 6060TIP3    H218124   5.794   5.906   5.243
 6061TIP3   OH218125   7.842   0.436   0.571
 6061TIP3    H118126   7.807   0.349   0.591
 6061TIP3    H218127   7.850   0.437   0.476
 6062TIP3   OH218128   2.071   7.775   1.629
 6062TIP3    H118129   2.030   7.851   1.670
 6062TIP3    H218130   2.097   7.805   1.542
 6063TIP3   OH218131   5.612   1.082   1.337
 6063TIP3    H118132   5.704   1.096   1.317
 6063TIP3    H218133   5.610   1.002   1.390
 6064TIP3   OH218134   6.441   6.641   1.774
 6064TIP3    H118135   6.536   6.650   1.774
 6064TIP3    H218136   6.425   6.564   1.830
 6065TIP3   OH218137   1.854   4.486   0.958
 6065TIP3    H118138   1.766   4.472   0.991
 6065TIP3    H218139   1.843   4.498   0.864
 6066TIP3   OH218140   6.228   1.745   1.484
 6066TIP3    H118141   6.214   1.776   1.574
 6066TIP3    H218142   6.261   1.656   1.495
 6067TIP3   OH218143   7.710   1.097   5.490
 6067TIP3    H118144   7.714   1.011   5.534
 6067TIP3    H218145   7.724   1.160   5.561
 6068TIP3   OH218146   7.804   4.346   4.267
 6068TIP3    H118147   7.860   4.395   4.208
 6068TIP3    H218148   7.715   4.366   4.238
 6069TIP3   OH218149   1.129   1.273   4.524
 6069TIP3    H118150   1.201   1.238   4.578
 6069TIP3    H218151   1.168   1.283   4.437
 6070TIP3   OH218152   0.571   1.523   4.343
 6070TIP3    H118153   0.580   1.604   4.292
 6070TIP3    H218154   0.653   1.516   4.392
 6071TIP3   OH218155   6.851   1.077   0.633
 6071TIP3    H118156   6.846   1.046   0.542
 6071TIP3    H218157   6.908   1.154   0.628
 6072TIP3   OH218158   5.740   3.258   1.743
 6072TIP3    H118159   5.768   3.311   1.669
 6072TIP3    H218160   5.765   3.309   1.820
 6073TIP3   OH218161   6.634   3.027   0.796
 6073TIP3    H118162   6.638   2.931   0.800
 6073TIP3    H218163   6.701   3.051   0.732
 6074TIP3   OH218164   1.411   0.813   5.891
 6074TIP3    H118165   1.324   0.788   5.858
 6074TIP3    H218166   1.472   0.759   5.840
 6075TIP3   OH218167   7.071   2.836   4.827
 6075TIP3    H118168   7.038   2.877   4.747
 6075TIP3    H218169   7.050   2.743   4.817
 6076TIP3   OH218170   7.242   1.566   4.332
 6076TIP3    H118171   7.308   1.532   4.392
 6076TIP3    H218172   7.255   1.515   4.252
 6077TIP3   OH218173   5.609   3.005   2.322
 6077TIP3    H118174   5.632   2.982   2.412
 6077TIP3    H218175   5.564   2.928   2.288
 6078TIP3   OH218176   0.188   2.839   0.640
 6078TIP3    H118177   0.243   2.787   0.699
 6078TIP3    H218178   0.182   2.788   0.560
 6079TIP3   OH218179   6.063   2.709   3.921
 6079TIP3    H118180   6.092   2.748   4.003
 6079TIP3    H218181   6.132   2.731   3.858
 6080TIP3   OH218182   0.586   4.918   2.187
 6080TIP3    H118183   0.501   4.933   2.144
 6080TIP3    H218184   0.648   4.968   2.135
 6081TIP3   OH218185   2.335   4.807   3.934
 6081TIP3    H118186   2.372   4.823   4.021
 6081TIP3    H218187   2.408   4.772   3.883
 6082TIP3   OH218188   5.059   1.455   4.230
 6082TIP3    H118189   4.964   1.467   4.236
 6082TIP3    H218190   5.072   1.401   4.152
 6083TIP3   OH218191   1.871   0.826   2.000
 6083TIP3    H118192   1.825   0.906   1.977
 6083TIP3    H218193   1.829   0.797   2.082
 6084TIP3   OH218194   5.037   6.302   1.733
 6084TIP3    H118195   5.077   6.352   1.663
 6084TIP3    H218196   5.100   6.306   1.805
 6085TIP3   OH218197   4.888   0.821   2.108
 6085TIP3    H118198   4.816   0.781   2.158
 6085TIP3    H218199   4.859   0.817   2.017
 6086TIP3   OH218200   0.944   2.320   4.004
 6086TIP3    H118201   1.006   2.255   4.035
 6086TIP3    H218202   0.873   2.319   4.068
 6087TIP3   OH218203   5.956   5.399   2.018
 6087TIP3    H118204   5.868   5.372   1.992
 6087TIP3    H218205   6.007   5.318   2.015
 6088TIP3   OH218206   0.050   6.536  -0.034
 6088TIP3    H118207   0.048   6.602   0.035
 6088TIP3    H218208  -0.012   6.469  -0.005
 6089TIP3   OH218209   5.789   4.014   0.116
 6089TIP3    H118210   5.873   4.018   0.071
 6089TIP3    H218211   5.727   4.056   0.057
 6090TIP3   OH218212   6.056   0.249   3.095
 6090TIP3    H118213   6.114   0.270   3.169
 6090TIP3    H218214   5.985   0.313   3.102
 6091TIP3   OH218215   5.197   7.569   5.397
 6091TIP3    H118216   5.220   7.560   5.490
 6091TIP3    H218217   5.275   7.609   5.357
 6092TIP3   OH218218   2.698   4.792   3.926
 6092TIP3    H118219   2.647   4.831   3.854
 6092TIP3    H218220   2.712   4.701   3.899
 6093TIP3   OH218221   4.764   1.130   5.223
 6093TIP3    H118222   4.819   1.122   5.145
 6093TIP3    H218223   4.718   1.213   5.211
 6094TIP3   OH218224   5.103   5.063   2.380
 6094TIP3    H118225   5.014   5.096   2.390
 6094TIP3    H218226   5.100   5.006   2.303
 6095TIP3   OH218227   1.207   1.628   2.290
 6095TIP3    H118228   1.114   1.606   2.299
 6095TIP3    H218229   1.243   1.616   2.378
 6096TIP3   OH218230   1.229   4.446   5.659
 6096TIP3    H118231   1.321   4.456   5.685
 6096TIP3    H218232   1.180   4.464   5.740
 6097TIP3   OH218233   1.904   2.635   6.646
 6097TIP3    H118234   1.877   2.575   6.716
 6097TIP3    H218235   1.948   2.707   6.691
 6098TIP3   OH218236   6.364   6.793   0.317
 6098TIP3    H118237   6.299   6.774   0.384
 6098TIP3    H218238   6.389   6.884   0.333
 6099TIP3   OH218239   6.927   7.793   5.552
 6099TIP3    H118240   7.006   7.775   5.502
 6099TIP3    H218241   6.958   7.837   5.631
 6100TIP3   OH218242   1.792   0.938   4.312
 6100TIP3    H118243   1.755   0.855   4.282
 6100TIP3    H218244   1.723   1.002   4.296
 6101TIP3   OH218245   3.671   4.555   0.553
 6101TIP3    H118246   3.735   4.517   0.494
 6101TIP3    H218247   3.717   4.627   0.596
 6102TIP3   OH218248   0.496   5.033   1.702
 6102TIP3    H118249   0.416   5.080   1.679
 6102TIP3    H218250   0.562   5.101   1.714
 6103TIP3   OH218251   3.615   6.638   4.461
 6103TIP3    H118252   3.588   6.546   4.465
 6103TIP3    H218253   3.537   6.685   4.432
 6104TIP3   OH218254   5.486   7.261   2.540
 6104TIP3    H118255   5.391   7.248   2.551
 6104TIP3    H218256   5.494   7.352   2.511
 6105TIP3   OH218257   4.983   1.373   1.374
 6105TIP3    H118258   4.922   1.385   1.302
 6105TIP3    H218259   5.038   1.452   1.371
 6106TIP3   OH218260   5.859   5.080   5.814
 6106TIP3    H118261   5.883   4.988   5.800
 6106TIP3    H218262   5.833   5.111   5.727
 6107TIP3   OH218263   0.802   6.798   4.332
 6107TIP3    H118264   0.736   6.783   4.264
 6107TIP3    H218265   0.881   6.821   4.284
 6108TIP3   OH218266   4.674   7.531   5.510
 6108TIP3    H118267   4.745   7.572   5.459
 6108TIP3    H218268   4.672   7.580   5.592
 6109TIP3   OH218269   1.265   7.416   5.046
 6109TIP3    H118270   1.334   7.452   4.990
 6109TIP3    H218271   1.288   7.446   5.134
 6110TIP3   OH218272   2.963   7.684   6.358
 6110TIP3    H118273   2.913   7.707   6.437
 6110TIP3    H218274   2.902   7.630   6.307
 6111TIP3   OH218275   5.758   5.641   3.881
 6111TIP3    H118276   5.782   5.688   3.802
 6111TIP3    H218277   5.832   5.585   3.900
 6112TIP3   OH218278   6.507   1.196   4.438
 6112TIP3    H118279   6.428   1.175   4.489
 6112TIP3    H218280   6.509   1.292   4.437
 6113TIP3   OH218281   1.567   5.331   3.238
 6113TIP3    H118282   1.542   5.240   3.221
 6113TIP3    H218283   1.552   5.377   3.155
 6114TIP3   OH218284   1.654   7.514   1.634
 6114TIP3    H118285   1.682   7.580   1.571
 6114TIP3    H218286   1.703   7.435   1.611
 6115TIP3   OH218287   6.318   0.657   1.416
 6115TIP3    H118288   6.392   0.710   1.387
 6115TIP3    H218289   6.305   0.593   1.346
 6116TIP3   OH218290   1.935   4.908   6.690
 6116TIP3    H118291   2.006   4.846   6.668
 6116TIP3    H218292   1.923   4.960   6.611
 6117TIP3   OH218293   6.608   7.046   4.203
 6117TIP3    H118294   6.564   7.130   4.186
 6117TIP3    H218295   6.598   6.997   4.121
 6118TIP3   OH218296   5.399   7.437   2.049
 6118TIP3    H118297   5.416   7.465   1.959
 6118TIP3    H218298   5.423   7.344   2.050
 6119TIP3   OH218299   7.378   0.812   5.488
 6119TIP3    H118300   7.323   0.841   5.416
 6119TIP3    H218301   7.420   0.892   5.521
 6120TIP3   OH218302   4.302   2.395   1.746
 6120TIP3    H118303   4.362   2.453   1.700
 6120TIP3    H218304   4.331   2.307   1.721
 6121TIP3   OH218305   7.751   1.651   0.771
 6121TIP3    H118306   7.793   1.728   0.809
 6121TIP3    H218307   7.698   1.685   0.699
 6122TIP3   OH218308   6.620   5.175   6.687
 6122TIP3    H118309   6.555   5.186   6.618
 6122TIP3    H218310   6.609   5.253   6.742
 6123TIP3   OH218311   2.717   5.491   2.647
 6123TIP3    H118312   2.708   5.561   2.581
 6123TIP3    H218313   2.807   5.461   2.637
 6124TIP3   OH218314   5.712   5.376   1.850
 6124TIP3    H118315   5.769   5.428   1.793
 6124TIP3    H218316   5.720   5.287   1.816
 6125TIP3   OH218317   6.608   3.072   3.184
 6125TIP3    H118318   6.563   3.156   3.180
 6125TIP3    H218319   6.544   3.008   3.153
 6126TIP3   OH218320   1.671   1.719   3.227
 6126TIP3    H118321   1.712   1.639   3.195
 6126TIP3    H218322   1.580   1.695   3.242
 6127TIP3   OH218323   7.141   6.435   3.808
 6127TIP3    H118324   7.137   6.510   3.867
 6127TIP3    H218325   7.228   6.398   3.823
 6128TIP3   OH218326   3.535   3.319   4.045
 6128TIP3    H118327   3.448   3.329   4.084
 6128TIP3    H218328   3.518   3.285   3.957
 6129TIP3   OH218329   0.863   1.313   3.349
 6129TIP3    H118330   0.825   1.352   3.427
 6129TIP3    H218331   0.956   1.303   3.370
 6130TIP3   OH218332   3.043   1.241   0.417
 6130TIP3    H118333   2.987   1.254   0.340
 6130TIP3    H218334   2.981   1.237   0.490
 6131TIP3   OH218335   5.013   1.968   3.263
 6131TIP3    H118336   5.003   2.061   3.243
 6131TIP3    H218337   4.979   1.959   3.352
 6132TIP3   OH218338   6.510   4.837   3.199
 6132TIP3    H118339   6.471   4.783   3.267
 6132TIP3    H218340   6.483   4.795   3.117
 6133TIP3   OH218341   5.962   4.332   1.185
 6133TIP3    H118342   5.971   4.351   1.279
 6133TIP3    H218343   5.999   4.409   1.142
 6134TIP3   OH218344   4.683   7.065   5.909
 6134TIP3    H118345   4.620   7.035   5.975
 6134TIP3    H218346   4.733   7.134   5.952
 6135TIP3   OH218347   0.637   7.099   3.325
 6135TIP3    H118348   0.717   7.134   3.285
 6135TIP3    H218349   0.566   7.150   3.285
 6136TIP3   OH218350   2.139   2.146   2.429
 6136TIP3    H118351   2.089   2.214   2.383
 6136TIP3    H218352   2.100   2.144   2.516
 6137TIP3   OH218353   4.282   3.956   3.055
 6137TIP3    H118354   4.286   4.033   2.998
 6137TIP3    H218355   4.317   3.884   3.002
 6138TIP3   OH218356   4.775   4.530   2.796
 6138TIP3    H118357   4.759   4.484   2.714
 6138TIP3    H218358   4.869   4.547   2.796
 6139TIP3   OH218359   4.181   4.719   5.969
 6139TIP3    H118360   4.153   4.733   6.059
 6139TIP3    H218361   4.106   4.743   5.916
 6140TIP3   OH218362   3.954   5.207   1.115
 6140TIP3    H118363   3.917   5.291   1.143
 6140TIP3    H218364   4.024   5.231   1.055
 6141TIP3   OH218365   2.781   7.494   5.217
 6141TIP3    H118366   2.829   7.567   5.256
 6141TIP3    H218367   2.703   7.485   5.271
 6142TIP3   OH218368   6.448   3.924   3.439
 6142TIP3    H118369   6.524   3.865   3.431
 6142TIP3    H218370   6.485   4.012   3.429
 6143TIP3   OH218371   0.372   7.704   4.291
 6143TIP3    H118372   0.412   7.790   4.308
 6143TIP3    H218373   0.439   7.641   4.318
 6144TIP3   OH218374   4.992   1.597   3.477
 6144TIP3    H118375   5.081   1.588   3.446
 6144TIP3    H218376   4.993   1.677   3.530
 6145TIP3   OH218377   5.994   6.902   6.495
 6145TIP3    H118378   5.931   6.842   6.455
 6145TIP3    H218379   5.946   6.984   6.505
 6146TIP3   OH218380   0.542   4.238   4.935
 6146TIP3    H118381   0.613   4.242   4.871
 6146TIP3    H218382   0.537   4.327   4.971
 6147TIP3   OH218383   7.344   1.503   6.202
 6147TIP3    H118384   7.367   1.501   6.109
 6147TIP3    H218385   7.259   1.460   6.207
 6148TIP3   OH218386   4.272   2.587   4.362
 6148TIP3    H118387   4.270   2.562   4.454
 6148TIP3    H218388   4.201   2.537   4.322
 6149TIP3   OH218389   5.030   6.981   0.413
 6149TIP3    H118390   5.101   6.922   0.439
 6149TIP3    H218391   4.962   6.923   0.379
 6150TIP3   OH218392   5.313   6.564   1.181
 6150TIP3    H118393   5.371   6.581   1.256
 6150TIP3    H218394   5.305   6.468   1.179
 6151TIP3   OH218395   1.123   6.029   2.618
 6151TIP3    H118396   1.167   6.085   2.682
 6151TIP3    H218397   1.117   5.943   2.661
 6152TIP3   OH218398   0.435   4.224   5.451
 6152TIP3    H118399   0.418   4.141   5.407
 6152TIP3    H218400   0.388   4.217   5.535
 6153TIP3   OH218401   3.811   6.357   1.189
 6153TIP3    H118402   3.786   6.435   1.139
 6153TIP3    H218403   3.729   6.310   1.201
 6154TIP3   OH218404   5.891   4.187   1.928
 6154TIP3    H118405   5.868   4.113   1.984
 6154TIP3    H218406   5.974   4.218   1.963
 6155TIP3   OH218407   4.502   4.672   4.198
 6155TIP3    H118408   4.565   4.733   4.238
 6155TIP3    H218409   4.421   4.722   4.192
 6156TIP3   OH218410   3.047   1.854   3.879
 6156TIP3    H118411   3.091   1.770   3.891
 6156TIP3    H218412   3.095   1.915   3.935
 6157TIP3   OH218413   7.695   5.520   5.287
 6157TIP3    H118414   7.685   5.493   5.378
 6157TIP3    H218415   7.706   5.615   5.292
 6158TIP3   OH218416   4.533   1.580   3.664
 6158TIP3    H118417   4.465   1.538   3.717
 6158TIP3    H218418   4.522   1.673   3.682
 6159TIP3   OH218419   6.522   0.516   5.440
 6159TIP3    H118420   6.504   0.504   5.347
 6159TIP3    H218421   6.456   0.462   5.484
 6160TIP3   OH218422   6.488   7.330   5.413
 6160TIP3    H118423   6.521   7.293   5.495
 6160TIP3    H218424   6.512   7.423   5.418
 6161TIP3   OH218425   6.762   6.121   2.863
 6161TIP3    H118426   6.787   6.051   2.802
 6161TIP3    H218427   6.745   6.197   2.807
 6162TIP3   OH218428   7.899   2.744   0.103
 6162TIP3    H118429   7.821   2.783   0.063
 6162TIP3    H218430   7.871   2.657   0.130
 6163TIP3   OH218431   0.344   4.524   6.742
 6163TIP3    H118432   0.329   4.617   6.754
 6163TIP3    H218433   0.364   4.491   6.830
 6164TIP3   OH218434   5.578   7.416   4.900
 6164TIP3    H118435   5.566   7.502   4.941
 6164TIP3    H218436   5.514   7.414   4.829
 6165TIP3   OH218437   7.988   1.357   2.466
 6165TIP3    H118438   8.040   1.374   2.544
 6165TIP3    H218439   7.993   1.262   2.454
 6166TIP3   OH218440   6.609   2.531   4.546
 6166TIP3    H118441   6.686   2.513   4.492
 6166TIP3    H218442   6.535   2.502   4.492
 6167TIP3   OH218443   0.537   2.824   0.663
 6167TIP3    H118444   0.565   2.841   0.753
 6167TIP3    H218445   0.575   2.895   0.612
 6168TIP3   OH218446   3.843   6.583   3.162
 6168TIP3    H118447   3.836   6.675   3.135
 6168TIP3    H218448   3.854   6.535   3.081
 6169TIP3   OH218449   3.070   5.158   0.102
 6169TIP3    H118450   3.047   5.165   0.010
 6169TIP3    H218451   3.139   5.091   0.105
 6170TIP3   OH218452   5.968   0.868   5.092
 6170TIP3    H118453   5.989   0.827   5.008
 6170TIP3    H218454   6.054   0.881   5.133
 6171TIP3   OH218455   1.026   3.312   6.006
 6171TIP3    H118456   1.074   3.231   5.995
 6171TIP3    H218457   0.934   3.288   5.996
 6172TIP3   OH218458   6.819   7.006   2.978
 6172TIP3    H118459   6.833   6.953   3.056
 6172TIP3    H218460   6.857   6.954   2.907
 6173TIP3   OH218461   2.539   6.718   6.172
 6173TIP3    H118462   2.630   6.694   6.191
 6173TIP3    H218463   2.533   6.809   6.201
 6174TIP3   OH218464   2.653   2.649   5.347
 6174TIP3    H118465   2.727   2.648   5.288
 6174TIP3    H218466   2.681   2.596   5.422
 6175TIP3   OH218467   3.383   0.801   4.206
 6175TIP3    H118468   3.380   0.706   4.213
 6175TIP3    H218469   3.333   0.821   4.127
 6176TIP3   OH218470   3.664   6.959   4.373
 6176TIP3    H118471   3.737   6.920   4.325
 6176TIP3    H218472   3.660   6.909   4.454
 6177TIP3   OH218473   7.181   6.083   5.891
 6177TIP3    H118474   7.171   6.163   5.943
 6177TIP3    H218475   7.193   6.013   5.956
 6178TIP3   OH218476   5.091   3.028   0.053
 6178TIP3    H118477   5.110   2.936   0.070
 6178TIP3    H218478   5.043   3.057   0.131
 6179TIP3   OH218479   3.069   6.280   5.073
 6179TIP3    H118480   2.991   6.335   5.082
 6179TIP3    H218481   3.142   6.342   5.070
 6180TIP3   OH218482   6.166   5.777   1.768
 6180TIP3    H118483   6.154   5.682   1.768
 6180TIP3    H218484   6.088   5.812   1.727
 6181TIP3   OH218485   6.696   0.544   5.689
 6181TIP3    H118486   6.755   0.468   5.685
 6181TIP3    H218487   6.662   0.553   5.601
 6182TIP3   OH218488   2.968   4.587   2.686
 6182TIP3    H118489   3.063   4.572   2.696
 6182TIP3    H218490   2.960   4.625   2.598
 6183TIP3   OH218491   2.871   4.199   6.625
 6183TIP3    H118492   2.792   4.144   6.625
 6183TIP3    H218493   2.886   4.219   6.718
 6184TIP3   OH218494   2.839   0.472   3.510
 6184TIP3    H118495   2.840   0.524   3.430
 6184TIP3    H218496   2.813   0.534   3.579
 6185TIP3   OH218497   0.118   1.749   0.036
 6185TIP3    H118498   0.170   1.825   0.013
 6185TIP3    H218499   0.085   1.716  -0.047
 6186TIP3   OH218500   4.644   5.077   5.297
 6186TIP3    H118501   4.636   5.003   5.237
 6186TIP3    H218502   4.566   5.129   5.282
 6187TIP3   OH218503   1.687   4.788   2.694
 6187TIP3    H118504   1.696   4.854   2.762
 6187TIP3    H218505   1.767   4.795   2.642
 6188TIP3   OH218506   7.577   2.622   4.731
 6188TIP3    H118507   7.511   2.554   4.745
 6188TIP3    H218508   7.656   2.588   4.772
 6189TIP3   OH218509   4.865   5.773   3.213
 6189TIP3    H118510   4.827   5.764   3.125
 6189TIP3    H218511   4.911   5.857   3.210
 6190TIP3   OH218512   5.746   7.075   6.194
 6190TIP3    H118513   5.692   7.063   6.272
 6190TIP3    H218514   5.693   7.128   6.135
 6191TIP3   OH218515   5.310   1.124   3.786
 6191TIP3    H118516   5.367   1.102   3.712
 6191TIP3    H218517   5.228   1.078   3.767
 6192TIP3   OH218518   3.134   3.792   4.735
 6192TIP3    H118519   3.216   3.804   4.783
 6192TIP3    H218520   3.143   3.706   4.694
 6193TIP3   OH218521   8.193   3.777   0.688
 6193TIP3    H118522   8.196   3.735   0.602
 6193TIP3    H218523   8.274   3.750   0.731
 6194TIP3   OH218524   7.329   0.551   5.041
 6194TIP3    H118525   7.244   0.523   5.006
 6194TIP3    H218526   7.387   0.552   4.964
 6195TIP3   OH218527   0.895   3.335   3.960
 6195TIP3    H118528   0.940   3.289   4.030
 6195TIP3    H218529   0.856   3.412   4.001
 6196TIP3   OH218530   6.299   2.325   0.889
 6196TIP3    H118531   6.356   2.249   0.901
 6196TIP3    H218532   6.242   2.300   0.817
 6197TIP3   OH218533   3.906   1.309   1.892
 6197TIP3    H118534   3.965   1.287   1.964
 6197TIP3    H218535   3.914   1.235   1.831
 6198TIP3   OH218536   1.957   1.059   2.294
 6198TIP3    H118537   1.914   1.090   2.213
 6198TIP3    H218538   2.030   1.006   2.263
 6199TIP3   OH218539   1.603   4.297   5.579
 6199TIP3    H118540   1.519   4.303   5.535
 6199TIP3    H218541   1.599   4.215   5.628
 6200TIP3   OH218542   5.474   6.543   0.918
 6200TIP3    H118543   5.533   6.483   0.964
 6200TIP3    H218544   5.416   6.575   0.987
 6201TIP3   OH218545   2.740   5.394   0.423
 6201TIP3    H118546   2.698   5.309   0.436
 6201TIP3    H218547   2.700   5.429   0.344
 6202TIP3   OH218548   3.635   0.284   5.213
 6202TIP3    H118549   3.664   0.280   5.305
 6202TIP3    H218550   3.540   0.294   5.218
 6203TIP3   OH218551   3.469   6.446   4.068
 6203TIP3    H118552   3.528   6.402   4.006
 6203TIP3    H218553   3.519   6.522   4.098
 6204TIP3   OH218554   7.105   2.364   5.947
 6204TIP3    H118555   7.174   2.410   5.994
 6204TIP3    H218556   7.025   2.412   5.969
 6205TIP3   OH218557   4.676   2.900   4.936
 6205TIP3    H118558   4.749   2.955   4.909
 6205TIP3    H218559   4.598   2.952   4.917
 6206TIP3   OH218560   4.671   1.949   1.540
 6206TIP3    H118561   4.643   1.979   1.454
 6206TIP3    H218562   4.657   2.024   1.598
 6207TIP3   OH218563   3.147   6.603   1.164
 6207TIP3    H118564   3.135   6.685   1.115
 6207TIP3    H218565   3.202   6.628   1.238
 6208TIP3   OH218566   8.013   3.785   2.364
 6208TIP3    H118567   7.973   3.709   2.322
 6208TIP3    H218568   7.951   3.856   2.348
 6209TIP3   OH218569   0.290   0.445   2.942
 6209TIP3    H118570   0.198   0.436   2.966
 6209TIP3    H218571   0.333   0.470   3.024
 6210TIP3   OH218572   3.015   3.156   0.827
 6210TIP3    H118573   3.015   3.092   0.755
 6210TIP3    H218574   2.925   3.153   0.861
 6211TIP3   OH218575   6.211   4.474   4.422
 6211TIP3    H118576   6.304   4.467   4.443
 6211TIP3    H218577   6.189   4.389   4.384
 6212TIP3   OH218578   0.312   6.142   3.706
 6212TIP3    H118579   0.326   6.051   3.732
 6212TIP3    H218580   0.219   6.147   3.684
 6213TIP3   OH218581   8.071   4.670   0.567
 6213TIP3    H118582   8.021   4.598   0.605
 6213TIP3    H218583   8.074   4.736   0.636
 6214TIP3   OH218584   4.024   5.671   3.066
 6214TIP3    H118585   4.085   5.745   3.058
 6214TIP3    H218586   4.036   5.621   2.986
 6215TIP3   OH218587   6.416   0.011   6.088
 6215TIP3    H118588   6.383   0.083   6.034
 6215TIP3    H218589   6.342  -0.050   6.095
 6216TIP3   OH218590   4.436   2.145   5.340
 6216TIP3    H118591   4.434   2.240   5.341
 6216TIP3    H218592   4.476   2.121   5.424
 6217TIP3   OH218593   4.129   7.551   1.835
 6217TIP3    H118594   4.069   7.515   1.770
 6217TIP3    H218595   4.214   7.555   1.790
 6218TIP3   OH218596   0.872   3.631   1.911
 6218TIP3    H118597   0.960   3.667   1.922
 6218TIP3    H218598   0.832   3.685   1.843
 6219TIP3   OH218599   1.387   4.252   5.430
 6219TIP3    H118600   1.324   4.305   5.382
 6219TIP3    H218601   1.334   4.183   5.470
 6220TIP3   OH218602   1.584   0.277   1.007
 6220TIP3    H118603   1.616   0.215   1.073
 6220TIP3    H218604   1.616   0.242   0.924
 6221TIP3   OH218605   5.070   4.049   3.109
 6221TIP3    H118606   5.121   3.993   3.167
 6221TIP3    H218607   4.990   4.068   3.158
 6222TIP3   OH218608   6.838   0.881   3.368
 6222TIP3    H118609   6.886   0.806   3.403
 6222TIP3    H218610   6.823   0.859   3.276
 6223TIP3   OH218611   0.248   6.854   0.188
 6223TIP3    H118612   0.192   6.872   0.263
 6223TIP3    H218613   0.297   6.936   0.175
 6224TIP3   OH218614   8.168   6.031   0.318
 6224TIP3    H118615   8.234   6.006   0.253
 6224TIP3    H218616   8.195   5.985   0.398
 6225TIP3   OH218617   0.961   3.092   1.837
 6225TIP3    H118618   0.987   3.065   1.925
 6225TIP3    H218619   0.924   3.180   1.849
 6226TIP3   OH218620   3.175   3.262   5.349
 6226TIP3    H118621   3.091   3.218   5.339
 6226TIP3    H218622   3.223   3.241   5.269
 6227TIP3   OH218623   7.716   2.018   2.613
 6227TIP3    H118624   7.682   2.099   2.577
 6227TIP3    H218625   7.639   1.963   2.628
 6228TIP3   OH218626   4.688   2.443   4.641
 6228TIP3    H118627   4.628   2.416   4.571
 6228TIP3    H218628   4.764   2.478   4.595
 6229TIP3   OH218629   5.648   7.187   0.296
 6229TIP3    H118630   5.691   7.219   0.376
 6229TIP3    H218631   5.720   7.165   0.237
 6230TIP3   OH218632   8.302   6.589   4.138
 6230TIP3    H118633   8.279   6.603   4.230
 6230TIP3    H218634   8.220   6.559   4.097
 6231TIP3   OH218635   5.814   6.135   2.839
 6231TIP3    H118636   5.812   6.205   2.904
 6231TIP3    H218637   5.726   6.134   2.802
 6232TIP3   OH218638   3.413   3.455   5.701
 6232TIP3    H118639   3.406   3.424   5.791
 6232TIP3    H218640   3.501   3.427   5.673
 6233TIP3   OH218641   6.318   1.650   1.028
 6233TIP3    H118642   6.374   1.605   1.092
 6233TIP3    H218643   6.268   1.579   0.987
 6234TIP3   OH218644   0.376   2.213   5.455
 6234TIP3    H118645   0.429   2.183   5.381
 6234TIP3    H218646   0.425   2.186   5.533
 6235TIP3   OH218647   7.844   6.043   3.375
 6235TIP3    H118648   7.904   6.109   3.340
 6235TIP3    H218649   7.861   5.965   3.323
 6236TIP3   OH218650   7.128   3.055   1.896
 6236TIP3    H118651   7.170   2.971   1.881
 6236TIP3    H218652   7.090   3.079   1.811
 6237TIP3   OH218653   7.898   4.757   3.370
 6237TIP3    H118654   7.984   4.768   3.330
 6237TIP3    H218655   7.917   4.747   3.464
 6238TIP3   OH218656   8.081   0.121   1.955
 6238TIP3    H118657   8.167   0.081   1.965
 6238TIP3    H218658   8.020   0.053   1.985
 6239TIP3   OH218659   2.815   6.145   2.400
 6239TIP3    H118660   2.866   6.220   2.369
 6239TIP3    H218661   2.787   6.170   2.488
 6240TIP3   OH218662   1.007   2.323   0.451
 6240TIP3    H118663   0.946   2.326   0.525
 6240TIP3    H218664   0.969   2.381   0.386
 6241TIP3   OH218665   6.598   2.885   2.344
 6241TIP3    H118666   6.608   2.927   2.429
 6241TIP3    H218667   6.550   2.804   2.362
 6242TIP3   OH218668   7.131   5.855   0.982
 6242TIP3    H118669   7.216   5.900   0.977
 6242TIP3    H218670   7.070   5.915   0.941
 6243TIP3   OH218671   7.083   5.162   5.851
 6243TIP3    H118672   7.145   5.102   5.809
 6243TIP3    H218673   6.997   5.128   5.825
 6244TIP3   OH218674   7.392   6.697   3.484
 6244TIP3    H118675   7.444   6.753   3.427
 6244TIP3    H218676   7.454   6.631   3.517
 6245TIP3   OH218677   2.166   6.266   2.304
 6245TIP3    H118678   2.208   6.183   2.281
 6245TIP3    H218679   2.170   6.270   2.399
 6246TIP3   OH218680   6.468   4.830   0.885
 6246TIP3    H118681   6.460   4.736   0.900
 6246TIP3    H218682   6.461   4.840   0.790
 6247TIP3   OH218683   6.414   1.230   4.859
 6247TIP3    H118684   6.476   1.301   4.878
 6247TIP3    H218685   6.330   1.262   4.894
 6248TIP3   OH218686   8.145   5.899   1.462
 6248TIP3    H118687   8.082   5.920   1.531
 6248TIP3    H218688   8.159   5.805   1.470
 6249TIP3   OH218689   7.794   7.721   6.541
 6249TIP3    H118690   7.705   7.753   6.550
 6249TIP3    H218691   7.814   7.733   6.448
 6250TIP3   OH218692   5.651   1.626   2.781
 6250TIP3    H118693   5.672   1.711   2.743
 6250TIP3    H218694   5.618   1.646   2.869
 6251TIP3   OH218695   0.486   4.721   4.760
 6251TIP3    H118696   0.530   4.797   4.720
 6251TIP3    H218697   0.393   4.743   4.754
 6252TIP3   OH218698   0.463   3.743   0.661
 6252TIP3    H118699   0.458   3.825   0.612
 6252TIP3    H218700   0.476   3.770   0.752
 6253TIP3   OH218701   2.111   2.682   5.766
 6253TIP3    H118702   2.079   2.759   5.812
 6253TIP3    H218703   2.137   2.621   5.836
 6254TIP3   OH218704   5.847   1.919   2.791
 6254TIP3    H118705   5.773   1.918   2.851
 6254TIP3    H218706   5.844   2.007   2.752
 6255TIP3   OH218707   3.240   4.677   3.716
 6255TIP3    H118708   3.320   4.709   3.756
 6255TIP3    H218709   3.199   4.623   3.784
 6256TIP3   OH218710   0.076   4.706   5.696
 6256TIP3    H118711   0.033   4.642   5.639
 6256TIP3    H218712   0.054   4.676   5.785
 6257TIP3   OH218713   7.011   5.556   4.817
 6257TIP3    H118714   7.087   5.608   4.790
 6257TIP3    H218715   6.936   5.615   4.805
 6258TIP3   OH218716   5.014   3.963   6.684
 6258TIP3    H118717   5.094   3.955   6.736
 6258TIP3    H218718   4.984   4.053   6.700
 6259TIP3   OH218719   4.863   7.406   3.312
 6259TIP3    H118720   4.861   7.481   3.371
 6259TIP3    H218721   4.920   7.433   3.240
 6260TIP3   OH218722   4.614   2.978   0.458
 6260TIP3    H118723   4.521   2.965   0.478
 6260TIP3    H218724   4.639   3.054   0.512
 6261TIP3   OH218725   1.373   1.936   3.356
 6261TIP3    H118726   1.464   1.954   3.380
 6261TIP3    H218727   1.377   1.914   3.263
 6262TIP3   OH218728   1.747   0.896   0.418
 6262TIP3    H118729   1.785   0.852   0.494
 6262TIP3    H218730   1.653   0.900   0.436
 6263TIP3   OH218731   0.585   7.454   0.495
 6263TIP3    H118732   0.641   7.397   0.548
 6263TIP3    H218733   0.627   7.455   0.409
 6264TIP3   OH218734   7.236   4.852   5.482
 6264TIP3    H118735   7.275   4.766   5.463
 6264TIP3    H218736   7.147   4.832   5.511
 6265TIP3   OH218737   5.363   6.798   0.740
 6265TIP3    H118738   5.418   6.759   0.673
 6265TIP3    H218739   5.343   6.726   0.801
 6266TIP3   OH218740   4.232   6.302   1.956
 6266TIP3    H118741   4.308   6.353   1.982
 6266TIP3    H218742   4.267   6.216   1.931
 6267TIP3   OH218743   1.881   2.018   1.618
 6267TIP3    H118744   1.859   1.938   1.570
 6267TIP3    H218745   1.931   1.988   1.693
 6268TIP3   OH218746   6.628   1.568   1.402
 6268TIP3    H118747   6.715   1.528   1.394
 6268TIP3    H218748   6.618   1.620   1.323
 6269TIP3   OH218749   2.635   2.080   2.720
 6269TIP3    H118750   2.725   2.083   2.687
 6269TIP3    H218751   2.602   1.995   2.692
 6270TIP3   OH218752   0.046   2.728   2.789
 6270TIP3    H118753   0.069   2.641   2.756
 6270TIP3    H218754   0.009   2.773   2.714
 6271TIP3   OH218755   5.051   1.345   0.111
 6271TIP3    H118756   5.114   1.417   0.122
 6271TIP3    H218757   4.973   1.373   0.159
 6272TIP3   OH218758   0.972   4.078   4.671
 6272TIP3    H118759   0.986   3.998   4.721
 6272TIP3    H218760   0.878   4.095   4.679
 6273TIP3   OH218761   6.490   4.767   6.401
 6273TIP3    H118762   6.462   4.843   6.349
 6273TIP3    H218763   6.578   4.789   6.430
 6274TIP3   OH218764   5.049   3.174   6.191
 6274TIP3    H118765   5.039   3.157   6.097
 6274TIP3    H218766   5.112   3.245   6.196
 6275TIP3   OH218767   3.206   4.827  -0.029
 6275TIP3    H118768   3.235   4.851   0.059
 6275TIP3    H218769   3.110   4.827  -0.023
 6276TIP3   OH218770   1.760   2.108   4.592
 6276TIP3    H118771   1.668   2.133   4.601
 6276TIP3    H218772   1.770   2.032   4.650
 6277TIP3   OH218773   5.114   5.034   6.500
 6277TIP3    H118774   5.059   4.966   6.462
 6277TIP3    H218775   5.169   5.063   6.427
 6278TIP3   OH218776   2.289   4.277   0.866
 6278TIP3    H118777   2.210   4.244   0.824
 6278TIP3    H218778   2.358   4.265   0.801
 6279TIP3   OH218779   2.511   3.562   0.873
 6279TIP3    H118780   2.604   3.577   0.853
 6279TIP3    H218781   2.493   3.621   0.946
 6280TIP3   OH218782   4.025   4.921   4.087
 6280TIP3    H118783   3.974   4.844   4.062
 6280TIP3    H218784   3.963   4.976   4.135
 6281TIP3   OH218785   6.238   4.188   2.254
 6281TIP3    H118786   6.309   4.237   2.212
 6281TIP3    H218787   6.161   4.244   2.244
 6282TIP3   OH218788   3.625   4.936   0.968
 6282TIP3    H118789   3.588   5.024   0.960
 6282TIP3    H218790   3.611   4.896   0.882
 6283TIP3   OH218791   2.850   0.366   1.179
 6283TIP3    H118792   2.886   0.450   1.150
 6283TIP3    H218793   2.910   0.301   1.142
 6284TIP3   OH218794   4.810   6.842   3.697
 6284TIP3    H118795   4.839   6.877   3.782
 6284TIP3    H218796   4.890   6.822   3.650
 6285TIP3   OH218797   3.468   1.858   4.129
 6285TIP3    H118798   3.544   1.914   4.144
 6285TIP3    H218799   3.489   1.811   4.048
 6286TIP3   OH218800   5.869   0.234   0.018
 6286TIP3    H118801   5.854   0.169   0.086
 6286TIP3    H218802   5.961   0.258   0.026
 6287TIP3   OH218803   0.451   2.852   5.608
 6287TIP3    H118804   0.428   2.764   5.636
 6287TIP3    H218805   0.403   2.864   5.526
 6288TIP3   OH218806   1.619   2.269   6.090
 6288TIP3    H118807   1.558   2.288   6.018
 6288TIP3    H218808   1.692   2.223   6.048
 6289TIP3   OH218809   5.142   2.862   2.124
 6289TIP3    H118810   5.156   2.922   2.050
 6289TIP3    H218811   5.053   2.829   2.111
 6290TIP3   OH218812   1.393   0.996   3.454
 6290TIP3    H118813   1.429   0.930   3.395
 6290TIP3    H218814   1.451   1.072   3.445
 6291TIP3   OH218815   6.737   0.680   5.323
 6291TIP3    H118816   6.669   0.745   5.305
 6291TIP3    H218817   6.690   0.604   5.356
 6292TIP3   OH218818   6.224   2.008   6.015
 6292TIP3    H118819   6.248   2.071   6.083
 6292TIP3    H218820   6.132   2.026   5.997
 6293TIP3   OH218821   2.359   0.907   5.328
 6293TIP3    H118822   2.411   0.986   5.316
 6293TIP3    H218823   2.340   0.877   5.239
 6294TIP3   OH218824   5.535   3.628   5.259
 6294TIP3    H118825   5.473   3.595   5.324
 6294TIP3    H218826   5.592   3.554   5.241
 6295TIP3   OH218827   1.228   6.124   0.196
 6295TIP3    H118828   1.315   6.139   0.159
 6295TIP3    H218829   1.235   6.154   0.286
 6296TIP3   OH218830   5.510   1.314   6.271
 6296TIP3    H118831   5.442   1.376   6.243
 6296TIP3    H218832   5.462   1.242   6.313
 6297TIP3   OH218833   6.215   4.273   6.587
 6297TIP3    H118834   6.128   4.266   6.626
 6297TIP3    H218835   6.200   4.268   6.493
 6298TIP3   OH218836   4.827   2.071   2.194
 6298TIP3    H118837   4.888   2.001   2.170
 6298TIP3    H218838   4.770   2.080   2.117
 6299TIP3   OH218839   3.002   6.603   5.071
 6299TIP3    H118840   3.079   6.645   5.112
 6299TIP3    H218841   2.955   6.564   5.145
 6300TIP3   OH218842   5.863   0.058   0.687
 6300TIP3    H118843   5.902   0.124   0.745
 6300TIP3    H218844   5.937   0.003   0.661
 6301TIP3   OH218845   2.722   6.058   0.361
 6301TIP3    H118846   2.698   6.044   0.453
 6301TIP3    H218847   2.814   6.032   0.356
 6302TIP3   OH218848   7.499   4.327   4.456
 6302TIP3    H118849   7.564   4.258   4.440
 6302TIP3    H218850   7.416   4.287   4.432
 6303TIP3   OH218851   8.132   7.703   4.056
 6303TIP3    H118852   8.069   7.710   4.128
 6303TIP3    H218853   8.191   7.632   4.082
 6304TIP3   OH218854   0.131   3.615   3.405
 6304TIP3    H118855   0.108   3.562   3.328
 6304TIP3    H218856   0.177   3.555   3.462
 6305TIP3   OH218857   2.745   6.401   1.153
 6305TIP3    H118858   2.810   6.398   1.083
 6305TIP3    H218859   2.667   6.361   1.115
 6306TIP3   OH218860   5.945   7.367   5.923
 6306TIP3    H118861   5.913   7.293   5.870
 6306TIP3    H218862   5.952   7.332   6.011
 6307TIP3   OH218863   0.124   6.922   6.251
 6307TIP3    H118864   0.065   6.915   6.326
 6307TIP3    H218865   0.095   7.001   6.205
 6308TIP3   OH218866   6.115   0.660   4.524
 6308TIP3    H118867   6.074   0.581   4.560
 6308TIP3    H218868   6.042   0.716   4.499
 6309TIP3   OH218869   8.195   7.719   5.822
 6309TIP3    H118870   8.117   7.771   5.843
 6309TIP3    H218871   8.264   7.784   5.809
 6310TIP3   OH218872   4.951   0.082   6.074
 6310TIP3    H118873   4.947  -0.013   6.087
 6310TIP3    H218874   4.859   0.110   6.069
 6311TIP3   OH218875   1.182   0.725   0.151
 6311TIP3    H118876   1.203   0.641   0.111
 6311TIP3    H218877   1.194   0.711   0.245
 6312TIP3   OH218878   1.789   4.583   3.174
 6312TIP3    H118879   1.799   4.586   3.269
 6312TIP3    H218880   1.870   4.541   3.143
 6313TIP3   OH218881   2.929   6.245   4.068
 6313TIP3    H118882   3.006   6.255   4.124
 6313TIP3    H218883   2.921   6.150   4.054
 6314TIP3   OH218884   7.804   5.128   5.243
 6314TIP3    H118885   7.776   5.097   5.329
 6314TIP3    H218886   7.829   5.220   5.258
 6315TIP3   OH218887   3.928   3.454   4.732
 6315TIP3    H118888   3.936   3.488   4.821
 6315TIP3    H218889   3.928   3.532   4.677
 6316TIP3   OH218890   4.590   0.908   3.446
 6316TIP3    H118891   4.557   0.974   3.384
 6316TIP3    H218892   4.685   0.922   3.446
 6317TIP3   OH218893   5.079   0.257   0.722
 6317TIP3    H118894   5.126   0.197   0.665
 6317TIP3    H218895   5.030   0.201   0.782
 6318TIP3   OH218896   7.298   6.515   1.647
 6318TIP3    H118897   7.354   6.502   1.570
 6318TIP3    H218898   7.328   6.598   1.684
 6319TIP3   OH218899   0.453   4.797   3.455
 6319TIP3    H118900   0.439   4.746   3.375
 6319TIP3    H218901   0.543   4.828   3.448
 6320TIP3   OH218902   4.702   4.522   6.228
 6320TIP3    H118903   4.676   4.475   6.149
 6320TIP3    H218904   4.622   4.525   6.281
 6321TIP3   OH218905   0.592   7.087   1.344
 6321TIP3    H118906   0.593   7.177   1.376
 6321TIP3    H218907   0.680   7.054   1.364
 6322TIP3   OH218908   0.549   5.560   5.627
 6322TIP3    H118909   0.480   5.493   5.628
 6322TIP3    H218910   0.502   5.643   5.636
 6323TIP3   OH218911   3.213   1.340   6.646
 6323TIP3    H118912   3.157   1.273   6.605
 6323TIP3    H218913   3.282   1.355   6.581
 6324TIP3   OH218914   3.488   4.135   4.671
 6324TIP3    H118915   3.559   4.083   4.634
 6324TIP3    H218916   3.523   4.224   4.676
 6325TIP3   OH218917   4.614   5.593   0.265
 6325TIP3    H118918   4.518   5.596   0.269
 6325TIP3    H218919   4.642   5.610   0.355
 6326TIP3   OH218920   3.018   6.689   4.805
 6326TIP3    H118921   2.957   6.630   4.761
 6326TIP3    H218922   2.988   6.691   4.896
 6327TIP3   OH218923   7.833   2.328   2.004
 6327TIP3    H118924   7.780   2.252   1.981
 6327TIP3    H218925   7.777   2.403   1.986
 6328TIP3   OH218926   2.469   0.976   1.357
 6328TIP3    H118927   2.449   0.883   1.347
 6328TIP3    H218928   2.399   1.010   1.413
 6329TIP3   OH218929   2.064   6.464   4.454
 6329TIP3    H118930   2.128   6.423   4.512
 6329TIP3    H218931   1.997   6.499   4.513
 6330TIP3   OH218932   1.829   6.241   4.751
 6330TIP3    H118933   1.899   6.185   4.718
 6330TIP3    H218934   1.819   6.215   4.843
 6331TIP3   OH218935   5.629   1.335   3.339
 6331TIP3    H118936   5.588   1.396   3.278
 6331TIP3    H218937   5.569   1.260   3.342
 6332TIP3   OH218938   3.739   5.501   2.177
 6332TIP3    H118939   3.651   5.512   2.139
 6332TIP3    H218940   3.772   5.421   2.137
 6333TIP3   OH218941   6.363   4.477   6.258
 6333TIP3    H118942   6.294   4.542   6.270
 6333TIP3    H218943   6.433   4.524   6.213
 6334TIP3   OH218944   7.634   7.509   3.386
 6334TIP3    H118945   7.641   7.576   3.454
 6334TIP3    H218946   7.696   7.441   3.411
 6335TIP3   OH218947   2.139   2.401   4.969
 6335TIP3    H118948   2.108   2.400   5.060
 6335TIP3    H218949   2.066   2.435   4.919
 6336TIP3   OH218950   0.693   2.530   6.003
 6336TIP3    H118951   0.602   2.503   6.016
 6336TIP3    H218952   0.701   2.612   6.052
 6337TIP3   OH218953   1.746   2.878   3.306
 6337TIP3    H118954   1.737   2.792   3.348
 6337TIP3    H218955   1.692   2.936   3.361
 6338TIP3   OH218956   2.527   7.859   4.429
 6338TIP3    H118957   2.434   7.880   4.434
 6338TIP3    H218958   2.534   7.768   4.458
 6339TIP3   OH218959   2.667   3.140   4.620
 6339TIP3    H118960   2.657   3.127   4.714
 6339TIP3    H218961   2.579   3.158   4.588
 6340TIP3   OH218962   5.522   1.677   3.657
 6340TIP3    H118963   5.491   1.763   3.685
 6340TIP3    H218964   5.615   1.677   3.676
 6341TIP3   OH218965   1.138   0.141   6.703
 6341TIP3    H118966   1.151   0.236   6.697
 6341TIP3    H218967   1.226   0.105   6.714
 6342TIP3   OH218968   0.003   1.215   4.170
 6342TIP3    H118969  -0.072   1.201   4.228
 6342TIP3    H218970   0.028   1.306   4.184
 6343TIP3   OH218971   3.222   5.907   1.106
 6343TIP3    H118972   3.206   5.964   1.031
 6343TIP3    H218973   3.304   5.938   1.143
 6344TIP3   OH218974   7.696   4.338   1.721
 6344TIP3    H118975   7.603   4.319   1.713
 6344TIP3    H218976   7.699   4.429   1.751
 6345TIP3   OH218977   0.720   1.754   3.809
 6345TIP3    H118978   0.795   1.810   3.790
 6345TIP3    H218979   0.676   1.796   3.882
 6346TIP3   OH218980   1.245   0.892   2.294
 6346TIP3    H118981   1.266   0.816   2.240
 6346TIP3    H218982   1.285   0.873   2.379
 6347TIP3   OH218983   6.973   7.116   1.779
 6347TIP3    H118984   7.025   7.190   1.812
 6347TIP3    H218985   6.992   7.115   1.685
 6348TIP3   OH218986   6.497   7.838   3.294
 6348TIP3    H118987   6.426   7.837   3.229
 6348TIP3    H218988   6.575   7.812   3.245
 6349TIP3   OH218989   4.113   5.415   0.959
 6349TIP3    H118990   4.030   5.427   0.913
 6349TIP3    H218991   4.157   5.344   0.911
 6350TIP3   OH218992   3.657   0.838   6.202
 6350TIP3    H118993   3.634   0.784   6.277
 6350TIP3    H218994   3.577   0.887   6.182
 6351TIP3   OH218995   5.521   1.902   4.411
 6351TIP3    H118996   5.450   1.929   4.469
 6351TIP3    H218997   5.593   1.878   4.469
 6352TIP3   OH218998   5.558   4.739   4.624
 6352TIP3    H118999   5.471   4.715   4.657
 6352TIP3    H219000   5.605   4.657   4.619
 6353TIP3   OH219001   1.424   0.522   0.441
 6353TIP3    H119002   1.489   0.521   0.371
 6353TIP3    H219003   1.458   0.585   0.505
 6354TIP3   OH219004   4.153   5.354   1.463
 6354TIP3    H119005   4.244   5.343   1.492
 6354TIP3    H219006   4.159   5.367   1.369
 6355TIP3   OH219007   1.800   7.364   4.750
 6355TIP3    H119008   1.728   7.397   4.696
 6355TIP3    H219009   1.767   7.368   4.840
 6356TIP3   OH219010   4.706   1.650   3.404
 6356TIP3    H119011   4.784   1.616   3.448
 6356TIP3    H219012   4.634   1.626   3.461
 6357TIP3   OH219013   4.260   7.177   2.062
 6357TIP3    H119014   4.274   7.247   2.126
 6357TIP3    H219015   4.310   7.205   1.985
 6358TIP3   OH219016   3.817   6.920   3.034
 6358TIP3    H119017   3.747   6.856   3.038
 6358TIP3    H219018   3.828   6.950   3.124
 6359TIP3   OH219019   7.924   7.386   2.548
 6359TIP3    H119020   7.945   7.293   2.540
 6359TIP3    H219021   7.832   7.392   2.520
 6360TIP3   OH219022   7.647   1.770   5.629
 6360TIP3    H119023   7.691   1.836   5.684
 6360TIP3    H219024   7.612   1.820   5.556
 6361TIP3   OH219025   3.818   2.536   5.288
 6361TIP3    H119026   3.842   2.571   5.202
 6361TIP3    H219027   3.737   2.488   5.273
 6362TIP3   OH219028   5.953   1.820   4.201
 6362TIP3    H119029   5.880   1.856   4.150
 6362TIP3    H219030   5.997   1.896   4.238
 6363TIP3   OH219031   1.290   6.447   2.933
 6363TIP3    H119032   1.334   6.452   3.017
 6363TIP3    H219033   1.223   6.516   2.937
 6364TIP3   OH219034   2.107   6.546   3.445
 6364TIP3    H119035   2.117   6.455   3.471
 6364TIP3    H219036   2.196   6.576   3.427
 6365TIP3   OH219037   2.622   3.100   3.643
 6365TIP3    H119038   2.695   3.088   3.582
 6365TIP3    H219039   2.544   3.082   3.590
 6366TIP3   OH219040   3.601   3.116   5.121
 6366TIP3    H119041   3.615   3.193   5.065
 6366TIP3    H219042   3.538   3.062   5.072
 6367TIP3   OH219043   4.393   0.678   1.457
 6367TIP3    H119044   4.345   0.690   1.375
 6367TIP3    H219045   4.483   0.703   1.437
 6368TIP3   OH219046   5.086   1.131   2.768
 6368TIP3    H119047   5.086   1.111   2.861
 6368TIP3    H219048   5.158   1.192   2.756
 6369TIP3   OH219049   2.519   7.349   6.090
 6369TIP3    H119050   2.463   7.400   6.149
 6369TIP3    H219051   2.555   7.279   6.144
 6370TIP3   OH219052   5.209   7.196   3.235
 6370TIP3    H119053   5.234   7.251   3.309
 6370TIP3    H219054   5.265   7.119   3.242
 6371TIP3   OH219055   0.420   2.923   3.254
 6371TIP3    H119056   0.361   2.996   3.237
 6371TIP3    H219057   0.374   2.867   3.317
 6372TIP3   OH219058   2.501   0.871   3.416
 6372TIP3    H119059   2.504   0.936   3.487
 6372TIP3    H219060   2.572   0.897   3.357
 6373TIP3   OH219061   6.925   5.994   5.405
 6373TIP3    H119062   6.979   6.048   5.463
 6373TIP3    H219063   6.913   5.912   5.452
 6374TIP3   OH219064   0.819   0.513   6.199
 6374TIP3    H119065   0.724   0.520   6.196
 6374TIP3    H219066   0.849   0.540   6.112
 6375TIP3   OH219067   6.081   6.167   5.593
 6375TIP3    H119068   6.057   6.251   5.554
 6375TIP3    H219069   6.146   6.131   5.533
 6376TIP3   OH219070   7.881   5.860   2.058
 6376TIP3    H119071   7.902   5.951   2.034
 6376TIP3    H219072   7.804   5.840   2.005
 6377TIP3   OH219073   7.005   0.371   3.940
 6377TIP3    H119074   7.025   0.371   4.034
 6377TIP3    H219075   6.931   0.431   3.931
 6378TIP3   OH219076   5.659   0.254   1.844
 6378TIP3    H119077   5.590   0.205   1.800
 6378TIP3    H219078   5.626   0.267   1.933
 6379TIP3   OH219079   5.779   4.418   3.965
 6379TIP3    H119080   5.766   4.513   3.969
 6379TIP3    H219081   5.767   4.396   3.872
 6380TIP3   OH219082   5.540   4.124   5.760
 6380TIP3    H119083   5.621   4.169   5.784
 6380TIP3    H219084   5.568   4.037   5.734
 6381TIP3   OH219085   5.584   2.890   4.199
 6381TIP3    H119086   5.598   2.903   4.105
 6381TIP3    H219087   5.619   2.969   4.240
 6382TIP3   OH219088   3.983   0.461   2.650
 6382TIP3    H119089   3.931   0.411   2.713
 6382TIP3    H219090   3.935   0.544   2.640
 6383TIP3   OH219091   5.980   1.376   1.906
 6383TIP3    H119092   5.985   1.283   1.883
 6383TIP3    H219093   5.992   1.378   2.001
 6384TIP3   OH219094   2.136   2.019   0.726
 6384TIP3    H119095   2.198   2.013   0.653
 6384TIP3    H219096   2.175   1.966   0.795
 6385TIP3   OH219097   2.085   2.864   1.101
 6385TIP3    H119098   2.124   2.889   1.185
 6385TIP3    H219099   2.156   2.874   1.038
 6386TIP3   OH219100   1.225   2.997   1.749
 6386TIP3    H119101   1.143   3.028   1.709
 6386TIP3    H219102   1.291   3.008   1.681
 6387TIP3   OH219103   4.355   3.176   6.200
 6387TIP3    H119104   4.378   3.242   6.265
 6387TIP3    H219105   4.304   3.224   6.134
 6388TIP3   OH219106   0.179   1.568   4.803
 6388TIP3    H119107   0.250   1.562   4.739
 6388TIP3    H219108   0.205   1.509   4.874
 6389TIP3   OH219109   4.702   1.504   2.394
 6389TIP3    H119110   4.652   1.537   2.320
 6389TIP3    H219111   4.772   1.451   2.355
 6390TIP3   OH219112   2.070   5.270   3.105
 6390TIP3    H119113   2.071   5.281   3.010
 6390TIP3    H219114   2.067   5.176   3.118
 6391TIP3   OH219115   3.985   6.297   4.213
 6391TIP3    H119116   3.946   6.213   4.188
 6391TIP3    H219117   3.978   6.299   4.309
 6392TIP3   OH219118   7.140   7.135   4.415
 6392TIP3    H119119   7.079   7.130   4.341
 6392TIP3    H219120   7.095   7.189   4.480
 6393TIP3   OH219121   4.156   3.924   1.766
 6393TIP3    H119122   4.135   4.009   1.729
 6393TIP3    H219123   4.079   3.870   1.749
 6394TIP3   OH219124   0.027   0.317   1.652
 6394TIP3    H119125   0.037   0.370   1.731
 6394TIP3    H219126   0.117   0.293   1.628
 6395TIP3   OH219127   6.994   6.415   1.715
 6395TIP3    H119128   6.985   6.322   1.694
 6395TIP3    H219129   7.082   6.423   1.753
 6396TIP3   OH219130   5.330   2.683   6.386
 6396TIP3    H119131   5.284   2.767   6.375
 6396TIP3    H219132   5.266   2.618   6.358
 6397TIP3   OH219133   1.893   7.197   3.844
 6397TIP3    H119134   1.837   7.122   3.827
 6397TIP3    H219135   1.891   7.206   3.940
 6398TIP3   OH219136   7.574   3.134   6.346
 6398TIP3    H119137   7.646   3.073   6.326
 6398TIP3    H219138   7.526   3.091   6.417
 6399TIP3   OH219139   6.102   7.335   0.758
 6399TIP3    H119140   6.095   7.331   0.853
 6399TIP3    H219141   6.153   7.258   0.734
 6400TIP3   OH219142   7.924   4.527   1.920
 6400TIP3    H119143   7.864   4.589   1.961
 6400TIP3    H219144   7.930   4.455   1.982
 6401TIP3   OH219145   7.251   4.843   4.438
 6401TIP3    H119146   7.344   4.861   4.451
 6401TIP3    H219147   7.238   4.756   4.474
 6402TIP3   OH219148   1.883   4.054   1.064
 6402TIP3    H119149   1.924   4.095   0.988
 6402TIP3    H219150   1.808   4.007   1.029
 6403TIP3   OH219151   0.196   3.166   4.877
 6403TIP3    H119152   0.148   3.233   4.828
 6403TIP3    H219153   0.199   3.200   4.967
 6404TIP3   OH219154   4.798   1.733   1.401
 6404TIP3    H119155   4.757   1.815   1.426
 6404TIP3    H219156   4.800   1.682   1.482
 6405TIP3   OH219157   7.671   4.475   2.223
 6405TIP3    H119158   7.712   4.466   2.309
 6405TIP3    H219159   7.635   4.563   2.223
 6406TIP3   OH219160   7.029   4.231   5.952
 6406TIP3    H119161   6.981   4.241   6.034
 6406TIP3    H219162   7.112   4.276   5.967
 6407TIP3   OH219163   1.879   0.150   4.511
 6407TIP3    H119164   1.927   0.221   4.468
 6407TIP3    H219165   1.894   0.163   4.604
 6408TIP3   OH219166   4.369   2.905   1.068
 6408TIP3    H119167   4.297   2.866   1.118
 6408TIP3    H219168   4.439   2.840   1.073
 6409TIP3   OH219169   0.681   0.534   5.633
 6409TIP3    H119170   0.597   0.575   5.613
 6409TIP3    H219171   0.731   0.604   5.676
 6410TIP3   OH219172   4.659   1.227   0.560
 6410TIP3    H119173   4.578   1.196   0.519
 6410TIP3    H219174   4.663   1.321   0.539
 6411TIP3   OH219175   1.139   7.593   1.366
 6411TIP3    H119176   1.188   7.601   1.448
 6411TIP3    H219177   1.169   7.667   1.313
 6412TIP3   OH219178   8.141   4.132   3.291
 6412TIP3    H119179   8.145   4.043   3.254
 6412TIP3    H219180   8.211   4.135   3.355
 6413TIP3   OH219181   2.764   6.438   1.766
 6413TIP3    H119182   2.688   6.421   1.711
 6413TIP3    H219183   2.737   6.511   1.822
 6414TIP3   OH219184   7.079   0.683   4.461
 6414TIP3    H119185   7.095   0.589   4.453
 6414TIP3    H219186   7.154   0.715   4.512
 6415TIP3   OH219187   2.532   2.359   2.469
 6415TIP3    H119188   2.596   2.427   2.444
 6415TIP3    H219189   2.572   2.277   2.440
 6416TIP3   OH219190   0.000   4.384   1.421
 6416TIP3    H119191   0.087   4.421   1.437
 6416TIP3    H219192  -0.060   4.453   1.447
 6417TIP3   OH219193   5.862   3.938   3.021
 6417TIP3    H119194   5.825   4.025   3.038
 6417TIP3    H219195   5.954   3.956   3.000
 6418TIP3   OH219196   6.602   4.113   0.017
 6418TIP3    H119197   6.691   4.149   0.026
 6418TIP3    H219198   6.578   4.088   0.106
 6419TIP3   OH219199   3.205   5.611   6.778
 6419TIP3    H119200   3.225   5.681   6.715
 6419TIP3    H219201   3.202   5.655   6.863
 6420TIP3   OH219202   0.202   5.555   3.206
 6420TIP3    H119203   0.255   5.515   3.275
 6420TIP3    H219204   0.117   5.513   3.214
 6421TIP3   OH219205   2.945   4.532   3.356
 6421TIP3    H119206   2.975   4.603   3.413
 6421TIP3    H219207   2.909   4.466   3.416
 6422TIP3   OH219208   3.974   5.202   4.367
 6422TIP3    H119209   3.926   5.284   4.367
 6422TIP3    H219210   3.914   5.139   4.328
 6423TIP3   OH219211   5.662   5.925   1.659
 6423TIP3    H119212   5.608   5.974   1.598
 6423TIP3    H219213   5.648   5.833   1.635
 6424TIP3   OH219214   4.500   3.271   3.544
 6424TIP3    H119215   4.520   3.220   3.464
 6424TIP3    H219216   4.408   3.293   3.536
 6425TIP3   OH219217   1.031   3.328   0.432
 6425TIP3    H119218   1.037   3.315   0.527
 6425TIP3    H219219   0.970   3.400   0.421
 6426TIP3   OH219220   6.087   4.483   1.802
 6426TIP3    H119221   6.005   4.464   1.848
 6426TIP3    H219222   6.063   4.548   1.736
 6427TIP3   OH219223   5.294   1.319   1.187
 6427TIP3    H119224   5.270   1.412   1.185
 6427TIP3    H219225   5.225   1.275   1.137
 6428TIP3   OH219226   1.584   1.971   6.369
 6428TIP3    H119227   1.626   1.965   6.283
 6428TIP3    H219228   1.592   1.883   6.406
 6429TIP3   OH219229   0.430   7.737   5.479
 6429TIP3    H119230   0.347   7.767   5.515
 6429TIP3    H219231   0.496   7.791   5.523
 6430TIP3   OH219232   0.643   5.014   4.319
 6430TIP3    H119233   0.619   5.059   4.238
 6430TIP3    H219234   0.696   5.077   4.367
 6431TIP3   OH219235   6.528   1.646   4.970
 6431TIP3    H119236   6.454   1.663   4.912
 6431TIP3    H219237   6.604   1.674   4.920
 6432TIP3   OH219238   3.800   2.736   4.980
 6432TIP3    H119239   3.746   2.659   4.964
 6432TIP3    H219240   3.768   2.800   4.916
 6433TIP3   OH219241   6.888   1.552   6.201
 6433TIP3    H119242   6.911   1.516   6.287
 6433TIP3    H219243   6.914   1.644   6.206
 6434TIP3   OH219244   4.395   0.260   2.414
 6434TIP3    H119245   4.301   0.247   2.428
 6434TIP3    H219246   4.436   0.230   2.495
 6435TIP3   OH219247   0.129   6.447   4.485
 6435TIP3    H119248   0.124   6.380   4.554
 6435TIP3    H219249   0.078   6.411   4.413
 6436TIP3   OH219250   7.850   7.495   3.558
 6436TIP3    H119251   7.911   7.427   3.528
 6436TIP3    H219252   7.897   7.577   3.544
 6437TIP3   OH219253   3.644   6.787   6.117
 6437TIP3    H119254   3.674   6.774   6.027
 6437TIP3    H219255   3.711   6.843   6.156
 6438TIP3   OH219256   7.839   0.043   3.341
 6438TIP3    H119257   7.809   0.048   3.432
 6438TIP3    H219258   7.808   0.125   3.303
 6439TIP3   OH219259   6.413   6.911   4.810
 6439TIP3    H119260   6.495   6.905   4.761
 6439TIP3    H219261   6.421   6.991   4.861
 6440TIP3   OH219262   4.598   7.260   2.377
 6440TIP3    H119263   4.538   7.185   2.382
 6440TIP3    H219264   4.685   7.222   2.393
 6441TIP3   OH219265   3.001   1.148   2.773
 6441TIP3    H119266   2.993   1.169   2.680
 6441TIP3    H219267   2.945   1.072   2.785
 6442TIP3   OH219268   5.473   7.670   2.160
 6442TIP3    H119269   5.445   7.587   2.120
 6442TIP3    H219270   5.563   7.654   2.187
 6443TIP3   OH219271   3.598   0.295   3.280
 6443TIP3    H119272   3.670   0.239   3.249
 6443TIP3    H219273   3.524   0.270   3.226
 6444TIP3   OH219274   0.596   3.694   1.170
 6444TIP3    H119275   0.533   3.681   1.240
 6444TIP3    H219276   0.564   3.639   1.098
 6445TIP3   OH219277   0.267   6.455   1.001
 6445TIP3    H119278   0.293   6.541   0.969
 6445TIP3    H219279   0.276   6.397   0.925
 6446TIP3   OH219280   3.110   2.394   3.305
 6446TIP3    H119281   3.026   2.356   3.330
 6446TIP3    H219282   3.117   2.380   3.211
 6447TIP3   OH219283   3.005   6.066   4.479
 6447TIP3    H119284   3.054   6.019   4.548
 6447TIP3    H219285   2.978   6.147   4.521
 6448TIP3   OH219286   2.625   2.908   1.255
 6448TIP3    H119287   2.612   2.913   1.349
 6448TIP3    H219288   2.714   2.941   1.241
 6449TIP3   OH219289   0.474   5.614   2.212
 6449TIP3    H119290   0.535   5.624   2.286
 6449TIP3    H219291   0.389   5.641   2.247
 6450TIP3   OH219292   3.921   3.445   1.271
 6450TIP3    H119293   3.864   3.409   1.339
 6450TIP3    H219294   3.947   3.531   1.306
 6451TIP3   OH219295   2.669   2.728   5.790
 6451TIP3    H119296   2.748   2.722   5.844
 6451TIP3    H219297   2.630   2.641   5.795
 6452TIP3   OH219298   0.926   5.336   4.227
 6452TIP3    H119299   1.015   5.324   4.192
 6452TIP3    H219300   0.898   5.420   4.191
 6453TIP3   OH219301   3.725   1.604   5.590
 6453TIP3    H119302   3.803   1.551   5.575
 6453TIP3    H219303   3.710   1.648   5.507
 6454TIP3   OH219304   1.302   7.201   6.258
 6454TIP3    H119305   1.354   7.204   6.178
 6454TIP3    H219306   1.247   7.123   6.247
 6455TIP3   OH219307   2.463   5.896   6.045
 6455TIP3    H119308   2.445   5.808   6.078
 6455TIP3    H219309   2.558   5.896   6.031
 6456TIP3   OH219310   2.452   6.934   1.572
 6456TIP3    H119311   2.539   6.941   1.533
 6456TIP3    H219312   2.403   7.005   1.531
 6457TIP3   OH219313   0.486   6.074   0.982
 6457TIP3    H119314   0.511   5.989   1.018
 6457TIP3    H219315   0.494   6.064   0.887
 6458TIP3   OH219316   1.884   0.480   2.611
 6458TIP3    H119317   1.843   0.556   2.653
 6458TIP3    H219318   1.886   0.502   2.518
 6459TIP3   OH219319   1.641   4.554   5.309
 6459TIP3    H119320   1.733   4.529   5.307
 6459TIP3    H219321   1.630   4.602   5.391
 6460TIP3   OH219322   7.024   0.149   4.423
 6460TIP3    H119323   6.946   0.132   4.371
 6460TIP3    H219324   6.998   0.127   4.513
 6461TIP3   OH219325   6.813   4.545   0.275
 6461TIP3    H119326   6.777   4.589   0.197
 6461TIP3    H219327   6.852   4.616   0.326
 6462TIP3   OH219328   5.902   0.345   0.473
 6462TIP3    H119329   5.956   0.333   0.551
 6462TIP3    H219330   5.961   0.324   0.400
 6463TIP3   OH219331   5.886   3.742   4.578
 6463TIP3    H119332   5.948   3.670   4.565
 6463TIP3    H219333   5.838   3.717   4.657
 6464TIP3   OH219334   0.185   0.314   2.496
 6464TIP3    H119335   0.181   0.303   2.401
 6464TIP3    H219336   0.265   0.364   2.512
 6465TIP3   OH219337   6.123   7.266   1.070
 6465TIP3    H119338   6.129   7.304   1.158
 6465TIP3    H219339   6.035   7.230   1.064
 6466TIP3   OH219340   0.412   7.283   2.549
 6466TIP3    H119341   0.426   7.375   2.530
 6466TIP3    H219342   0.366   7.249   2.472
 6467TIP3   OH219343   5.525   5.690   2.243
 6467TIP3    H119344   5.431   5.671   2.242
 6467TIP3    H219345   5.566   5.610   2.210
 6468TIP3   OH219346   7.692   3.940   6.170
 6468TIP3    H119347   7.712   3.864   6.225
 6468TIP3    H219348   7.747   4.010   6.205
 6469TIP3   OH219349   4.067   6.209   5.178
 6469TIP3    H119350   4.064   6.189   5.272
 6469TIP3    H219351   4.075   6.304   5.174
 6470TIP3   OH219352   6.682   2.268   6.659
 6470TIP3    H119353   6.717   2.220   6.734
 6470TIP3    H219354   6.754   2.325   6.631
 6471TIP3   OH219355   3.808   1.461   1.220
 6471TIP3    H119356   3.893   1.435   1.184
 6471TIP3    H219357   3.800   1.411   1.301
 6472TIP3   OH219358   4.416   7.028   1.299
 6472TIP3    H119359   4.424   7.110   1.251
 6472TIP3    H219360   4.374   6.968   1.236
 6473TIP3   OH219361   1.686   5.266   5.795
 6473TIP3    H119362   1.774   5.254   5.831
 6473TIP3    H219363   1.699   5.325   5.720
 6474TIP3   OH219364   4.615   1.996   2.023
 6474TIP3    H119365   4.609   1.903   2.043
 6474TIP3    H219366   4.598   2.002   1.929
 6475TIP3   OH219367   2.777   1.578   4.207
 6475TIP3    H119368   2.714   1.532   4.152
 6475TIP3    H219369   2.724   1.640   4.258
 6476TIP3   OH219370   1.952   2.492   6.413
 6476TIP3    H119371   2.035   2.491   6.461
 6476TIP3    H219372   1.885   2.503   6.480
 6477TIP3   OH219373   7.789   0.198   2.799
 6477TIP3    H119374   7.849   0.262   2.837
 6477TIP3    H219375   7.810   0.196   2.706
 6478TIP3   OH219376   0.530   3.211   6.007
 6478TIP3    H119377   0.525   3.158   5.927
 6478TIP3    H219378   0.526   3.147   6.078
 6479TIP3   OH219379   2.585   4.888   3.048
 6479TIP3    H119380   2.677   4.863   3.055
 6479TIP3    H219381   2.573   4.954   3.116
 6480TIP3   OH219382   0.929   2.622   5.417
 6480TIP3    H119383   0.977   2.704   5.428
 6480TIP3    H219384   0.979   2.574   5.350
 6481TIP3   OH219385   4.040   0.057   4.310
 6481TIP3    H119386   4.039   0.091   4.399
 6481TIP3    H219387   4.126   0.080   4.275
 6482TIP3   OH219388   3.410   0.545   5.658
 6482TIP3    H119389   3.436   0.635   5.675
 6482TIP3    H219390   3.390   0.509   5.745
 6483TIP3   OH219391   0.128   5.030   6.652
 6483TIP3    H119392   0.140   5.123   6.633
 6483TIP3    H219393   0.079   4.996   6.578
 6484TIP3   OH219394   6.274   7.121   0.748
 6484TIP3    H119395   6.302   7.036   0.783
 6484TIP3    H219396   6.276   7.109   0.653
 6485TIP3   OH219397   5.838   2.298   6.255
 6485TIP3    H119398   5.891   2.230   6.297
 6485TIP3    H219399   5.840   2.371   6.317
 6486TIP3   OH219400   3.518   0.879   5.086
 6486TIP3    H119401   3.508   0.933   5.008
 6486TIP3    H219402   3.593   0.823   5.068
 6487TIP3   OH219403   3.291   4.849   2.779
 6487TIP3    H119404   3.201   4.880   2.769
 6487TIP3    H219405   3.282   4.762   2.817
 6488TIP3   OH219406   5.723   2.238   0.221
 6488TIP3    H119407   5.669   2.302   0.175
 6488TIP3    H219408   5.813   2.259   0.195
 6489TIP3   OH219409   3.972   1.155   1.425
 6489TIP3    H119410   4.017   1.070   1.419
 6489TIP3    H219411   4.042   1.219   1.421
 6490TIP3   OH219412   3.466   5.633   0.436
 6490TIP3    H119413   3.412   5.621   0.514
 6490TIP3    H219414   3.436   5.717   0.400
 6491TIP3   OH219415   5.493   5.600   3.887
 6491TIP3    H119416   5.586   5.621   3.883
 6491TIP3    H219417   5.477   5.551   3.806
 6492TIP3   OH219418   6.645   3.678   0.777
 6492TIP3    H119419   6.685   3.627   0.706
 6492TIP3    H219420   6.718   3.703   0.833
 6493TIP3   OH219421   4.641   5.180   0.197
 6493TIP3    H119422   4.610   5.227   0.120
 6493TIP3    H219423   4.702   5.241   0.240
 6494TIP3   OH219424   1.327   1.983   6.031
 6494TIP3    H119425   1.342   1.949   6.119
 6494TIP3    H219426   1.313   2.077   6.044
 6495TIP3   OH219427   1.368   2.889   4.353
 6495TIP3    H119428   1.433   2.858   4.289
 6495TIP3    H219429   1.287   2.898   4.302
 6496TIP3   OH219430   3.447   6.989   0.432
 6496TIP3    H119431   3.512   6.930   0.395
 6496TIP3    H219432   3.377   6.931   0.462
 6497TIP3   OH219433   5.948   2.030   5.990
 6497TIP3    H119434   5.930   1.991   5.905
 6497TIP3    H219435   5.929   1.960   6.053
 6498TIP3   OH219436   2.840   5.710   5.814
 6498TIP3    H119437   2.907   5.779   5.820
 6498TIP3    H219438   2.871   5.653   5.744
 6499TIP3   OH219439   4.393   4.276   5.998
 6499TIP3    H119440   4.324   4.326   5.954
 6499TIP3    H219441   4.345   4.219   6.059
 6500TIP3   OH219442   7.306   5.535   5.235
 6500TIP3    H119443   7.376   5.475   5.261
 6500TIP3    H219444   7.308   5.534   5.139
 6501TIP3   OH219445   1.120   1.275   3.466
 6501TIP3    H119446   1.158   1.194   3.500
 6501TIP3    H219447   1.108   1.330   3.543
 6502TIP3   OH219448   5.322   6.774   6.157
 6502TIP3    H119449   5.257   6.705   6.145
 6502TIP3    H219450   5.278   6.853   6.125
 6503TIP3   OH219451   6.234   1.856   5.073
 6503TIP3    H119452   6.150   1.814   5.088
 6503TIP3    H219453   6.256   1.834   4.982
 6504TIP3   OH219454   3.777   0.290   4.461
 6504TIP3    H119455   3.834   0.342   4.405
 6504TIP3    H219456   3.810   0.305   4.550
 6505TIP3   OH219457   2.883   7.008   1.596
 6505TIP3    H119458   2.819   7.042   1.659
 6505TIP3    H219459   2.906   6.922   1.630
 6506TIP3   OH219460   6.919   7.280   0.773
 6506TIP3    H119461   7.002   7.240   0.748
 6506TIP3    H219462   6.856   7.208   0.776
 6507TIP3   OH219463   4.262   6.843   6.418
 6507TIP3    H119464   4.180   6.879   6.384
 6507TIP3    H219465   4.255   6.850   6.513
 6508TIP3   OH219466   3.137   3.532   1.972
 6508TIP3    H119467   3.090   3.486   1.902
 6508TIP3    H219468   3.126   3.477   2.049
 6509TIP3   OH219469   3.310   5.388   5.850
 6509TIP3    H119470   3.310   5.307   5.799
 6509TIP3    H219471   3.293   5.360   5.940
 6510TIP3   OH219472   0.794   7.652   6.166
 6510TIP3    H119473   0.744   7.626   6.088
 6510TIP3    H219474   0.853   7.721   6.134
 6511TIP3   OH219475   7.790   1.897   0.254
 6511TIP3    H119476   7.755   1.985   0.266
 6511TIP3    H219477   7.859   1.890   0.320
 6512TIP3   OH219478   2.864   7.195   3.282
 6512TIP3    H119479   2.828   7.111   3.312
 6512TIP3    H219480   2.816   7.261   3.332
 6513TIP3   OH219481   2.511   2.970   6.032
 6513TIP3    H119482   2.532   2.965   6.125
 6513TIP3    H219483   2.497   2.879   6.005
 6514TIP3   OH219484   2.654   6.870   4.614
 6514TIP3    H119485   2.626   6.862   4.522
 6514TIP3    H219486   2.577   6.843   4.664
 6515TIP3   OH219487   5.080   7.559   5.127
 6515TIP3    H119488   5.161   7.574   5.078
 6515TIP3    H219489   5.106   7.563   5.219
 6516TIP3   OH219490   6.078   0.745   1.514
 6516TIP3    H119491   6.169   0.729   1.488
 6516TIP3    H219492   6.043   0.658   1.532
 6517TIP3   OH219493   7.494   6.838   4.351
 6517TIP3    H119494   7.504   6.918   4.299
 6517TIP3    H219495   7.573   6.836   4.405
 6518TIP3   OH219496   4.389   1.293   5.375
 6518TIP3    H119497   4.462   1.355   5.376
 6518TIP3    H219498   4.424   1.215   5.332
 6519TIP3   OH219499   2.470   6.682   1.411
 6519TIP3    H119500   2.399   6.700   1.472
 6519TIP3    H219501   2.539   6.744   1.434
 6520TIP3   OH219502   3.473   7.226   2.927
 6520TIP3    H119503   3.431   7.200   3.009
 6520TIP3    H219504   3.426   7.305   2.900
 6521TIP3   OH219505   5.348   3.201   1.598
 6521TIP3    H119506   5.422   3.243   1.554
 6521TIP3    H219507   5.319   3.133   1.537
 6522TIP3   OH219508   2.446   4.357   1.056
 6522TIP3    H119509   2.444   4.290   1.124
 6522TIP3    H219510   2.397   4.318   0.983
 6523TIP3   OH219511   0.758   3.761   5.271
 6523TIP3    H119512   0.821   3.735   5.204
 6523TIP3    H219513   0.772   3.855   5.283
 6524TIP3   OH219514   5.239   6.545   2.856
 6524TIP3    H119515   5.263   6.454   2.835
 6524TIP3    H219516   5.260   6.554   2.949
 6525TIP3   OH219517   1.627   2.014   1.144
 6525TIP3    H119518   1.714   2.043   1.118
 6525TIP3    H219519   1.583   1.991   1.062
 6526TIP3   OH219520   1.211   5.244   1.790
 6526TIP3    H119521   1.178   5.162   1.754
 6526TIP3    H219522   1.132   5.291   1.818
 6527TIP3   OH219523   7.242   3.745   5.321
 6527TIP3    H119524   7.254   3.650   5.322
 6527TIP3    H219525   7.309   3.778   5.380
 6528TIP3   OH219526   1.391   3.741   4.850
 6528TIP3    H119527   1.446   3.795   4.794
 6528TIP3    H219528   1.448   3.670   4.879
 6529TIP3   OH219529   5.036   4.209   5.196
 6529TIP3    H119530   5.083   4.213   5.113
 6529TIP3    H219531   4.978   4.133   5.188
 6530TIP3   OH219532   7.900   3.583   1.163
 6530TIP3    H119533   7.838   3.613   1.229
 6530TIP3    H219534   7.947   3.662   1.136
 6531TIP3   OH219535   4.642   6.444   0.942
 6531TIP3    H119536   4.646   6.351   0.920
 6531TIP3    H219537   4.596   6.447   1.026
 6532TIP3   OH219538   1.365   5.422   2.656
 6532TIP3    H119539   1.390   5.344   2.607
 6532TIP3    H219540   1.430   5.488   2.631
 6533TIP3   OH219541   2.416   7.584   2.199
 6533TIP3    H119542   2.333   7.614   2.237
 6533TIP3    H219543   2.477   7.585   2.272
 6534TIP3   OH219544   3.577   4.734   3.546
 6534TIP3    H119545   3.548   4.775   3.627
 6534TIP3    H219546   3.547   4.793   3.477
 6535TIP3   OH219547   3.532   3.245   2.532
 6535TIP3    H119548   3.464   3.312   2.531
 6535TIP3    H219549   3.599   3.279   2.591
 6536TIP3   OH219550   4.391   4.459   0.006
 6536TIP3    H119551   4.442   4.529  -0.034
 6536TIP3    H219552   4.386   4.483   0.099
 6537TIP3   OH219553   3.209   3.171   3.662
 6537TIP3    H119554   3.288   3.193   3.612
 6537TIP3    H219555   3.198   3.077   3.650
 6538TIP3   OH219556   1.503   7.037   2.846
 6538TIP3    H119557   1.517   6.955   2.892
 6538TIP3    H219558   1.563   7.099   2.887
 6539TIP3   OH219559   8.165   2.733   0.114
 6539TIP3    H119560   8.210   2.817   0.103
 6539TIP3    H219561   8.074   2.751   0.089
 6540TIP3   OH219562   6.004   2.806   5.781
 6540TIP3    H119563   6.006   2.742   5.852
 6540TIP3    H219564   5.919   2.794   5.740
 6541TIP3   OH219565   8.062   1.139   4.037
 6541TIP3    H119566   8.057   1.150   4.131
 6541TIP3    H219567   8.150   1.169   4.014
 6542TIP3   OH219568   0.235   5.890   0.439
 6542TIP3    H119569   0.326   5.910   0.414
 6542TIP3    H219570   0.217   5.805   0.399
 6543TIP3   OH219571   7.587   1.078   4.711
 6543TIP3    H119572   7.608   0.993   4.673
 6543TIP3    H219573   7.517   1.112   4.655
 6544TIP3   OH219574   8.199   6.870   2.509
 6544TIP3    H119575   8.127   6.844   2.451
 6544TIP3    H219576   8.230   6.788   2.547
 6545TIP3   OH219577   6.025   6.460   0.132
 6545TIP3    H119578   5.994   6.373   0.157
 6545TIP3    H219579   5.948   6.517   0.142
 6546TIP3   OH219580   1.518   1.625   0.629
 6546TIP3    H119581   1.442   1.664   0.586
 6546TIP3    H219582   1.562   1.575   0.559
 6547TIP3   OH219583   0.227   1.348   0.849
 6547TIP3    H119584   0.259   1.413   0.786
 6547TIP3    H219585   0.275   1.268   0.827
 6548TIP3   OH219586   6.818   3.584   0.556
 6548TIP3    H119587   6.827   3.670   0.516
 6548TIP3    H219588   6.879   3.528   0.508
 6549TIP3   OH219589   5.322   4.081   0.590
 6549TIP3    H119590   5.363   4.104   0.507
 6549TIP3    H219591   5.390   4.095   0.655
 6550TIP3   OH219592   1.627   0.393   2.855
 6550TIP3    H119593   1.592   0.468   2.807
 6550TIP3    H219594   1.615   0.416   2.947
 6551TIP3   OH219595   0.847   3.331   1.906
 6551TIP3    H119596   0.867   3.422   1.884
 6551TIP3    H219597   0.776   3.338   1.970
 6552TIP3   OH219598   0.310   1.038   0.389
 6552TIP3    H119599   0.376   1.078   0.446
 6552TIP3    H219600   0.329   0.944   0.394
 6553TIP3   OH219601   7.985   7.271   0.757
 6553TIP3    H119602   8.040   7.349   0.752
 6553TIP3    H219603   8.000   7.237   0.845
 6554TIP3   OH219604   6.412   2.060   1.366
 6554TIP3    H119605   6.416   1.976   1.320
 6554TIP3    H219606   6.372   2.040   1.450
 6555TIP3   OH219607   7.224   1.686   5.333
 6555TIP3    H119608   7.242   1.630   5.408
 6555TIP3    H219609   7.137   1.723   5.351
 6556TIP3   OH219610   1.620   1.839   6.746
 6556TIP3    H119611   1.625   1.933   6.763
 6556TIP3    H219612   1.529   1.816   6.767
 6557TIP3   OH219613   5.399   6.856   3.082
 6557TIP3    H119614   5.305   6.834   3.087
 6557TIP3    H219615   5.423   6.840   2.991
 6558TIP3   OH219616   6.192   4.365   3.514
 6558TIP3    H119617   6.098   4.368   3.497
 6558TIP3    H219618   6.205   4.282   3.561
 6559TIP3   OH219619   1.397   7.722   5.021
 6559TIP3    H119620   1.351   7.715   4.938
 6559TIP3    H219621   1.343   7.780   5.074
 6560TIP3   OH219622   5.923   6.603   0.551
 6560TIP3    H119623   6.010   6.596   0.512
 6560TIP3    H219624   5.873   6.531   0.512
 6561TIP3   OH219625   0.025   0.354   3.717
 6561TIP3    H119626  -0.024   0.275   3.741
 6561TIP3    H219627   0.022   0.356   3.622
 6562TIP3   OH219628   3.728   0.758   0.821
 6562TIP3    H119629   3.814   0.743   0.861
 6562TIP3    H219630   3.682   0.814   0.883
 6563TIP3   OH219631   5.522   7.160   4.745
 6563TIP3    H119632   5.540   7.114   4.663
 6563TIP3    H219633   5.556   7.249   4.730
 6564TIP3   OH219634   1.795   4.151   3.108
 6564TIP3    H119635   1.816   4.169   3.017
 6564TIP3    H219636   1.808   4.057   3.117
 6565TIP3   OH219637   3.474   4.209   0.327
 6565TIP3    H119638   3.451   4.135   0.383
 6565TIP3    H219639   3.404   4.212   0.262
 6566TIP3   OH219640   6.694   4.126   4.552
 6566TIP3    H119641   6.694   4.110   4.458
 6566TIP3    H219642   6.602   4.141   4.574
 6567TIP3   OH219643   6.476   5.881   2.675
 6567TIP3    H119644   6.434   5.859   2.591
 6567TIP3    H219645   6.566   5.902   2.651
 6568TIP3   OH219646   2.155   4.940   3.768
 6568TIP3    H119647   2.200   4.881   3.828
 6568TIP3    H219648   2.224   4.979   3.715
 6569TIP3   OH219649   7.900   3.908   2.783
 6569TIP3    H119650   7.816   3.873   2.810
 6569TIP3    H219651   7.945   3.930   2.865
 6570TIP3   OH219652   4.805   6.548   3.639
 6570TIP3    H119653   4.770   6.634   3.662
 6570TIP3    H219654   4.863   6.566   3.564
 6571TIP3   OH219655   7.716   1.937   4.062
 6571TIP3    H119656   7.632   1.980   4.080
 6571TIP3    H219657   7.781   2.007   4.068
 6572TIP3   OH219658   7.942   6.033   4.818
 6572TIP3    H119659   8.005   5.963   4.799
 6572TIP3    H219660   7.915   6.064   4.732
 6573TIP3   OH219661   2.491   6.946   1.220
 6573TIP3    H119662   2.577   6.927   1.258
 6573TIP3    H219663   2.444   6.863   1.224
 6574TIP3   OH219664   1.944   2.994   6.438
 6574TIP3    H119665   1.874   3.041   6.483
 6574TIP3    H219666   1.990   2.947   6.507
 6575TIP3   OH219667   2.030   1.643   3.025
 6575TIP3    H119668   1.973   1.701   2.974
 6575TIP3    H219669   2.118   1.667   2.998
 6576TIP3   OH219670   1.203   5.736   4.767
 6576TIP3    H119671   1.140   5.673   4.732
 6576TIP3    H219672   1.267   5.683   4.813
 6577TIP3   OH219673   0.077   4.729   3.373
 6577TIP3    H119674   0.062   4.800   3.311
 6577TIP3    H219675   0.014   4.661   3.348
 6578TIP3   OH219676   2.584   6.646   4.035
 6578TIP3    H119677   2.573   6.602   3.951
 6578TIP3    H219678   2.495   6.663   4.066
 6579TIP3   OH219679   3.598   2.056   0.607
 6579TIP3    H119680   3.602   1.963   0.632
 6579TIP3    H219681   3.526   2.092   0.660
 6580TIP3   OH219682   4.166   5.193   2.949
 6580TIP3    H119683   4.192   5.106   2.979
 6580TIP3    H219684   4.190   5.252   3.022
 6581TIP3   OH219685   3.949   1.582   0.710
 6581TIP3    H119686   4.010   1.509   0.722
 6581TIP3    H219687   3.904   1.562   0.629
 6582TIP3   OH219688   6.715   5.764   6.678
 6582TIP3    H119689   6.681   5.731   6.596
 6582TIP3    H219690   6.786   5.823   6.653
 6583TIP3   OH219691   3.514   5.480   1.020
 6583TIP3    H119692   3.559   5.396   1.016
 6583TIP3    H219693   3.424   5.459   1.044
 6584TIP3   OH219694   2.633   0.450   4.933
 6584TIP3    H119695   2.564   0.477   4.994
 6584TIP3    H219696   2.700   0.409   4.988
 6585TIP3   OH219697   1.705   2.821   4.829
 6585TIP3    H119698   1.631   2.872   4.861
 6585TIP3    H219699   1.759   2.883   4.781
 6586TIP3   OH219700   4.192   4.013   0.915
 6586TIP3    H119701   4.267   3.955   0.901
 6586TIP3    H219702   4.162   4.035   0.827
 6587TIP3   OH219703   7.673   4.119   1.567
 6587TIP3    H119704   7.588   4.137   1.527
 6587TIP3    H219705   7.697   4.201   1.611
 6588TIP3   OH219706   5.313   4.195   5.610
 6588TIP3    H119707   5.360   4.116   5.636
 6588TIP3    H219708   5.289   4.237   5.693
 6589TIP3   OH219709   5.648   6.927   4.839
 6589TIP3    H119710   5.622   6.908   4.930
 6589TIP3    H219711   5.583   6.990   4.809
 6590TIP3   OH219712   0.269   7.754   4.586
 6590TIP3    H119713   0.305   7.834   4.623
 6590TIP3    H219714   0.318   7.741   4.505
 6591TIP3   OH219715   3.420   2.606   6.358
 6591TIP3    H119716   3.368   2.626   6.280
 6591TIP3    H219717   3.465   2.524   6.336
 6592TIP3   OH219718   5.576   5.140   2.174
 6592TIP3    H119719   5.525   5.148   2.255
 6592TIP3    H219720   5.663   5.173   2.197
 6593TIP3   OH219721   6.933   1.261   2.159
 6593TIP3    H119722   6.905   1.310   2.082
 6593TIP3    H219723   6.951   1.328   2.225
 6594TIP3   OH219724   3.818   5.391   5.449
 6594TIP3    H119725   3.833   5.475   5.405
 6594TIP3    H219726   3.729   5.367   5.425
 6595TIP3   OH219727   3.504   5.879   0.213
 6595TIP3    H119728   3.554   5.840   0.141
 6595TIP3    H219729   3.418   5.898   0.175
 6596TIP3   OH219730   5.206   4.718   2.327
 6596TIP3    H119731   5.194   4.801   2.279
 6596TIP3    H219732   5.294   4.689   2.304
 6597TIP3   OH219733   3.259   6.936   1.757
 6597TIP3    H119734   3.207   6.984   1.693
 6597TIP3    H219735   3.212   6.948   1.840
 6598TIP3   OH219736   3.579   6.464   3.391
 6598TIP3    H119737   3.527   6.543   3.402
 6598TIP3    H219738   3.556   6.432   3.304
 6599TIP3   OH219739   2.006   7.412   1.226
 6599TIP3    H119740   1.946   7.466   1.278
 6599TIP3    H219741   1.950   7.369   1.161
 6600TIP3   OH219742   2.448   7.754   5.000
 6600TIP3    H119743   2.462   7.816   4.929
 6600TIP3    H219744   2.530   7.755   5.050
 6601TIP3   OH219745   7.124   5.165   0.264
 6601TIP3    H119746   7.218   5.145   0.260
 6601TIP3    H219747   7.086   5.093   0.315
 6602TIP3   OH219748   2.242   4.611   3.561
 6602TIP3    H119749   2.247   4.548   3.632
 6602TIP3    H219750   2.318   4.592   3.506
 6603TIP3   OH219751   7.687   6.743   6.613
 6603TIP3    H119752   7.769   6.785   6.588
 6603TIP3    H219753   7.709   6.649   6.618
 6604TIP3   OH219754   5.932   2.534   4.761
 6604TIP3    H119755   5.961   2.446   4.783
 6604TIP3    H219756   5.872   2.558   4.831
 6605TIP3   OH219757   1.557   5.099   5.378
 6605TIP3    H119758   1.513   5.148   5.308
 6605TIP3    H219759   1.487   5.083   5.442
 6606TIP3   OH219760   4.855   1.287   1.134
 6606TIP3    H119761   4.796   1.353   1.098
 6606TIP3    H219762   4.805   1.246   1.205
 6607TIP3   OH219763   4.901   3.337   1.490
 6607TIP3    H119764   4.953   3.327   1.410
 6607TIP3    H219765   4.965   3.358   1.557
 6608TIP3   OH219766   8.001   4.336   1.706
 6608TIP3    H119767   8.012   4.403   1.774
 6608TIP3    H219768   7.906   4.333   1.691
 6609TIP3   OH219769   2.415   2.200   1.900
 6609TIP3    H119770   2.351   2.161   1.958
 6609TIP3    H219771   2.363   2.250   1.836
 6610TIP3   OH219772   4.363   1.104   5.567
 6610TIP3    H119773   4.286   1.156   5.592
 6610TIP3    H219774   4.400   1.151   5.493
 6611TIP3   OH219775   1.704   6.563   5.655
 6611TIP3    H119776   1.717   6.495   5.721
 6611TIP3    H219777   1.686   6.515   5.574
 6612TIP3   OH219778   5.857   4.910   2.608
 6612TIP3    H119779   5.891   4.940   2.693
 6612TIP3    H219780   5.802   4.835   2.629
 6613TIP3   OH219781   7.298   2.053   0.426
 6613TIP3    H119782   7.243   2.052   0.505
 6613TIP3    H219783   7.373   1.997   0.448
 6614TIP3   OH219784   7.634   5.463   3.619
 6614TIP3    H119785   7.539   5.469   3.617
 6614TIP3    H219786   7.664   5.512   3.543
 6615TIP3   OH219787   0.497   5.206   4.543
 6615TIP3    H119788   0.463   5.186   4.456
 6615TIP3    H219789   0.420   5.199   4.601
 6616TIP3   OH219790   6.354   0.196   1.938
 6616TIP3    H119791   6.432   0.178   1.887
 6616TIP3    H219792   6.282   0.187   1.876
 6617TIP3   OH219793   7.003   2.360   4.156
 6617TIP3    H119794   7.029   2.288   4.214
 6617TIP3    H219795   6.909   2.371   4.174
 6618TIP3   OH219796   5.923   0.205   3.876
 6618TIP3    H119797   5.845   0.214   3.823
 6618TIP3    H219798   5.946   0.112   3.871
 6619TIP3   OH219799   6.375   3.102   6.636
 6619TIP3    H119800   6.457   3.053   6.631
 6619TIP3    H219801   6.314   3.043   6.681
 6620TIP3   OH219802   3.207   0.704   4.000
 6620TIP3    H119803   3.231   0.632   3.941
 6620TIP3    H219804   3.122   0.679   4.036
 6621TIP3   OH219805   6.940   3.546   5.919
 6621TIP3    H119806   6.944   3.472   5.858
 6621TIP3    H219807   6.871   3.523   5.980
 6622TIP3   OH219808   4.014   5.411   2.209
 6622TIP3    H119809   4.020   5.393   2.303
 6622TIP3    H219810   3.994   5.326   2.169
 6623TIP3   OH219811   6.563   5.472   1.949
 6623TIP3    H119812   6.554   5.540   2.016
 6623TIP3    H219813   6.570   5.390   1.999
 6624TIP3   OH219814   0.773   4.325   0.238
 6624TIP3    H119815   0.732   4.327   0.325
 6624TIP3    H219816   0.727   4.394   0.189
 6625TIP3   OH219817   7.930   2.200   5.948
 6625TIP3    H119818   7.931   2.148   6.028
 6625TIP3    H219819   7.838   2.209   5.926
 6626TIP3   OH219820   6.902   4.987   3.771
 6626TIP3    H119821   6.975   5.044   3.746
 6626TIP3    H219822   6.825   5.027   3.729
 6627TIP3   OH219823   6.519   1.834   6.348
 6627TIP3    H119824   6.509   1.902   6.414
 6627TIP3    H219825   6.522   1.881   6.265
 6628TIP3   OH219826   0.836   2.234   0.695
 6628TIP3    H119827   0.767   2.288   0.733
 6628TIP3    H219828   0.794   2.190   0.621
 6629TIP3   OH219829   0.512   3.548   2.356
 6629TIP3    H119830   0.524   3.483   2.425
 6629TIP3    H219831   0.418   3.563   2.352
 6630TIP3   OH219832   7.508   3.875   0.667
 6630TIP3    H119833   7.500   3.889   0.573
 6630TIP3    H219834   7.486   3.782   0.679
 6631TIP3   OH219835   5.803   7.741   5.875
 6631TIP3    H119836   5.764   7.823   5.845
 6631TIP3    H219837   5.776   7.734   5.967
 6632TIP3   OH219838   0.778   6.905   1.942
 6632TIP3    H119839   0.834   6.938   2.012
 6632TIP3    H219840   0.709   6.970   1.933
 6633TIP3   OH219841   0.515   6.183   0.469
 6633TIP3    H119842   0.540   6.115   0.408
 6633TIP3    H219843   0.595   6.235   0.482
 6634TIP3   OH219844   4.328   5.800   4.756
 6634TIP3    H119845   4.373   5.849   4.687
 6634TIP3    H219846   4.291   5.724   4.710
 6635TIP3   OH219847   3.551   6.592   2.480
 6635TIP3    H119848   3.515   6.651   2.414
 6635TIP3    H219849   3.641   6.621   2.492
 6636TIP3   OH219850   0.501   0.573   1.210
 6636TIP3    H119851   0.554   0.551   1.134
 6636TIP3    H219852   0.411   0.563   1.181
 6637TIP3   OH219853   2.122   1.700   2.325
 6637TIP3    H119854   2.166   1.717   2.408
 6637TIP3    H219855   2.063   1.627   2.343
 6638TIP3   OH219856   0.310   4.981   2.857
 6638TIP3    H119857   0.292   4.923   2.931
 6638TIP3    H219858   0.405   4.975   2.845
 6639TIP3   OH219859   2.029   3.647   3.273
 6639TIP3    H119860   1.965   3.576   3.277
 6639TIP3    H219861   2.111   3.606   3.299
 6640TIP3   OH219862   6.750   2.129   5.831
 6640TIP3    H119863   6.695   2.051   5.839
 6640TIP3    H219864   6.689   2.201   5.818
 6641TIP3   OH219865   0.893   4.911   0.258
 6641TIP3    H119866   0.842   4.892   0.180
 6641TIP3    H219867   0.922   5.002   0.247
 6642TIP3   OH219868   1.931   3.429   4.812
 6642TIP3    H119869   2.010   3.480   4.827
 6642TIP3    H219870   1.910   3.391   4.897
 6643TIP3   OH219871   6.138   0.706   2.171
 6643TIP3    H119872   6.149   0.794   2.135
 6643TIP3    H219873   6.123   0.650   2.095
 6644TIP3   OH219874   6.453   6.666   5.490
 6644TIP3    H119875   6.530   6.687   5.437
 6644TIP3    H219876   6.433   6.575   5.469
 6645TIP3   OH219877   5.629   2.670   0.615
 6645TIP3    H119878   5.674   2.754   0.602
 6645TIP3    H219879   5.538   2.689   0.595
 6646TIP3   OH219880   7.627   3.218   2.923
 6646TIP3    H119881   7.611   3.204   3.017
 6646TIP3    H219882   7.547   3.262   2.892
 6647TIP3   OH219883   7.846   5.215   6.616
 6647TIP3    H119884   7.844   5.197   6.710
 6647TIP3    H219885   7.918   5.277   6.605
 6648TIP3   OH219886   7.012   3.837   3.253
 6648TIP3    H119887   6.986   3.775   3.184
 6648TIP3    H219888   6.966   3.918   3.230
 6649TIP3   OH219889   6.598   7.128   0.051
 6649TIP3    H119890   6.587   7.036   0.026
 6649TIP3    H219891   6.554   7.177  -0.018
 6650TIP3   OH219892   1.956   3.115   5.213
 6650TIP3    H119893   2.041   3.139   5.250
 6650TIP3    H219894   1.973   3.101   5.120
 6651TIP3   OH219895   1.481   2.586   1.889
 6651TIP3    H119896   1.415   2.563   1.953
 6651TIP3    H219897   1.520   2.667   1.921
 6652TIP3   OH219898   0.449   6.996   4.005
 6652TIP3    H119899   0.469   6.929   4.072
 6652TIP3    H219900   0.499   6.968   3.928
 6653TIP3   OH219901   3.349   7.739   4.586
 6653TIP3    H119902   3.267   7.763   4.543
 6653TIP3    H219903   3.417   7.757   4.521
 6654TIP3   OH219904   3.475   5.451   3.067
 6654TIP3    H119905   3.533   5.459   2.991
 6654TIP3    H219906   3.498   5.367   3.106
 6655TIP3   OH219907   8.102   0.470   3.833
 6655TIP3    H119908   8.067   0.485   3.745
 6655TIP3    H219909   8.197   0.473   3.821
 6656TIP3   OH219910   5.039   1.814   3.965
 6656TIP3    H119911   5.104   1.746   3.985
 6656TIP3    H219912   4.996   1.831   4.049
 6657TIP3   OH219913   4.851   2.587   5.827
 6657TIP3    H119914   4.902   2.522   5.780
 6657TIP3    H219915   4.916   2.644   5.868
 6658TIP3   OH219916   8.104   0.908   0.721
 6658TIP3    H119917   8.064   0.955   0.794
 6658TIP3    H219918   8.137   0.827   0.760
 6659TIP3   OH219919   2.148   7.575   5.641
 6659TIP3    H119920   2.144   7.636   5.567
 6659TIP3    H219921   2.108   7.495   5.608
 6660TIP3   OH219922   5.715   6.353   1.982
 6660TIP3    H119923   5.684   6.264   1.963
 6660TIP3    H219924   5.799   6.340   2.026
 6661TIP3   OH219925   7.591   5.912   0.209
 6661TIP3    H119926   7.681   5.914   0.240
 6661TIP3    H219927   7.540   5.879   0.284
 6662TIP3   OH219928   3.368   5.112   0.673
 6662TIP3    H119929   3.310   5.065   0.613
 6662TIP3    H219930   3.441   5.051   0.687
 6663TIP3   OH219931   2.211   3.704   4.154
 6663TIP3    H119932   2.172   3.709   4.241
 6663TIP3    H219933   2.278   3.772   4.154
 6664TIP3   OH219934   1.157   0.030   0.689
 6664TIP3    H119935   1.091   0.089   0.728
 6664TIP3    H219936   1.115  -0.056   0.690
 6665TIP3   OH219937   6.290   3.332   2.810
 6665TIP3    H119938   6.317   3.423   2.800
 6665TIP3    H219939   6.213   3.336   2.867
 6666TIP3   OH219940   5.696   3.128   3.382
 6666TIP3    H119941   5.661   3.054   3.431
 6666TIP3    H219942   5.752   3.174   3.444
 6667TIP3   OH219943   5.117   6.915   3.454
 6667TIP3    H119944   5.055   6.985   3.433
 6667TIP3    H219945   5.199   6.942   3.412
 6668TIP3   OH219946   3.371   6.085   1.415
 6668TIP3    H119947   3.282   6.114   1.396
 6668TIP3    H219948   3.371   6.067   1.509
 6669TIP3   OH219949   7.796   4.770   0.635
 6669TIP3    H119950   7.795   4.780   0.539
 6669TIP3    H219951   7.857   4.697   0.650
 6670TIP3   OH219952   4.418   1.387   3.024
 6670TIP3    H119953   4.508   1.395   2.993
 6670TIP3    H219954   4.424   1.394   3.119
 6671TIP3   OH219955   7.519   7.044   0.994
 6671TIP3    H119956   7.568   7.125   1.006
 6671TIP3    H219957   7.530   6.997   1.077
 6672TIP3   OH219958   1.384   1.477   2.905
 6672TIP3    H119959   1.457   1.501   2.962
 6672TIP3    H219960   1.391   1.382   2.896
 6673TIP3   OH219961   0.026   2.966   4.828
 6673TIP3    H119962   0.012   2.938   4.918
 6673TIP3    H219963   0.106   3.019   4.832
 6674TIP3   OH219964   7.242   6.792   4.456
 6674TIP3    H119965   7.324   6.796   4.407
 6674TIP3    H219966   7.254   6.856   4.527
 6675TIP3   OH219967   3.090   6.438   4.622
 6675TIP3    H119968   3.170   6.407   4.579
 6675TIP3    H219969   3.116   6.454   4.712
 6676TIP3   OH219970   1.456   3.448   6.251
 6676TIP3    H119971   1.544   3.453   6.286
 6676TIP3    H219972   1.403   3.500   6.311
 6677TIP3   OH219973   2.948   6.616   5.492
 6677TIP3    H119974   3.032   6.570   5.492
 6677TIP3    H219975   2.900   6.578   5.565
 6678TIP3   OH219976   0.684   4.037   3.672
 6678TIP3    H119977   0.612   3.976   3.661
 6678TIP3    H219978   0.658   4.093   3.745
 6679TIP3   OH219979   4.048   1.787   5.679
 6679TIP3    H119980   4.122   1.800   5.738
 6679TIP3    H219981   4.053   1.859   5.616
 6680TIP3   OH219982   6.771   6.739   6.054
 6680TIP3    H119983   6.765   6.646   6.031
 6680TIP3    H219984   6.688   6.759   6.096
 6681TIP3   OH219985   5.099   1.963   2.980
 6681TIP3    H119986   5.044   2.033   2.945
 6681TIP3    H219987   5.048   1.928   3.054
 6682TIP3   OH219988   3.240   3.059   1.347
 6682TIP3    H119989   3.288   2.983   1.314
 6682TIP3    H219990   3.196   3.095   1.270
 6683TIP3   OH219991   0.563   6.598   6.306
 6683TIP3    H119992   0.652   6.583   6.276
 6683TIP3    H219993   0.513   6.523   6.272
 6684TIP3   OH219994   4.255   4.822   4.222
 6684TIP3    H119995   4.193   4.853   4.155
 6684TIP3    H219996   4.214   4.845   4.305
 6685TIP3   OH219997   2.415   3.757   5.131
 6685TIP3    H119998   2.382   3.668   5.149
 6685TIP3    H219999   2.474   3.775   5.204
 6686TIP3   OH220000   7.199   0.904   2.758
 6686TIP3    H120001   7.175   0.997   2.759
 6686TIP3    H220002   7.293   0.903   2.778
 6687TIP3   OH220003   3.858   1.691   0.275
 6687TIP3    H120004   3.829   1.741   0.199
 6687TIP3    H220005   3.953   1.688   0.267
 6688TIP3   OH220006   8.101   6.496   3.294
 6688TIP3    H120007   8.035   6.566   3.293
 6688TIP3    H220008   8.166   6.526   3.357
 6689TIP3   OH220009   7.358   0.948   3.763
 6689TIP3    H120010   7.404   0.867   3.739
 6689TIP3    H220011   7.266   0.930   3.743
 6690TIP3   OH220012   7.825   7.066   4.228
 6690TIP3    H120013   7.919   7.067   4.210
 6690TIP3    H220014   7.797   6.977   4.205
 6691TIP3   OH220015   0.642   4.558   1.121
 6691TIP3    H120016   0.575   4.490   1.128
 6691TIP3    H220017   0.664   4.559   1.027
 6692TIP3   OH220018   4.585   2.535   6.731
 6692TIP3    H120019   4.537   2.541   6.815
 6692TIP3    H220020   4.524   2.573   6.667
 6693TIP3   OH220021   2.754   5.923   6.169
 6693TIP3    H120022   2.780   6.006   6.209
 6693TIP3    H220023   2.778   5.933   6.077
 6694TIP3   OH220024   4.994   6.626   5.025
 6694TIP3    H120025   5.039   6.687   5.083
 6694TIP3    H220026   5.053   6.551   5.018
 6695TIP3   OH220027   6.199   1.937   2.965
 6695TIP3    H120028   6.137   1.867   2.987
 6695TIP3    H220029   6.170   2.011   3.018
 6696TIP3   OH220030   3.244   0.519   6.561
 6696TIP3    H120031   3.164   0.567   6.541
 6696TIP3    H220032   3.232   0.434   6.520
 6697TIP3   OH220033   1.983   1.536   4.140
 6697TIP3    H120034   1.936   1.453   4.150
 6697TIP3    H220035   2.046   1.519   4.069
 6698TIP3   OH220036   0.963   6.675   0.912
 6698TIP3    H120037   1.054   6.657   0.886
 6698TIP3    H220038   0.955   6.635   0.999
 6699TIP3   OH220039   3.034   2.949   0.601
 6699TIP3    H120040   2.991   2.871   0.637
 6699TIP3    H220041   2.965   3.015   0.600
 6700TIP3   OH220042   3.510   4.801   4.167
 6700TIP3    H120043   3.581   4.865   4.171
 6700TIP3    H220044   3.466   4.809   4.251
 6701TIP3   OH220045   1.148   2.704   5.187
 6701TIP3    H120046   1.214   2.702   5.256
 6701TIP3    H220047   1.135   2.612   5.163
 6702TIP3   OH220048   6.285   6.990   2.892
 6702TIP3    H120049   6.371   6.949   2.883
 6702TIP3    H220050   6.229   6.921   2.925
 6703TIP3   OH220051   7.779   1.715   5.371
 6703TIP3    H120052   7.744   1.791   5.325
 6703TIP3    H220053   7.707   1.651   5.368
 6704TIP3   OH220054   3.075   4.567   1.198
 6704TIP3    H120055   3.042   4.581   1.286
 6704TIP3    H220056   3.001   4.532   1.149
 6705TIP3   OH220057   0.369   3.703   5.691
 6705TIP3    H120058   0.346   3.740   5.777
 6705TIP3    H220059   0.459   3.670   5.702
 6706TIP3   OH220060   0.559   6.947   2.714
 6706TIP3    H120061   0.471   6.922   2.686
 6706TIP3    H220062   0.618   6.896   2.659
 6707TIP3   OH220063   4.955   4.037   2.818
 6707TIP3    H120064   4.957   4.007   2.728
 6707TIP3    H220065   5.041   4.014   2.853
 6708TIP3   OH220066   2.653   4.519   3.852
 6708TIP3    H120067   2.608   4.461   3.790
 6708TIP3    H220068   2.609   4.503   3.935
 6709TIP3   OH220069   6.874   5.751   4.299
 6709TIP3    H120070   6.878   5.697   4.220
 6709TIP3    H220071   6.784   5.784   4.302
 6710TIP3   OH220072   3.202   7.374   5.560
 6710TIP3    H120073   3.193   7.288   5.521
 6710TIP3    H220074   3.188   7.435   5.488
 6711TIP3   OH220075   6.931   3.906   4.337
 6711TIP3    H120076   6.984   3.940   4.409
 6711TIP3    H220077   6.858   3.967   4.330
 6712TIP3   OH220078   0.414   6.267   1.164
 6712TIP3    H120079   0.443   6.198   1.105
 6712TIP3    H220080   0.334   6.302   1.124
 6713TIP3   OH220081   6.947   2.094   2.995
 6713TIP3    H120082   6.877   2.116   3.057
 6713TIP3    H220083   7.023   2.143   3.026
 6714TIP3   OH220084   1.682   1.060   6.277
 6714TIP3    H120085   1.649   1.032   6.363
 6714TIP3    H220086   1.632   1.008   6.215
 6715TIP3   OH220087   3.518   2.103   6.632
 6715TIP3    H120088   3.509   2.170   6.700
 6715TIP3    H220089   3.601   2.060   6.652
 6716TIP3   OH220090   0.028   6.129   4.582
 6716TIP3    H120091   0.028   6.195   4.651
 6716TIP3    H220092   0.107   6.076   4.600
 6717TIP3   OH220093   8.219   2.918   5.076
 6717TIP3    H120094   8.256   2.989   5.129
 6717TIP3    H220095   8.125   2.936   5.076
 6718TIP3   OH220096   7.178   5.181   4.273
 6718TIP3    H120097   7.215   5.221   4.351
 6718TIP3    H220098   7.217   5.093   4.270
 6719TIP3   OH220099   3.837   3.564   4.262
 6719TIP3    H120100   3.760   3.614   4.289
 6719TIP3    H220101   3.898   3.572   4.335
 6720TIP3   OH220102   0.397   5.339   0.465
 6720TIP3    H120103   0.444   5.402   0.411
 6720TIP3    H220104   0.419   5.254   0.428
 6721TIP3   OH220105   2.757   3.791   3.287
 6721TIP3    H120106   2.826   3.729   3.263
 6721TIP3    H220107   2.742   3.842   3.207
 6722TIP3   OH220108   2.904   5.990   5.939
 6722TIP3    H120109   2.984   5.937   5.945
 6722TIP3    H220110   2.928   6.073   5.981
 6723TIP3   OH220111   5.593   0.121   0.597
 6723TIP3    H120112   5.684   0.142   0.577
 6723TIP3    H220113   5.597   0.059   0.670
 6724TIP3   OH220114   2.861   7.483   2.130
 6724TIP3    H120115   2.907   7.540   2.068
 6724TIP3    H220116   2.866   7.396   2.091
 6725TIP3   OH220117   5.188   1.770   1.739
 6725TIP3    H120118   5.121   1.817   1.689
 6725TIP3    H220119   5.161   1.678   1.734
 6726TIP3   OH220120   6.653   3.377   0.599
 6726TIP3    H120121   6.713   3.323   0.650
 6726TIP3    H220122   6.709   3.444   0.560
 6727TIP3   OH220123   2.602   7.081   5.699
 6727TIP3    H120124   2.577   7.038   5.781
 6727TIP3    H220125   2.524   7.077   5.644
 6728TIP3   OH220126   5.676   7.065   3.683
 6728TIP3    H120127   5.740   7.065   3.612
 6728TIP3    H220128   5.725   7.097   3.759
 6729TIP3   OH220129   1.384   4.303   6.274
 6729TIP3    H120130   1.436   4.227   6.247
 6729TIP3    H220131   1.329   4.323   6.199
 6730TIP3   OH220132   7.444   1.829   5.421
 6730TIP3    H120133   7.385   1.880   5.477
 6730TIP3    H220134   7.385   1.773   5.370
 6731TIP3   OH220135   2.567   5.726   3.791
 6731TIP3    H120136   2.607   5.799   3.839
 6731TIP3    H220137   2.638   5.690   3.738
 6732TIP3   OH220138   0.106   2.468   1.719
 6732TIP3    H120139   0.055   2.543   1.687
 6732TIP3    H220140   0.197   2.498   1.713
 6733TIP3   OH220141   5.070   1.021   5.303
 6733TIP3    H120142   5.027   0.936   5.289
 6733TIP3    H220143   5.160   0.998   5.324
 6734TIP3   OH220144   3.496   1.461   1.156
 6734TIP3    H120145   3.485   1.458   1.061
 6734TIP3    H220146   3.409   1.445   1.192
 6735TIP3   OH220147   6.681   6.276   6.720
 6735TIP3    H120148   6.748   6.224   6.676
 6735TIP3    H220149   6.613   6.212   6.743
 6736TIP3   OH220150   7.095   2.644   1.744
 6736TIP3    H120151   7.020   2.704   1.733
 6736TIP3    H220152   7.156   2.671   1.675
 6737TIP3   OH220153   6.553   1.705   5.672
 6737TIP3    H120154   6.639   1.690   5.711
 6737TIP3    H220155   6.563   1.676   5.581
 6738TIP3   OH220156   2.355   6.461   3.257
 6738TIP3    H120157   2.366   6.538   3.314
 6738TIP3    H220158   2.379   6.492   3.170
 6739TIP3   OH220159   3.081   7.797   6.756
 6739TIP3    H120160   3.163   7.813   6.709
 6739TIP3    H220161   3.088   7.706   6.785
 6740TIP3   OH220162   0.669   1.479   4.591
 6740TIP3    H120163   0.716   1.398   4.613
 6740TIP3    H220164   0.584   1.470   4.632
 6741TIP3   OH220165   4.829   5.727   4.600
 6741TIP3    H120166   4.794   5.784   4.531
 6741TIP3    H220167   4.812   5.775   4.681
 6742TIP3   OH220168  -0.031   3.510   3.046
 6742TIP3    H120169   0.064   3.508   3.056
 6742TIP3    H220170  -0.064   3.468   3.126
 6743TIP3   OH220171   0.389   0.441   0.432
 6743TIP3    H120172   0.356   0.356   0.460
 6743TIP3    H220173   0.418   0.483   0.513
 6744TIP3   OH220174   5.511   3.996   2.956
 6744TIP3    H120175   5.492   3.921   2.900
 6744TIP3    H220176   5.547   3.957   3.036
 6745TIP3   OH220177   5.157   4.242   3.371
 6745TIP3    H120178   5.201   4.285   3.297
 6745TIP3    H220179   5.064   4.259   3.356
 6746TIP3   OH220180   1.154   3.097   4.551
 6746TIP3    H120181   1.098   3.046   4.609
 6746TIP3    H220182   1.241   3.091   4.590
 6747TIP3   OH220183   1.126   1.768   1.890
 6747TIP3    H120184   1.046   1.818   1.903
 6747TIP3    H220185   1.186   1.829   1.847
 6748TIP3   OH220186   3.765   0.653   1.214
 6748TIP3    H120187   3.705   0.591   1.172
 6748TIP3    H220188   3.826   0.598   1.262
 6749TIP3   OH220189   7.896   4.309   0.122
 6749TIP3    H120190   7.825   4.261   0.165
 6749TIP3    H220191   7.928   4.370   0.189
 6750TIP3   OH220192   6.348   3.488   5.352
 6750TIP3    H120193   6.435   3.503   5.389
 6750TIP3    H220194   6.290   3.492   5.428
 6751TIP3   OH220195   5.360   4.975   2.967
 6751TIP3    H120196   5.403   4.947   3.048
 6751TIP3    H220197   5.278   5.014   2.995
 6752TIP3   OH220198   1.480   2.454   4.084
 6752TIP3    H120199   1.527   2.390   4.137
 6752TIP3    H220200   1.485   2.419   3.995
 6753TIP3   OH220201   4.022   3.671   1.329
 6753TIP3    H120202   4.037   3.764   1.348
 6753TIP3    H220203   4.110   3.637   1.312
 6754TIP3   OH220204   8.227   2.524   4.872
 6754TIP3    H120205   8.275   2.590   4.821
 6754TIP3    H220206   8.262   2.532   4.961
 6755TIP3   OH220207   3.415   6.886   5.088
 6755TIP3    H120208   3.501   6.851   5.065
 6755TIP3    H220209   3.408   6.967   5.037
 6756TIP3   OH220210   5.122   2.121   1.370
 6756TIP3    H120211   5.033   2.127   1.334
 6756TIP3    H220212   5.137   2.207   1.408
 6757TIP3   OH220213   3.184   0.323   0.472
 6757TIP3    H120214   3.197   0.349   0.381
 6757TIP3    H220215   3.171   0.405   0.519
 6758TIP3   OH220216   6.900   4.789   0.041
 6758TIP3    H120217   6.972   4.763   0.098
 6758TIP3    H220218   6.895   4.884   0.050
 6759TIP3   OH220219   6.000   7.514   1.536
 6759TIP3    H120220   5.968   7.542   1.622
 6759TIP3    H220221   6.058   7.440   1.555
 6760TIP3   OH220222   6.089   3.920   0.684
 6760TIP3    H120223   6.038   3.980   0.630
 6760TIP3    H220224   6.152   3.880   0.624
 6761TIP3   OH220225   3.061   5.734   0.422
 6761TIP3    H120226   3.072   5.647   0.460
 6761TIP3    H220227   2.979   5.766   0.460
 6762TIP3   OH220228   8.059   7.779   4.344
 6762TIP3    H120229   8.038   7.799   4.435
 6762TIP3    H220230   7.977   7.797   4.297
 6763TIP3   OH220231   4.110   1.380   2.340
 6763TIP3    H120232   4.136   1.457   2.391
 6763TIP3    H220233   4.165   1.309   2.375
 6764TIP3   OH220234   1.158   3.812   3.535
 6764TIP3    H120235   1.212   3.891   3.535
 6764TIP3    H220236   1.089   3.831   3.598
 6765TIP3   OH220237   6.518   3.482   1.976
 6765TIP3    H120238   6.483   3.455   2.060
 6765TIP3    H220239   6.512   3.578   1.977
 6766TIP3   OH220240   5.943   7.657   6.585
 6766TIP3    H120241   5.883   7.698   6.648
 6766TIP3    H220242   5.950   7.722   6.514
 6767TIP3   OH220243   0.578   1.993   2.626
 6767TIP3    H120244   0.530   2.068   2.591
 6767TIP3    H220245   0.590   2.013   2.719
 6768TIP3   OH220246   0.027   1.927   5.807
 6768TIP3    H120247  -0.018   1.875   5.741
 6768TIP3    H220248   0.060   2.003   5.760
 6769TIP3   OH220249   8.250   5.622   6.442
 6769TIP3    H120250   8.257   5.604   6.536
 6769TIP3    H220251   8.270   5.538   6.400
 6770TIP3   OH220252   0.550   1.390   1.752
 6770TIP3    H120253   0.517   1.476   1.778
 6770TIP3    H220254   0.611   1.407   1.680
 6771TIP3   OH220255   4.379   3.022   1.906
 6771TIP3    H120256   4.363   3.011   1.999
 6771TIP3    H220257   4.351   2.940   1.866
 6772TIP3   OH220258   2.946   0.530   6.239
 6772TIP3    H120259   2.955   0.473   6.315
 6772TIP3    H220260   2.961   0.618   6.273
 6773TIP3   OH220261   5.538   2.744   6.203
 6773TIP3    H120262   5.482   2.704   6.270
 6773TIP3    H220263   5.488   2.736   6.122
 6774TIP3   OH220264   0.993   4.057   0.819
 6774TIP3    H120265   0.991   4.018   0.732
 6774TIP3    H220266   0.906   4.095   0.831
 6775TIP3   OH220267   3.512   2.264   2.920
 6775TIP3    H120268   3.492   2.283   3.012
 6775TIP3    H220269   3.608   2.258   2.918
 6776TIP3   OH220270   6.955   7.786   1.472
 6776TIP3    H120271   6.919   7.823   1.392
 6776TIP3    H220272   6.881   7.780   1.532
 6777TIP3   OH220273   6.854   6.965   5.094
 6777TIP3    H120274   6.790   6.894   5.095
 6777TIP3    H220275   6.818   7.030   5.154
 6778TIP3   OH220276   4.924   1.876   1.039
 6778TIP3    H120277   4.845   1.845   0.996
 6778TIP3    H220278   4.991   1.875   0.971
 6779TIP3   OH220279   5.946   2.450   0.852
 6779TIP3    H120280   5.956   2.382   0.919
 6779TIP3    H220281   6.018   2.436   0.791
 6780TIP3   OH220282   0.641   3.331   1.236
 6780TIP3    H120283   0.653   3.242   1.203
 6780TIP3    H220284   0.548   3.336   1.258
 6781TIP3   OH220285   2.160   4.346   1.676
 6781TIP3    H120286   2.204   4.388   1.750
 6781TIP3    H220287   2.068   4.341   1.702
 6782TIP3   OH220288   6.142   4.868   0.892
 6782TIP3    H120289   6.111   4.818   0.818
 6782TIP3    H220290   6.207   4.929   0.855
 6783TIP3   OH220291   7.068   7.349   4.565
 6783TIP3    H120292   7.157   7.345   4.598
 6783TIP3    H220293   7.018   7.388   4.637
 6784TIP3   OH220294   1.152   1.623   4.919
 6784TIP3    H120295   1.185   1.624   5.009
 6784TIP3    H220296   1.227   1.646   4.865
 6785TIP3   OH220297   6.436   1.030   1.982
 6785TIP3    H120298   6.523   1.043   2.019
 6785TIP3    H220299   6.440   0.946   1.937
 6786TIP3   OH220300   5.364   5.974   4.959
 6786TIP3    H120301   5.289   6.003   5.011
 6786TIP3    H220302   5.341   5.997   4.869
 6787TIP3   OH220303   0.694   1.272   2.525
 6787TIP3    H120304   0.668   1.236   2.441
 6787TIP3    H220305   0.780   1.232   2.543
 6788TIP3   OH220306   5.103   7.560   1.899
 6788TIP3    H120307   5.110   7.609   1.981
 6788TIP3    H220308   5.175   7.594   1.845
 6789TIP3   OH220309   4.264   7.184   4.220
 6789TIP3    H120310   4.353   7.170   4.253
 6789TIP3    H220311   4.207   7.144   4.286
 6790TIP3   OH220312   3.519   4.870   6.306
 6790TIP3    H120313   3.498   4.957   6.340
 6790TIP3    H220314   3.495   4.811   6.376
 6791TIP3   OH220315   5.510   1.082   3.295
 6791TIP3    H120316   5.584   1.022   3.285
 6791TIP3    H220317   5.468   1.083   3.209
 6792TIP3   OH220318   5.394   2.424   6.050
 6792TIP3    H120319   5.446   2.425   6.130
 6792TIP3    H220320   5.436   2.357   5.995
 6793TIP3   OH220321   4.737   0.042   3.892
 6793TIP3    H120322   4.768  -0.045   3.867
 6793TIP3    H220323   4.752   0.047   3.986
 6794TIP3   OH220324   3.309   6.819   2.753
 6794TIP3    H120325   3.278   6.857   2.835
 6794TIP3    H220326   3.242   6.844   2.688
 6795TIP3   OH220327   3.999   4.438   2.905
 6795TIP3    H120328   3.999   4.469   2.995
 6795TIP3    H220329   3.922   4.380   2.900
 6796TIP3   OH220330   1.966   6.138   1.494
 6796TIP3    H120331   1.997   6.138   1.585
 6796TIP3    H220332   2.006   6.060   1.455
 6797TIP3   OH220333   1.087   5.793   5.305
 6797TIP3    H120334   1.132   5.712   5.331
 6797TIP3    H220335   1.043   5.823   5.384
 6798TIP3   OH220336   0.230   3.414   6.717
 6798TIP3    H120337   0.325   3.416   6.725
 6798TIP3    H220338   0.199   3.394   6.805
 6799TIP3   OH220339   5.174   7.214   1.734
 6799TIP3    H120340   5.114   7.270   1.784
 6799TIP3    H220341   5.118   7.172   1.668
 6800TIP3   OH220342   7.649   7.209   2.855
 6800TIP3    H120343   7.598   7.185   2.777
 6800TIP3    H220344   7.740   7.196   2.830
 6801TIP3   OH220345   0.770   5.945   6.716
 6801TIP3    H120346   0.703   5.970   6.653
 6801TIP3    H220347   0.800   6.027   6.754
 6802TIP3   OH220348   6.389   7.288   0.973
 6802TIP3    H120349   6.382   7.237   0.892
 6802TIP3    H220350   6.311   7.263   1.024
 6803TIP3   OH220351   7.198   4.796   1.898
 6803TIP3    H120352   7.262   4.850   1.944
 6803TIP3    H220353   7.248   4.755   1.827
 6804TIP3   OH220354   3.379  -0.017   4.528
 6804TIP3    H120355   3.431   0.061   4.507
 6804TIP3    H220356   3.293   0.018   4.551
 6805TIP3   OH220357   4.695   2.603   3.003
 6805TIP3    H120358   4.663   2.661   2.935
 6805TIP3    H220359   4.731   2.661   3.070
 6806TIP3   OH220360   8.085   2.002   1.287
 6806TIP3    H120361   8.148   2.068   1.259
 6806TIP3    H220362   8.136   1.942   1.342
 6807TIP3   OH220363   7.232   1.063   4.876
 6807TIP3    H120364   7.170   1.123   4.916
 6807TIP3    H220365   7.296   1.119   4.833
 6808TIP3   OH220366   2.137   7.309   2.563
 6808TIP3    H120367   2.208   7.337   2.506
 6808TIP3    H220368   2.161   7.342   2.650
 6809TIP3   OH220369   0.722   6.048   1.984
 6809TIP3    H120370   0.802   5.996   1.998
 6809TIP3    H220371   0.672   6.037   2.065
 6810TIP3   OH220372   1.735   2.272   2.352
 6810TIP3    H120373   1.689   2.326   2.287
 6810TIP3    H220374   1.814   2.321   2.373
 6811TIP3   OH220375   7.419   3.229   5.383
 6811TIP3    H120376   7.406   3.139   5.354
 6811TIP3    H220377   7.347   3.245   5.445
 6812TIP3   OH220378   6.704   3.776   5.874
 6812TIP3    H120379   6.797   3.797   5.864
 6812TIP3    H220380   6.685   3.788   5.967
 6813TIP3   OH220381   5.372   7.359   4.202
 6813TIP3    H120382   5.342   7.309   4.278
 6813TIP3    H220383   5.339   7.447   4.217
 6814TIP3   OH220384   0.260   2.746   2.306
 6814TIP3    H120385   0.288   2.670   2.357
 6814TIP3    H220386   0.323   2.815   2.329
 6815TIP3   OH220387   7.105   5.932   2.350
 6815TIP3    H120388   7.136   5.869   2.415
 6815TIP3    H220389   7.178   5.940   2.289
 6816TIP3   OH220390   6.280   7.645   6.640
 6816TIP3    H120391   6.222   7.643   6.563
 6816TIP3    H220392   6.221   7.664   6.713
 6817TIP3   OH220393   6.839   7.231   0.067
 6817TIP3    H120394   6.749   7.198   0.063
 6817TIP3    H220395   6.879   7.183   0.139
 6818TIP3   OH220396   7.120   1.055   5.610
 6818TIP3    H120397   7.145   1.041   5.518
 6818TIP3    H220398   7.032   1.017   5.616
 6819TIP3   OH220399   3.911   0.667   6.140
 6819TIP3    H120400   3.919   0.623   6.225
 6819TIP3    H220401   3.831   0.632   6.102
 6820TIP3   OH220402   0.352   1.940   2.278
 6820TIP3    H120403   0.376   1.939   2.185
 6820TIP3    H220404   0.345   1.848   2.301
 6821TIP3   OH220405   6.565   4.403   3.728
 6821TIP3    H120406   6.543   4.471   3.791
 6821TIP3    H220407   6.538   4.321   3.770
 6822TIP3   OH220408   1.596   3.587   4.268
 6822TIP3    H120409   1.547   3.636   4.201
 6822TIP3    H220410   1.595   3.496   4.237
 6823TIP3   OH220411   3.475   4.352   5.170
 6823TIP3    H120412   3.481   4.372   5.077
 6823TIP3    H220413   3.428   4.268   5.173
 6824TIP3   OH220414   3.278   5.347   6.387
 6824TIP3    H120415   3.192   5.337   6.429
 6824TIP3    H220416   3.332   5.391   6.453
 6825TIP3   OH220417   2.068   4.530   3.864
 6825TIP3    H120418   2.059   4.625   3.855
 6825TIP3    H220419   2.161   4.517   3.883
 6826TIP3   OH220420   4.401   6.842   5.524
 6826TIP3    H120421   4.306   6.845   5.521
 6826TIP3    H220422   4.426   6.789   5.448
 6827TIP3   OH220423   3.007   2.181   5.269
 6827TIP3    H120424   3.005   2.090   5.242
 6827TIP3    H220425   2.915   2.204   5.283
 6828TIP3   OH220426   3.010   2.200   1.159
 6828TIP3    H120427   3.030   2.110   1.186
 6828TIP3    H220428   2.920   2.196   1.127
 6829TIP3   OH220429   1.830   0.847   0.143
 6829TIP3    H120430   1.808   0.873   0.232
 6829TIP3    H220431   1.808   0.923   0.089
 6830TIP3   OH220432   2.346   3.270   5.740
 6830TIP3    H120433   2.387   3.232   5.817
 6830TIP3    H220434   2.256   3.287   5.766
 6831TIP3   OH220435   3.059   5.608   1.053
 6831TIP3    H120436   3.027   5.695   1.076
 6831TIP3    H220437   3.067   5.610   0.957
 6832TIP3   OH220438   3.414   2.796   1.911
 6832TIP3    H120439   3.385   2.711   1.877
 6832TIP3    H220440   3.434   2.847   1.833
 6833TIP3   OH220441   4.847   5.403   0.186
 6833TIP3    H120442   4.900   5.470   0.141
 6833TIP3    H220443   4.757   5.421   0.157
 6834TIP3   OH220444   7.682   6.117   2.571
 6834TIP3    H120445   7.737   6.127   2.648
 6834TIP3    H220446   7.646   6.028   2.577
 6835TIP3   OH220447   4.842   0.625   6.450
 6835TIP3    H120448   4.872   0.559   6.387
 6835TIP3    H220449   4.844   0.580   6.535
 6836TIP3   OH220450   0.710   4.199   2.875
 6836TIP3    H120451   0.691   4.210   2.782
 6836TIP3    H220452   0.805   4.197   2.881
 6837TIP3   OH220453   5.173   1.476   2.972
 6837TIP3    H120454   5.155   1.545   2.909
 6837TIP3    H220455   5.102   1.413   2.960
 6838TIP3   OH220456   6.833   3.631   4.879
 6838TIP3    H120457   6.757   3.630   4.821
 6838TIP3    H220458   6.888   3.702   4.846
 6839TIP3   OH220459   3.704   2.047   1.127
 6839TIP3    H120460   3.678   1.964   1.088
 6839TIP3    H220461   3.675   2.113   1.065
 6840TIP3   OH220462   4.397   4.034   2.802
 6840TIP3    H120463   4.403   3.941   2.825
 6840TIP3    H220464   4.330   4.037   2.734
 6841TIP3   OH220465   5.620   3.275   0.312
 6841TIP3    H120466   5.543   3.331   0.328
 6841TIP3    H220467   5.606   3.199   0.369
 6842TIP3   OH220468   0.281   6.381   2.229
 6842TIP3    H120469   0.345   6.451   2.244
 6842TIP3    H220470   0.333   6.310   2.191
 6843TIP3   OH220471   0.835   6.271   0.850
 6843TIP3    H120472   0.873   6.302   0.932
 6843TIP3    H220473   0.753   6.319   0.842
 6844TIP3   OH220474   6.344   7.571   0.987
 6844TIP3    H120475   6.372   7.480   0.979
 6844TIP3    H220476   6.309   7.593   0.900
 6845TIP3   OH220477   0.460   6.813   1.317
 6845TIP3    H120478   0.367   6.834   1.319
 6845TIP3    H220479   0.504   6.898   1.305
 6846TIP3   OH220480   8.200   6.672   6.558
 6846TIP3    H120481   8.227   6.750   6.509
 6846TIP3    H220482   8.283   6.632   6.586
 6847TIP3   OH220483   2.555   2.365   4.330
 6847TIP3    H120484   2.584   2.456   4.323
 6847TIP3    H220485   2.628   2.321   4.374
 6848TIP3   OH220486   3.869   5.453   1.245
 6848TIP3    H120487   3.820   5.468   1.326
 6848TIP3    H220488   3.870   5.539   1.202
 6849TIP3   OH220489   2.708   3.629   5.425
 6849TIP3    H120490   2.777   3.569   5.453
 6849TIP3    H220491   2.693   3.607   5.333
 6850TIP3   OH220492   0.135   0.749   1.999
 6850TIP3    H120493   0.170   0.685   1.936
 6850TIP3    H220494   0.171   0.833   1.970
 6851TIP3   OH220495   4.187   5.880   3.091
 6851TIP3    H120496   4.117   5.895   3.154
 6851TIP3    H220497   4.256   5.941   3.117
 6852TIP3   OH220498   8.137   7.050   0.610
 6852TIP3    H120499   8.086   7.060   0.530
 6852TIP3    H220500   8.112   7.126   0.663
 6853TIP3   OH220501   5.940   6.269   2.233
 6853TIP3    H120502   5.971   6.183   2.261
 6853TIP3    H220503   5.866   6.288   2.290
 6854TIP3   OH220504   4.712   2.731   3.422
 6854TIP3    H120505   4.739   2.815   3.459
 6854TIP3    H220506   4.757   2.666   3.475
 6855TIP3   OH220507   0.448   6.178   3.491
 6855TIP3    H120508   0.394   6.192   3.568
 6855TIP3    H220509   0.509   6.109   3.516
 6856TIP3   OH220510   7.124   4.749   5.091
 6856TIP3    H120511   7.090   4.736   5.179
 6856TIP3    H220512   7.121   4.661   5.052
 6857TIP3   OH220513   1.442   2.741   0.969
 6857TIP3    H120514   1.503   2.750   0.896
 6857TIP3    H220515   1.380   2.812   0.957
 6858TIP3   OH220516   3.306   1.847   4.550
 6858TIP3    H120517   3.236   1.786   4.572
 6858TIP3    H220518   3.262   1.925   4.517
 6859TIP3   OH220519   3.496   3.369   5.238
 6859TIP3    H120520   3.477   3.288   5.286
 6859TIP3    H220521   3.414   3.389   5.191
 6860TIP3   OH220522   2.989   5.515   0.781
 6860TIP3    H120523   2.914   5.541   0.728
 6860TIP3    H220524   2.950   5.471   0.857
 6861TIP3   OH220525   7.764   6.387   5.843
 6861TIP3    H120526   7.767   6.356   5.934
 6861TIP3    H220527   7.815   6.468   5.844
 6862TIP3   OH220528   2.928   0.629   6.757
 6862TIP3    H120529   2.902   0.588   6.839
 6862TIP3    H220530   2.865   0.701   6.745
 6863TIP3   OH220531   6.245   6.683   6.676
 6863TIP3    H120532   6.294   6.624   6.733
 6863TIP3    H220533   6.157   6.646   6.673
 6864TIP3   OH220534   0.723   3.038   0.491
 6864TIP3    H120535   0.757   3.038   0.581
 6864TIP3    H220536   0.630   3.058   0.501
 6865TIP3   OH220537   3.448   7.523   1.336
 6865TIP3    H120538   3.385   7.517   1.264
 6865TIP3    H220539   3.482   7.612   1.330
 6866TIP3   OH220540   0.616   0.481   1.783
 6866TIP3    H120541   0.667   0.412   1.826
 6866TIP3    H220542   0.586   0.441   1.702
 6867TIP3   OH220543   1.231   4.157   0.735
 6867TIP3    H120544   1.258   4.123   0.649
 6867TIP3    H220545   1.170   4.092   0.768
 6868TIP3   OH220546   2.637   1.513   5.691
 6868TIP3    H120547   2.651   1.469   5.775
 6868TIP3    H220548   2.719   1.559   5.673
 6869TIP3   OH220549   2.144   3.983   0.837
 6869TIP3    H120550   2.086   4.059   0.845
 6869TIP3    H220551   2.084   3.909   0.822
 6870TIP3   OH220552   5.217   0.107   4.773
 6870TIP3    H120553   5.298   0.056   4.768
 6870TIP3    H220554   5.175   0.093   4.688
 6871TIP3   OH220555   4.827   5.277   5.974
 6871TIP3    H120556   4.750   5.239   6.017
 6871TIP3    H220557   4.872   5.326   6.044
 6872TIP3   OH220558   1.202   3.088   0.410
 6872TIP3    H120559   1.172   3.154   0.473
 6872TIP3    H220560   1.282   3.124   0.373
 6873TIP3   OH220561   4.193   1.538   0.368
 6873TIP3    H120562   4.179   1.470   0.434
 6873TIP3    H220563   4.253   1.600   0.410
 6874TIP3   OH220564   7.624   6.635   0.847
 6874TIP3    H120565   7.622   6.577   0.771
 6874TIP3    H220566   7.671   6.585   0.915
 6875TIP3   OH220567   0.846   3.736   6.517
 6875TIP3    H120568   0.848   3.675   6.591
 6875TIP3    H220569   0.878   3.684   6.443
 6876TIP3   OH220570   4.138   0.515   6.065
 6876TIP3    H120571   4.095   0.441   6.109
 6876TIP3    H220572   4.069   0.580   6.054
 6877TIP3   OH220573   7.989   0.779   0.332
 6877TIP3    H120574   7.896   0.764   0.351
 6877TIP3    H220575   8.012   0.711   0.269
 6878TIP3   OH220576   4.965   7.155   3.411
 6878TIP3    H120577   4.911   7.218   3.363
 6878TIP3    H220578   5.002   7.206   3.483
 6879TIP3   OH220579   5.528   3.741   1.091
 6879TIP3    H120580   5.572   3.682   1.152
 6879TIP3    H220581   5.500   3.815   1.145
 6880TIP3   OH220582   0.739   7.287   4.185
 6880TIP3    H120583   0.786   7.370   4.175
 6880TIP3    H220584   0.733   7.274   4.280
 6881TIP3   OH220585   0.331   3.027   4.515
 6881TIP3    H120586   0.292   3.114   4.510
 6881TIP3    H220587   0.276   2.973   4.458
 6882TIP3   OH220588   4.595   2.573   0.625
 6882TIP3    H120589   4.516   2.604   0.580
 6882TIP3    H220590   4.606   2.483   0.595
 6883TIP3   OH220591   4.607   4.232   6.739
 6883TIP3    H120592   4.541   4.184   6.689
 6883TIP3    H220593   4.573   4.322   6.742
 6884TIP3   OH220594   5.724   0.339   4.360
 6884TIP3    H120595   5.636   0.301   4.365
 6884TIP3    H220596   5.746   0.361   4.450
 6885TIP3   OH220597   6.107   1.668   6.170
 6885TIP3    H120598   6.044   1.739   6.178
 6885TIP3    H220599   6.189   1.711   6.143
 6886TIP3   OH220600   6.881   3.674   3.066
 6886TIP3    H120601   6.869   3.592   3.115
 6886TIP3    H220602   6.944   3.652   2.997
 6887TIP3   OH220603   4.135   5.710   4.279
 6887TIP3    H120604   4.111   5.754   4.197
 6887TIP3    H220605   4.064   5.731   4.340
 6888TIP3   OH220606   5.672   6.620   1.959
 6888TIP3    H120607   5.618   6.649   2.033
 6888TIP3    H220608   5.696   6.530   1.982
 6889TIP3   OH220609   3.130   2.743   3.141
 6889TIP3    H120610   3.213   2.769   3.182
 6889TIP3    H220611   3.125   2.798   3.062
 6890TIP3   OH220612   6.300   2.358   3.942
 6890TIP3    H120613   6.225   2.360   4.001
 6890TIP3    H220614   6.371   2.399   3.992
 6891TIP3   OH220615   0.834   6.515   6.284
 6891TIP3    H120616   0.846   6.489   6.192
 6891TIP3    H220617   0.923   6.534   6.315
 6892TIP3   OH220618   0.427   1.246   4.463
 6892TIP3    H120619   0.484   1.308   4.418
 6892TIP3    H220620   0.422   1.278   4.553
 6893TIP3   OH220621   8.127   4.152   0.381
 6893TIP3    H120622   8.129   4.139   0.286
 6893TIP3    H220623   8.215   4.128   0.411
 6894TIP3   OH220624   0.575   0.858   2.303
 6894TIP3    H120625   0.501   0.835   2.359
 6894TIP3    H220626   0.639   0.788   2.320
 6895TIP3   OH220627   4.420   2.788   4.559
 6895TIP3    H120628   4.329   2.792   4.589
 6895TIP3    H220629   4.414   2.756   4.469
 6896TIP3   OH220630   1.049   6.697   3.191
 6896TIP3    H120631   1.107   6.623   3.174
 6896TIP3    H220632   0.990   6.666   3.260
 6897TIP3   OH220633   6.570   7.623   0.760
 6897TIP3    H120634   6.478   7.609   0.738
 6897TIP3    H220635   6.609   7.536   0.756
 6898TIP3   OH220636   1.647   0.782   1.719
 6898TIP3    H120637   1.581   0.766   1.651
 6898TIP3    H220638   1.597   0.786   1.800
 6899TIP3   OH220639   8.257   2.037   2.237
 6899TIP3    H120640   8.319   2.108   2.223
 6899TIP3    H220641   8.189   2.052   2.171
 6900TIP3   OH220642   4.200   0.724   6.587
 6900TIP3    H120643   4.139   0.767   6.646
 6900TIP3    H220644   4.176   0.757   6.500
 6901TIP3   OH220645   4.541   0.708   6.423
 6901TIP3    H120646   4.599   0.634   6.440
 6901TIP3    H220647   4.523   0.744   6.510
 6902TIP3   OH220648   7.985   5.961   2.647
 6902TIP3    H120649   7.975   5.958   2.742
 6902TIP3    H220650   7.964   6.051   2.624
 6903TIP3   OH220651   7.302   0.772   1.837
 6903TIP3    H120652   7.342   0.857   1.819
 6903TIP3    H220653   7.222   0.771   1.785
 6904TIP3   OH220654   3.069   2.061   6.129
 6904TIP3    H120655   3.161   2.084   6.114
 6904TIP3    H220656   3.072   1.967   6.150
 6905TIP3   OH220657   2.935   0.898   1.036
 6905TIP3    H120658   2.861   0.942   0.996
 6905TIP3    H220659   3.009   0.917   0.978
 6906TIP3   OH220660   7.703   6.682   3.498
 6906TIP3    H120661   7.723   6.766   3.538
 6906TIP3    H220662   7.685   6.623   3.572
 6907TIP3   OH220663   5.751   3.145   2.820
 6907TIP3    H120664   5.730   3.235   2.841
 6907TIP3    H220665   5.690   3.093   2.872
 6908TIP3   OH220666   1.713   4.238   0.604
 6908TIP3    H120667   1.706   4.151   0.563
 6908TIP3    H220668   1.623   4.268   0.612
 6909TIP3   OH220669   5.476   0.457   6.417
 6909TIP3    H120670   5.552   0.406   6.446
 6909TIP3    H220671   5.502   0.489   6.330
 6910TIP3   OH220672   4.593   5.443   2.686
 6910TIP3    H120673   4.524   5.425   2.621
 6910TIP3    H220674   4.548   5.441   2.770
 6911TIP3   OH220675   0.584   4.329   0.652
 6911TIP3    H120676   0.570   4.379   0.572
 6911TIP3    H220677   0.499   4.330   0.696
 6912TIP3   OH220678   4.028   4.070   3.346
 6912TIP3    H120679   4.022   3.988   3.297
 6912TIP3    H220680   4.087   4.051   3.418
 6913TIP3   OH220681   5.589   6.819   6.810
 6913TIP3    H120682   5.545   6.780   6.734
 6913TIP3    H220683   5.566   6.912   6.807
 6914TIP3   OH220684   6.413   7.477   5.721
 6914TIP3    H120685   6.344   7.443   5.779
 6914TIP3    H220686   6.490   7.485   5.778
 6915TIP3   OH220687   6.669   6.319   2.713
 6915TIP3    H120688   6.719   6.351   2.637
 6915TIP3    H220689   6.578   6.330   2.687
 6916TIP3   OH220690   6.496   3.119   1.422
 6916TIP3    H120691   6.493   3.024   1.423
 6916TIP3    H220692   6.567   3.141   1.362
 6917TIP3   OH220693   6.059   4.044   1.683
 6917TIP3    H120694   6.094   3.980   1.746
 6917TIP3    H220695   5.991   4.091   1.732
 6918TIP3   OH220696   2.771   1.255   3.895
 6918TIP3    H120697   2.786   1.242   3.988
 6918TIP3    H220698   2.686   1.299   3.890
 6919TIP3   OH220699   3.417   2.147   1.953
 6919TIP3    H120700   3.356   2.180   2.020
 6919TIP3    H220701   3.402   2.053   1.951
 6920TIP3   OH220702   1.861   5.944   0.613
 6920TIP3    H120703   1.821   6.030   0.628
 6920TIP3    H220704   1.945   5.949   0.659
 6921TIP3   OH220705   0.925   1.738   4.788
 6921TIP3    H120706   1.007   1.721   4.835
 6921TIP3    H220707   0.901   1.827   4.814
 6922TIP3   OH220708   0.265   0.171   2.866
 6922TIP3    H120709   0.251   0.266   2.868
 6922TIP3    H220710   0.360   0.162   2.856
 6923TIP3   OH220711   4.311   3.151   0.960
 6923TIP3    H120712   4.244   3.186   1.018
 6923TIP3    H220713   4.345   3.075   1.006
 6924TIP3   OH220714   6.843   6.814   0.235
 6924TIP3    H120715   6.849   6.769   0.319
 6924TIP3    H220716   6.756   6.791   0.202
 6925TIP3   OH220717   6.210   7.643   4.068
 6925TIP3    H120718   6.216   7.553   4.037
 6925TIP3    H220719   6.299   7.665   4.095
 6926TIP3   OH220720   0.939   6.572   0.215
 6926TIP3    H120721   1.010   6.557   0.277
 6926TIP3    H220722   0.905   6.659   0.238
 6927TIP3   OH220723   6.504   1.182   5.739
 6927TIP3    H120724   6.487   1.246   5.670
 6927TIP3    H220725   6.423   1.178   5.789
 6928TIP3   OH220726   6.165   4.203   3.891
 6928TIP3    H120727   6.106   4.190   3.817
 6928TIP3    H220728   6.179   4.298   3.895
 6929TIP3   OH220729   4.835   3.705   2.635
 6929TIP3    H120730   4.874   3.639   2.578
 6929TIP3    H220731   4.829   3.661   2.720
 6930TIP3   OH220732   3.562   2.375   5.524
 6930TIP3    H120733   3.594   2.379   5.434
 6930TIP3    H220734   3.468   2.391   5.518
 6931TIP3   OH220735   1.887   5.798   4.270
 6931TIP3    H120736   1.932   5.876   4.238
 6931TIP3    H220737   1.907   5.794   4.363
 6932TIP3   OH220738   4.790   3.587   1.398
 6932TIP3    H120739   4.812   3.504   1.441
 6932TIP3    H220740   4.857   3.648   1.430
 6933TIP3   OH220741   7.653   2.287   4.969
 6933TIP3    H120742   7.666   2.225   4.898
 6933TIP3    H220743   7.673   2.372   4.930
 6934TIP3   OH220744   7.340   5.647   5.493
 6934TIP3    H120745   7.307   5.592   5.423
 6934TIP3    H220746   7.395   5.589   5.546
 6935TIP3   OH220747   4.050   5.952   3.315
 6935TIP3    H120748   4.109   5.993   3.377
 6935TIP3    H220749   3.976   6.013   3.308
 6936TIP3   OH220750   5.586   0.443   4.995
 6936TIP3    H120751   5.550   0.464   5.081
 6936TIP3    H220752   5.567   0.350   4.983
 6937TIP3   OH220753   6.628   1.694   1.146
 6937TIP3    H120754   6.559   1.745   1.105
 6937TIP3    H220755   6.645   1.623   1.084
 6938TIP3   OH220756   0.924   0.014   5.719
 6938TIP3    H120757   0.967  -0.030   5.791
 6938TIP3    H220758   0.960   0.103   5.720
 6939TIP3   OH220759   6.495   7.535   0.140
 6939TIP3    H120760   6.441   7.514   0.216
 6939TIP3    H220761   6.573   7.480   0.149
 6940TIP3   OH220762   1.291   3.285   4.364
 6940TIP3    H120763   1.252   3.217   4.418
 6940TIP3    H220764   1.230   3.295   4.291
 6941TIP3   OH220765   7.738   6.245   4.190
 6941TIP3    H120766   7.814   6.246   4.248
 6941TIP3    H220767   7.664   6.266   4.247
 6942TIP3   OH220768   2.479   7.581   4.485
 6942TIP3    H120769   2.503   7.596   4.576
 6942TIP3    H220770   2.523   7.499   4.462
 6943TIP3   OH220771   0.878   6.940   0.339
 6943TIP3    H120772   0.949   6.991   0.299
 6943TIP3    H220773   0.814   7.006   0.367
 6944TIP3   OH220774   4.426   1.211   1.459
 6944TIP3    H120775   4.450   1.254   1.541
 6944TIP3    H220776   4.359   1.148   1.484
 6945TIP3   OH220777   4.470   5.294   2.905
 6945TIP3    H120778   4.532   5.228   2.937
 6945TIP3    H220779   4.398   5.242   2.869
 6946TIP3   OH220780   7.043   0.538   4.763
 6946TIP3    H120781   7.071   0.627   4.783
 6946TIP3    H220782   7.125   0.488   4.757
 6947TIP3   OH220783   6.578   0.794   6.485
 6947TIP3    H120784   6.567   0.855   6.412
 6947TIP3    H220785   6.519   0.721   6.464
 6948TIP3   OH220786   7.142   5.215   3.361
 6948TIP3    H120787   7.061   5.208   3.411
 6948TIP3    H220788   7.113   5.220   3.270
 6949TIP3   OH220789   1.359   4.801   0.927
 6949TIP3    H120790   1.381   4.891   0.901
 6949TIP3    H220791   1.411   4.746   0.867
 6950TIP3   OH220792   4.943   3.736   6.544
 6950TIP3    H120793   4.973   3.821   6.575
 6950TIP3    H220794   4.860   3.755   6.499
 6951TIP3   OH220795   1.798   6.891   0.294
 6951TIP3    H120796   1.714   6.912   0.335
 6951TIP3    H220797   1.800   6.795   0.293
 6952TIP3   OH220798   4.426   0.443   2.201
 6952TIP3    H120799   4.426   0.410   2.290
 6952TIP3    H220800   4.410   0.537   2.209
 6953TIP3   OH220801   1.415   4.368   4.125
 6953TIP3    H120802   1.421   4.369   4.029
 6953TIP3    H220803   1.365   4.446   4.147
 6954TIP3   OH220804   0.973   4.523   1.736
 6954TIP3    H120805   0.918   4.511   1.813
 6954TIP3    H220806   0.975   4.618   1.723
 6955TIP3   OH220807   4.059   3.980   1.359
 6955TIP3    H120808   4.115   4.027   1.422
 6955TIP3    H220809   3.973   3.977   1.402
 6956TIP3   OH220810   0.937   5.138   6.485
 6956TIP3    H120811   0.977   5.099   6.408
 6956TIP3    H220812   0.984   5.221   6.497
 6957TIP3   OH220813   6.741   7.439   2.798
 6957TIP3    H120814   6.818   7.474   2.843
 6957TIP3    H220815   6.703   7.377   2.860
 6958TIP3   OH220816   5.991   3.061   5.325
 6958TIP3    H120817   6.022   2.975   5.298
 6958TIP3    H220818   6.068   3.104   5.362
 6959TIP3   OH220819   6.376   5.372   4.635
 6959TIP3    H120820   6.356   5.465   4.621
 6959TIP3    H220821   6.468   5.372   4.661
 6960TIP3   OH220822   6.451   3.423   2.441
 6960TIP3    H120823   6.523   3.485   2.453
 6960TIP3    H220824   6.372   3.475   2.453
 6961TIP3   OH220825   7.022   1.667   2.905
 6961TIP3    H120826   7.029   1.587   2.853
 6961TIP3    H220827   7.075   1.649   2.983
 6962TIP3   OH220828   4.676   1.851   4.276
 6962TIP3    H120829   4.716   1.840   4.362
 6962TIP3    H220830   4.750   1.866   4.217
 6963TIP3   OH220831   3.830   2.084   2.456
 6963TIP3    H120832   3.755   2.144   2.459
 6963TIP3    H220833   3.868   2.089   2.543
 6964TIP3   OH220834   7.310   4.150   6.617
 6964TIP3    H120835   7.385   4.195   6.655
 6964TIP3    H220836   7.332   4.142   6.524
 6965TIP3   OH220837   5.374   6.791   2.811
 6965TIP3    H120838   5.322   6.713   2.796
 6965TIP3    H220839   5.314   6.864   2.795
 6966TIP3   OH220840   2.339   5.422   5.764
 6966TIP3    H120841   2.360   5.514   5.775
 6966TIP3    H220842   2.331   5.410   5.669
 6967TIP3   OH220843   2.433   0.381   5.892
 6967TIP3    H120844   2.355   0.328   5.908
 6967TIP3    H220845   2.401   0.455   5.841
 6968TIP3   OH220846   7.721   1.906   5.925
 6968TIP3    H120847   7.666   1.900   6.002
 6968TIP3    H220848   7.789   1.841   5.938
 6969TIP3   OH220849   3.628   4.023   5.990
 6969TIP3    H120850   3.539   4.002   5.963
 6969TIP3    H220851   3.621   4.039   6.084
 6970TIP3   OH220852   6.618   7.046   0.599
 6970TIP3    H120853   6.651   7.015   0.684
 6970TIP3    H220854   6.540   6.993   0.583
 6971TIP3   OH220855   0.270   6.805   5.313
 6971TIP3    H120856   0.261   6.765   5.400
 6971TIP3    H220857   0.362   6.793   5.290
 6972TIP3   OH220858   0.502   3.336   0.480
 6972TIP3    H120859   0.447   3.408   0.449
 6972TIP3    H220860   0.586   3.377   0.498
 6973TIP3   OH220861   2.429   2.431   5.065
 6973TIP3    H120862   2.343   2.425   5.022
 6973TIP3    H220863   2.436   2.523   5.092
 6974TIP3   OH220864   8.246   0.635   2.374
 6974TIP3    H120865   8.253   0.592   2.289
 6974TIP3    H220866   8.313   0.703   2.372
 6975TIP3   OH220867   0.364   4.066   2.756
 6975TIP3    H120868   0.346   4.117   2.834
 6975TIP3    H220869   0.452   4.094   2.729
 6976TIP3   OH220870   2.862   2.098   4.873
 6976TIP3    H120871   2.921   2.153   4.821
 6976TIP3    H220872   2.775   2.120   4.841
 6977TIP3   OH220873   3.277   2.973   0.144
 6977TIP3    H120874   3.220   2.988   0.220
 6977TIP3    H220875   3.219   2.982   0.068
 6978TIP3   OH220876   7.965   2.179   0.147
 6978TIP3    H120877   8.012   2.227   0.216
 6978TIP3    H220878   7.972   2.087   0.172
 6979TIP3   OH220879   6.993   5.955   0.103
 6979TIP3    H120880   6.942   6.026   0.064
 6979TIP3    H220881   7.083   5.972   0.075
 6980TIP3   OH220882   4.412   6.102   6.766
 6980TIP3    H120883   4.396   6.008   6.776
 6980TIP3    H220884   4.325   6.141   6.764
 6981TIP3   OH220885   4.399   5.772   2.764
 6981TIP3    H120886   4.333   5.841   2.761
 6981TIP3    H220887   4.388   5.724   2.681
 6982TIP3   OH220888   7.442   7.190   2.646
 6982TIP3    H120889   7.398   7.213   2.564
 6982TIP3    H220890   7.418   7.098   2.659
 6983TIP3   OH220891   7.137   4.108   1.632
 6983TIP3    H120892   7.221   4.106   1.677
 6983TIP3    H220893   7.076   4.143   1.697
 6984TIP3   OH220894   6.276   1.034   3.081
 6984TIP3    H120895   6.226   1.042   3.001
 6984TIP3    H220896   6.271   1.120   3.122
 6985TIP3   OH220897   7.523   1.156   1.277
 6985TIP3    H120898   7.555   1.135   1.189
 6985TIP3    H220899   7.483   1.242   1.268
 6986TIP3   OH220900   7.941   2.469   5.850
 6986TIP3    H120901   7.965   2.380   5.877
 6986TIP3    H220902   7.849   2.462   5.825
 6987TIP3   OH220903   1.331   3.093   2.715
 6987TIP3    H120904   1.316   3.005   2.681
 6987TIP3    H220905   1.426   3.102   2.718
 6988TIP3   OH220906   5.303   3.095   3.300
 6988TIP3    H120907   5.257   3.037   3.362
 6988TIP3    H220908   5.366   3.038   3.256
 6989TIP3   OH220909   2.736   4.993   4.324
 6989TIP3    H120910   2.657   4.940   4.315
 6989TIP3    H220911   2.765   4.978   4.414
 6990TIP3   OH220912   1.157   6.454   5.998
 6990TIP3    H120913   1.236   6.406   6.024
 6990TIP3    H220914   1.188   6.544   5.985
 6991TIP3   OH220915   3.851   1.746   1.493
 6991TIP3    H120916   3.834   1.826   1.444
 6991TIP3    H220917   3.945   1.750   1.514
 6992TIP3   OH220918   5.869   6.384   4.654
 6992TIP3    H120919   5.875   6.295   4.691
 6992TIP3    H220920   5.901   6.374   4.564
 6993TIP3   OH220921   4.091   5.613   5.216
 6993TIP3    H120922   4.118   5.640   5.129
 6993TIP3    H220923   4.098   5.518   5.215
 6994TIP3   OH220924   2.680   5.741   2.471
 6994TIP3    H120925   2.726   5.747   2.387
 6994TIP3    H220926   2.591   5.716   2.447
 6995TIP3   OH220927   7.113   0.862   3.646
 6995TIP3    H120928   7.031   0.868   3.695
 6995TIP3    H220929   7.089   0.815   3.566
 6996TIP3   OH220930   7.303   1.576   3.349
 6996TIP3    H120931   7.309   1.654   3.404
 6996TIP3    H220932   7.290   1.504   3.411
 6997TIP3   OH220933   8.259   1.389   4.745
 6997TIP3    H120934   8.201   1.409   4.817
 6997TIP3    H220935   8.344   1.373   4.786
 6998TIP3   OH220936   2.256   7.741   2.669
 6998TIP3    H120937   2.251   7.646   2.656
 6998TIP3    H220938   2.297   7.773   2.589
 6999TIP3   OH220939   2.446   7.776   6.254
 6999TIP3    H120940   2.366   7.727   6.272
 6999TIP3    H220941   2.515   7.710   6.252
 7000TIP3   OH220942   1.031   3.266   2.144
 7000TIP3    H120943   0.943   3.296   2.166
 7000TIP3    H220944   1.059   3.325   2.073
 7001TIP3   OH220945   0.295   7.678   3.129
 7001TIP3    H120946   0.330   7.671   3.218
 7001TIP3    H220947   0.201   7.690   3.141
 7002TIP3   OH220948   7.271   4.292   0.206
 7002TIP3    H120949   7.360   4.318   0.232
 7002TIP3    H220950   7.214   4.353   0.253
 7003TIP3   OH220951   7.599   1.466   0.294
 7003TIP3    H120952   7.576   1.387   0.244
 7003TIP3    H220953   7.518   1.517   0.296
 7004TIP3   OH220954   6.172   0.136   5.648
 7004TIP3    H120955   6.252   0.186   5.635
 7004TIP3    H220956   6.166   0.079   5.571
 7005TIP3   OH220957   0.284   6.148   6.259
 7005TIP3    H120958   0.312   6.071   6.209
 7005TIP3    H220959   0.204   6.120   6.304
 7006TIP3   OH220960   3.935   3.334   5.654
 7006TIP3    H120961   3.977   3.398   5.711
 7006TIP3    H220962   3.924   3.256   5.708
 7007TIP3   OH220963   6.327   5.042   3.838
 7007TIP3    H120964   6.265   5.016   3.906
 7007TIP3    H220965   6.410   5.054   3.884
 7008TIP3   OH220966   3.944   2.070   5.925
 7008TIP3    H120967   3.953   2.075   5.829
 7008TIP3    H220968   4.030   2.042   5.956
 7009TIP3   OH220969   1.004   0.077   6.472
 7009TIP3    H120970   1.020   0.060   6.565
 7009TIP3    H220971   1.090   0.094   6.435
 7010TIP3   OH220972   3.102   0.930   4.513
 7010TIP3    H120973   3.143   0.854   4.555
 7010TIP3    H220974   3.068   0.896   4.430
 7011TIP3   OH220975   7.232   0.670   2.225
 7011TIP3    H120976   7.226   0.586   2.271
 7011TIP3    H220977   7.325   0.682   2.208
 7012TIP3   OH220978   7.778   0.828   1.411
 7012TIP3    H120979   7.845   0.801   1.473
 7012TIP3    H220980   7.740   0.907   1.448
 7013TIP3   OH220981   0.329   4.982   2.062
 7013TIP3    H120982   0.253   5.004   2.116
 7013TIP3    H220983   0.292   4.933   1.988
 7014TIP3   OH220984   7.718   0.329   4.930
 7014TIP3    H120985   7.641   0.380   4.904
 7014TIP3    H220986   7.793   0.383   4.903
 7015TIP3   OH220987   2.519   4.150   1.239
 7015TIP3    H120988   2.581   4.181   1.304
 7015TIP3    H220989   2.490   4.065   1.272
 7016TIP3   OH220990   5.394   7.327   5.791
 7016TIP3    H120991   5.458   7.255   5.796
 7016TIP3    H220992   5.394   7.364   5.879
 7017TIP3   OH220993   7.977   6.333   2.978
 7017TIP3    H120994   7.898   6.386   2.987
 7017TIP3    H220995   8.037   6.387   2.926
 7018TIP3   OH220996   7.442   1.094   5.536
 7018TIP3    H120997   7.420   1.156   5.466
 7018TIP3    H220998   7.538   1.090   5.535
 7019TIP3   OH220999   1.655   6.745   1.959
 7019TIP3    H121000   1.560   6.746   1.972
 7019TIP3    H221001   1.679   6.837   1.951
 7020TIP3   OH221002   2.772   5.775   0.243
 7020TIP3    H121003   2.723   5.855   0.223
 7020TIP3    H221004   2.758   5.762   0.337
 7021TIP3   OH221005   2.022   0.544   5.932
 7021TIP3    H121006   2.069   0.491   5.868
 7021TIP3    H221007   1.935   0.556   5.894
 7022TIP3   OH221008   5.083   5.275   4.338
 7022TIP3    H121009   5.093   5.267   4.243
 7022TIP3    H221010   4.989   5.261   4.353
 7023TIP3   OH221011   3.912   6.775   0.400
 7023TIP3    H121012   3.962   6.841   0.351
 7023TIP3    H221013   3.976   6.707   0.420
 7024TIP3   OH221014   2.102   1.292   6.248
 7024TIP3    H121015   2.172   1.248   6.199
 7024TIP3    H221016   2.098   1.380   6.210
 7025TIP3   OH221017   5.178   0.947   3.489
 7025TIP3    H121018   5.143   0.901   3.566
 7025TIP3    H221019   5.269   0.966   3.511
 7026TIP3   OH221020   5.490   4.972   4.121
 7026TIP3    H121021   5.525   4.979   4.032
 7026TIP3    H221022   5.464   5.061   4.145
 7027TIP3   OH221023   6.660   4.692   1.492
 7027TIP3    H121024   6.723   4.762   1.506
 7027TIP3    H221025   6.577   4.726   1.524
 7028TIP3   OH221026   5.301   5.089   2.631
 7028TIP3    H121027   5.246   5.012   2.620
 7028TIP3    H221028   5.365   5.064   2.698
 7029TIP3   OH221029   1.063   4.326   6.178
 7029TIP3    H121030   0.994   4.261   6.183
 7029TIP3    H221031   1.089   4.326   6.085
 7030TIP3   OH221032   3.084   3.244   2.333
 7030TIP3    H121033   3.008   3.201   2.373
 7030TIP3    H221034   3.068   3.338   2.344
 7031TIP3   OH221035   3.263   5.013   5.002
 7031TIP3    H121036   3.178   4.971   5.014
 7031TIP3    H221037   3.245   5.106   5.016
 7032TIP3   OH221038   3.525   4.944   4.951
 7032TIP3    H121039   3.500   4.936   4.859
 7032TIP3    H221040   3.442   4.957   4.997
 7033TIP3   OH221041   6.754   0.709   6.180
 7033TIP3    H121042   6.680   0.691   6.238
 7033TIP3    H221043   6.714   0.733   6.096
 7034TIP3   OH221044   6.983   2.232   0.146
 7034TIP3    H121045   7.033   2.155   0.174
 7034TIP3    H221046   6.966   2.280   0.227
 7035TIP3   OH221047   3.449   0.569   0.610
 7035TIP3    H121048   3.439   0.664   0.616
 7035TIP3    H221049   3.392   0.544   0.537
 7036TIP3   OH221050   4.921   6.062   2.317
 7036TIP3    H121051   4.849   6.042   2.377
 7036TIP3    H221052   4.944   6.153   2.337
 7037TIP3   OH221053   3.748   6.031   2.445
 7037TIP3    H121054   3.761   6.033   2.350
 7037TIP3    H221055   3.667   6.079   2.459
 7038TIP3   OH221056   6.765   2.241   4.954
 7038TIP3    H121057   6.759   2.229   5.049
 7038TIP3    H221058   6.716   2.168   4.918
 7039TIP3   OH221059   4.658   2.708   0.851
 7039TIP3    H121060   4.647   2.667   0.766
 7039TIP3    H221061   4.722   2.653   0.896
 7040TIP3   OH221062   0.555   2.586   1.532
 7040TIP3    H121063   0.488   2.652   1.548
 7040TIP3    H221064   0.623   2.632   1.483
 7041TIP3   OH221065   0.424   0.138   0.881
 7041TIP3    H121066   0.407   0.047   0.857
 7041TIP3    H221067   0.485   0.169   0.814
 7042TIP3   OH221068   0.305   4.886   0.994
 7042TIP3    H121069   0.377   4.826   1.013
 7042TIP3    H221070   0.289   4.931   1.077
 7043TIP3   OH221071   0.603   3.246   5.507
 7043TIP3    H121072   0.677   3.302   5.484
 7043TIP3    H221073   0.642   3.168   5.548
 7044TIP3   OH221074   4.826   3.196   3.384
 7044TIP3    H121075   4.824   3.206   3.479
 7044TIP3    H221076   4.739   3.163   3.361
 7045TIP3   OH221077   2.247   4.449   1.413
 7045TIP3    H121078   2.247   4.425   1.506
 7045TIP3    H221079   2.301   4.383   1.371
 7046TIP3   OH221080   4.053   3.603   4.472
 7046TIP3    H121081   4.087   3.513   4.466
 7046TIP3    H221082   4.115   3.656   4.422
 7047TIP3   OH221083   2.388   7.361   2.468
 7047TIP3    H121084   2.391   7.415   2.389
 7047TIP3    H221085   2.421   7.418   2.538
 7048TIP3   OH221086   4.253   0.919   5.915
 7048TIP3    H121087   4.230   0.908   5.823
 7048TIP3    H221088   4.173   0.898   5.963
 7049TIP3   OH221089   0.358   1.815   2.914
 7049TIP3    H121090   0.303   1.892   2.894
 7049TIP3    H221091   0.336   1.794   3.005
 7050TIP3   OH221092   0.384   2.516   5.987
 7050TIP3    H121093   0.389   2.555   5.900
 7050TIP3    H221094   0.386   2.591   6.047
 7051TIP3   OH221095   6.178   2.171   5.237
 7051TIP3    H121096   6.187   2.089   5.286
 7051TIP3    H221097   6.126   2.228   5.294
 7052TIP3   OH221098   2.420   6.333   3.624
 7052TIP3    H121099   2.485   6.391   3.586
 7052TIP3    H221100   2.371   6.388   3.685
 7053TIP3   OH221101   6.022   0.658   3.714
 7053TIP3    H121102   6.102   0.618   3.680
 7053TIP3    H221103   5.989   0.711   3.641
 7054TIP3   OH221104   7.539   2.051   2.313
 7054TIP3    H121105   7.579   2.064   2.227
 7054TIP3    H221106   7.536   2.138   2.352
 7055TIP3   OH221107   4.803   7.298   6.002
 7055TIP3    H121108   4.829   7.345   5.923
 7055TIP3    H221109   4.835   7.352   6.074
 7056TIP3   OH221110   7.235   2.503   4.513
 7056TIP3    H121111   7.163   2.451   4.547
 7056TIP3    H221112   7.218   2.592   4.543
 7057TIP3   OH221113   2.615   2.148   4.777
 7057TIP3    H121114   2.544   2.182   4.831
 7057TIP3    H221115   2.577   2.141   4.689
 7058TIP3   OH221116   6.878   0.075   3.726
 7058TIP3    H121117   6.921   0.049   3.807
 7058TIP3    H221118   6.784   0.070   3.745
 7059TIP3   OH221119   7.587   0.331   5.178
 7059TIP3    H121120   7.586   0.407   5.236
 7059TIP3    H221121   7.659   0.347   5.118
 7060TIP3   OH221122   4.134   7.491   0.427
 7060TIP3    H121123   4.087   7.411   0.402
 7060TIP3    H221124   4.066   7.548   0.464
 7061TIP3   OH221125   2.506   3.018   5.125
 7061TIP3    H121126   2.487   2.946   5.185
 7061TIP3    H221127   2.572   3.070   5.171
 7062TIP3   OH221128   3.544   1.832   5.555
 7062TIP3    H121129   3.482   1.830   5.628
 7062TIP3    H221130   3.628   1.808   5.594
 7063TIP3   OH221131   2.612   5.470   2.922
 7063TIP3    H121132   2.639   5.482   2.831
 7063TIP3    H221133   2.517   5.459   2.918
 7064TIP3   OH221134   2.718   1.008   3.771
 7064TIP3    H121135   2.632   0.998   3.812
 7064TIP3    H221136   2.745   1.097   3.793
 7065TIP3   OH221137   3.260   7.357   0.185
 7065TIP3    H121138   3.350   7.372   0.214
 7065TIP3    H221139   3.217   7.319   0.262
 7066TIP3   OH221140   1.240   4.146   4.597
 7066TIP3    H121141   1.150   4.116   4.604
 7066TIP3    H221142   1.253   4.201   4.675
 7067TIP3   OH221143   6.055   0.666   4.899
 7067TIP3    H121144   6.005   0.604   4.952
 7067TIP3    H221145   6.015   0.661   4.812
 7068TIP3   OH221146   6.225   2.116   5.629
 7068TIP3    H121147   6.138   2.091   5.658
 7068TIP3    H221148   6.217   2.208   5.603
 7069TIP3   OH221149   1.288   5.929   5.647
 7069TIP3    H121150   1.344   5.914   5.571
 7069TIP3    H221151   1.349   5.957   5.716
 7070TIP3   OH221152   3.355   4.406   4.340
 7070TIP3    H121153   3.361   4.470   4.411
 7070TIP3    H221154   3.282   4.350   4.365
 7071TIP3   OH221155   1.123   0.562   0.808
 7071TIP3    H121156   1.158   0.481   0.845
 7071TIP3    H221157   1.178   0.578   0.730
 7072TIP3   OH221158   3.463   7.350   2.604
 7072TIP3    H121159   3.474   7.439   2.569
 7072TIP3    H221160   3.409   7.362   2.682
 7073TIP3   OH221161   1.361   3.843   5.420
 7073TIP3    H121162   1.372   3.906   5.350
 7073TIP3    H221163   1.340   3.896   5.497
 7074TIP3   OH221164   1.402   1.418   6.452
 7074TIP3    H121165   1.424   1.362   6.526
 7074TIP3    H221166   1.371   1.358   6.385
 7075TIP3   OH221167   2.626   4.347   6.236
 7075TIP3    H121168   2.566   4.347   6.311
 7075TIP3    H221169   2.591   4.415   6.178
 7076TIP3   OH221170   3.241   0.172   6.011
 7076TIP3    H121171   3.334   0.157   5.999
 7076TIP3    H221172   3.227   0.262   5.982
 7077TIP3   OH221173   5.174   0.129   4.110
 7077TIP3    H121174   5.250   0.171   4.070
 7077TIP3    H221175   5.177   0.157   4.202
 7078TIP3   OH221176   0.666   0.173   4.553
 7078TIP3    H121177   0.679   0.080   4.535
 7078TIP3    H221178   0.735   0.218   4.504
 7079TIP3   OH221179   5.439   1.072   3.032
 7079TIP3    H121180   5.510   1.118   2.988
 7079TIP3    H221181   5.448   0.981   3.004
 7080TIP3   OH221182   7.211   0.718   1.512
 7080TIP3    H121183   7.292   0.670   1.493
 7080TIP3    H221184   7.177   0.743   1.426
 7081TIP3   OH221185   3.995   5.279   2.469
 7081TIP3    H121186   4.050   5.294   2.546
 7081TIP3    H221187   4.028   5.197   2.432
 7082TIP3   OH221188   6.584   6.835   3.189
 7082TIP3    H121189   6.630   6.791   3.117
 7082TIP3    H221190   6.652   6.856   3.252
 7083TIP3   OH221191   4.465   7.008   2.429
 7083TIP3    H121192   4.430   7.001   2.340
 7083TIP3    H221193   4.388   7.020   2.484
 7084TIP3   OH221194   3.600   1.064   3.531
 7084TIP3    H121195   3.573   0.972   3.535
 7084TIP3    H221196   3.663   1.074   3.602
 7085TIP3   OH221197   0.509   4.483   5.055
 7085TIP3    H121198   0.536   4.575   5.060
 7085TIP3    H221199   0.453   4.470   5.132
 7086TIP3   OH221200   7.275   2.424   4.262
 7086TIP3    H121201   7.201   2.441   4.204
 7086TIP3    H221202   7.252   2.468   4.344
 7087TIP3   OH221203   3.351   6.626   6.703
 7087TIP3    H121204   3.428   6.569   6.708
 7087TIP3    H221205   3.300   6.592   6.630
 7088TIP3   OH221206   8.197   1.019   5.517
 7088TIP3    H121207   8.125   0.971   5.477
 7088TIP3    H221208   8.208   1.096   5.461
 7089TIP3   OH221209   6.276   7.627   2.402
 7089TIP3    H121210   6.370   7.645   2.401
 7089TIP3    H221211   6.237   7.706   2.440
 7090TIP3   OH221212   0.914   2.541   1.684
 7090TIP3    H121213   0.984   2.593   1.723
 7090TIP3    H221214   0.837   2.560   1.737
 7091TIP3   OH221215   2.189   7.536   0.136
 7091TIP3    H121216   2.243   7.493   0.202
 7091TIP3    H221217   2.124   7.470   0.112
 7092TIP3   OH221218   7.392   0.193   6.734
 7092TIP3    H121219   7.333   0.157   6.667
 7092TIP3    H221220   7.377   0.287   6.730
 7093TIP3   OH221221   5.751   1.365   6.709
 7093TIP3    H121222   5.722   1.299   6.771
 7093TIP3    H221223   5.674   1.383   6.655
 7094TIP3   OH221224   5.423   1.527   1.383
 7094TIP3    H121225   5.446   1.474   1.460
 7094TIP3    H221226   5.331   1.550   1.396
 7095TIP3   OH221227   7.267   6.971   2.814
 7095TIP3    H121228   7.344   6.929   2.851
 7095TIP3    H221229   7.204   6.973   2.886
 7096TIP3   OH221230   1.074   3.875   5.623
 7096TIP3    H121231   1.086   3.814   5.696
 7096TIP3    H221232   1.044   3.820   5.551
 7097TIP3   OH221233   0.574   5.953   6.470
 7097TIP3    H121234   0.545   6.030   6.519
 7097TIP3    H221235   0.649   5.984   6.419
 7098TIP3   OH221236   7.051   0.762   1.272
 7098TIP3    H121237   7.035   0.770   1.178
 7098TIP3    H221238   7.004   0.836   1.311
 7099TIP3   OH221239   4.841   7.118   2.459
 7099TIP3    H121240   4.869   7.029   2.440
 7099TIP3    H221241   4.871   7.134   2.548
 7100TIP3   OH221242   6.795   1.026   4.287
 7100TIP3    H121243   6.846   0.946   4.273
 7100TIP3    H221244   6.792   1.036   4.382
 7101TIP3   OH221245   6.371   0.797   3.174
 7101TIP3    H121246   6.360   0.890   3.154
 7101TIP3    H221247   6.433   0.766   3.109
 7102TIP3   OH221248   3.701   4.762   0.285
 7102TIP3    H121249   3.748   4.799   0.211
 7102TIP3    H221250   3.764   4.701   0.325
 7103TIP3   OH221251   2.004   2.317   1.420
 7103TIP3    H121252   1.964   2.404   1.414
 7103TIP3    H221253   1.931   2.258   1.440
 7104TIP3   OH221254   0.031   6.019   0.085
 7104TIP3    H121255   0.068   5.931   0.087
 7104TIP3    H221256   0.107   6.077   0.080
 7105TIP3   OH221257   3.393   1.053   5.310
 7105TIP3    H121258   3.439   1.006   5.240
 7105TIP3    H221259   3.312   1.004   5.323
 7106TIP3   OH221260   1.054   7.266   4.930
 7106TIP3    H121261   1.136   7.306   4.957
 7106TIP3    H221262   1.077   7.212   4.854
 7107TIP3   OH221263   7.310   0.885   3.056
 7107TIP3    H121264   7.348   0.940   3.125
 7107TIP3    H221265   7.269   0.947   2.996
 7108TIP3   OH221266   6.853   1.097   0.227
 7108TIP3    H121267   6.844   1.005   0.250
 7108TIP3    H221268   6.929   1.100   0.170
 7109TIP3   OH221269   1.986   4.149   4.418
 7109TIP3    H121270   1.902   4.140   4.464
 7109TIP3    H221271   1.962   4.168   4.328
 7110TIP3   OH221272   4.459   4.440   0.851
 7110TIP3    H121273   4.471   4.387   0.930
 7110TIP3    H221274   4.545   4.480   0.836
 7111TIP3   OH221275   2.836   2.067   3.693
 7111TIP3    H121276   2.741   2.067   3.704
 7111TIP3    H221277   2.855   1.983   3.652
 7112TIP3   OH221278   8.138   0.376   0.973
 7112TIP3    H121279   8.132   0.310   0.904
 7112TIP3    H221280   8.056   0.424   0.968
 7113TIP3   OH221281   1.373   1.022   5.180
 7113TIP3    H121282   1.311   0.960   5.142
 7113TIP3    H221283   1.417   1.061   5.104
 7114TIP3   OH221284   1.795   3.519   0.408
 7114TIP3    H121285   1.825   3.570   0.483
 7114TIP3    H221286   1.706   3.492   0.432
 7115TIP3   OH221287   4.218   0.735   4.340
 7115TIP3    H121288   4.302   0.696   4.315
 7115TIP3    H221289   4.159   0.713   4.269
 7116TIP3   OH221290   6.075   0.124   6.631
 7116TIP3    H121291   6.017   0.188   6.671
 7116TIP3    H221292   6.134   0.176   6.576
 7117TIP3   OH221293   1.050   4.799   5.317
 7117TIP3    H121294   0.998   4.719   5.330
 7117TIP3    H221295   1.128   4.786   5.371
 7118TIP3   OH221296   0.532   6.016   1.778
 7118TIP3    H121297   0.442   6.047   1.793
 7118TIP3    H221298   0.576   6.027   1.862
 7119TIP3   OH221299   1.396   3.936   1.187
 7119TIP3    H121300   1.373   3.926   1.094
 7119TIP3    H221301   1.467   4.000   1.187
 7120TIP3   OH221302   5.379   6.056   0.662
 7120TIP3    H121303   5.445   6.018   0.720
 7120TIP3    H221304   5.393   6.151   0.668
 7121TIP3   OH221305   7.240   4.370   1.202
 7121TIP3    H121306   7.180   4.408   1.138
 7121TIP3    H221307   7.224   4.276   1.197
 7122TIP3   OH221308   4.325   4.724   3.863
 7122TIP3    H121309   4.305   4.703   3.772
 7122TIP3    H221310   4.255   4.682   3.914
 7123TIP3   OH221311   7.953   1.141   1.366
 7123TIP3    H121312   8.026   1.122   1.425
 7123TIP3    H221313   7.888   1.073   1.386
 7124TIP3   OH221314   8.256   5.600   0.162
 7124TIP3    H121315   8.286   5.569   0.076
 7124TIP3    H221316   8.185   5.660   0.142
 7125TIP3   OH221317   2.207   2.402   6.585
 7125TIP3    H121318   2.233   2.387   6.676
 7125TIP3    H221319   2.260   2.341   6.534
 7126TIP3   OH221320   5.981   3.576   1.971
 7126TIP3    H121321   5.930   3.638   1.919
 7126TIP3    H221322   6.042   3.631   2.020
 7127TIP3   OH221323   3.681   5.170   3.748
 7127TIP3    H121324   3.668   5.138   3.837
 7127TIP3    H221325   3.772   5.200   3.746
 7128TIP3   OH221326   3.233   1.792   2.970
 7128TIP3    H121327   3.167   1.857   2.994
 7128TIP3    H221328   3.250   1.743   3.050
 7129TIP3   OH221329   5.309   6.046   3.071
 7129TIP3    H121330   5.336   6.009   3.156
 7129TIP3    H221331   5.343   5.984   3.007
 7130TIP3   OH221332   2.263   1.270   2.775
 7130TIP3    H121333   2.341   1.280   2.830
 7130TIP3    H221334   2.288   1.203   2.712
 7131TIP3   OH221335   4.240   1.436   3.493
 7131TIP3    H121336   4.161   1.383   3.501
 7131TIP3    H221337   4.232   1.502   3.562
 7132TIP3   OH221338   6.785   0.164   2.872
 7132TIP3    H121339   6.747   0.138   2.788
 7132TIP3    H221340   6.803   0.258   2.862
 7133TIP3   OH221341   2.173   1.928   1.861
 7133TIP3    H121342   2.194   1.881   1.942
 7133TIP3    H221343   2.130   2.008   1.890
 7134TIP3   OH221344   4.447   2.663   3.737
 7134TIP3    H121345   4.449   2.736   3.675
 7134TIP3    H221346   4.399   2.594   3.691
 7135TIP3   OH221347   2.776   3.234   2.340
 7135TIP3    H121348   2.699   3.261   2.390
 7135TIP3    H221349   2.742   3.222   2.251
 7136TIP3   OH221350   0.058   4.651   0.939
 7136TIP3    H121351   0.100   4.615   1.017
 7136TIP3    H221352   0.033   4.740   0.964
 7137TIP3   OH221353   2.702   4.309   0.763
 7137TIP3    H121354   2.630   4.289   0.703
 7137TIP3    H221355   2.688   4.400   0.788
 7138TIP3   OH221356   7.227   4.434   2.980
 7138TIP3    H121357   7.321   4.452   2.983
 7138TIP3    H221358   7.190   4.508   2.933
 7139TIP3   OH221359   2.115   5.639   2.423
 7139TIP3    H121360   2.142   5.656   2.333
 7139TIP3    H221361   2.086   5.548   2.423
 7140TIP3   OH221362   6.001   0.055   5.363
 7140TIP3    H121363   6.074  -0.008   5.368
 7140TIP3    H221364   6.028   0.117   5.295
 7141TIP3   OH221365   0.295   6.129   1.816
 7141TIP3    H121366   0.267   6.213   1.779
 7141TIP3    H221367   0.251   6.063   1.762
 7142TIP3   OH221368   0.474   5.986   4.691
 7142TIP3    H121369   0.504   6.063   4.740
 7142TIP3    H221370   0.486   5.913   4.752
 7143TIP3   OH221371   7.384   7.480   6.615
 7143TIP3    H121372   7.331   7.556   6.589
 7143TIP3    H221373   7.321   7.408   6.620
 7144TIP3   OH221374   1.524   6.732   2.719
 7144TIP3    H121375   1.600   6.789   2.709
 7144TIP3    H221376   1.449   6.787   2.700
 7145TIP3   OH221377   4.162   4.717   4.797
 7145TIP3    H121378   4.186   4.795   4.746
 7145TIP3    H221379   4.246   4.674   4.815
 7146TIP3   OH221380   4.655   7.233   5.087
 7146TIP3    H121381   4.686   7.310   5.039
 7146TIP3    H221382   4.629   7.268   5.172
 7147TIP3   OH221383   2.417   1.715   1.249
 7147TIP3    H121384   2.483   1.666   1.299
 7147TIP3    H221385   2.359   1.647   1.215
 7148TIP3   OH221386   5.855   1.176   5.340
 7148TIP3    H121387   5.800   1.210   5.411
 7148TIP3    H221388   5.940   1.217   5.353
 7149TIP3   OH221389   6.230   1.878   0.868
 7149TIP3    H121390   6.227   1.812   0.937
 7149TIP3    H221391   6.254   1.829   0.789
 7150TIP3   OH221392   0.333   6.456   3.293
 7150TIP3    H121393   0.270   6.408   3.239
 7150TIP3    H221394   0.414   6.457   3.240
 7151TIP3   OH221395   8.222   1.116   2.132
 7151TIP3    H121396   8.163   1.063   2.080
 7151TIP3    H221397   8.246   1.189   2.075
 7152TIP3   OH221398   3.060   1.296   6.043
 7152TIP3    H121399   3.059   1.232   5.972
 7152TIP3    H221400   3.111   1.369   6.009
 7153TIP3   OH221401   2.728   2.705   0.988
 7153TIP3    H121402   2.784   2.760   1.042
 7153TIP3    H221403   2.682   2.766   0.931
 7154TIP3   OH221404   6.563   4.919   4.924
 7154TIP3    H121405   6.493   4.984   4.925
 7154TIP3    H221406   6.537   4.856   4.857
 7155TIP3   OH221407   5.128   1.675   4.726
 7155TIP3    H121408   5.131   1.719   4.811
 7155TIP3    H221409   5.069   1.601   4.741
 7156TIP3   OH221410   7.136   4.192   2.913
 7156TIP3    H121411   7.206   4.145   2.958
 7156TIP3    H221412   7.163   4.284   2.915
 7157TIP3   OH221413   1.119   6.546   0.419
 7157TIP3    H121414   1.213   6.528   0.410
 7157TIP3    H221415   1.097   6.513   0.506
 7158TIP3   OH221416   0.020   7.319   2.457
 7158TIP3    H121417   0.099   7.319   2.403
 7158TIP3    H221418  -0.047   7.358   2.402
 7159TIP3   OH221419   6.504   2.595   5.816
 7159TIP3    H121420   6.415   2.630   5.822
 7159TIP3    H221421   6.534   2.589   5.906
 7160TIP3   OH221422   3.964   7.333   5.246
 7160TIP3    H121423   4.052   7.370   5.238
 7160TIP3    H221424   3.972   7.244   5.212
 7161TIP3   OH221425   7.052   0.528   3.653
 7161TIP3    H121426   6.985   0.567   3.709
 7161TIP3    H221427   7.050   0.435   3.674
 7162TIP3   OH221428   5.721   0.139   1.208
 7162TIP3    H121429   5.645   0.160   1.154
 7162TIP3    H221430   5.713   0.045   1.225
 7163TIP3   OH221431   4.333   4.952   1.100
 7163TIP3    H121432   4.357   4.937   1.009
 7163TIP3    H221433   4.246   4.913   1.108
 7164TIP3   OH221434   4.703   1.355   5.715
 7164TIP3    H121435   4.614   1.353   5.749
 7164TIP3    H221436   4.694   1.326   5.624
 7165TIP3   OH221437   0.219   4.367   6.533
 7165TIP3    H121438   0.270   4.419   6.595
 7165TIP3    H221439   0.176   4.431   6.477
 7166TIP3   OH221440   4.243   6.933   1.889
 7166TIP3    H121441   4.292   7.010   1.919
 7166TIP3    H221442   4.311   6.872   1.861
 7167TIP3   OH221443   6.201   5.457   3.251
 7167TIP3    H121444   6.289   5.432   3.277
 7167TIP3    H221445   6.210   5.545   3.213
 7168TIP3   OH221446   4.437   6.736   1.837
 7168TIP3    H121447   4.482   6.692   1.909
 7168TIP3    H221448   4.393   6.666   1.790
 7169TIP3   OH221449   1.790   0.538   0.486
 7169TIP3    H121450   1.867   0.593   0.504
 7169TIP3    H221451   1.719   0.584   0.530
 7170TIP3   OH221452   4.159   1.299   2.042
 7170TIP3    H121453   4.119   1.211   2.039
 7170TIP3    H221454   4.145   1.328   2.132
 7171TIP3   OH221455   1.496   0.924   1.935
 7171TIP3    H121456   1.457   0.996   1.886
 7171TIP3    H221457   1.423   0.866   1.956
 7172TIP3   OH221458   6.890   1.891   2.423
 7172TIP3    H121459   6.962   1.935   2.468
 7172TIP3    H221460   6.925   1.868   2.337
 7173TIP3   OH221461   3.303   5.853   0.427
 7173TIP3    H121462   3.279   5.946   0.429
 7173TIP3    H221463   3.221   5.808   0.411
 7174TIP3   OH221464   3.270   4.211   1.134
 7174TIP3    H121465   3.311   4.215   1.048
 7174TIP3    H221466   3.183   4.175   1.119
 7175TIP3   OH221467   7.681   4.497   1.171
 7175TIP3    H121468   7.770   4.499   1.205
 7175TIP3    H221469   7.637   4.571   1.212
 7176TIP3   OH221470   1.069   7.688   2.683
 7176TIP3    H121471   1.100   7.697   2.593
 7176TIP3    H221472   1.120   7.752   2.733
 7177TIP3   OH221473   2.437   0.775   5.051
 7177TIP3    H121474   2.381   0.844   5.015
 7177TIP3    H221475   2.518   0.820   5.075
 7178TIP3   OH221476   4.514   2.575   1.624
 7178TIP3    H121477   4.499   2.661   1.585
 7178TIP3    H221478   4.588   2.588   1.683
 7179TIP3   OH221479   4.615   0.518   1.270
 7179TIP3    H121480   4.709   0.498   1.271
 7179TIP3    H221481   4.578   0.463   1.339
 7180TIP3   OH221482   7.571   7.449   1.238
 7180TIP3    H121483   7.483   7.450   1.199
 7180TIP3    H221484   7.555   7.452   1.333
 7181TIP3   OH221485   1.653   6.532   2.180
 7181TIP3    H121486   1.668   6.578   2.098
 7181TIP3    H221487   1.559   6.521   2.185
 7182TIP3   OH221488   2.774   3.639   0.863
 7182TIP3    H121489   2.814   3.717   0.902
 7182TIP3    H221490   2.838   3.569   0.876
 7183TIP3   OH221491   6.979   0.480   1.781
 7183TIP3    H121492   7.066   0.441   1.785
 7183TIP3    H221493   6.995   0.575   1.775
 7184TIP3   OH221494   5.981   4.208   3.338
 7184TIP3    H121495   5.934   4.142   3.390
 7184TIP3    H221496   6.053   4.160   3.297
 7185TIP3   OH221497   2.573   0.565   1.497
 7185TIP3    H121498   2.564   0.524   1.412
 7185TIP3    H221499   2.509   0.636   1.497
 7186TIP3   OH221500   2.700   6.360   3.234
 7186TIP3    H121501   2.785   6.339   3.274
 7186TIP3    H221502   2.720   6.370   3.141
 7187TIP3   OH221503   3.452   7.141   3.885
 7187TIP3    H121504   3.364   7.104   3.886
 7187TIP3    H221505   3.468   7.161   3.792
 7188TIP3   OH221506   6.819   4.006   5.555
 7188TIP3    H121507   6.876   3.986   5.629
 7188TIP3    H221508   6.800   3.921   5.515
 7189TIP3   OH221509   5.852   2.023   3.383
 7189TIP3    H121510   5.916   2.013   3.454
 7189TIP3    H221511   5.768   1.998   3.422
 7190TIP3   OH221512   2.214   1.635   1.750
 7190TIP3    H121513   2.248   1.718   1.783
 7190TIP3    H221514   2.119   1.640   1.763
 7191TIP3   OH221515   3.948   1.287   4.995
 7191TIP3    H121516   3.933   1.196   5.022
 7191TIP3    H221517   4.043   1.292   4.980
 7192TIP3   OH221518   4.920   1.167   5.903
 7192TIP3    H121519   4.829   1.196   5.898
 7192TIP3    H221520   4.935   1.120   5.822
 7193TIP3   OH221521   4.534   3.621   3.123
 7193TIP3    H121522   4.581   3.538   3.132
 7193TIP3    H221523   4.472   3.621   3.196
 7194TIP3   OH221524   0.470   0.740   4.738
 7194TIP3    H121525   0.514   0.696   4.666
 7194TIP3    H221526   0.377   0.726   4.722
 7195TIP3   OH221527   7.125   7.392   3.467
 7195TIP3    H121528   7.109   7.329   3.537
 7195TIP3    H221529   7.140   7.338   3.390
 7196TIP3   OH221530   0.285   3.100   1.420
 7196TIP3    H121531   0.273   3.114   1.326
 7196TIP3    H221532   0.380   3.102   1.433
 7197TIP3   OH221533   0.199   3.007   1.132
 7197TIP3    H121534   0.138   3.077   1.108
 7197TIP3    H221535   0.144   2.929   1.142
 7198TIP3   OH221536   2.485   0.349   0.589
 7198TIP3    H121537   2.554   0.402   0.549
 7198TIP3    H221538   2.412   0.410   0.601
 7199TIP3   OH221539   5.373   4.855   6.386
 7199TIP3    H121540   5.427   4.928   6.354
 7199TIP3    H221541   5.344   4.884   6.473
 7200TIP3   OH221542   1.824   5.457   2.166
 7200TIP3    H121543   1.765   5.475   2.094
 7200TIP3    H221544   1.825   5.361   2.173
 7201TIP3   OH221545   4.430   7.511   5.246
 7201TIP3    H121546   4.357   7.452   5.230
 7201TIP3    H221547   4.499   7.455   5.282
 7202TIP3   OH221548   2.816   4.615   3.129
 7202TIP3    H121549   2.872   4.588   3.201
 7202TIP3    H221550   2.763   4.537   3.110
 7203TIP3   OH221551   8.294   2.673   1.517
 7203TIP3    H121552   8.286   2.733   1.442
 7203TIP3    H221553   8.325   2.591   1.478
 7204TIP3   OH221554   7.547   4.412   4.198
 7204TIP3    H121555   7.491   4.408   4.120
 7204TIP3    H221556   7.487   4.399   4.271
 7205TIP3   OH221557   7.479   4.666   3.788
 7205TIP3    H121558   7.383   4.672   3.786
 7205TIP3    H221559   7.509   4.752   3.761
 7206TIP3   OH221560   4.981   2.097   0.486
 7206TIP3    H121561   4.920   2.114   0.558
 7206TIP3    H221562   5.064   2.076   0.529
 7207TIP3   OH221563   0.234   5.607   6.280
 7207TIP3    H121564   0.171   5.536   6.279
 7207TIP3    H221565   0.272   5.608   6.192
 7208TIP3   OH221566   5.607   4.808   0.301
 7208TIP3    H121567   5.527   4.842   0.341
 7208TIP3    H221568   5.673   4.819   0.369
 7209TIP3   OH221569   0.225   1.020   1.509
 7209TIP3    H121570   0.235   1.052   1.419
 7209TIP3    H221571   0.312   0.990   1.534
 7210TIP3   OH221572   1.554   3.203   4.485
 7210TIP3    H121573   1.627   3.249   4.443
 7210TIP3    H221574   1.480   3.216   4.426
 7211TIP3   OH221575   0.037   2.345   5.335
 7211TIP3    H121576   0.073   2.282   5.272
 7211TIP3    H221577  -0.057   2.326   5.336
 7212TIP3   OH221578   2.829   1.199   0.612
 7212TIP3    H121579   2.736   1.198   0.589
 7212TIP3    H221580   2.843   1.118   0.660
 7213TIP3   OH221581   5.639   5.212   4.942
 7213TIP3    H121582   5.550   5.239   4.962
 7213TIP3    H221583   5.680   5.198   5.027
 7214TIP3   OH221584   3.523   5.937   4.246
 7214TIP3    H121585   3.578   5.896   4.179
 7214TIP3    H221586   3.433   5.926   4.214
 7215TIP3   OH221587   4.858   0.697   3.371
 7215TIP3    H121588   4.901   0.612   3.376
 7215TIP3    H221589   4.774   0.679   3.329
 7216TIP3   OH221590   5.551   0.556   0.289
 7216TIP3    H121591   5.508   0.563   0.375
 7216TIP3    H221592   5.547   0.463   0.268
 7217TIP3   OH221593   0.887   6.352   1.098
 7217TIP3    H121594   0.798   6.332   1.129
 7217TIP3    H221595   0.928   6.397   1.172
 7218TIP3   OH221596   1.503   5.811   3.123
 7218TIP3    H121597   1.552   5.787   3.044
 7218TIP3    H221598   1.559   5.784   3.195
 7219TIP3   OH221599   6.734   4.143   5.332
 7219TIP3    H121600   6.762   4.111   5.417
 7219TIP3    H221601   6.734   4.239   5.342
 7220TIP3   OH221602   6.186   1.073   3.993
 7220TIP3    H121603   6.127   1.081   4.069
 7220TIP3    H221604   6.171   0.984   3.961
 7221TIP3   OH221605   0.452   1.905   5.867
 7221TIP3    H121606   0.526   1.902   5.928
 7221TIP3    H221607   0.400   1.979   5.896
 7222TIP3   OH221608   1.023   1.896   0.003
 7222TIP3    H121609   0.981   1.813  -0.020
 7222TIP3    H221610   1.117   1.877   0.001
 7223TIP3   OH221611   4.286   5.415   0.025
 7223TIP3    H121612   4.246   5.331   0.048
 7223TIP3    H221613   4.367   5.392  -0.020
 7224TIP3   OH221614   5.974   6.030   3.451
 7224TIP3    H121615   5.890   6.046   3.493
 7224TIP3    H221616   5.990   6.109   3.399
 7225TIP3   OH221617   6.947   4.880   1.601
 7225TIP3    H121618   6.939   4.934   1.680
 7225TIP3    H221619   6.962   4.791   1.634
 7226TIP3   OH221620   0.188   4.679   4.798
 7226TIP3    H121621   0.198   4.596   4.752
 7226TIP3    H221622   0.178   4.744   4.728
 7227TIP3   OH221623   3.414   0.069   5.577
 7227TIP3    H121624   3.461   0.143   5.617
 7227TIP3    H221625   3.479  -0.001   5.573
 7228TIP3   OH221626   2.956   3.573   3.440
 7228TIP3    H121627   3.022   3.503   3.446
 7228TIP3    H221628   2.918   3.563   3.353
 7229TIP3   OH221629   4.138   1.736   1.117
 7229TIP3    H121630   4.133   1.776   1.204
 7229TIP3    H221631   4.221   1.688   1.118
 7230TIP3   OH221632   0.275   2.790   3.460
 7230TIP3    H121633   0.242   2.828   3.541
 7230TIP3    H221634   0.206   2.806   3.396
 7231TIP3   OH221635   5.618   1.779   5.630
 7231TIP3    H121636   5.655   1.707   5.579
 7231TIP3    H221637   5.530   1.749   5.655
 7232TIP3   OH221638   6.155   1.099   2.840
 7232TIP3    H121639   6.204   1.090   2.759
 7232TIP3    H221640   6.066   1.120   2.812
 7233TIP3   OH221641   4.049   0.021   2.436
 7233TIP3    H121642   4.066   0.080   2.362
 7233TIP3    H221643   3.985   0.068   2.489
 7234TIP3   OH221644   2.487   1.603   1.869
 7234TIP3    H121645   2.452   1.576   1.954
 7234TIP3    H221646   2.410   1.609   1.813
 7235TIP3   OH221647   6.994   5.002   1.361
 7235TIP3    H121648   7.067   5.055   1.394
 7235TIP3    H221649   6.960   4.957   1.438
 7236TIP3   OH221650   6.292   0.533   3.627
 7236TIP3    H121651   6.357   0.475   3.668
 7236TIP3    H221652   6.312   0.530   3.534
 7237TIP3   OH221653   6.084   6.013   1.495
 7237TIP3    H121654   6.179   6.002   1.490
 7237TIP3    H221655   6.071   6.108   1.483
 7238TIP3   OH221656   5.846   2.445   5.817
 7238TIP3    H121657   5.818   2.386   5.887
 7238TIP3    H221658   5.826   2.533   5.849
 7239TIP3   OH221659   6.055   2.661   4.304
 7239TIP3    H121660   6.046   2.753   4.329
 7239TIP3    H221661   5.965   2.632   4.287
 7240TIP3   OH221662   3.394   5.096   3.089
 7240TIP3    H121663   3.437   5.153   3.152
 7240TIP3    H221664   3.304   5.089   3.120
 7241TIP3   OH221665   1.318   0.812   6.484
 7241TIP3    H121666   1.300   0.887   6.428
 7241TIP3    H221667   1.235   0.793   6.527
 7242TIP3   OH221668   7.783   4.836   0.355
 7242TIP3    H121669   7.816   4.893   0.286
 7242TIP3    H221670   7.729   4.772   0.309
 7243TIP3   OH221671   1.754   5.380   1.327
 7243TIP3    H121672   1.692   5.453   1.320
 7243TIP3    H221673   1.766   5.368   1.421
 7244TIP3   OH221674   7.117   7.194   1.526
 7244TIP3    H121675   7.076   7.269   1.482
 7244TIP3    H221676   7.081   7.118   1.480
 7245TIP3   OH221677   4.152   4.394   2.249
 7245TIP3    H121678   4.148   4.401   2.345
 7245TIP3    H221679   4.084   4.330   2.227
 7246TIP3   OH221680   7.906   5.645   2.224
 7246TIP3    H121681   7.879   5.716   2.166
 7246TIP3    H221682   7.973   5.598   2.174
 7247TIP3   OH221683   7.310   7.482   1.105
 7247TIP3    H121684   7.328   7.570   1.070
 7247TIP3    H221685   7.235   7.451   1.054
 7248TIP3   OH221686   0.347   4.097   3.546
 7248TIP3    H121687   0.413   4.061   3.605
 7248TIP3    H221688   0.315   4.022   3.496
 7249TIP3   OH221689   0.789   3.945   1.406
 7249TIP3    H121690   0.863   4.006   1.403
 7249TIP3    H221691   0.827   3.861   1.378
 7250TIP3   OH221692   7.745   6.853   2.252
 7250TIP3    H121693   7.708   6.888   2.333
 7250TIP3    H221694   7.724   6.918   2.185
 7251TIP3   OH221695   1.850   0.857   5.563
 7251TIP3    H121696   1.795   0.856   5.485
 7251TIP3    H221697   1.794   0.893   5.632
 7252TIP3   OH221698   3.408   6.757   0.981
 7252TIP3    H121699   3.362   6.673   0.982
 7252TIP3    H221700   3.393   6.793   1.069
 7253TIP3   OH221701   6.493   1.756   3.377
 7253TIP3    H121702   6.479   1.824   3.442
 7253TIP3    H221703   6.536   1.685   3.426
 7254TIP3   OH221704   3.866   1.081   5.332
 7254TIP3    H121705   3.915   1.002   5.356
 7254TIP3    H221706   3.894   1.147   5.396
 7255TIP3   OH221707   2.653   7.254   6.336
 7255TIP3    H121708   2.714   7.209   6.395
 7255TIP3    H221709   2.566   7.229   6.367
 7256TIP3   OH221710   7.540   3.597   3.332
 7256TIP3    H121711   7.470   3.639   3.283
 7256TIP3    H221712   7.512   3.506   3.342
 7257TIP3   OH221713   0.160   7.137   6.070
 7257TIP3    H121714   0.193   7.183   5.993
 7257TIP3    H221715   0.231   7.142   6.134
 7258TIP3   OH221716   6.302   3.701   0.501
 7258TIP3    H121717   6.293   3.622   0.554
 7258TIP3    H221718   6.378   3.746   0.538
 7259TIP3   OH221719   7.584   7.321   5.781
 7259TIP3    H121720   7.615   7.231   5.792
 7259TIP3    H221721   7.654   7.375   5.820
 7260TIP3   OH221722   2.235   0.991   5.049
 7260TIP3    H121723   2.145   1.010   5.073
 7260TIP3    H221724   2.238   1.002   4.954
 7261TIP3   OH221725   4.672   6.186   0.868
 7261TIP3    H121726   4.613   6.110   0.869
 7261TIP3    H221727   4.694   6.198   0.776
 7262TIP3   OH221728   5.359   7.630   1.363
 7262TIP3    H121729   5.308   7.676   1.429
 7262TIP3    H221730   5.339   7.675   1.281
 7263TIP3   OH221731   8.055   6.615   5.059
 7263TIP3    H121732   7.964   6.635   5.081
 7263TIP3    H221733   8.106   6.665   5.123
 7264TIP3   OH221734   5.995   0.836   5.584
 7264TIP3    H121735   5.948   0.820   5.665
 7264TIP3    H221736   5.984   0.930   5.567
 7265TIP3   OH221737   2.564   6.721   2.873
 7265TIP3    H121738   2.475   6.686   2.878
 7265TIP3    H221739   2.596   6.695   2.786
 7266TIP3   OH221740   3.918   0.199   1.488
 7266TIP3    H121741   3.931   0.137   1.559
 7266TIP3    H221742   3.841   0.166   1.441
 7267TIP3   OH221743   3.334   1.529   4.680
 7267TIP3    H121744   3.356   1.564   4.766
 7267TIP3    H221745   3.249   1.568   4.659
 7268TIP3   OH221746   1.959   0.693   3.455
 7268TIP3    H121747   1.907   0.759   3.500
 7268TIP3    H221748   1.901   0.658   3.388
 7269TIP3   OH221749   6.385   5.672   4.546
 7269TIP3    H121750   6.345   5.750   4.584
 7269TIP3    H221751   6.476   5.675   4.575
 7270TIP3   OH221752   1.235   7.104   1.575
 7270TIP3    H121753   1.170   7.172   1.558
 7270TIP3    H221754   1.195   7.049   1.642
 7271TIP3   OH221755   3.247   0.072   0.453
 7271TIP3    H121756   3.167   0.025   0.430
 7271TIP3    H221757   3.221   0.163   0.461
 7272TIP3   OH221758   0.801   3.230   4.568
 7272TIP3    H121759   0.734   3.177   4.525
 7272TIP3    H221760   0.765   3.249   4.654
 7273TIP3   OH221761   0.677   5.286   0.455
 7273TIP3    H121762   0.594   5.268   0.500
 7273TIP3    H221763   0.662   5.259   0.364
 7274TIP3   OH221764   1.887   2.390   3.829
 7274TIP3    H121765   1.870   2.411   3.920
 7274TIP3    H221766   1.834   2.312   3.812
 7275TIP3   OH221767   5.461   5.340   2.000
 7275TIP3    H121768   5.524   5.342   1.927
 7275TIP3    H221769   5.504   5.286   2.067
 7276TIP3   OH221770   6.946   6.595   2.326
 7276TIP3    H121771   7.032   6.617   2.359
 7276TIP3    H221772   6.959   6.585   2.231
 7277TIP3   OH221773   4.822   1.646   4.450
 7277TIP3    H121774   4.791   1.605   4.370
 7277TIP3    H221775   4.917   1.651   4.440
 7278TIP3   OH221776   4.727   3.517   0.631
 7278TIP3    H121777   4.815   3.544   0.657
 7278TIP3    H221778   4.680   3.505   0.714
 7279TIP3   OH221779   1.833   2.596   2.007
 7279TIP3    H121780   1.819   2.584   1.913
 7279TIP3    H221781   1.888   2.675   2.013
 7280TIP3   OH221782   3.255   1.700   3.957
 7280TIP3    H121783   3.273   1.692   4.051
 7280TIP3    H221784   3.341   1.711   3.917
 7281TIP3   OH221785   0.865   2.588   4.954
 7281TIP3    H121786   0.910   2.550   5.030
 7281TIP3    H221787   0.899   2.677   4.948
 7282TIP3   OH221788   5.460   2.108   3.282
 7282TIP3    H121789   5.438   2.189   3.237
 7282TIP3    H221790   5.398   2.104   3.355
 7283TIP3   OH221791   0.912   4.676   6.085
 7283TIP3    H121792   0.888   4.603   6.143
 7283TIP3    H221793   0.848   4.744   6.105
 7284TIP3   OH221794   4.032   5.034   5.995
 7284TIP3    H121795   4.020   4.980   6.073
 7284TIP3    H221796   3.946   5.072   5.979
 7285TIP3   OH221797   5.399   0.114   0.866
 7285TIP3    H121798   5.477   0.068   0.837
 7285TIP3    H221799   5.355   0.140   0.784
 7286TIP3   OH221800   5.107   4.841   0.473
 7286TIP3    H121801   5.161   4.809   0.546
 7286TIP3    H221802   5.062   4.917   0.509
 7287TIP3   OH221803   0.927   6.058   4.584
 7287TIP3    H121804   0.899   5.990   4.646
 7287TIP3    H221805   0.945   6.134   4.640
 7288TIP3   OH221806   1.236   1.555   2.030
 7288TIP3    H121807   1.221   1.597   2.114
 7288TIP3    H221808   1.221   1.624   1.965
 7289TIP3   OH221809   4.169   3.270   1.155
 7289TIP3    H121810   4.104   3.340   1.166
 7289TIP3    H221811   4.253   3.311   1.177
 7290TIP3   OH221812   3.903   2.268   6.267
 7290TIP3    H121813   3.968   2.329   6.232
 7290TIP3    H221814   3.952   2.188   6.284
 7291TIP3   OH221815   6.753   4.697   4.244
 7291TIP3    H121816   6.845   4.670   4.248
 7291TIP3    H221817   6.726   4.701   4.336
 7292TIP3   OH221818   1.632   4.847   5.228
 7292TIP3    H121819   1.628   4.793   5.307
 7292TIP3    H221820   1.576   4.922   5.247
 7293TIP3   OH221821   6.235   1.551   2.113
 7293TIP3    H121822   6.251   1.461   2.140
 7293TIP3    H221823   6.309   1.571   2.055
 7294TIP3   OH221824   4.273   5.874   1.766
 7294TIP3    H121825   4.181   5.878   1.793
 7294TIP3    H221826   4.269   5.860   1.672
 7295TIP3   OH221827   4.410   7.764   3.549
 7295TIP3    H121828   4.387   7.778   3.457
 7295TIP3    H221829   4.497   7.803   3.559
 7296TIP3   OH221830   0.271   2.125   2.568
 7296TIP3    H121831   0.286   2.216   2.592
 7296TIP3    H221832   0.290   2.121   2.475
 7297TIP3   OH221833   4.168   4.378   5.873
 7297TIP3    H121834   4.163   4.459   5.822
 7297TIP3    H221835   4.108   4.392   5.947
 7298TIP3   OH221836   5.075   0.500   6.153
 7298TIP3    H121837   5.078   0.430   6.218
 7298TIP3    H221838   4.982   0.512   6.135
 7299TIP3   OH221839   4.842   7.566   2.404
 7299TIP3    H121840   4.892   7.623   2.462
 7299TIP3    H221841   4.907   7.506   2.368
 7300TIP3   OH221842   0.332   0.569   2.706
 7300TIP3    H121843   0.310   0.543   2.795
 7300TIP3    H221844   0.404   0.510   2.680
 7301TIP3   OH221845   1.520   1.809   5.338
 7301TIP3    H121846   1.543   1.887   5.389
 7301TIP3    H221847   1.529   1.736   5.399
 7302TIP3   OH221848   7.930   5.432   1.505
 7302TIP3    H121849   7.845   5.395   1.531
 7302TIP3    H221850   7.949   5.497   1.573
 7303TIP3   OH221851   5.734   6.565   2.975
 7303TIP3    H121852   5.696   6.480   2.996
 7303TIP3    H221853   5.692   6.591   2.893
 7304TIP3   OH221854   5.834   5.506   2.996
 7304TIP3    H121855   5.916   5.457   2.988
 7304TIP3    H221856   5.780   5.473   2.924
 7305TIP3   OH221857   2.542   1.717   4.249
 7305TIP3    H121858   2.574   1.785   4.190
 7305TIP3    H221859   2.470   1.676   4.201
 7306TIP3   OH221860   5.646   5.085   5.973
 7306TIP3    H121861   5.707   5.072   5.901
 7306TIP3    H221862   5.698   5.069   6.052
 7307TIP3   OH221863   2.539   6.963   0.473
 7307TIP3    H121864   2.494   6.887   0.510
 7307TIP3    H221865   2.473   7.006   0.419
 7308TIP3   OH221866   4.422   2.326   1.300
 7308TIP3    H121867   4.378   2.329   1.215
 7308TIP3    H221868   4.351   2.318   1.364
 7309TIP3   OH221869   4.448   1.679   0.861
 7309TIP3    H121870   4.391   1.751   0.836
 7309TIP3    H221871   4.441   1.675   0.956
 7310TIP3   OH221872   5.057   1.927   2.518
 7310TIP3    H121873   5.068   1.945   2.425
 7310TIP3    H221874   5.145   1.904   2.549
 7311TIP3   OH221875   0.693   7.578   5.879
 7311TIP3    H121876   0.686   7.484   5.895
 7311TIP3    H221877   0.604   7.611   5.894
 7312TIP3   OH221878   4.395   5.194   0.332
 7312TIP3    H121879   4.467   5.168   0.274
 7312TIP3    H221880   4.432   5.265   0.384
 7313TIP3   OH221881   4.537   0.996   4.501
 7313TIP3    H121882   4.545   0.925   4.437
 7313TIP3    H221883   4.537   1.076   4.448
 7314TIP3   OH221884   6.603   7.700   2.737
 7314TIP3    H121885   6.664   7.728   2.669
 7314TIP3    H221886   6.608   7.604   2.735
 7315TIP3   OH221887   4.591   5.460   3.794
 7315TIP3    H121888   4.591   5.551   3.825
 7315TIP3    H221889   4.529   5.459   3.721
 7316TIP3   OH221890   4.156   2.744   6.748
 7316TIP3    H121891   4.106   2.695   6.813
 7316TIP3    H221892   4.158   2.834   6.780
 7317TIP3   OH221893   3.308   7.160   4.470
 7317TIP3    H121894   3.217   7.145   4.492
 7317TIP3    H221895   3.314   7.255   4.455
 7318TIP3   OH221896   4.891   2.469   6.774
 7318TIP3    H121897   4.916   2.411   6.701
 7318TIP3    H221898   4.796   2.469   6.772
 7319TIP3   OH221899   7.129   6.992   5.031
 7319TIP3    H121900   7.036   6.969   5.041
 7319TIP3    H221901   7.151   7.035   5.113
 7320TIP3   OH221902   7.374   5.836   1.263
 7320TIP3    H121903   7.282   5.828   1.291
 7320TIP3    H221904   7.420   5.865   1.342
 7321TIP3   OH221905   2.036   2.208   1.903
 7321TIP3    H121906   2.084   2.291   1.900
 7321TIP3    H221907   1.945   2.234   1.918
 7322TIP3   OH221908   2.575   4.353   3.610
 7322TIP3    H121909   2.633   4.379   3.538
 7322TIP3    H221910   2.582   4.258   3.613
 7323TIP3   OH221911   7.709   7.444   2.156
 7323TIP3    H121912   7.676   7.490   2.233
 7323TIP3    H221913   7.772   7.505   2.117
 7324TIP3   OH221914   7.248   1.458   2.003
 7324TIP3    H121915   7.337   1.430   2.025
 7324TIP3    H221916   7.195   1.432   2.079
 7325TIP3   OH221917   1.064   1.564   1.172
 7325TIP3    H121918   1.038   1.526   1.088
 7325TIP3    H221919   1.125   1.634   1.150
 7326TIP3   OH221920   3.847   4.743   0.633
 7326TIP3    H121921   3.934   4.732   0.594
 7326TIP3    H221922   3.863   4.792   0.713
 7327TIP3   OH221923   1.585   6.366   1.206
 7327TIP3    H121924   1.531   6.332   1.278
 7327TIP3    H221925   1.674   6.339   1.228
 7328TIP3   OH221926   3.779   3.090   3.127
 7328TIP3    H121927   3.781   3.126   3.038
 7328TIP3    H221928   3.757   3.165   3.182
 7329TIP3   OH221929   7.143   3.504   3.105
 7329TIP3    H121930   7.143   3.491   3.200
 7329TIP3    H221931   7.136   3.598   3.094
 7330TIP3   OH221932   3.660   1.121   4.430
 7330TIP3    H121933   3.570   1.113   4.462
 7330TIP3    H221934   3.653   1.110   4.335
 7331TIP3   OH221935   2.370   1.059   3.576
 7331TIP3    H121936   2.306   0.992   3.553
 7331TIP3    H221937   2.401   1.034   3.663
 7332TIP3   OH221938   3.652   0.439   2.472
 7332TIP3    H121939   3.636   0.500   2.543
 7332TIP3    H221940   3.705   0.489   2.409
 7333TIP3   OH221941   4.144   3.276   6.014
 7333TIP3    H121942   4.165   3.237   5.929
 7333TIP3    H221943   4.196   3.356   6.017
 7334TIP3   OH221944   6.194   3.129   2.274
 7334TIP3    H121945   6.276   3.131   2.224
 7334TIP3    H221946   6.198   3.047   2.323
 7335TIP3   OH221947   3.067   4.030   6.253
 7335TIP3    H121948   2.983   4.073   6.239
 7335TIP3    H221949   3.116   4.090   6.308
 7336TIP3   OH221950   6.445   5.185   1.189
 7336TIP3    H121951   6.386   5.151   1.256
 7336TIP3    H221952   6.424   5.278   1.184
 7337TIP3   OH221953   5.112   0.959   5.739
 7337TIP3    H121954   5.097   0.875   5.781
 7337TIP3    H221955   5.025   0.989   5.713
 7338TIP3   OH221956   1.378   5.080   3.540
 7338TIP3    H121957   1.453   5.134   3.566
 7338TIP3    H221958   1.380   5.080   3.445
 7339TIP3   OH221959   6.980   4.054   1.955
 7339TIP3    H121960   6.924   3.977   1.946
 7339TIP3    H221961   7.053   4.024   2.008
 7340TIP3   OH221962   6.770   4.746   0.940
 7340TIP3    H121963   6.792   4.773   1.030
 7340TIP3    H221964   6.678   4.768   0.930
 7341TIP3   OH221965   2.028   2.053   5.815
 7341TIP3    H121966   2.116   2.068   5.780
 7341TIP3    H221967   1.991   1.984   5.758
 7342TIP3   OH221968   7.193   2.544   6.154
 7342TIP3    H121969   7.215   2.490   6.230
 7342TIP3    H221970   7.140   2.615   6.189
 7343TIP3   OH221971   6.455   5.159   0.600
 7343TIP3    H121972   6.512   5.234   0.588
 7343TIP3    H221973   6.422   5.139   0.512
 7344TIP3   OH221974   1.977   7.070   6.127
 7344TIP3    H121975   1.995   7.023   6.046
 7344TIP3    H221976   1.884   7.057   6.143
 7345TIP3   OH221977   3.424   2.284   6.216
 7345TIP3    H121978   3.399   2.207   6.166
 7345TIP3    H221979   3.380   2.273   6.301
 7346TIP3   OH221980   5.694   7.359   1.108
 7346TIP3    H121981   5.717   7.423   1.175
 7346TIP3    H221982   5.600   7.344   1.120
 7347TIP3   OH221983   2.555   1.801   2.913
 7347TIP3    H121984   2.540   1.709   2.892
 7347TIP3    H221985   2.478   1.846   2.878
 7348TIP3   OH221986   5.543   1.044   5.340
 7348TIP3    H121987   5.623   1.025   5.291
 7348TIP3    H221988   5.557   1.005   5.426
 7349TIP3   OH221989   2.221   0.444   3.523
 7349TIP3    H121990   2.188   0.505   3.589
 7349TIP3    H221991   2.204   0.358   3.561
 7350TIP3   OH221992   4.204   3.468   0.155
 7350TIP3    H121993   4.124   3.416   0.146
 7350TIP3    H221994   4.237   3.446   0.242
 7351TIP3   OH221995   0.099   2.872   0.082
 7351TIP3    H121996   0.154   2.814   0.135
 7351TIP3    H221997   0.131   2.860  -0.008
 7352TIP3   OH221998   6.684   1.473   2.717
 7352TIP3    H121999   6.696   1.559   2.678
 7352TIP3    H222000   6.626   1.488   2.792
 7353TIP3   OH222001   7.285   4.760   4.806
 7353TIP3    H122002   7.226   4.698   4.850
 7353TIP3    H222003   7.341   4.705   4.751
 7354TIP3   OH222004   3.157   5.060   6.302
 7354TIP3    H122005   3.154   4.982   6.246
 7354TIP3    H222006   3.073   5.104   6.287
 7355TIP3   OH222007   2.858   1.345   6.682
 7355TIP3    H122008   2.938   1.389   6.708
 7355TIP3    H222009   2.807   1.337   6.763
 7356TIP3   OH222010   3.355   1.621   4.932
 7356TIP3    H122011   3.315   1.691   4.985
 7356TIP3    H222012   3.442   1.609   4.970
 7357TIP3   OH222013   4.888   4.779   2.986
 7357TIP3    H122014   4.936   4.697   2.976
 7357TIP3    H222015   4.906   4.828   2.906
 7358TIP3   OH222016   6.193   0.343   0.973
 7358TIP3    H122017   6.230   0.422   0.933
 7358TIP3    H222018   6.227   0.343   1.063
 7359TIP3   OH222019   6.662   5.521   3.812
 7359TIP3    H122020   6.611   5.535   3.732
 7359TIP3    H222021   6.707   5.605   3.826
 7360TIP3   OH222022   7.760   6.344   6.107
 7360TIP3    H122023   7.847   6.315   6.134
 7360TIP3    H222024   7.701   6.302   6.169
 7361TIP3   OH222025  -0.011   3.558   5.668
 7361TIP3    H122026   0.062   3.532   5.611
 7361TIP3    H222027  -0.041   3.641   5.632
 7362TIP3   OH222028   0.680   4.950   0.068
 7362TIP3    H122029   0.728   4.946  -0.015
 7362TIP3    H222030   0.620   4.875   0.064
 7363TIP3   OH222031   8.336   4.859   5.274
 7363TIP3    H122032   8.252   4.882   5.315
 7363TIP3    H222033   8.352   4.931   5.212
 7364TIP3   OH222034   3.191   4.812   3.119
 7364TIP3    H122035   3.118   4.808   3.058
 7364TIP3    H222036   3.190   4.903   3.151
 7365TIP3   OH222037   3.749   7.572   6.337
 7365TIP3    H122038   3.828   7.625   6.343
 7365TIP3    H222039   3.684   7.619   6.390
 7366TIP3   OH222040   6.706   2.767   0.828
 7366TIP3    H122041   6.788   2.735   0.866
 7366TIP3    H222042   6.705   2.731   0.739
 7367TIP3   OH222043   3.417   4.158   1.903
 7367TIP3    H122044   3.363   4.237   1.908
 7367TIP3    H222045   3.392   4.107   1.980
 7368TIP3   OH222046   3.236   3.408   4.179
 7368TIP3    H122047   3.189   3.480   4.222
 7368TIP3    H222048   3.216   3.420   4.086
 7369TIP3   OH222049   0.478   0.844   3.881
 7369TIP3    H122050   0.420   0.883   3.816
 7369TIP3    H222051   0.566   0.863   3.849
 7370TIP3   OH222052   2.580   6.829   5.495
 7370TIP3    H122053   2.567   6.734   5.502
 7370TIP3    H222054   2.492   6.866   5.505
 7371TIP3   OH222055   3.023   0.262   5.811
 7371TIP3    H122056   3.062   0.303   5.888
 7371TIP3    H222057   3.073   0.297   5.737
 7372TIP3   OH222058   3.463   3.175   1.484
 7372TIP3    H122059   3.481   3.233   1.410
 7372TIP3    H222060   3.377   3.137   1.465
 7373TIP3   OH222061   2.098   7.483   0.861
 7373TIP3    H122062   2.043   7.411   0.832
 7373TIP3    H222063   2.174   7.441   0.901
 7374TIP3   OH222064   1.570   5.275   1.114
 7374TIP3    H122065   1.490   5.296   1.162
 7374TIP3    H222066   1.636   5.263   1.181
 7375TIP3   OH222067   7.475   0.555   1.800
 7375TIP3    H122068   7.409   0.622   1.819
 7375TIP3    H222069   7.537   0.562   1.873
 7376TIP3   OH222070   3.081   3.002   0.332
 7376TIP3    H122071   3.093   2.964   0.419
 7376TIP3    H222072   3.016   2.945   0.291
 7377TIP3   OH222073   3.922   3.416   1.001
 7377TIP3    H122074   3.854   3.470   0.960
 7377TIP3    H222075   3.900   3.417   1.094
 7378TIP3   OH222076   6.652   5.639   4.600
 7378TIP3    H122077   6.705   5.593   4.535
 7378TIP3    H222078   6.710   5.650   4.675
 7379TIP3   OH222079   1.519   4.696   6.093
 7379TIP3    H122080   1.424   4.705   6.098
 7379TIP3    H222081   1.541   4.634   6.163
 7380TIP3   OH222082   6.663   1.580   5.441
 7380TIP3    H122083   6.619   1.501   5.410
 7380TIP3    H222084   6.656   1.642   5.369
 7381TIP3   OH222085   5.673   1.864   6.787
 7381TIP3    H122086   5.718   1.780   6.775
 7381TIP3    H222087   5.614   1.870   6.712
 7382TIP3   OH222088   1.375   4.147   2.734
 7382TIP3    H122089   1.422   4.230   2.746
 7382TIP3    H222090   1.430   4.082   2.777
 7383TIP3   OH222091   3.389   7.221   5.397
 7383TIP3    H122092   3.377   7.161   5.471
 7383TIP3    H222093   3.424   7.301   5.437
 7384TIP3   OH222094   4.462   6.175   2.927
 7384TIP3    H122095   4.459   6.125   3.009
 7384TIP3    H222096   4.510   6.119   2.866
 7385TIP3   OH222097   0.399   1.225   2.718
 7385TIP3    H122098   0.406   1.311   2.677
 7385TIP3    H222099   0.411   1.163   2.645
 7386TIP3   OH222100   0.690   5.228   1.672
 7386TIP3    H122101   0.678   5.317   1.705
 7386TIP3    H222102   0.773   5.230   1.625
 7387TIP3   OH222103   5.442   6.926   6.514
 7387TIP3    H122104   5.446   6.843   6.467
 7387TIP3    H222105   5.351   6.955   6.504
 7388TIP3   OH222106   0.485   5.812   0.563
 7388TIP3    H122107   0.577   5.785   0.570
 7388TIP3    H222108   0.478   5.887   0.622
 7389TIP3   OH222109   6.486   0.540   5.143
 7389TIP3    H122110   6.517   0.625   5.112
 7389TIP3    H222111   6.489   0.483   5.066
 7390TIP3   OH222112   1.741   7.498   0.700
 7390TIP3    H122113   1.819   7.540   0.664
 7390TIP3    H222114   1.675   7.567   0.703
 7391TIP3   OH222115   3.870   4.317   4.838
 7391TIP3    H122116   3.834   4.318   4.927
 7391TIP3    H222117   3.868   4.409   4.811
 7392TIP3   OH222118   5.569   4.292   4.054
 7392TIP3    H122119   5.531   4.243   3.982
 7392TIP3    H222120   5.659   4.310   4.027
 7393TIP3   OH222121   5.590   1.560   4.869
 7393TIP3    H122122   5.554   1.472   4.881
 7393TIP3    H222123   5.567   1.582   4.778
 7394TIP3   OH222124   0.826   0.792   5.538
 7394TIP3    H122125   0.870   0.853   5.480
 7394TIP3    H222126   0.744   0.835   5.562
 7395TIP3   OH222127   8.058   2.590   1.681
 7395TIP3    H122128   8.124   2.637   1.629
 7395TIP3    H222129   8.008   2.660   1.724
 7396TIP3   OH222130   3.243   2.782   6.632
 7396TIP3    H122131   3.272   2.835   6.706
 7396TIP3    H222132   3.291   2.818   6.557
 7397TIP3   OH222133   5.444   1.269   2.495
 7397TIP3    H122134   5.521   1.216   2.474
 7397TIP3    H222135   5.369   1.213   2.471
 7398TIP3   OH222136   2.578   4.789   4.459
 7398TIP3    H122137   2.617   4.773   4.545
 7398TIP3    H222138   2.639   4.750   4.397
 7399TIP3   OH222139   5.593   6.766   6.033
 7399TIP3    H122140   5.502   6.796   6.033
 7399TIP3    H222141   5.623   6.780   5.943
 7400TIP3   OH222142   3.067   7.750   4.054
 7400TIP3    H122143   3.008   7.690   4.099
 7400TIP3    H222144   3.065   7.723   3.963
 7401TIP3   OH222145   1.941   0.334   1.068
 7401TIP3    H122146   1.892   0.381   1.001
 7401TIP3    H222147   1.995   0.271   1.020
 7402TIP3   OH222148   6.968   5.548   6.659
 7402TIP3    H122149   6.928   5.467   6.626
 7402TIP3    H222150   6.914   5.573   6.733
 7403TIP3   OH222151   5.947   1.679   4.447
 7403TIP3    H122152   5.955   1.733   4.368
 7403TIP3    H222153   5.906   1.737   4.511
 7404TIP3   OH222154   5.269   6.858   0.454
 7404TIP3    H122155   5.332   6.910   0.404
 7404TIP3    H222156   5.319   6.781   0.482
 7405TIP3   OH222157   5.151   0.767   5.036
 7405TIP3    H122158   5.208   0.727   5.102
 7405TIP3    H222159   5.211   0.806   4.973
 7406TIP3   OH222160   1.125   3.144   3.062
 7406TIP3    H122161   1.165   3.057   3.059
 7406TIP3    H222162   1.058   3.141   2.994
 7407TIP3   OH222163   7.947   3.854   5.841
 7407TIP3    H122164   7.916   3.909   5.769
 7407TIP3    H222165   7.991   3.915   5.901
 7408TIP3   OH222166   4.835   0.614   0.678
 7408TIP3    H122167   4.827   0.707   0.657
 7408TIP3    H222168   4.745   0.584   0.691
 7409TIP3   OH222169   5.193   5.423   1.488
 7409TIP3    H122170   5.286   5.404   1.505
 7409TIP3    H222171   5.173   5.496   1.546
 7410TIP3   OH222172   7.174   6.387   6.379
 7410TIP3    H122173   7.200   6.471   6.343
 7410TIP3    H222174   7.197   6.323   6.312
 7411TIP3   OH222175   0.003   2.534   0.353
 7411TIP3    H122176   0.004   2.515   0.259
 7411TIP3    H222177   0.095   2.546   0.375
 7412TIP3   OH222178   6.008   5.427   3.443
 7412TIP3    H122179   6.026   5.361   3.510
 7412TIP3    H222180   6.087   5.428   3.388
 7413TIP3   OH222181   4.127   6.453   6.535
 7413TIP3    H122182   4.039   6.449   6.497
 7413TIP3    H222183   4.127   6.533   6.587
 7414TIP3   OH222184   6.687   4.775   3.448
 7414TIP3    H122185   6.764   4.726   3.476
 7414TIP3    H222186   6.669   4.743   3.360
 7415TIP3   OH222187   0.902   5.634   1.140
 7415TIP3    H122188   0.840   5.595   1.079
 7415TIP3    H222189   0.939   5.709   1.094
 7416TIP3   OH222190   2.523   5.585   4.960
 7416TIP3    H122191   2.496   5.500   4.994
 7416TIP3    H222192   2.614   5.594   4.988
 7417TIP3   OH222193   5.244   3.953   1.026
 7417TIP3    H122194   5.283   4.008   1.095
 7417TIP3    H222195   5.249   3.864   1.061
 7418TIP3   OH222196   6.608   1.187   0.247
 7418TIP3    H122197   6.702   1.169   0.260
 7418TIP3    H222198   6.597   1.189   0.152
 7419TIP3   OH222199   1.464   5.288   6.005
 7419TIP3    H122200   1.447   5.215   6.064
 7419TIP3    H222201   1.448   5.253   5.918
 7420TIP3   OH222202   1.327   1.559   5.138
 7420TIP3    H122203   1.284   1.476   5.160
 7420TIP3    H222204   1.418   1.547   5.168
 7421TIP3   OH222205   0.236   4.823   4.573
 7421TIP3    H122206   0.303   4.809   4.506
 7421TIP3    H222207   0.178   4.888   4.535
 7422TIP3   OH222208   6.319   2.960   2.766
 7422TIP3    H122209   6.334   3.024   2.696
 7422TIP3    H222210   6.393   2.973   2.826
 7423TIP3   OH222211   8.002   0.369   2.075
 7423TIP3    H122212   8.034   0.290   2.032
 7423TIP3    H222213   7.921   0.342   2.118
 7424TIP3   OH222214   5.551   1.993   5.494
 7424TIP3    H122215   5.597   1.918   5.533
 7424TIP3    H222216   5.459   1.967   5.492
 7425TIP3   OH222217   4.559   0.170   1.404
 7425TIP3    H122218   4.510   0.252   1.395
 7425TIP3    H222219   4.639   0.185   1.353
 7426TIP3   OH222220   6.351   6.511   5.978
 7426TIP3    H122221   6.412   6.557   5.920
 7426TIP3    H222222   6.272   6.500   5.926
 7427TIP3   OH222223   3.228   3.744   2.148
 7427TIP3    H122224   3.312   3.713   2.181
 7427TIP3    H222225   3.207   3.685   2.076
 7428TIP3   OH222226   8.099   6.197   3.558
 7428TIP3    H122227   8.090   6.242   3.473
 7428TIP3    H222228   8.099   6.104   3.536
 7429TIP3   OH222229   3.867   7.322   6.525
 7429TIP3    H122230   3.813   7.281   6.457
 7429TIP3    H222231   3.843   7.414   6.522
 7430TIP3   OH222232   8.066   3.728   3.229
 7430TIP3    H122233   7.994   3.730   3.166
 7430TIP3    H222234   8.138   3.773   3.185
 7431TIP3   OH222235   5.851   1.243   3.239
 7431TIP3    H122236   5.786   1.305   3.272
 7431TIP3    H222237   5.853   1.172   3.303
 7432TIP3   OH222238   7.435   1.039   3.251
 7432TIP3    H122239   7.456   1.025   3.343
 7432TIP3    H222240   7.390   1.123   3.249
 7433TIP3   OH222241   5.902   7.387   4.984
 7433TIP3    H122242   5.852   7.469   4.985
 7433TIP3    H222243   5.873   7.340   5.063
 7434TIP3   OH222244   8.051   7.534   1.360
 7434TIP3    H122245   8.047   7.613   1.307
 7434TIP3    H222246   8.126   7.548   1.418
 7435TIP3   OH222247   6.276   3.225   3.968
 7435TIP3    H122248   6.194   3.221   3.918
 7435TIP3    H222249   6.251   3.200   4.057
 7436TIP3   OH222250   7.323   1.586   3.627
 7436TIP3    H122251   7.240   1.550   3.595
 7436TIP3    H222252   7.298   1.660   3.683
 7437TIP3   OH222253   4.605   0.421   3.937
 7437TIP3    H122254   4.694   0.447   3.959
 7437TIP3    H222255   4.569   0.495   3.889
 7438TIP3   OH222256   5.126   7.085   4.775
 7438TIP3    H122257   5.106   7.002   4.731
 7438TIP3    H222258   5.040   7.126   4.787
 7439TIP3   OH222259   5.044   6.094   4.874
 7439TIP3    H122260   5.056   6.183   4.839
 7439TIP3    H222261   5.014   6.043   4.799
 7440TIP3   OH222262   7.389   3.368   4.325
 7440TIP3    H122263   7.438   3.448   4.306
 7440TIP3    H222264   7.425   3.337   4.408
 7441TIP3   OH222265   0.765   0.092   2.276
 7441TIP3    H122266   0.833   0.160   2.272
 7441TIP3    H222267   0.801   0.020   2.225
 7442TIP3   OH222268   5.799   1.394   2.878
 7442TIP3    H122269   5.797   1.421   2.969
 7442TIP3    H222270   5.771   1.472   2.829
 7443TIP3   OH222271   5.738   7.262   2.143
 7443TIP3    H122272   5.772   7.204   2.212
 7443TIP3    H222273   5.653   7.225   2.122
 7444TIP3   OH222274   3.177   1.965   5.393
 7444TIP3    H122275   3.194   1.952   5.487
 7444TIP3    H222276   3.219   2.048   5.372
 7445TIP3   OH222277   4.636   3.214   0.996
 7445TIP3    H122278   4.708   3.267   0.960
 7445TIP3    H222279   4.621   3.147   0.930
 7446TIP3   OH222280   0.583   6.794   6.686
 7446TIP3    H122281   0.552   6.706   6.708
 7446TIP3    H222282   0.675   6.782   6.663
 7447TIP3   OH222283   6.469   0.776   0.177
 7447TIP3    H122284   6.520   0.820   0.109
 7447TIP3    H222285   6.394   0.834   0.191
 7448TIP3   OH222286   4.781   7.195   1.936
 7448TIP3    H122287   4.869   7.232   1.924
 7448TIP3    H222288   4.781   7.163   2.027
 7449TIP3   OH222289   0.994   5.610   1.420
 7449TIP3    H122290   1.007   5.591   1.327
 7449TIP3    H222291   1.020   5.702   1.430
 7450TIP3   OH222292   0.284   7.290   5.884
 7450TIP3    H122293   0.214   7.290   5.819
 7450TIP3    H222294   0.327   7.375   5.872
 7451TIP3   OH222295   4.895   3.998   1.144
 7451TIP3    H122296   4.801   3.989   1.124
 7451TIP3    H222297   4.933   4.034   1.064
 7452TIP3   OH222298   2.010   3.912   2.094
 7452TIP3    H122299   2.023   3.822   2.065
 7452TIP3    H222300   1.916   3.920   2.107
 7453TIP3   OH222301   1.565   6.534   0.607
 7453TIP3    H122302   1.510   6.554   0.682
 7453TIP3    H222303   1.504   6.512   0.537
 7454TIP3   OH222304   4.819   2.995   1.917
 7454TIP3    H122305   4.824   3.084   1.952
 7454TIP3    H222306   4.894   2.989   1.857
 7455TIP3   OH222307   6.368   7.321   5.162
 7455TIP3    H122308   6.324   7.237   5.148
 7455TIP3    H222309   6.401   7.316   5.252
 7456TIP3   OH222310   7.696   7.806   5.824
 7456TIP3    H122311   7.607   7.831   5.798
 7456TIP3    H222312   7.690   7.713   5.843
 7457TIP3   OH222313   3.640   2.628   5.601
 7457TIP3    H122314   3.732   2.612   5.581
 7457TIP3    H222315   3.598   2.542   5.593
 7458TIP3   OH222316   3.846   3.656   6.084
 7458TIP3    H122317   3.832   3.732   6.028
 7458TIP3    H222318   3.823   3.581   6.029
 7459TIP3   OH222319   5.408   7.429  -0.029
 7459TIP3    H122320   5.353   7.391   0.039
 7459TIP3    H222321   5.466   7.489   0.017
 7460TIP3   OH222322   3.514   0.223   4.496
 7460TIP3    H122323   3.601   0.248   4.463
 7460TIP3    H222324   3.487   0.297   4.550
 7461TIP3   OH222325   3.386   7.217   1.363
 7461TIP3    H122326   3.370   7.265   1.444
 7461TIP3    H222327   3.460   7.160   1.382
 7462TIP3   OH222328   2.166   4.463   5.102
 7462TIP3    H122329   2.087   4.492   5.057
 7462TIP3    H222330   2.237   4.509   5.057
 7463TIP3   OH222331   1.103   4.155   1.052
 7463TIP3    H122332   1.067   4.104   0.980
 7463TIP3    H222333   1.103   4.094   1.126
 7464TIP3   OH222334   7.722   0.019   1.065
 7464TIP3    H122335   7.640  -0.023   1.040
 7464TIP3    H222336   7.731  -0.001   1.158
 7465TIP3   OH222337   7.349   2.237   4.479
 7465TIP3    H122338   7.291   2.203   4.547
 7465TIP3    H222339   7.344   2.332   4.489
 7466TIP3   OH222340   5.728   0.762   0.372
 7466TIP3    H122341   5.743   0.823   0.299
 7466TIP3    H222342   5.676   0.691   0.334
 7467TIP3   OH222343   6.719   3.031   1.992
 7467TIP3    H122344   6.642   2.989   1.954
 7467TIP3    H222345   6.728   3.114   1.945
 7468TIP3   OH222346   6.680   1.710   2.101
 7468TIP3    H122347   6.660   1.682   2.012
 7468TIP3    H222348   6.598   1.746   2.133
 7469TIP3   OH222349   2.596   0.953   2.888
 7469TIP3    H122350   2.682   0.921   2.916
 7469TIP3    H222351   2.585   0.916   2.800
 7470TIP3   OH222352   4.316   6.148   6.065
 7470TIP3    H122353   4.339   6.134   6.157
 7470TIP3    H222354   4.226   6.114   6.058
 7471TIP3   OH222355   3.496   5.437   1.314
 7471TIP3    H122356   3.550   5.446   1.236
 7471TIP3    H222357   3.406   5.441   1.282
 7472TIP3   OH222358   4.127   4.903   0.796
 7472TIP3    H122359   4.165   4.897   0.709
 7472TIP3    H222360   4.164   4.829   0.844
 7473TIP3   OH222361   8.281   7.587   3.503
 7473TIP3    H122362   8.367   7.628   3.513
 7473TIP3    H222363   8.300   7.493   3.499
 7474TIP3   OH222364   3.021   0.900   0.448
 7474TIP3    H122365   2.956   0.965   0.421
 7474TIP3    H222366   3.015   0.831   0.383
 7475TIP3   OH222367   6.960   7.260   3.123
 7475TIP3    H122368   7.029   7.304   3.073
 7475TIP3    H222369   6.878   7.299   3.092
 7476TIP3   OH222370   3.122   3.689   0.978
 7476TIP3    H122371   3.217   3.705   0.978
 7476TIP3    H222372   3.089   3.748   0.910
 7477TIP3   OH222373   5.616   3.436   3.815
 7477TIP3    H122374   5.563   3.403   3.888
 7477TIP3    H222375   5.670   3.505   3.854
 7478TIP3   OH222376   6.358   6.750   6.435
 7478TIP3    H122377   6.313   6.689   6.494
 7478TIP3    H222378   6.303   6.828   6.434
 7479TIP3   OH222379   0.251   6.583   0.247
 7479TIP3    H122380   0.316   6.563   0.314
 7479TIP3    H222381   0.261   6.677   0.230
 7480TIP3   OH222382   4.923   2.612   5.420
 7480TIP3    H122383   4.907   2.583   5.330
 7480TIP3    H222384   4.976   2.542   5.458
 7481TIP3   OH222385   6.244   6.016   1.993
 7481TIP3    H122386   6.196   6.098   2.000
 7481TIP3    H222387   6.180   5.953   1.959
 7482TIP3   OH222388   5.737   5.931   5.088
 7482TIP3    H122389   5.705   6.020   5.072
 7482TIP3    H222390   5.726   5.886   5.005
 7483TIP3   OH222391   4.113   7.208   6.476
 7483TIP3    H122392   4.112   7.212   6.380
 7483TIP3    H222393   4.036   7.259   6.502
 7484TIP3   OH222394   1.775   1.367   6.748
 7484TIP3    H122395   1.766   1.449   6.700
 7484TIP3    H222396   1.741   1.301   6.689
 7485TIP3   OH222397   7.886   3.400   1.989
 7485TIP3    H122398   7.871   3.327   2.049
 7485TIP3    H222399   7.961   3.446   2.026
 7486TIP3   OH222400   6.705   0.741   0.932
 7486TIP3    H122401   6.635   0.684   0.899
 7486TIP3    H222402   6.757   0.763   0.855
 7487TIP3   OH222403   2.849   5.272   6.557
 7487TIP3    H122404   2.925   5.323   6.586
 7487TIP3    H222405   2.792   5.269   6.634
 7488TIP3   OH222406   5.760   5.161   5.565
 7488TIP3    H122407   5.829   5.170   5.500
 7488TIP3    H222408   5.722   5.075   5.550
 7489TIP3   OH222409   6.218   2.861   6.684
 7489TIP3    H122410   6.217   2.812   6.766
 7489TIP3    H222411   6.265   2.804   6.622
 7490TIP3   OH222412   0.148   5.389   2.506
 7490TIP3    H122413   0.166   5.298   2.480
 7490TIP3    H222414   0.210   5.406   2.577
 7491TIP3   OH222415   7.619   5.150   2.938
 7491TIP3    H122416   7.711   5.158   2.912
 7491TIP3    H222417   7.579   5.233   2.913
 7492TIP3   OH222418  -0.041   7.795   0.627
 7492TIP3    H122419   0.028   7.728   0.631
 7492TIP3    H222420  -0.015   7.851   0.554
 7493TIP3   OH222421   3.991   2.926   2.053
 7493TIP3    H122422   3.972   2.965   1.968
 7493TIP3    H222423   3.907   2.896   2.086
 7494TIP3   OH222424   7.830   3.899   0.344
 7494TIP3    H122425   7.775   3.820   0.351
 7494TIP3    H222426   7.920   3.867   0.346
 7495TIP3   OH222427   1.362   0.093   2.230
 7495TIP3    H122428   1.455   0.079   2.244
 7495TIP3    H222429   1.344   0.179   2.269
 7496TIP3   OH222430   0.527   5.819   4.930
 7496TIP3    H122431   0.567   5.750   4.877
 7496TIP3    H222432   0.435   5.795   4.935
 7497TIP3   OH222433   6.011   6.046   2.347
 7497TIP3    H122434   6.058   6.048   2.430
 7497TIP3    H222435   5.960   5.965   2.350
 7498TIP3   OH222436   1.953   6.411   4.203
 7498TIP3    H122437   1.995   6.436   4.286
 7498TIP3    H222438   1.905   6.331   4.224
 7499TIP3   OH222439   6.154   0.543   2.557
 7499TIP3    H122440   6.185   0.593   2.482
 7499TIP3    H222441   6.152   0.452   2.526
 7500TIP3   OH222442   0.313   7.604   0.150
 7500TIP3    H122443   0.287   7.520   0.187
 7500TIP3    H222444   0.406   7.593   0.130
 7501TIP3   OH222445   7.977   7.388   5.809
 7501TIP3    H122446   8.048   7.399   5.873
 7501TIP3    H222447   7.984   7.297   5.781
 7502TIP3   OH222448   0.724   0.973   4.910
 7502TIP3    H122449   0.762   0.941   4.828
 7502TIP3    H222450   0.797   0.971   4.973
 7503TIP3   OH222451   1.239   0.795   5.660
 7503TIP3    H122452   1.225   0.829   5.571
 7503TIP3    H222453   1.274   0.707   5.647
 7504TIP3   OH222454   7.216   1.164   2.493
 7504TIP3    H122455   7.143   1.113   2.458
 7504TIP3    H222456   7.199   1.168   2.588
 7505TIP3   OH222457   7.385   3.909   2.864
 7505TIP3    H122458   7.293   3.894   2.884
 7505TIP3    H222459   7.419   3.955   2.941
 7506TIP3   OH222460   3.100   6.177   3.530
 7506TIP3    H122461   3.175   6.222   3.492
 7506TIP3    H222462   3.126   6.158   3.620
 7507TIP3   OH222463   8.065   1.101   3.733
 7507TIP3    H122464   8.149   1.147   3.741
 7507TIP3    H222465   8.018   1.124   3.814
 7508TIP3   OH222466   5.059   2.534   6.319
 7508TIP3    H122467   5.109   2.459   6.352
 7508TIP3    H222468   4.993   2.495   6.262
 7509TIP3   OH222469   2.405   6.859   5.208
 7509TIP3    H122470   2.352   6.867   5.129
 7509TIP3    H222471   2.344   6.878   5.280
 7510TIP3   OH222472   6.990   5.807   6.567
 7510TIP3    H122473   7.005   5.810   6.473
 7510TIP3    H222474   6.969   5.716   6.585
 7511TIP3   OH222475   3.254   7.501   4.103
 7511TIP3    H122476   3.310   7.440   4.056
 7511TIP3    H222477   3.173   7.451   4.120
 7512TIP3   OH222478   1.252   5.500   4.229
 7512TIP3    H122479   1.192   5.512   4.156
 7512TIP3    H222480   1.239   5.578   4.284
 7513TIP3   OH222481   1.557   1.402   1.327
 7513TIP3    H122482   1.501   1.341   1.279
 7513TIP3    H222483   1.563   1.479   1.270
 7514TIP3   OH222484   2.215   3.672   1.059
 7514TIP3    H122485   2.301   3.714   1.070
 7514TIP3    H222486   2.154   3.731   1.104
 7515TIP3   OH222487   5.307   1.222   4.538
 7515TIP3    H122488   5.289   1.313   4.514
 7515TIP3    H222489   5.392   1.204   4.499
 7516TIP3   OH222490   7.441   2.265   4.053
 7516TIP3    H122491   7.383   2.311   4.114
 7516TIP3    H222492   7.386   2.247   3.976
 7517TIP3   OH222493   3.388   4.621   3.128
 7517TIP3    H122494   3.389   4.578   3.214
 7517TIP3    H222495   3.309   4.676   3.130
 7518TIP3   OH222496   6.427   5.930   1.395
 7518TIP3    H122497   6.381   6.012   1.412
 7518TIP3    H222498   6.472   5.944   1.311
 7519TIP3   OH222499   2.180   5.341   4.218
 7519TIP3    H122500   2.116   5.270   4.224
 7519TIP3    H222501   2.217   5.347   4.306
 7520TIP3   OH222502   6.891   2.543   5.155
 7520TIP3    H122503   6.933   2.580   5.077
 7520TIP3    H222504   6.954   2.480   5.189
 7521TIP3   OH222505   6.103   5.478   5.889
 7521TIP3    H122506   6.095   5.386   5.913
 7521TIP3    H222507   6.122   5.478   5.795
 7522TIP3   OH222508   1.525   2.650   1.551
 7522TIP3    H122509   1.448   2.681   1.503
 7522TIP3    H222510   1.489   2.613   1.632
 7523TIP3   OH222511   8.064   4.269   1.449
 7523TIP3    H122512   8.160   4.263   1.447
 7523TIP3    H222513   8.044   4.306   1.535
 7524TIP3   OH222514   3.357   1.904   3.394
 7524TIP3    H122515   3.441   1.874   3.428
 7524TIP3    H222516   3.306   1.823   3.381
 7525TIP3   OH222517   0.442   1.995   1.227
 7525TIP3    H122518   0.398   2.070   1.187
 7525TIP3    H222519   0.407   1.991   1.316
 7526TIP3   OH222520   1.961   1.726   1.778
 7526TIP3    H122521   1.894   1.729   1.847
 7526TIP3    H222522   2.015   1.803   1.794
 7527TIP3   OH222523   0.271   7.365   2.779
 7527TIP3    H122524   0.300   7.315   2.703
 7527TIP3    H222525   0.351   7.384   2.828
 7528TIP3   OH222526   7.989   4.798   5.181
 7528TIP3    H122527   8.003   4.783   5.274
 7528TIP3    H222528   8.021   4.718   5.138
 7529TIP3   OH222529   3.774   7.699   4.883
 7529TIP3    H122530   3.714   7.703   4.808
 7529TIP3    H222531   3.837   7.769   4.866
 7530TIP3   OH222532   1.803   0.616   3.768
 7530TIP3    H122533   1.777   0.705   3.742
 7530TIP3    H222534   1.728   0.583   3.816
 7531TIP3   OH222535   0.019   1.060   6.272
 7531TIP3    H122536   0.103   1.017   6.284
 7531TIP3    H222537  -0.008   1.035   6.184
 7532TIP3   OH222538   6.043   4.264   5.989
 7532TIP3    H122539   6.086   4.344   5.960
 7532TIP3    H222540   6.103   4.227   6.053
 7533TIP3   OH222541   6.503   7.305   4.158
 7533TIP3    H122542   6.418   7.338   4.128
 7533TIP3    H222543   6.516   7.346   4.244
 7534TIP3   OH222544   7.876   3.749   3.054
 7534TIP3    H122545   7.800   3.799   3.082
 7534TIP3    H222546   7.843   3.660   3.043
 7535TIP3   OH222547   0.636   5.203   0.183
 7535TIP3    H122548   0.685   5.121   0.172
 7535TIP3    H222549   0.577   5.206   0.108
 7536TIP3   OH222550   4.774   3.432   4.241
 7536TIP3    H122551   4.693   3.443   4.191
 7536TIP3    H222552   4.835   3.393   4.179
 7537TIP3   OH222553   6.262   1.870   1.222
 7537TIP3    H122554   6.253   1.788   1.175
 7537TIP3    H222555   6.220   1.854   1.307
 7538TIP3   OH222556   4.784   0.659   0.024
 7538TIP3    H122557   4.856   0.622   0.076
 7538TIP3    H222558   4.760   0.739   0.070
 7539TIP3   OH222559   7.051   0.541   0.208
 7539TIP3    H122560   7.118   0.478   0.180
 7539TIP3    H222561   7.079   0.568   0.295
 7540TIP3   OH222562   4.491   4.065   4.966
 7540TIP3    H122563   4.578   4.058   4.926
 7540TIP3    H222564   4.468   3.975   4.989
 7541TIP3   OH222565   6.361   5.019   5.258
 7541TIP3    H122566   6.430   5.071   5.217
 7541TIP3    H222567   6.290   5.017   5.194
 7542TIP3   OH222568   1.447   6.228   3.260
 7542TIP3    H122569   1.525   6.279   3.236
 7542TIP3    H222570   1.416   6.268   3.341
 7543TIP3   OH222571   2.964   7.417   0.715
 7543TIP3    H122572   2.945   7.444   0.806
 7543TIP3    H222573   3.048   7.371   0.721
 7544TIP3   OH222574   7.355   6.948   6.337
 7544TIP3    H122575   7.293   6.931   6.407
 7544TIP3    H222576   7.428   6.888   6.354
 7545TIP3   OH222577   6.728   0.086   4.877
 7545TIP3    H122578   6.711   0.163   4.823
 7545TIP3    H222579   6.761   0.122   4.960
 7546TIP3   OH222580   7.436   7.310   1.705
 7546TIP3    H122581   7.504   7.368   1.740
 7546TIP3    H222582   7.359   7.330   1.759
 7547TIP3   OH222583   1.046   5.035   6.256
 7547TIP3    H122584   1.086   4.948   6.257
 7547TIP3    H222585   1.119   5.094   6.238
 7548TIP3   OH222586   1.659   7.398   3.547
 7548TIP3    H122587   1.733   7.419   3.605
 7548TIP3    H222588   1.583   7.434   3.592
 7549TIP3   OH222589   3.179   5.294   5.014
 7549TIP3    H122590   3.199   5.275   4.922
 7549TIP3    H222591   3.101   5.350   5.011
 7550TIP3   OH222592   6.999   7.733   4.214
 7550TIP3    H122593   7.010   7.647   4.174
 7550TIP3    H222594   7.082   7.778   4.199
 7551TIP3   OH222595   6.808   1.228   5.294
 7551TIP3    H122596   6.734   1.174   5.323
 7551TIP3    H222597   6.849   1.176   5.225
 7552TIP3   OH222598   6.887   3.010   6.232
 7552TIP3    H122599   6.900   2.985   6.323
 7552TIP3    H222600   6.941   3.088   6.220
 7553TIP3   OH222601   4.243   7.330   5.235
 7553TIP3    H122602   4.238   7.339   5.139
 7553TIP3    H222603   4.253   7.236   5.250
 7554TIP3   OH222604   4.298   0.980   4.238
 7554TIP3    H122605   4.264   0.897   4.271
 7554TIP3    H222606   4.230   1.013   4.180
 7555TIP3   OH222607   4.909   5.807   6.195
 7555TIP3    H122608   4.865   5.862   6.131
 7555TIP3    H222609   5.003   5.823   6.180
 7556TIP3   OH222610   8.075   0.905   6.095
 7556TIP3    H122611   8.074   0.995   6.129
 7556TIP3    H222612   7.996   0.898   6.043
 7557TIP3   OH222613   7.484   6.317   0.910
 7557TIP3    H122614   7.561   6.331   0.965
 7557TIP3    H222615   7.443   6.239   0.945
 7558TIP3   OH222616   2.612   0.269   6.294
 7558TIP3    H122617   2.668   0.299   6.222
 7558TIP3    H222618   2.626   0.174   6.297
 7559TIP3   OH222619   3.919   6.360   3.598
 7559TIP3    H122620   3.854   6.413   3.646
 7559TIP3    H222621   3.992   6.353   3.659
 7560TIP3   OH222622   0.293   0.360   0.784
 7560TIP3    H122623   0.363   0.302   0.813
 7560TIP3    H222624   0.217   0.304   0.773
 7561TIP3   OH222625   3.218   4.568   1.607
 7561TIP3    H122626   3.154   4.637   1.621
 7561TIP3    H222627   3.165   4.488   1.599
 7562TIP3   OH222628   7.355   5.506   3.645
 7562TIP3    H122629   7.304   5.499   3.565
 7562TIP3    H222630   7.359   5.601   3.663
 7563TIP3   OH222631   3.479   7.673   4.200
 7563TIP3    H122632   3.528   7.688   4.119
 7563TIP3    H222633   3.407   7.616   4.175
 7564TIP3   OH222634   2.248   6.052   4.558
 7564TIP3    H122635   2.240   5.971   4.507
 7564TIP3    H222636   2.329   6.041   4.607
 7565TIP3   OH222637   5.495   2.296   3.564
 7565TIP3    H122638   5.470   2.351   3.490
 7565TIP3    H222639   5.412   2.272   3.605
 7566TIP3   OH222640   7.991   5.909   6.526
 7566TIP3    H122641   8.053   5.898   6.598
 7566TIP3    H222642   7.954   5.821   6.513
 7567TIP3   OH222643   4.818   3.649   0.028
 7567TIP3    H122644   4.788   3.737   0.051
 7567TIP3    H222645   4.749   3.614  -0.030
 7568TIP3   OH222646   1.460   5.402   6.546
 7568TIP3    H122647   1.539   5.377   6.595
 7568TIP3    H222648   1.476   5.492   6.519
 7569TIP3   OH222649   1.136   7.755   5.608
 7569TIP3    H122650   1.049   7.760   5.648
 7569TIP3    H222651   1.122   7.778   5.516
 7570TIP3   OH222652   4.358   6.626   5.274
 7570TIP3    H122653   4.387   6.711   5.241
 7570TIP3    H222654   4.436   6.589   5.317
 7571TIP3   OH222655   0.864   7.800   4.010
 7571TIP3    H122656   0.935   7.793   4.074
 7571TIP3    H222657   0.900   7.851   3.938
 7572TIP3   OH222658   4.458   2.031   4.997
 7572TIP3    H122659   4.461   1.967   4.926
 7572TIP3    H222660   4.479   2.114   4.954
 7573TIP3   OH222661   7.855   2.689   6.064
 7573TIP3    H122662   7.917   2.645   6.007
 7573TIP3    H222663   7.906   2.757   6.107
 7574TIP3   OH222664   5.204   7.040   6.089
 7574TIP3    H122665   5.127   7.047   6.145
 7574TIP3    H222666   5.197   7.114   6.029
 7575TIP3   OH222667   5.526   1.428   1.642
 7575TIP3    H122668   5.612   1.466   1.660
 7575TIP3    H222669   5.474   1.448   1.720
 7576TIP3   OH222670   0.735   6.179   0.233
 7576TIP3    H122671   0.765   6.211   0.318
 7576TIP3    H222672   0.791   6.225   0.170
 7577TIP3   OH222673   5.809   1.026   3.031
 7577TIP3    H122674   5.837   1.113   3.002
 7577TIP3    H222675   5.780   0.982   2.951
 7578TIP3   OH222676   4.232   4.251   1.876
 7578TIP3    H122677   4.295   4.179   1.868
 7578TIP3    H222678   4.261   4.298   1.955
 7579TIP3   OH222679   5.775   1.610   6.166
 7579TIP3    H122680   5.693   1.647   6.133
 7579TIP3    H222681   5.816   1.570   6.089
 7580TIP3   OH222682   5.959   5.750   6.603
 7580TIP3    H122683   5.866   5.772   6.593
 7580TIP3    H222684   5.984   5.790   6.686
 7581TIP3   OH222685   1.609   2.644   1.197
 7581TIP3    H122686   1.542   2.666   1.133
 7581TIP3    H222687   1.689   2.684   1.164
 7582TIP3   OH222688   0.858   5.332   6.244
 7582TIP3    H122689   0.867   5.362   6.334
 7582TIP3    H222690   0.823   5.408   6.197
 7583TIP3   OH222691   0.694   1.795   2.918
 7583TIP3    H122692   0.662   1.885   2.916
 7583TIP3    H222693   0.634   1.749   2.976
 7584TIP3   OH222694   6.789   6.041   1.401
 7584TIP3    H122695   6.826   6.039   1.313
 7584TIP3    H222696   6.829   5.966   1.445
 7585TIP3   OH222697   8.311   3.904   1.007
 7585TIP3    H122698   8.239   3.968   1.007
 7585TIP3    H222699   8.301   3.856   1.089
 7586TIP3   OH222700   4.401   7.044   0.635
 7586TIP3    H122701   4.367   6.962   0.599
 7586TIP3    H222702   4.488   7.053   0.598
 7587TIP3   OH222703   1.614   4.649   5.031
 7587TIP3    H122704   1.613   4.715   5.100
 7587TIP3    H222705   1.558   4.578   5.065
 7588TIP3   OH222706   3.536   1.018   1.479
 7588TIP3    H122707   3.615   0.969   1.460
 7588TIP3    H222708   3.464   0.958   1.456
 7589TIP3   OH222709   5.395   0.712   1.007
 7589TIP3    H122710   5.436   0.731   0.923
 7589TIP3    H222711   5.302   0.725   0.993
 7590TIP3   OH222712   6.991   1.447   2.378
 7590TIP3    H122713   6.942   1.438   2.459
 7590TIP3    H222714   7.079   1.473   2.406
 7591TIP3   OH222715   1.074   1.426   6.621
 7591TIP3    H122716   1.002   1.368   6.645
 7591TIP3    H222717   1.140   1.368   6.583
 7592TIP3   OH222718   5.141   3.686   0.484
 7592TIP3    H122719   5.178   3.721   0.403
 7592TIP3    H222720   5.071   3.748   0.507
 7593TIP3   OH222721   2.879   5.804   5.433
 7593TIP3    H122722   2.861   5.710   5.433
 7593TIP3    H222723   2.922   5.820   5.349
 7594TIP3   OH222724   7.456   7.628   5.496
 7594TIP3    H122725   7.393   7.558   5.480
 7594TIP3    H222726   7.425   7.701   5.441
 7595TIP3   OH222727   5.139   6.842   3.017
 7595TIP3    H122728   5.172   6.753   3.030
 7595TIP3    H222729   5.055   6.843   3.061
 7596TIP3   OH222730   0.753   1.351   6.146
 7596TIP3    H122731   0.768   1.417   6.078
 7596TIP3    H222732   0.659   1.359   6.167
 7597TIP3   OH222733   0.230   3.149   2.833
 7597TIP3    H122734   0.190   3.236   2.829
 7597TIP3    H222735   0.310   3.158   2.781
 7598TIP3   OH222736   2.891   7.528   0.970
 7598TIP3    H122737   2.809   7.490   1.000
 7598TIP3    H222738   2.954   7.508   1.039
 7599TIP3   OH222739   1.547   1.041   6.759
 7599TIP3    H122740   1.493   0.966   6.737
 7599TIP3    H222741   1.498   1.117   6.727
 7600TIP3   OH222742   7.341   0.340   0.537
 7600TIP3    H122743   7.270   0.288   0.499
 7600TIP3    H222744   7.309   0.367   0.623
 7601TIP3   OH222745   2.508   1.247   1.667
 7601TIP3    H122746   2.457   1.319   1.630
 7601TIP3    H222747   2.599   1.273   1.655
 7602TIP3   OH222748   5.384   3.441   1.160
 7602TIP3    H122749   5.342   3.527   1.164
 7602TIP3    H222750   5.327   3.384   1.211
 7603TIP3   OH222751   3.476   3.561   1.787
 7603TIP3    H122752   3.425   3.486   1.819
 7603TIP3    H222753   3.423   3.598   1.717
 7604TIP3   OH222754   6.065   0.632   0.529
 7604TIP3    H122755   6.143   0.622   0.475
 7604TIP3    H222756   6.046   0.543   0.560
 7605TIP3   OH222757   7.756   1.252   3.381
 7605TIP3    H122758   7.667   1.281   3.364
 7605TIP3    H222759   7.755   1.158   3.361
 7606TIP3   OH222760   8.243   1.262   3.063
 7606TIP3    H122761   8.287   1.178   3.076
 7606TIP3    H222762   8.208   1.284   3.150
 7607TIP3   OH222763   2.841   2.626   5.138
 7607TIP3    H122764   2.798   2.550   5.098
 7607TIP3    H222765   2.934   2.604   5.139
 7608TIP3   OH222766   3.163   3.437   2.755
 7608TIP3    H122767   3.073   3.439   2.723
 7608TIP3    H222768   3.156   3.409   2.846
 7609TIP3   OH222769   6.211   1.040   1.057
 7609TIP3    H122770   6.210   1.072   0.967
 7609TIP3    H222771   6.154   1.100   1.105
 7610TIP3   OH222772   0.663   3.916   0.504
 7610TIP3    H122773   0.654   3.827   0.470
 7610TIP3    H222774   0.687   3.969   0.427
 7611TIP3   OH222775   4.833   4.099   0.686
 7611TIP3    H122776   4.918   4.134   0.661
 7611TIP3    H222777   4.851   4.042   0.761
 7612TIP3   OH222778   6.359   7.106   1.914
 7612TIP3    H122779   6.384   7.015   1.898
 7612TIP3    H222780   6.264   7.103   1.926
 7613TIP3   OH222781   4.652   0.201   5.341
 7613TIP3    H122782   4.733   0.234   5.303
 7613TIP3    H222783   4.669   0.196   5.435
 7614TIP3   OH222784   5.254   5.991   3.855
 7614TIP3    H122785   5.200   6.070   3.863
 7614TIP3    H222786   5.265   5.960   3.945
 7615TIP3   OH222787   7.710   5.605   5.580
 7615TIP3    H122788   7.732   5.696   5.599
 7615TIP3    H222789   7.794   5.559   5.582
 7616TIP3   OH222790   0.839   4.466   6.774
 7616TIP3    H122791   0.752   4.497   6.750
 7616TIP3    H222792   0.861   4.515   6.853
 7617TIP3   OH222793   4.858   4.015   5.080
 7617TIP3    H122794   4.840   4.053   4.995
 7617TIP3    H222795   4.881   3.924   5.061
 7618TIP3   OH222796   6.417   4.301   4.049
 7618TIP3    H122797   6.508   4.327   4.035
 7618TIP3    H222798   6.366   4.359   3.992
 7619TIP3   OH222799   7.725   1.389   6.126
 7619TIP3    H122800   7.716   1.304   6.082
 7619TIP3    H222801   7.782   1.372   6.201
 7620TIP3   OH222802   4.669   3.899   0.128
 7620TIP3    H122803   4.610   3.835   0.169
 7620TIP3    H222804   4.613   3.948   0.068
 7621TIP3   OH222805   6.740   6.840   3.592
 7621TIP3    H122806   6.709   6.771   3.533
 7621TIP3    H222807   6.785   6.792   3.663
 7622TIP3   OH222808   6.940   5.134   4.746
 7622TIP3    H122809   6.942   5.076   4.822
 7622TIP3    H222810   7.013   5.103   4.691
 7623TIP3   OH222811   3.089   1.634   4.607
 7623TIP3    H122812   3.027   1.695   4.566
 7623TIP3    H222813   3.087   1.557   4.551
 7624TIP3   OH222814   0.571   1.429   0.172
 7624TIP3    H122815   0.477   1.414   0.185
 7624TIP3    H222816   0.594   1.375   0.097
 7625TIP3   OH222817   0.460   5.769   3.457
 7625TIP3    H122818   0.552   5.783   3.477
 7625TIP3    H222819   0.449   5.800   3.367
 7626TIP3   OH222820   5.475   3.932   4.532
 7626TIP3    H122821   5.513   3.945   4.619
 7626TIP3    H222822   5.515   4.001   4.478
 7627TIP3   OH222823   8.221   1.595   2.144
 7627TIP3    H122824   8.266   1.512   2.125
 7627TIP3    H222825   8.230   1.646   2.063
 7628TIP3   OH222826   6.645   7.568   4.210
 7628TIP3    H122827   6.623   7.656   4.240
 7628TIP3    H222828   6.653   7.577   4.115
 7629TIP3   OH222829   2.788   1.803   5.988
 7629TIP3    H122830   2.833   1.829   5.908
 7629TIP3    H222831   2.842   1.732   6.024
 7630TIP3   OH222832   1.786   0.526   5.427
 7630TIP3    H122833   1.795   0.618   5.405
 7630TIP3    H222834   1.742   0.487   5.352
 7631TIP3   OH222835   1.166   6.952   6.338
 7631TIP3    H122836   1.172   6.964   6.433
 7631TIP3    H222837   1.077   6.921   6.323
 7632TIP3   OH222838   3.589   5.945   1.693
 7632TIP3    H122839   3.586   5.907   1.605
 7632TIP3    H222840   3.501   5.979   1.707
 7633TIP3   OH222841   3.386   3.195   3.007
 7633TIP3    H122842   3.345   3.135   3.069
 7633TIP3    H222843   3.357   3.164   2.921
 7634TIP3   OH222844   6.917   3.010   6.734
 7634TIP3    H122845   6.967   2.938   6.772
 7634TIP3    H222846   6.894   2.980   6.647
 7635TIP3   OH222847   0.227   2.378   5.638
 7635TIP3    H122848   0.174   2.430   5.578
 7635TIP3    H222849   0.287   2.329   5.581
 7636TIP3   OH222850   7.926   4.106   2.989
 7636TIP3    H122851   8.009   4.082   2.948
 7636TIP3    H222852   7.873   4.142   2.918
 7637TIP3   OH222853   3.076   6.472   4.080
 7637TIP3    H122854   3.164   6.454   4.047
 7637TIP3    H222855   3.021   6.405   4.041
 7638TIP3   OH222856   1.088   1.672   0.251
 7638TIP3    H122857   1.122   1.761   0.235
 7638TIP3    H222858   1.113   1.622   0.174
 7639TIP3   OH222859   5.453   2.546   5.471
 7639TIP3    H122860   5.463   2.635   5.503
 7639TIP3    H222861   5.534   2.502   5.496
 7640TIP3   OH222862   4.814   2.815   4.368
 7640TIP3    H122863   4.900   2.804   4.408
 7640TIP3    H222864   4.760   2.851   4.438
 7641TIP3   OH222865   7.098   6.690   5.776
 7641TIP3    H122866   7.098   6.785   5.767
 7641TIP3    H222867   7.172   6.671   5.834
 7642TIP3   OH222868   7.916   7.188   1.478
 7642TIP3    H122869   7.924   7.186   1.383
 7642TIP3    H222870   8.001   7.221   1.509
 7643TIP3   OH222871   1.084   6.192   1.017
 7643TIP3    H122872   1.065   6.101   1.037
 7643TIP3    H222873   1.002   6.239   1.034
 7644TIP3   OH222874   8.179   2.699   6.645
 7644TIP3    H122875   8.124   2.633   6.688
 7644TIP3    H222876   8.241   2.726   6.713
 7645TIP3   OH222877   0.856   2.725   0.595
 7645TIP3    H122878   0.806   2.727   0.514
 7645TIP3    H222879   0.930   2.784   0.579
 7646TIP3   OH222880   2.749   5.688   3.355
 7646TIP3    H122881   2.708   5.717   3.273
 7646TIP3    H222882   2.833   5.651   3.327
 7647TIP3   OH222883   4.715   1.681   0.897
 7647TIP3    H122884   4.620   1.686   0.899
 7647TIP3    H222885   4.734   1.609   0.837
 7648TIP3   OH222886   7.936   6.692   1.751
 7648TIP3    H122887   7.910   6.704   1.842
 7648TIP3    H222888   8.031   6.700   1.752
 7649TIP3   OH222889   5.622   0.546   4.241
 7649TIP3    H122890   5.597   0.592   4.322
 7649TIP3    H222891   5.673   0.471   4.271
 7650TIP3   OH222892   4.882   1.344   3.556
 7650TIP3    H122893   4.899   1.437   3.569
 7650TIP3    H222894   4.968   1.303   3.559
 7651TIP3   OH222895   5.783   2.824   0.269
 7651TIP3    H122896   5.866   2.871   0.264
 7651TIP3    H222897   5.730   2.876   0.329
 7652TIP3   OH222898   3.253   5.226   2.864
 7652TIP3    H122899   3.277   5.143   2.906
 7652TIP3    H222900   3.308   5.230   2.786
 7653TIP3   OH222901   0.066   4.823   2.831
 7653TIP3    H122902   0.137   4.768   2.863
 7653TIP3    H222903   0.099   4.912   2.838
 7654TIP3   OH222904   7.328   1.356   0.502
 7654TIP3    H122905   7.259   1.400   0.453
 7654TIP3    H222906   7.371   1.427   0.551
 7655TIP3   OH222907   1.394   0.139   2.843
 7655TIP3    H122908   1.334   0.204   2.881
 7655TIP3    H222909   1.432   0.095   2.919
 7656TIP3   OH222910   7.267   3.176   6.004
 7656TIP3    H122911   7.264   3.202   5.912
 7656TIP3    H222912   7.340   3.226   6.040
 7657TIP3   OH222913   0.745   1.669   5.526
 7657TIP3    H122914   0.711   1.756   5.547
 7657TIP3    H222915   0.840   1.682   5.519
 7658TIP3   OH222916   7.305   1.942   3.527
 7658TIP3    H122917   7.271   1.882   3.594
 7658TIP3    H222918   7.256   2.023   3.540
 7659TIP3   OH222919   5.582   6.108   0.066
 7659TIP3    H122920   5.562   6.164   0.141
 7659TIP3    H222921   5.522   6.138  -0.003
 7660TIP3   OH222922   4.867   5.046   6.241
 7660TIP3    H122923   4.858   4.958   6.203
 7660TIP3    H222924   4.779   5.083   6.235
 7661TIP3   OH222925   1.411   4.070   0.936
 7661TIP3    H122926   1.331   4.019   0.953
 7661TIP3    H222927   1.384   4.134   0.870
 7662TIP3   OH222928   2.029   4.498   4.390
 7662TIP3    H122929   2.059   4.412   4.362
 7662TIP3    H222930   2.022   4.549   4.309
 7663TIP3   OH222931   2.375   6.047   0.249
 7663TIP3    H122932   2.281   6.043   0.266
 7663TIP3    H222933   2.397   5.959   0.218
 7664TIP3   OH222934   4.072   1.795   4.500
 7664TIP3    H122935   4.014   1.797   4.576
 7664TIP3    H222936   4.014   1.804   4.425
 7665TIP3   OH222937   7.651   1.610   5.996
 7665TIP3    H122938   7.631   1.677   6.061
 7665TIP3    H222939   7.678   1.534   6.047
 7666TIP3   OH222940   7.058   4.296   5.462
 7666TIP3    H122941   6.999   4.311   5.535
 7666TIP3    H222942   7.000   4.283   5.387
 7667TIP3   OH222943   5.409   0.352   0.639
 7667TIP3    H122944   5.451   0.270   0.613
 7667TIP3    H222945   5.348   0.371   0.568
 7668TIP3   OH222946   1.617   1.666   2.328
 7668TIP3    H122947   1.703   1.683   2.364
 7668TIP3    H222948   1.578   1.601   2.387
 7669TIP3   OH222949   5.263   1.008   1.130
 7669TIP3    H122950   5.328   0.971   1.188
 7669TIP3    H222951   5.314   1.051   1.061
 7670TIP3   OH222952   6.163   6.636   4.199
 7670TIP3    H122953   6.090   6.585   4.163
 7670TIP3    H222954   6.190   6.589   4.278
 7671TIP3   OH222955   3.824   0.375   2.870
 7671TIP3    H122956   3.844   0.295   2.919
 7671TIP3    H222957   3.802   0.439   2.937
 7672TIP3   OH222958   2.822   6.300   2.637
 7672TIP3    H122959   2.903   6.256   2.660
 7672TIP3    H222960   2.845   6.393   2.634
 7673TIP3   OH222961   4.457   0.854   6.650
 7673TIP3    H122962   4.372   0.895   6.633
 7673TIP3    H222963   4.447   0.813   6.736
 7674TIP3   OH222964   8.004   3.966   0.915
 7674TIP3    H122965   8.038   4.051   0.942
 7674TIP3    H222966   7.995   3.973   0.819
 7675TIP3   OH222967   6.409   3.612   5.762
 7675TIP3    H122968   6.492   3.571   5.788
 7675TIP3    H222969   6.410   3.696   5.808
 7676TIP3   OH222970   1.346   0.372   1.980
 7676TIP3    H122971   1.284   0.402   2.046
 7676TIP3    H222972   1.339   0.277   1.980
 7677TIP3   OH222973   3.629   5.188   1.618
 7677TIP3    H122974   3.567   5.123   1.585
 7677TIP3    H222975   3.690   5.202   1.545
 7678TIP3   OH222976   0.239   5.177   4.078
 7678TIP3    H122977   0.241   5.220   4.164
 7678TIP3    H222978   0.149   5.143   4.070
 7679TIP3   OH222979   2.429   2.187   6.736
 7679TIP3    H122980   2.506   2.206   6.682
 7679TIP3    H222981   2.366   2.148   6.675
 7680TIP3   OH222982   1.213   6.106   3.315
 7680TIP3    H122983   1.285   6.143   3.265
 7680TIP3    H222984   1.136   6.153   3.285
 7681TIP3   OH222985   0.103   3.897   5.189
 7681TIP3    H122986   0.026   3.894   5.132
 7681TIP3    H222987   0.137   3.986   5.180
 7682TIP3   OH222988   0.257   5.769   4.103
 7682TIP3    H122989   0.240   5.690   4.154
 7682TIP3    H222990   0.285   5.834   4.167
 7683TIP3   OH222991   2.271   3.353   3.599
 7683TIP3    H122992   2.250   3.321   3.687
 7683TIP3    H222993   2.186   3.368   3.558
 7684TIP3   OH222994   3.427   6.495   5.760
 7684TIP3    H122995   3.492   6.521   5.695
 7684TIP3    H222996   3.463   6.417   5.801
 7685TIP3   OH222997   4.952   3.937   2.556
 7685TIP3    H122998   4.953   3.906   2.465
 7685TIP3    H222999   4.893   3.876   2.600
 7686TIP3   OH223000   4.833   3.258   1.988
 7686TIP3    H123001   4.786   3.290   1.911
 7686TIP3    H223002   4.924   3.252   1.959
 7687TIP3   OH223003   3.783   6.486   6.054
 7687TIP3    H123004   3.780   6.563   5.998
 7687TIP3    H223005   3.861   6.499   6.108
 7688TIP3   OH223006   3.042   6.164   3.253
 7688TIP3    H123007   2.983   6.229   3.291
 7688TIP3    H223008   3.084   6.123   3.328
 7689TIP3   OH223009   0.416   2.822   1.571
 7689TIP3    H123010   0.366   2.806   1.491
 7689TIP3    H223011   0.460   2.906   1.556
 7690TIP3   OH223012   5.187   6.063   3.574
 7690TIP3    H123013   5.209   6.107   3.656
 7690TIP3    H223014   5.196   6.131   3.507
 7691TIP3   OH223015   7.209   4.675   3.839
 7691TIP3    H123016   7.155   4.739   3.886
 7691TIP3    H223017   7.157   4.595   3.840
 7692TIP3   OH223018   2.853   7.112   5.918
 7692TIP3    H123019   2.786   7.177   5.893
 7692TIP3    H223020   2.931   7.139   5.869
 7693TIP3   OH223021   4.892   2.782   2.705
 7693TIP3    H123022   4.880   2.867   2.748
 7693TIP3    H223023   4.900   2.802   2.612
 7694TIP3   OH223024   3.107   3.748   1.790
 7694TIP3    H123025   3.172   3.773   1.724
 7694TIP3    H223026   3.146   3.672   1.833
 7695TIP3   OH223027   5.554   7.217   5.115
 7695TIP3    H123028   5.590   7.278   5.050
 7695TIP3    H223029   5.621   7.148   5.122
 7696TIP3   OH223030   7.391   6.302   1.910
 7696TIP3    H123031   7.442   6.311   1.829
 7696TIP3    H223032   7.457   6.298   1.979
 7697TIP3   OH223033   4.016   0.348   0.265
 7697TIP3    H123034   4.083   0.296   0.309
 7697TIP3    H223035   3.939   0.341   0.322
 7698TIP3   OH223036   5.547   0.021   4.085
 7698TIP3    H123037   5.503   0.104   4.065
 7698TIP3    H223038   5.558   0.022   4.180
 7699TIP3   OH223039   4.498   2.590   0.214
 7699TIP3    H123040   4.585   2.605   0.178
 7699TIP3    H223041   4.445   2.563   0.139
 7700TIP3   OH223042   1.213   3.054   3.902
 7700TIP3    H123043   1.166   3.114   3.961
 7700TIP3    H223044   1.146   2.992   3.873
 7701TIP3   OH223045   4.568   3.435   0.832
 7701TIP3    H123046   4.498   3.441   0.896
 7701TIP3    H223047   4.580   3.341   0.818
 7702TIP3   OH223048   0.938   5.441   3.743
 7702TIP3    H123049   0.905   5.351   3.736
 7702TIP3    H223050   0.889   5.490   3.677
 7703TIP3   OH223051   0.362   1.869   0.221
 7703TIP3    H123052   0.393   1.951   0.182
 7703TIP3    H223053   0.337   1.894   0.310
 7704TIP3   OH223054   5.158   3.618   1.205
 7704TIP3    H123055   5.147   3.524   1.194
 7704TIP3    H223056   5.070   3.654   1.194
 7705TIP3   OH223057   7.908   2.415   3.649
 7705TIP3    H123058   7.881   2.430   3.558
 7705TIP3    H223059   7.847   2.468   3.700
 7706TIP3   OH223060   0.591   5.854   3.911
 7706TIP3    H123061   0.610   5.915   3.982
 7706TIP3    H223062   0.671   5.854   3.858
 7707TIP3   OH223063   2.443   5.122   2.399
 7707TIP3    H123064   2.519   5.172   2.370
 7707TIP3    H223065   2.370   5.184   2.394
 7708TIP3   OH223066   0.704   3.442   0.998
 7708TIP3    H123067   0.683   3.405   1.084
 7708TIP3    H223068   0.628   3.496   0.976
 7709TIP3   OH223069   4.236   6.717   3.998
 7709TIP3    H123070   4.142   6.706   3.985
 7709TIP3    H223071   4.273   6.727   3.910
 7710TIP3   OH223072   3.378   0.904   6.167
 7710TIP3    H123073   3.327   0.851   6.228
 7710TIP3    H223074   3.364   0.994   6.197
 7711TIP3   OH223075   7.918   6.510   2.394
 7711TIP3    H123076   7.838   6.516   2.341
 7711TIP3    H223077   7.988   6.539   2.335
 7712TIP3   OH223078   2.777   6.129   1.450
 7712TIP3    H123079   2.739   6.101   1.366
 7712TIP3    H223080   2.829   6.053   1.478
 7713TIP3   OH223081   3.665   6.966   4.002
 7713TIP3    H123082   3.603   7.029   3.964
 7713TIP3    H223083   3.624   6.939   4.084
 7714TIP3   OH223084   4.136   7.115   0.068
 7714TIP3    H123085   4.191   7.060   0.013
 7714TIP3    H223086   4.073   7.154   0.008
 7715TIP3   OH223087   7.247   6.829   3.913
 7715TIP3    H123088   7.220   6.868   3.996
 7715TIP3    H223089   7.343   6.826   3.918
 7716TIP3   OH223090   3.050   6.205   6.650
 7716TIP3    H123091   3.032   6.270   6.718
 7716TIP3    H223092   2.989   6.134   6.668
 7717TIP3   OH223093   4.005   7.537   3.807
 7717TIP3    H123094   4.085   7.483   3.808
 7717TIP3    H223095   4.013   7.588   3.727
 7718TIP3   OH223096   3.125   7.523   5.982
 7718TIP3    H123097   3.108   7.496   6.073
 7718TIP3    H223098   3.119   7.618   5.984
 7719TIP3   OH223099   5.465   0.108   2.074
 7719TIP3    H123100   5.386   0.125   2.124
 7719TIP3    H223101   5.436   0.105   1.983
 7720TIP3   OH223102   1.973   7.600   5.907
 7720TIP3    H123103   1.936   7.646   5.982
 7720TIP3    H223104   1.961   7.661   5.834
 7721TIP3   OH223105   2.443   6.468  -0.024
 7721TIP3    H123106   2.428   6.457   0.070
 7721TIP3    H223107   2.365   6.513  -0.056
 7722TIP3   OH223108   5.473   7.437   1.520
 7722TIP3    H123109   5.435   7.515   1.479
 7722TIP3    H223110   5.444   7.364   1.466
 7723TIP3   OH223111   1.997   3.155   2.959
 7723TIP3    H123112   1.925   3.218   2.956
 7723TIP3    H223113   1.964   3.085   3.016
 7724TIP3   OH223114   3.917   2.925   5.137
 7724TIP3    H123115   3.886   2.850   5.086
 7724TIP3    H223116   3.877   3.001   5.095
 7725TIP3   OH223117   6.852   2.477   6.641
 7725TIP3    H123118   6.768   2.507   6.675
 7725TIP3    H223119   6.913   2.547   6.664
 7726TIP3   OH223120   1.501   3.966   2.887
 7726TIP3    H123121   1.421   3.928   2.922
 7726TIP3    H223122   1.571   3.925   2.938
 7727TIP3   OH223123   3.902   1.500   3.832
 7727TIP3    H123124   3.964   1.428   3.838
 7727TIP3    H223125   3.921   1.554   3.909
 7728TIP3   OH223126   6.537   7.549   1.198
 7728TIP3    H123127   6.500   7.602   1.126
 7728TIP3    H223128   6.461   7.507   1.237
 7729TIP3   OH223129   7.725   7.258   1.012
 7729TIP3    H123130   7.818   7.245   1.032
 7729TIP3    H223131   7.713   7.353   1.015
 7730TIP3   OH223132   8.306   1.815   3.803
 7730TIP3    H123133   8.331   1.826   3.895
 7730TIP3    H223134   8.212   1.796   3.806
 7731TIP3   OH223135   0.333   6.806   2.645
 7731TIP3    H123136   0.337   6.780   2.737
 7731TIP3    H223137   0.362   6.729   2.596
 7732TIP3   OH223138   1.287   4.342   2.515
 7732TIP3    H123139   1.372   4.304   2.536
 7732TIP3    H223140   1.223   4.278   2.545
 7733TIP3   OH223141   4.153   2.600   3.517
 7733TIP3    H123142   4.141   2.675   3.575
 7733TIP3    H223143   4.193   2.533   3.572
 7734TIP3   OH223144   6.888   3.780   3.668
 7734TIP3    H123145   6.945   3.739   3.734
 7734TIP3    H223146   6.884   3.716   3.597
 7735TIP3   OH223147   0.463   5.090   6.487
 7735TIP3    H123148   0.436   5.175   6.453
 7735TIP3    H223149   0.471   5.102   6.581
 7736TIP3   OH223150   7.641   0.427   2.404
 7736TIP3    H123151   7.688   0.508   2.423
 7736TIP3    H223152   7.604   0.401   2.489
 7737TIP3   OH223153   5.729   1.598   5.418
 7737TIP3    H123154   5.706   1.506   5.423
 7737TIP3    H223155   5.673   1.633   5.348
 7738TIP3   OH223156   6.957   6.705   4.849
 7738TIP3    H123157   6.950   6.614   4.820
 7738TIP3    H223158   7.011   6.701   4.928
 7739TIP3   OH223159   7.330   0.768   6.349
 7739TIP3    H123160   7.273   0.704   6.390
 7739TIP3    H223161   7.340   0.837   6.415
 7740TIP3   OH223162   2.327   5.013   0.370
 7740TIP3    H123163   2.381   5.089   0.348
 7740TIP3    H223164   2.318   5.017   0.465
 7741TIP3   OH223165   6.571   3.235   1.873
 7741TIP3    H123166   6.476   3.220   1.871
 7741TIP3    H223167   6.581   3.324   1.904
 7742TIP3   OH223168   0.827   1.964   1.905
 7742TIP3    H123169   0.790   1.885   1.944
 7742TIP3    H223170   0.832   1.945   1.811
 7743TIP3   OH223171   5.138   0.628   3.600
 7743TIP3    H123172   5.153   0.549   3.652
 7743TIP3    H223173   5.127   0.596   3.510
 7744TIP3   OH223174   1.372   5.666   0.677
 7744TIP3    H123175   1.348   5.728   0.746
 7744TIP3    H223176   1.312   5.593   0.690
 7745TIP3   OH223177   4.491   2.073   2.597
 7745TIP3    H123178   4.494   2.126   2.677
 7745TIP3    H223179   4.571   2.097   2.550
 7746TIP3   OH223180   0.797   6.414   2.853
 7746TIP3    H123181   0.796   6.319   2.869
 7746TIP3    H223182   0.711   6.444   2.883
 7747TIP3   OH223183   0.422   6.561   2.577
 7747TIP3    H123184   0.348   6.518   2.534
 7747TIP3    H223185   0.494   6.552   2.516
 7748TIP3   OH223186   5.406   4.126   0.253
 7748TIP3    H123187   5.471   4.188   0.287
 7748TIP3    H223188   5.322   4.167   0.272
 7749TIP3   OH223189   3.289   6.313   4.471
 7749TIP3    H123190   3.286   6.221   4.443
 7749TIP3    H223191   3.252   6.361   4.397
 7750TIP3   OH223192   7.705   3.631   0.382
 7750TIP3    H123193   7.671   3.630   0.472
 7750TIP3    H223194   7.645   3.574   0.334
 7751TIP3   OH223195   7.783   0.477   1.369
 7751TIP3    H123196   7.730   0.441   1.298
 7751TIP3    H223197   7.792   0.405   1.431
 7752TIP3   OH223198   3.274   4.913   0.233
 7752TIP3    H123199   3.271   4.909   0.329
 7752TIP3    H223200   3.331   4.987   0.214
 7753TIP3   OH223201   6.055   3.050   3.577
 7753TIP3    H123202   5.973   3.004   3.597
 7753TIP3    H223203   6.058   3.121   3.642
 7754TIP3   OH223204   4.576   3.294   5.177
 7754TIP3    H123205   4.627   3.215   5.195
 7754TIP3    H223206   4.516   3.269   5.107
 7755TIP3   OH223207   5.304   4.767   4.126
 7755TIP3    H123208   5.382   4.713   4.115
 7755TIP3    H223209   5.338   4.856   4.136
 7756TIP3   OH223210   3.168   5.421   1.442
 7756TIP3    H123211   3.191   5.454   1.355
 7756TIP3    H223212   3.161   5.499   1.496
 7757TIP3   OH223213   4.939   1.480   4.836
 7757TIP3    H123214   5.013   1.420   4.820
 7757TIP3    H223215   4.864   1.437   4.796
 7758TIP3   OH223216   4.580   1.793   2.722
 7758TIP3    H123217   4.604   1.701   2.711
 7758TIP3    H223218   4.539   1.797   2.809
 7759TIP3   OH223219   7.820   2.063   6.230
 7759TIP3    H123220   7.849   2.132   6.289
 7759TIP3    H223221   7.802   1.988   6.287
 7760TIP3   OH223222   3.201   6.734   2.370
 7760TIP3    H123223   3.184   6.644   2.400
 7760TIP3    H223224   3.278   6.726   2.314
 7761TIP3   OH223225   2.893   2.783   0.283
 7761TIP3    H123226   2.864   2.800   0.193
 7761TIP3    H223227   2.954   2.710   0.275
 7762TIP3   OH223228   3.423   6.035   4.468
 7762TIP3    H123229   3.463   6.115   4.501
 7762TIP3    H223230   3.479   6.008   4.395
 7763TIP3   OH223231   4.898   0.202   4.081
 7763TIP3    H123232   4.985   0.171   4.056
 7763TIP3    H223233   4.895   0.293   4.053
 7764TIP3   OH223234   0.947   0.916   5.065
 7764TIP3    H123235   1.001   0.938   4.989
 7764TIP3    H223236   0.980   0.973   5.135
 7765TIP3   OH223237   4.725   7.697   5.122
 7765TIP3    H123238   4.768   7.718   5.040
 7765TIP3    H223239   4.637   7.735   5.114
 7766TIP3   OH223240   0.564   6.454   6.586
 7766TIP3    H123241   0.552   6.519   6.516
 7766TIP3    H223242   0.504   6.483   6.655
 7767TIP3   OH223243   4.160   5.313   2.697
 7767TIP3    H123244   4.248   5.290   2.669
 7767TIP3    H223245   4.144   5.260   2.775
 7768TIP3   OH223246   5.699   2.511   0.814
 7768TIP3    H123247   5.683   2.567   0.738
 7768TIP3    H223248   5.794   2.497   0.813
 7769TIP3   OH223249   1.855   2.643   3.727
 7769TIP3    H123250   1.878   2.555   3.757
 7769TIP3    H223251   1.762   2.652   3.747
 7770TIP3   OH223252   5.202   0.917   0.426
 7770TIP3    H123253   5.184   0.831   0.463
 7770TIP3    H223254   5.297   0.924   0.427
 7771TIP3   OH223255   5.089   0.902   4.257
 7771TIP3    H123256   5.137   0.974   4.216
 7771TIP3    H223257   5.155   0.834   4.270
 7772TIP3   OH223258   1.761   4.414   2.074
 7772TIP3    H123259   1.691   4.442   2.134
 7772TIP3    H223260   1.797   4.495   2.040
 7773TIP3   OH223261   6.686   2.251   5.240
 7773TIP3    H123262   6.599   2.284   5.264
 7773TIP3    H223263   6.746   2.315   5.279
 7774TIP3   OH223264   4.351   6.696   4.246
 7774TIP3    H123265   4.282   6.683   4.311
 7774TIP3    H223266   4.305   6.725   4.167
 7775TIP3   OH223267   5.792   2.594   4.353
 7775TIP3    H123268   5.708   2.614   4.312
 7775TIP3    H223269   5.770   2.553   4.436
 7776TIP3   OH223270   8.117   3.334   0.500
 7776TIP3    H123271   8.039   3.336   0.446
 7776TIP3    H223272   8.121   3.245   0.535
 7777TIP3   OH223273   5.593   2.860   4.510
 7777TIP3    H123274   5.674   2.901   4.536
 7777TIP3    H223275   5.584   2.880   4.417
 7778TIP3   OH223276   1.374   7.246   5.719
 7778TIP3    H123277   1.296   7.296   5.697
 7778TIP3    H223278   1.363   7.163   5.673
 7779TIP3   OH223279   5.179   1.407   1.935
 7779TIP3    H123280   5.189   1.313   1.918
 7779TIP3    H223281   5.267   1.443   1.921
 7780TIP3   OH223282   2.332   2.830   1.673
 7780TIP3    H123283   2.238   2.830   1.656
 7780TIP3    H223284   2.369   2.773   1.606
 7781TIP3   OH223285   0.421   4.713   3.970
 7781TIP3    H123286   0.404   4.760   3.888
 7781TIP3    H223287   0.388   4.624   3.954
 7782TIP3   OH223288   0.532   6.329   1.855
 7782TIP3    H123289   0.520   6.396   1.788
 7782TIP3    H223290   0.550   6.379   1.935
 7783TIP3   OH223291   8.001   1.463   1.659
 7783TIP3    H123292   8.026   1.542   1.612
 7783TIP3    H223293   8.075   1.403   1.646
 7784TIP3   OH223294   2.243   4.927   1.067
 7784TIP3    H123295   2.301   4.954   1.139
 7784TIP3    H223296   2.156   4.922   1.108
 7785TIP3   OH223297   7.342   3.080   2.581
 7785TIP3    H123298   7.411   3.046   2.524
 7785TIP3    H223299   7.357   3.037   2.665
 7786TIP3   OH223300   4.931   2.621   3.862
 7786TIP3    H123301   4.958   2.713   3.866
 7786TIP3    H223302   4.904   2.601   3.952
 7787TIP3   OH223303   0.216   1.966   1.814
 7787TIP3    H123304   0.234   2.046   1.764
 7787TIP3    H223305   0.123   1.969   1.832
 7788TIP3   OH223306   4.446   1.586   3.245
 7788TIP3    H123307   4.425   1.673   3.279
 7788TIP3    H223308   4.540   1.577   3.260
 7789TIP3   OH223309   3.376   4.069   5.161
 7789TIP3    H123310   3.308   4.030   5.216
 7789TIP3    H223311   3.330   4.094   5.081
 7790TIP3   OH223312   0.051   5.222   3.164
 7790TIP3    H123313   0.104   5.246   3.240
 7790TIP3    H223314  -0.018   5.288   3.162
 7791TIP3   OH223315   2.940   5.155   2.447
 7791TIP3    H123316   2.955   5.202   2.528
 7791TIP3    H223317   2.893   5.076   2.473
 7792TIP3   OH223318   2.975   3.749   2.328
 7792TIP3    H123319   3.041   3.817   2.315
 7792TIP3    H223320   2.938   3.735   2.240
 7793TIP3   OH223321   2.813   6.981   0.435
 7793TIP3    H123322   2.814   7.030   0.517
 7793TIP3    H223323   2.721   6.980   0.408
 7794TIP3   OH223324   6.597   6.048   0.126
 7794TIP3    H123325   6.594   6.134   0.167
 7794TIP3    H223326   6.606   5.987   0.200
 7795TIP3   OH223327   3.521   6.925   0.066
 7795TIP3    H123328   3.603   6.888   0.034
 7795TIP3    H223329   3.478   6.853   0.113
 7796TIP3   OH223330   5.768   2.265   0.526
 7796TIP3    H123331   5.802   2.351   0.502
 7796TIP3    H223332   5.834   2.204   0.493
 7797TIP3   OH223333   5.780   3.371   1.986
 7797TIP3    H123334   5.775   3.305   2.055
 7797TIP3    H223335   5.855   3.426   2.010
 7798TIP3   OH223336   6.768   6.793   1.236
 7798TIP3    H123337   6.721   6.872   1.262
 7798TIP3    H223338   6.762   6.736   1.312
 7799TIP3   OH223339   1.369   1.859   4.600
 7799TIP3    H123340   1.367   1.950   4.570
 7799TIP3    H223341   1.462   1.838   4.607
 7800TIP3   OH223342   3.353   2.067   6.053
 7800TIP3    H123343   3.407   2.072   5.974
 7800TIP3    H223344   3.312   1.981   6.048
 7801TIP3   OH223345   4.881   7.487   3.800
 7801TIP3    H123346   4.790   7.484   3.771
 7801TIP3    H223347   4.921   7.409   3.761
 7802TIP3   OH223348   2.177   4.937   4.135
 7802TIP3    H123349   2.224   4.884   4.071
 7802TIP3    H223350   2.109   4.982   4.083
 7803TIP3   OH223351   3.051   0.558   1.058
 7803TIP3    H123352   3.094   0.540   1.142
 7803TIP3    H223353   3.101   0.507   0.994
 7804TIP3   OH223354   1.127   4.218   4.214
 7804TIP3    H123355   1.084   4.222   4.299
 7804TIP3    H223356   1.177   4.299   4.209
 7805TIP3   OH223357   2.620   2.996   5.717
 7805TIP3    H123358   2.528   2.983   5.695
 7805TIP3    H223359   2.655   2.908   5.728
 7806TIP3   OH223360   2.052   7.596   6.577
 7806TIP3    H123361   2.110   7.660   6.617
 7806TIP3    H223362   2.080   7.512   6.614
 7807TIP3   OH223363   4.453   6.209   5.344
 7807TIP3    H123364   4.449   6.246   5.433
 7807TIP3    H223365   4.540   6.232   5.312
 7808TIP3   OH223366   3.624   4.336   1.030
 7808TIP3    H123367   3.587   4.369   0.948
 7808TIP3    H223368   3.716   4.363   1.028
 7809TIP3   OH223369   4.923   4.915   5.326
 7809TIP3    H123370   4.864   4.892   5.398
 7809TIP3    H223371   4.904   5.007   5.309
 7810TIP3   OH223372   0.501   2.487   0.923
 7810TIP3    H123373   0.494   2.402   0.965
 7810TIP3    H223374   0.510   2.467   0.830
 7811TIP3   OH223375   6.612   2.012   4.553
 7811TIP3    H123376   6.690   2.039   4.504
 7811TIP3    H223377   6.645   1.983   4.638
 7812TIP3   OH223378   4.431   5.672   3.051
 7812TIP3    H123379   4.358   5.733   3.042
 7812TIP3    H223380   4.461   5.657   2.962
 7813TIP3   OH223381   1.600   7.074   4.171
 7813TIP3    H123382   1.595   6.978   4.167
 7813TIP3    H223383   1.525   7.104   4.119
 7814TIP3   OH223384   0.383   2.313   2.060
 7814TIP3    H123385   0.391   2.304   1.965
 7814TIP3    H223386   0.322   2.386   2.072
 7815TIP3   OH223387   8.204   7.417   3.844
 7815TIP3    H123388   8.222   7.436   3.936
 7815TIP3    H223389   8.288   7.393   3.807
 7816TIP3   OH223390   1.385   6.041   2.214
 7816TIP3    H123391   1.352   5.966   2.165
 7816TIP3    H223392   1.306   6.081   2.252
 7817TIP3   OH223393   5.038   1.056   3.913
 7817TIP3    H123394   5.039   0.969   3.873
 7817TIP3    H223395   4.955   1.094   3.887
 7818TIP3   OH223396   7.889   5.512   1.239
 7818TIP3    H123397   7.921   5.479   1.322
 7818TIP3    H223398   7.876   5.606   1.254
 7819TIP3   OH223399   3.485   1.485   1.612
 7819TIP3    H123400   3.567   1.438   1.628
 7819TIP3    H223401   3.483   1.499   1.517
 7820TIP3   OH223402   1.754   0.611   4.450
 7820TIP3    H123403   1.798   0.605   4.366
 7820TIP3    H223404   1.824   0.620   4.514
 7821TIP3   OH223405   6.183   0.006   3.037
 7821TIP3    H123406   6.171   0.101   3.030
 7821TIP3    H223407   6.154  -0.015   3.126
 7822TIP3   OH223408   6.081   3.908   3.669
 7822TIP3    H123409   6.175   3.928   3.678
 7822TIP3    H223410   6.058   3.868   3.753
 7823TIP3   OH223411   4.774   7.095   2.196
 7823TIP3    H123412   4.820   7.122   2.276
 7823TIP3    H223413   4.797   7.003   2.186
 7824TIP3   OH223414   0.503   4.308   5.958
 7824TIP3    H123415   0.419   4.261   5.961
 7824TIP3    H223416   0.480   4.397   5.984
 7825TIP3   OH223417   4.237   2.552   5.521
 7825TIP3    H123418   4.194   2.618   5.466
 7825TIP3    H223419   4.322   2.591   5.543
 7826TIP3   OH223420   6.264   2.577   6.110
 7826TIP3    H123421   6.322   2.515   6.067
 7826TIP3    H223422   6.252   2.542   6.198
 7827TIP3   OH223423   0.249   5.660   0.696
 7827TIP3    H123424   0.311   5.593   0.725
 7827TIP3    H223425   0.302   5.718   0.640
 7828TIP3   OH223426   6.904   7.008   4.595
 7828TIP3    H123427   6.848   6.959   4.656
 7828TIP3    H223428   6.980   7.033   4.648
 7829TIP3   OH223429   5.430   5.428   0.678
 7829TIP3    H123430   5.518   5.398   0.699
 7829TIP3    H223431   5.409   5.491   0.747
 7830TIP3   OH223432   5.604   4.665   0.578
 7830TIP3    H123433   5.583   4.661   0.671
 7830TIP3    H223434   5.655   4.745   0.568
 7831TIP3   OH223435   4.876   4.344   1.060
 7831TIP3    H123436   4.880   4.370   1.152
 7831TIP3    H223437   4.789   4.305   1.049
 7832TIP3   OH223438   4.743   5.271   3.659
 7832TIP3    H123439   4.726   5.301   3.570
 7832TIP3    H223440   4.714   5.344   3.714
 7833TIP3   OH223441   6.637   0.724   3.691
 7833TIP3    H123442   6.586   0.738   3.612
 7833TIP3    H223443   6.574   0.729   3.763
 7834TIP3   OH223444   3.203   7.500   1.231
 7834TIP3    H123445   3.212   7.582   1.280
 7834TIP3    H223446   3.172   7.436   1.295
 7835TIP3   OH223447   5.304   7.762   1.753
 7835TIP3    H123448   5.385   7.718   1.777
 7835TIP3    H223449   5.319   7.854   1.774
 7836TIP3   OH223450   4.002   2.825   0.895
 7836TIP3    H123451   3.927   2.768   0.909
 7836TIP3    H223452   3.988   2.863   0.808
 7837TIP3   OH223453   3.204   7.814   1.815
 7837TIP3    H123454   3.257   7.874   1.868
 7837TIP3    H223455   3.267   7.771   1.756
 7838TIP3   OH223456   2.349   2.976   5.789
 7838TIP3    H123457   2.408   2.967   5.864
 7838TIP3    H223458   2.268   2.932   5.816
 7839TIP3   OH223459   2.908   4.718   2.256
 7839TIP3    H123460   2.853   4.745   2.182
 7839TIP3    H223461   2.855   4.652   2.301
 7840TIP3   OH223462   5.944   0.473   3.972
 7840TIP3    H123463   6.016   0.497   3.912
 7840TIP3    H223464   5.905   0.395   3.933
 7841TIP3   OH223465   1.850   2.162   6.007
 7841TIP3    H123466   1.905   2.134   5.934
 7841TIP3    H223467   1.908   2.213   6.063
 7842TIP3   OH223468   6.251   7.749   4.456
 7842TIP3    H123469   6.246   7.699   4.537
 7842TIP3    H223470   6.194   7.703   4.395
 7843TIP3   OH223471   6.529   3.358   4.126
 7843TIP3    H123472   6.586   3.434   4.113
 7843TIP3    H223473   6.514   3.324   4.038
 7844TIP3   OH223474   0.895   7.330   2.633
 7844TIP3    H123475   0.819   7.271   2.639
 7844TIP3    H223476   0.859   7.412   2.600
 7845TIP3   OH223477   5.485   6.730   5.585
 7845TIP3    H123478   5.419   6.797   5.567
 7845TIP3    H223479   5.509   6.745   5.677
 7846TIP3   OH223480   4.543   4.521   1.201
 7846TIP3    H123481   4.501   4.455   1.255
 7846TIP3    H223482   4.472   4.578   1.172
 7847TIP3   OH223483   0.104   0.155   6.273
 7847TIP3    H123484   0.149   0.084   6.318
 7847TIP3    H223485   0.067   0.209   6.343
 7848TIP3   OH223486   3.396   6.534   1.383
 7848TIP3    H123487   3.471   6.535   1.444
 7848TIP3    H223488   3.326   6.493   1.433
 7849TIP3   OH223489   0.084   5.615   3.848
 7849TIP3    H123490   0.171   5.622   3.808
 7849TIP3    H223491   0.101   5.598   3.940
 7850TIP3   OH223492   4.086   2.075   4.445
 7850TIP3    H123493   4.169   2.121   4.435
 7850TIP3    H223494   4.111   1.988   4.476
 7851TIP3   OH223495   6.615   3.122   3.933
 7851TIP3    H123496   6.663   3.200   3.903
 7851TIP3    H223497   6.668   3.048   3.902
 7852TIP3   OH223498   3.150   6.118   3.006
 7852TIP3    H123499   3.212   6.046   3.017
 7852TIP3    H223500   3.117   6.136   3.094
 7853TIP3   OH223501   8.283   0.721   0.358
 7853TIP3    H123502   8.195   0.740   0.327
 7853TIP3    H223503   8.297   0.780   0.431
 7854TIP3   OH223504   6.672   4.579   2.414
 7854TIP3    H123505   6.717   4.625   2.344
 7854TIP3    H223506   6.742   4.541   2.467
 7855TIP3   OH223507   2.130   6.730   5.647
 7855TIP3    H123508   2.035   6.726   5.658
 7855TIP3    H223509   2.160   6.791   5.714
 7856TIP3   OH223510   3.317   6.070   6.660
 7856TIP3    H123511   3.365   6.098   6.583
 7856TIP3    H223512   3.284   6.151   6.699
 7857TIP3   OH223513   3.773   4.573   4.240
 7857TIP3    H123514   3.680   4.551   4.250
 7857TIP3    H223515   3.788   4.573   4.145
 7858TIP3   OH223516   3.984   0.318   5.583
 7858TIP3    H123517   4.073   0.285   5.574
 7858TIP3    H223518   3.992   0.394   5.641
 7859TIP3   OH223519   2.539   4.562   1.225
 7859TIP3    H123520   2.542   4.514   1.308
 7859TIP3    H223521   2.512   4.496   1.160
 7860TIP3   OH223522   4.490   4.521   6.404
 7860TIP3    H123523   4.412   4.563   6.440
 7860TIP3    H223524   4.556   4.528   6.474
 7861TIP3   OH223525   3.602   0.552   2.752
 7861TIP3    H123526   3.600   0.488   2.822
 7861TIP3    H223527   3.510   0.569   2.732
 7862TIP3   OH223528   5.979   4.582   5.906
 7862TIP3    H123529   6.062   4.548   5.939
 7862TIP3    H223530   5.923   4.586   5.984
 7863TIP3   OH223531   7.463   1.252   6.318
 7863TIP3    H123532   7.383   1.261   6.369
 7863TIP3    H223533   7.440   1.287   6.232
 7864TIP3   OH223534   6.703   5.136   1.989
 7864TIP3    H123535   6.703   5.154   1.895
 7864TIP3    H223536   6.613   5.112   2.010
 7865TIP3   OH223537   6.256   2.802   1.393
 7865TIP3    H123538   6.264   2.897   1.401
 7865TIP3    H223539   6.342   2.773   1.361
 7866TIP3   OH223540   5.964   5.796   6.314
 7866TIP3    H123541   6.010   5.783   6.397
 7866TIP3    H223542   6.019   5.752   6.249
 7867TIP3   OH223543   3.242   2.113   0.917
 7867TIP3    H123544   3.306   2.167   0.871
 7867TIP3    H223545   3.247   2.028   0.873
 7868TIP3   OH223546   3.705   4.765   5.778
 7868TIP3    H123547   3.674   4.686   5.733
 7868TIP3    H223548   3.638   4.831   5.761
 7869TIP3   OH223549   0.794   1.461   2.178
 7869TIP3    H123550   0.843   1.459   2.261
 7869TIP3    H223551   0.717   1.515   2.197
 7870TIP3   OH223552   1.387   6.559   3.179
 7870TIP3    H123553   1.479   6.532   3.170
 7870TIP3    H223554   1.385   6.612   3.258
 7871TIP3   OH223555   7.174   2.932   6.057
 7871TIP3    H123556   7.206   3.019   6.033
 7871TIP3    H223557   7.207   2.874   5.988
 7872TIP3   OH223558   5.988   1.734   1.325
 7872TIP3    H123559   6.063   1.775   1.367
 7872TIP3    H223560   5.934   1.807   1.295
 7873TIP3   OH223561   7.495   4.931   3.678
 7873TIP3    H123562   7.413   4.960   3.637
 7873TIP3    H223563   7.558   5.000   3.659
 7874TIP3   OH223564   4.033   0.036   6.018
 7874TIP3    H123565   4.039   0.123   5.978
 7874TIP3    H223566   4.100   0.036   6.086
 7875TIP3   OH223567   0.336   7.737   2.289
 7875TIP3    H123568   0.286   7.723   2.208
 7875TIP3    H223569   0.273   7.721   2.359
 7876TIP3   OH223570   3.738   7.233   6.273
 7876TIP3    H123571   3.686   7.158   6.300
 7876TIP3    H223572   3.695   7.265   6.194
 7877TIP3   OH223573   4.613   6.391   1.219
 7877TIP3    H123574   4.667   6.312   1.214
 7877TIP3    H223575   4.545   6.370   1.283
 7878TIP3   OH223576   3.941   0.086   4.982
 7878TIP3    H123577   3.949   0.087   4.887
 7878TIP3    H223578   3.919   0.176   5.005
 7879TIP3   OH223579   1.860   4.233   1.474
 7879TIP3    H123580   1.874   4.295   1.547
 7879TIP3    H223581   1.881   4.284   1.396
 7880TIP3   OH223582   2.860   7.601   2.889
 7880TIP3    H123583   2.918   7.640   2.823
 7880TIP3    H223584   2.772   7.624   2.860
 7881TIP3   OH223585   4.207   3.014   4.721
 7881TIP3    H123586   4.154   3.082   4.763
 7881TIP3    H223587   4.193   2.936   4.774
 7882TIP3   OH223588   7.265   2.084   2.861
 7882TIP3    H123589   7.356   2.103   2.838
 7882TIP3    H223590   7.238   2.020   2.795
 7883TIP3   OH223591   5.255   4.198   4.305
 7883TIP3    H123592   5.237   4.277   4.255
 7883TIP3    H223593   5.170   4.173   4.342
 7884TIP3   OH223594   8.339   4.548   0.086
 7884TIP3    H123595   8.258   4.535   0.037
 7884TIP3    H223596   8.311   4.571   0.175
 7885TIP3   OH223597   6.110   4.557   3.190
 7885TIP3    H123598   6.034   4.548   3.249
 7885TIP3    H223599   6.077   4.527   3.105
 7886TIP3   OH223600   3.987   2.247   4.719
 7886TIP3    H123601   4.029   2.329   4.746
 7886TIP3    H223602   4.026   2.227   4.634
 7887TIP3   OH223603   8.288   0.476   2.598
 7887TIP3    H123604   8.262   0.514   2.514
 7887TIP3    H223605   8.358   0.415   2.576
 7888TIP3   OH223606   2.148   3.487   0.532
 7888TIP3    H123607   2.144   3.413   0.472
 7888TIP3    H223608   2.226   3.470   0.585
 7889TIP3   OH223609   2.605   5.736   5.545
 7889TIP3    H123610   2.656   5.657   5.531
 7889TIP3    H223611   2.632   5.767   5.632
 7890TIP3   OH223612   0.394   0.080   4.905
 7890TIP3    H123613   0.302   0.062   4.925
 7890TIP3    H223614   0.413   0.160   4.953
 7891TIP3   OH223615   3.914   4.576   4.729
 7891TIP3    H123616   3.969   4.641   4.773
 7891TIP3    H223617   3.977   4.522   4.681
 7892TIP3   OH223618   4.813   3.013   4.174
 7892TIP3    H123619   4.776   2.989   4.089
 7892TIP3    H223620   4.818   2.930   4.221
 7893TIP3   OH223621   2.894   4.350   3.817
 7893TIP3    H123622   2.846   4.424   3.780
 7893TIP3    H223623   2.868   4.348   3.909
 7894TIP3   OH223624   2.890   7.601   2.372
 7894TIP3    H123625   2.933   7.682   2.342
 7894TIP3    H223626   2.895   7.542   2.298
 7895TIP3   OH223627   6.759   0.456   1.310
 7895TIP3    H123628   6.810   0.423   1.383
 7895TIP3    H223629   6.823   0.499   1.253
 7896TIP3   OH223630   3.932   6.278   6.257
 7896TIP3    H123631   3.979   6.230   6.326
 7896TIP3    H223632   3.914   6.363   6.295
 7897TIP3   OH223633   4.871   1.572   1.211
 7897TIP3    H123634   4.840   1.629   1.281
 7897TIP3    H223635   4.802   1.577   1.144
 7898TIP3   OH223636   3.444   4.608   3.928
 7898TIP3    H123637   3.358   4.591   3.966
 7898TIP3    H223638   3.488   4.663   3.992
 7899TIP3   OH223639   1.460   4.098   1.550
 7899TIP3    H123640   1.550   4.064   1.552
 7899TIP3    H223641   1.464   4.172   1.490
 7900TIP3   OH223642   1.472   5.513   0.255
 7900TIP3    H123643   1.560   5.537   0.284
 7900TIP3    H223644   1.442   5.448   0.318
 7901TIP3   OH223645   2.455   6.823   3.607
 7901TIP3    H123646   2.414   6.888   3.665
 7901TIP3    H223647   2.518   6.872   3.556
 7902TIP3   OH223648   5.360   2.247   6.708
 7902TIP3    H123649   5.417   2.206   6.773
 7902TIP3    H223650   5.272   2.215   6.728
 7903TIP3   OH223651   0.742   1.906   4.435
 7903TIP3    H123652   0.818   1.949   4.474
 7903TIP3    H223653   0.723   1.833   4.494
 7904TIP3   OH223654   7.431   6.451   1.403
 7904TIP3    H123655   7.478   6.505   1.339
 7904TIP3    H223656   7.434   6.363   1.367
 7905TIP3   OH223657   2.908   2.797   6.399
 7905TIP3    H123658   2.968   2.870   6.413
 7905TIP3    H223659   2.932   2.763   6.313
 7906TIP3   OH223660   3.132   6.728   1.989
 7906TIP3    H123661   3.137   6.824   1.991
 7906TIP3    H223662   3.180   6.699   2.066
 7907TIP3   OH223663   4.128   0.903   1.466
 7907TIP3    H123664   4.085   0.823   1.497
 7907TIP3    H223665   4.205   0.912   1.521
 7908TIP3   OH223666   1.083   0.667   6.283
 7908TIP3    H123667   1.065   0.735   6.218
 7908TIP3    H223668   0.997   0.644   6.318
 7909TIP3   OH223669   0.584   1.470   5.621
 7909TIP3    H123670   0.548   1.527   5.689
 7909TIP3    H223671   0.639   1.527   5.568
 7910TIP3   OH223672   2.217   4.191   3.031
 7910TIP3    H123673   2.271   4.262   3.065
 7910TIP3    H223674   2.247   4.179   2.940
 7911TIP3   OH223675   1.626   2.759   3.808
 7911TIP3    H123676   1.563   2.790   3.742
 7911TIP3    H223677   1.571   2.729   3.881
 7912TIP3   OH223678   1.410   4.941   4.877
 7912TIP3    H123679   1.499   4.915   4.855
 7912TIP3    H223680   1.356   4.864   4.857
 7913TIP3   OH223681   1.671   7.726   1.082
 7913TIP3    H123682   1.756   7.749   1.043
 7913TIP3    H223683   1.681   7.636   1.112
 7914TIP3   OH223684   3.928   3.653   5.379
 7914TIP3    H123685   3.889   3.605   5.452
 7914TIP3    H223686   3.901   3.744   5.393
 7915TIP3   OH223687   6.612   5.681   4.236
 7915TIP3    H123688   6.521   5.691   4.211
 7915TIP3    H223689   6.637   5.594   4.205
 7916TIP3   OH223690   4.553   5.454   4.390
 7916TIP3    H123691   4.612   5.501   4.332
 7916TIP3    H223692   4.483   5.516   4.409
 7917TIP3   OH223693   7.216   1.860   1.594
 7917TIP3    H123694   7.256   1.775   1.576
 7917TIP3    H223695   7.211   1.903   1.509
 7918TIP3   OH223696   0.691   4.675   2.243
 7918TIP3    H123697   0.635   4.750   2.226
 7918TIP3    H223698   0.631   4.601   2.251
 7919TIP3   OH223699   6.081   1.456   1.333
 7919TIP3    H123700   6.175   1.441   1.344
 7919TIP3    H223701   6.074   1.550   1.315
 7920TIP3   OH223702   1.560   2.443   0.898
 7920TIP3    H123703   1.593   2.455   0.809
 7920TIP3    H223704   1.559   2.531   0.936
 7921TIP3   OH223705   1.243   5.348   1.534
 7921TIP3    H123706   1.218   5.322   1.622
 7921TIP3    H223707   1.322   5.400   1.545
 7922TIP3   OH223708   8.341   7.574   5.503
 7922TIP3    H123709   8.321   7.529   5.421
 7922TIP3    H223710   8.258   7.612   5.531
 7923TIP3   OH223711   8.226   4.609   0.347
 7923TIP3    H123712   8.164   4.642   0.413
 7923TIP3    H223713   8.256   4.687   0.301
 7924TIP3   OH223714   3.151   5.798   1.340
 7924TIP3    H123715   3.081   5.850   1.380
 7924TIP3    H223716   3.144   5.818   1.246
 7925TIP3   OH223717   4.617   2.114   1.265
 7925TIP3    H123718   4.529   2.110   1.303
 7925TIP3    H223719   4.629   2.206   1.242
 7926TIP3   OH223720   6.116   2.490   4.087
 7926TIP3    H123721   6.097   2.539   4.007
 7926TIP3    H223722   6.098   2.552   4.158
 7927TIP3   OH223723   0.685   1.797   0.322
 7927TIP3    H123724   0.708   1.787   0.229
 7927TIP3    H223725   0.590   1.785   0.325
 7928TIP3   OH223726   5.577   6.037   4.056
 7928TIP3    H123727   5.486   6.013   4.043
 7928TIP3    H223728   5.624   5.954   4.059
 7929TIP3   OH223729   3.266   3.466   6.604
 7929TIP3    H123730   3.208   3.542   6.599
 7929TIP3    H223731   3.354   3.503   6.606
 7930TIP3   OH223732   5.332   5.556   3.203
 7930TIP3    H123733   5.287   5.611   3.267
 7930TIP3    H223734   5.333   5.608   3.122
 7931TIP3   OH223735   1.953   1.946   3.676
 7931TIP3    H123736   2.047   1.961   3.667
 7931TIP3    H223737   1.944   1.850   3.673
 7932TIP3   OH223738   0.317   2.381   1.502
 7932TIP3    H123739   0.279   2.421   1.424
 7932TIP3    H223740   0.367   2.451   1.543
 7933TIP3   OH223741   7.392   1.859   5.885
 7933TIP3    H123742   7.413   1.895   5.799
 7933TIP3    H223743   7.435   1.773   5.886
 7934TIP3   OH223744   2.149   1.303   4.754
 7934TIP3    H123745   2.138   1.277   4.845
 7934TIP3    H223746   2.188   1.390   4.758
 7935TIP3   OH223747   4.835   0.308   2.125
 7935TIP3    H123748   4.833   0.259   2.206
 7935TIP3    H223749   4.924   0.294   2.091
 7936TIP3   OH223750   0.012   2.443   1.326
 7936TIP3    H123751   0.102   2.437   1.295
 7936TIP3    H223752  -0.027   2.512   1.272
 7937TIP3   OH223753   6.772   2.371   1.015
 7937TIP3    H123754   6.679   2.392   1.028
 7937TIP3    H223755   6.780   2.282   1.049
 7938TIP3   OH223756   2.198   2.578   3.765
 7938TIP3    H123757   2.135   2.641   3.731
 7938TIP3    H223758   2.222   2.524   3.690
 7939TIP3   OH223759   2.014   3.399   5.302
 7939TIP3    H123760   1.993   3.364   5.389
 7939TIP3    H223761   1.976   3.487   5.303
 7940TIP3   OH223762   4.614   2.371   6.191
 7940TIP3    H123763   4.577   2.421   6.264
 7940TIP3    H223764   4.656   2.437   6.136
 7941TIP3   OH223765   5.520   4.885   5.045
 7941TIP3    H123766   5.446   4.871   4.986
 7941TIP3    H223767   5.594   4.899   4.986
 7942TIP3   OH223768   6.731   6.531   2.076
 7942TIP3    H123769   6.822   6.537   2.049
 7942TIP3    H223770   6.685   6.501   1.997
 7943TIP3   OH223771   7.868   4.417   5.668
 7943TIP3    H123772   7.956   4.380   5.664
 7943TIP3    H223773   7.843   4.409   5.760
 7944TIP3   OH223774   6.125   2.278   1.955
 7944TIP3    H123775   6.154   2.307   1.868
 7944TIP3    H223776   6.133   2.183   1.952
 7945TIP3   OH223777   5.050   1.588   0.475
 7945TIP3    H123778   4.996   1.607   0.398
 7945TIP3    H223779   4.994   1.535   0.532
 7946TIP3   OH223780   6.402   4.323   2.080
 7946TIP3    H123781   6.496   4.316   2.096
 7946TIP3    H223782   6.392   4.311   1.986
 7947TIP3   OH223783   3.503   1.204   5.539
 7947TIP3    H123784   3.425   1.167   5.498
 7947TIP3    H223785   3.543   1.257   5.470
 7948TIP3   OH223786   0.480   1.726   2.680
 7948TIP3    H123787   0.491   1.817   2.655
 7948TIP3    H223788   0.444   1.730   2.769
 7949TIP3   OH223789   6.190   3.244   5.849
 7949TIP3    H123790   6.248   3.188   5.901
 7949TIP3    H223791   6.244   3.270   5.774
 7950TIP3   OH223792   6.422   6.521   0.359
 7950TIP3    H123793   6.425   6.598   0.303
 7950TIP3    H223794   6.345   6.534   0.415
 7951TIP3   OH223795   1.978   5.617   1.117
 7951TIP3    H123796   2.071   5.620   1.094
 7951TIP3    H223797   1.978   5.622   1.213
 7952TIP3   OH223798   7.865   5.672   3.055
 7952TIP3    H123799   7.931   5.736   3.080
 7952TIP3    H223800   7.782   5.710   3.084
 7953TIP3   OH223801   7.586   4.586   4.442
 7953TIP3    H123802   7.665   4.600   4.390
 7953TIP3    H223803   7.556   4.499   4.418
 7954TIP3   OH223804   1.639   6.539   3.116
 7954TIP3    H123805   1.639   6.452   3.077
 7954TIP3    H223806   1.721   6.543   3.166
 7955TIP3   OH223807   5.074   0.312   2.012
 7955TIP3    H123808   5.152   0.365   2.028
 7955TIP3    H223809   5.099   0.253   1.941
 7956TIP3   OH223810   2.125   0.549   2.752
 7956TIP3    H123811   2.165   0.507   2.828
 7956TIP3    H223812   2.048   0.497   2.733
 7957TIP3   OH223813   4.128   2.863   4.377
 7957TIP3    H123814   4.142   2.770   4.395
 7957TIP3    H223815   4.052   2.865   4.319
 7958TIP3   OH223816   1.753   0.080   4.233
 7958TIP3    H123817   1.842   0.046   4.234
 7958TIP3    H223818   1.745   0.131   4.314
 7959TIP3   OH223819   2.096   4.901   4.438
 7959TIP3    H123820   2.165   4.873   4.498
 7959TIP3    H223821   2.133   4.885   4.351
 7960TIP3   OH223822   4.406   3.527   2.272
 7960TIP3    H123823   4.475   3.470   2.238
 7960TIP3    H223824   4.448   3.613   2.281
 7961TIP3   OH223825   8.064   4.677   6.209
 7961TIP3    H123826   8.037   4.679   6.118
 7961TIP3    H223827   8.030   4.594   6.243
 7962TIP3   OH223828   7.850   4.693   2.398
 7962TIP3    H123829   7.900   4.620   2.362
 7962TIP3    H223830   7.898   4.771   2.371
 7963TIP3   OH223831   6.834   2.519   4.365
 7963TIP3    H123832   6.845   2.610   4.336
 7963TIP3    H223833   6.803   2.472   4.288
 7964TIP3   OH223834   1.341   2.975   1.251
 7964TIP3    H123835   1.417   3.007   1.202
 7964TIP3    H223836   1.273   2.964   1.185
 7965TIP3   OH223837   1.860   1.597   6.358
 7965TIP3    H123838   1.814   1.556   6.431
 7965TIP3    H223839   1.887   1.683   6.391
 7966TIP3   OH223840   7.255   0.347   4.756
 7966TIP3    H123841   7.341   0.321   4.723
 7966TIP3    H223842   7.204   0.266   4.760
 7967TIP3   OH223843   3.581   0.067   2.347
 7967TIP3    H123844   3.508   0.073   2.285
 7967TIP3    H223845   3.614  -0.022   2.338
 7968TIP3   OH223846   1.206   0.824   0.934
 7968TIP3    H123847   1.163   0.750   0.892
 7968TIP3    H223848   1.299   0.801   0.933
 7969TIP3   OH223849   3.479   1.944   1.282
 7969TIP3    H123850   3.529   1.931   1.363
 7969TIP3    H223851   3.537   1.997   1.226
 7970TIP3   OH223852   0.645   5.230   3.042
 7970TIP3    H123853   0.711   5.161   3.032
 7970TIP3    H223854   0.664   5.291   2.970
 7971TIP3   OH223855   4.688   5.488   1.318
 7971TIP3    H123856   4.719   5.545   1.248
 7971TIP3    H223857   4.626   5.542   1.367
 7972TIP3   OH223858   1.199   4.582   2.611
 7972TIP3    H123859   1.288   4.611   2.630
 7972TIP3    H223860   1.198   4.489   2.632
 7973TIP3   OH223861   5.838   3.701   3.744
 7973TIP3    H123862   5.762   3.736   3.697
 7973TIP3    H223863   5.817   3.715   3.837
 7974TIP3   OH223864   5.126   3.363   1.641
 7974TIP3    H123865   5.203   3.313   1.614
 7974TIP3    H223866   5.153   3.408   1.721
 7975TIP3   OH223867   4.909   1.562   5.095
 7975TIP3    H123868   4.840   1.497   5.104
 7975TIP3    H223869   4.949   1.544   5.010
 7976TIP3   OH223870   1.307   3.926   2.575
 7976TIP3    H123871   1.329   3.979   2.498
 7976TIP3    H223872   1.363   3.961   2.644
 7977TIP3   OH223873   3.251   4.158   6.391
 7977TIP3    H123874   3.341   4.177   6.365
 7977TIP3    H223875   3.229   4.226   6.454
 7978TIP3   OH223876   0.023   6.631   3.374
 7978TIP3    H123877  -0.012   6.709   3.416
 7978TIP3    H223878   0.103   6.611   3.423
 7979TIP3   OH223879   2.128   5.349   0.267
 7979TIP3    H123880   2.136   5.329   0.360
 7979TIP3    H223881   2.041   5.388   0.257
 7980TIP3   OH223882   4.612   7.807   6.416
 7980TIP3    H123883   4.618   7.761   6.499
 7980TIP3    H223884   4.703   7.810   6.384
 7981TIP3   OH223885   2.412   4.142   6.082
 7981TIP3    H123886   2.345   4.081   6.112
 7981TIP3    H223887   2.460   4.166   6.162
 7982TIP3   OH223888   6.975   2.965   0.393
 7982TIP3    H123889   6.924   2.957   0.312
 7982TIP3    H223890   7.015   3.052   0.386
 7983TIP3   OH223891   1.719   1.255   5.000
 7983TIP3    H123892   1.674   1.211   4.928
 7983TIP3    H223893   1.762   1.330   4.960
 7984TIP3   OH223894   6.403   2.077   0.448
 7984TIP3    H123895   6.312   2.055   0.468
 7984TIP3    H223896   6.440   1.995   0.415
 7985TIP3   OH223897   0.824   5.191   4.436
 7985TIP3    H123898   0.875   5.239   4.371
 7985TIP3    H223899   0.831   5.244   4.516
 7986TIP3   OH223900   7.670   5.263   2.314
 7986TIP3    H123901   7.731   5.192   2.335
 7986TIP3    H223902   7.583   5.223   2.321
 7987TIP3   OH223903   7.414   4.821   6.032
 7987TIP3    H123904   7.327   4.857   6.047
 7987TIP3    H223905   7.469   4.897   6.013
 7988TIP3   OH223906   0.979   3.626   1.587
 7988TIP3    H123907   1.010   3.713   1.560
 7988TIP3    H223908   1.051   3.567   1.562
 7989TIP3   OH223909   0.470   7.417   3.722
 7989TIP3    H123910   0.542   7.383   3.775
 7989TIP3    H223911   0.480   7.512   3.728
 7990TIP3   OH223912   5.602   0.733   3.446
 7990TIP3    H123913   5.515   0.693   3.442
 7990TIP3    H223914   5.623   0.754   3.355
 7991TIP3   OH223915   0.906   2.529   3.156
 7991TIP3    H123916   0.852   2.607   3.145
 7991TIP3    H223917   0.875   2.489   3.237
 7992TIP3   OH223918   1.003   3.265   4.398
 7992TIP3    H123919   1.070   3.218   4.447
 7992TIP3    H223920   0.934   3.282   4.462
 7993TIP3   OH223921   0.048   4.403   6.048
 7993TIP3    H123922  -0.030   4.393   6.102
 7993TIP3    H223923   0.070   4.496   6.055
 7994TIP3   OH223924   8.244   3.494   5.168
 7994TIP3    H123925   8.257   3.439   5.245
 7994TIP3    H223926   8.195   3.439   5.107
 7995TIP3   OH223927   0.585   2.479   3.404
 7995TIP3    H123928   0.507   2.425   3.417
 7995TIP3    H223929   0.570   2.556   3.459
 7996TIP3   OH223930   6.892   2.539   1.506
 7996TIP3    H123931   6.881   2.595   1.583
 7996TIP3    H223932   6.942   2.592   1.444
 7997TIP3   OH223933   0.268   2.847   5.372
 7997TIP3    H123934   0.247   2.921   5.315
 7997TIP3    H223935   0.228   2.772   5.328
 7998TIP3   OH223936   5.632   1.419   0.861
 7998TIP3    H123937   5.602   1.397   0.773
 7998TIP3    H223938   5.565   1.385   0.919
 7999TIP3   OH223939   0.088   4.270   3.143
 7999TIP3    H123940   0.025   4.226   3.086
 7999TIP3    H223941   0.035   4.328   3.198
 8000TIP3   OH223942   1.647   1.612   4.943
 8000TIP3    H123943   1.740   1.605   4.924
 8000TIP3    H223944   1.636   1.568   5.028
 8001TIP3   OH223945   6.766   5.922   2.668
 8001TIP3    H123946   6.762   5.963   2.582
 8001TIP3    H223947   6.788   5.830   2.650
 8002TIP3   OH223948   5.611   2.964   6.560
 8002TIP3    H123949   5.521   2.970   6.527
 8002TIP3    H223950   5.605   2.994   6.651
 8003TIP3   OH223951   1.609   3.146   1.157
 8003TIP3    H123952   1.615   3.233   1.196
 8003TIP3    H223953   1.643   3.087   1.224
 8004TIP3   OH223954   0.783   1.659   6.617
 8004TIP3    H123955   0.767   1.581   6.670
 8004TIP3    H223956   0.851   1.632   6.555
 8005TIP3   OH223957   6.334   0.171   4.562
 8005TIP3    H123958   6.281   0.198   4.636
 8005TIP3    H223959   6.287   0.204   4.485
 8006TIP3   OH223960   3.438   7.718   5.416
 8006TIP3    H123961   3.424   7.628   5.446
 8006TIP3    H223962   3.451   7.711   5.322
 8007TIP3   OH223963   7.447   1.707   6.562
 8007TIP3    H123964   7.496   1.685   6.484
 8007TIP3    H223965   7.429   1.623   6.604
 8008TIP3   OH223966   2.007   4.254   2.339
 8008TIP3    H123967   1.959   4.267   2.257
 8008TIP3    H223968   2.093   4.223   2.311
 8009TIP3   OH223969   1.680   5.684   0.303
 8009TIP3    H123970   1.694   5.717   0.214
 8009TIP3    H223971   1.756   5.628   0.320
 8010TIP3   OH223972   6.629   3.621   2.432
 8010TIP3    H123973   6.564   3.676   2.389
 8010TIP3    H223974   6.713   3.662   2.412
 8011TIP3   OH223975   3.967   1.258   6.129
 8011TIP3    H123976   3.929   1.204   6.059
 8011TIP3    H223977   4.008   1.332   6.083
 8012TIP3   OH223978   5.149   0.702   6.629
 8012TIP3    H123979   5.154   0.712   6.724
 8012TIP3    H223980   5.096   0.776   6.600
 8013TIP3   OH223981   3.302   7.261   6.357
 8013TIP3    H123982   3.235   7.212   6.309
 8013TIP3    H223983   3.278   7.353   6.344
 8014TIP3   OH223984   3.705   3.710   2.660
 8014TIP3    H123985   3.791   3.675   2.636
 8014TIP3    H223986   3.723   3.771   2.732
 8015TIP3   OH223987   2.526   3.251   3.841
 8015TIP3    H123988   2.560   3.198   3.769
 8015TIP3    H223989   2.431   3.237   3.838
 8016TIP3   OH223990   3.803   4.050   2.782
 8016TIP3    H123991   3.772   4.067   2.871
 8016TIP3    H223992   3.746   4.103   2.727
 8017TIP3   OH223993   1.753   0.011   1.652
 8017TIP3    H123994   1.800  -0.023   1.575
 8017TIP3    H223995   1.792   0.097   1.667
 8018TIP3   OH223996   5.778   6.697   3.397
 8018TIP3    H123997   5.736   6.724   3.479
 8018TIP3    H223998   5.749   6.762   3.333
 8019TIP3   OH223999   7.414   4.648   5.397
 8019TIP3    H124000   7.416   4.690   5.310
 8019TIP3    H224001   7.367   4.566   5.382
 8020TIP3   OH224002   1.045   3.729   5.869
 8020TIP3    H124003   0.972   3.785   5.844
 8020TIP3    H224004   1.017   3.687   5.951
 8021TIP3   OH224005   5.156   2.275   4.458
 8021TIP3    H124006   5.104   2.258   4.537
 8021TIP3    H224007   5.247   2.257   4.485
 8022TIP3   OH224008   6.516   5.192   5.047
 8022TIP3    H124009   6.524   5.256   5.118
 8022TIP3    H224010   6.577   5.223   4.980
 8023TIP3   OH224011   1.423   4.715   0.640
 8023TIP3    H124012   1.362   4.775   0.596
 8023TIP3    H224013   1.366   4.648   0.680
 8024TIP3   OH224014   3.668   1.315   0.965
 8024TIP3    H124015   3.708   1.243   0.916
 8024TIP3    H224016   3.742   1.362   1.003
 8025TIP3   OH224017   7.034   6.151   0.493
 8025TIP3    H124018   6.955   6.120   0.537
 8025TIP3    H224019   7.001   6.205   0.420
 8026TIP3   OH224020   2.270   1.724   3.399
 8026TIP3    H124021   2.183   1.685   3.384
 8026TIP3    H224022   2.254   1.818   3.402
 8027TIP3   OH224023   7.204   2.215   4.717
 8027TIP3    H124024   7.108   2.215   4.712
 8027TIP3    H224025   7.224   2.186   4.805
 8028TIP3   OH224026   4.488   4.452   5.244
 8028TIP3    H124027   4.552   4.472   5.312
 8028TIP3    H224028   4.464   4.537   5.208
 8029TIP3   OH224029   0.707   2.261   4.662
 8029TIP3    H124030   0.770   2.332   4.658
 8029TIP3    H224031   0.660   2.276   4.744
 8030TIP3   OH224032   0.457   7.426   1.676
 8030TIP3    H124033   0.530   7.390   1.727
 8030TIP3    H224034   0.441   7.512   1.715
 8031TIP3   OH224035   5.829   6.331   0.415
 8031TIP3    H124036   5.802   6.318   0.506
 8031TIP3    H224037   5.754   6.303   0.363
 8032TIP3   OH224038   8.123   6.874   5.609
 8032TIP3    H124039   8.162   6.885   5.522
 8032TIP3    H224040   8.196   6.887   5.669
 8033TIP3   OH224041   7.983   7.672   2.558
 8033TIP3    H124042   8.051   7.703   2.618
 8033TIP3    H224043   7.959   7.585   2.591
 8034TIP3   OH224044   4.909   3.166   6.604
 8034TIP3    H124045   4.823   3.199   6.576
 8034TIP3    H224046   4.888   3.100   6.670
 8035TIP3   OH224047   1.174   3.930   4.242
 8035TIP3    H124048   1.188   4.024   4.236
 8035TIP3    H224049   1.078   3.920   4.243
 8036TIP3   OH224050   6.102   6.164   4.649
 8036TIP3    H124051   6.037   6.120   4.705
 8036TIP3    H224052   6.050   6.206   4.581
 8037TIP3   OH224053   0.703   5.680   2.345
 8037TIP3    H124054   0.724   5.589   2.364
 8037TIP3    H224055   0.754   5.730   2.409
 8038TIP3   OH224056   5.954   2.192   2.769
 8038TIP3    H124057   6.030   2.150   2.731
 8038TIP3    H224058   5.990   2.258   2.829
 8039TIP3   OH224059   7.183   0.998   5.320
 8039TIP3    H124060   7.095   0.998   5.281
 8039TIP3    H224061   7.233   1.058   5.266
 8040TIP3   OH224062   7.835   4.347   5.038
 8040TIP3    H124063   7.871   4.430   5.007
 8040TIP3    H224064   7.912   4.292   5.052
 8041TIP3   OH224065   2.397   0.356   2.755
 8041TIP3    H124066   2.375   0.347   2.847
 8041TIP3    H224067   2.485   0.394   2.755
 8042TIP3   OH224068   4.894   7.224   1.453
 8042TIP3    H124069   4.832   7.229   1.526
 8042TIP3    H224070   4.884   7.307   1.406
 8043TIP3   OH224071   2.534   6.210   3.980
 8043TIP3    H124072   2.441   6.223   3.960
 8043TIP3    H224073   2.537   6.131   4.033
 8044TIP3   OH224074   2.134   4.966   1.457
 8044TIP3    H124075   2.048   4.926   1.449
 8044TIP3    H224076   2.195   4.899   1.427
 8045TIP3   OH224077   7.775   0.139   0.318
 8045TIP3    H124078   7.756   0.188   0.398
 8045TIP3    H224079   7.854   0.089   0.338
 8046TIP3   OH224080   4.478   3.240   0.280
 8046TIP3    H124081   4.391   3.254   0.319
 8046TIP3    H224082   4.535   3.300   0.328
 8047TIP3   OH224083   6.403   7.562   4.759
 8047TIP3    H124084   6.394   7.643   4.808
 8047TIP3    H224085   6.339   7.503   4.798
 8048TIP3   OH224086   2.162   4.302   4.153
 8048TIP3    H124087   2.203   4.258   4.079
 8048TIP3    H224088   2.071   4.274   4.152
 8049TIP3   OH224089   5.286   6.209   6.718
 8049TIP3    H124090   5.381   6.212   6.720
 8049TIP3    H224091   5.262   6.146   6.785
 8050TIP3   OH224092   1.705   2.926   1.329
 8050TIP3    H124093   1.645   2.858   1.358
 8050TIP3    H224094   1.770   2.881   1.276
 8051TIP3   OH224095   3.167   7.519   4.974
 8051TIP3    H124096   3.197   7.500   4.885
 8051TIP3    H224097   3.152   7.432   5.013
 8052TIP3   OH224098   5.011   6.381   6.216
 8052TIP3    H124099   4.919   6.401   6.195
 8052TIP3    H224100   5.007   6.296   6.261
 8053TIP3   OH224101   1.303   3.568   0.650
 8053TIP3    H124102   1.272   3.548   0.738
 8053TIP3    H224103   1.224   3.565   0.596
 8054TIP3   OH224104   7.752   3.913   2.364
 8054TIP3    H124105   7.685   3.875   2.420
 8054TIP3    H224106   7.710   3.924   2.279
 8055TIP3   OH224107   4.581   1.712   6.584
 8055TIP3    H124108   4.612   1.747   6.667
 8055TIP3    H224109   4.486   1.709   6.593
 8056TIP3   OH224110   6.414   4.166   4.532
 8056TIP3    H124111   6.324   4.135   4.528
 8056TIP3    H224112   6.427   4.213   4.449
 8057TIP3   OH224113   4.433   2.978   3.988
 8057TIP3    H124114   4.451   2.885   3.992
 8057TIP3    H224115   4.473   3.007   3.906
 8058TIP3   OH224116   5.297   3.633   4.070
 8058TIP3    H124117   5.351   3.585   4.133
 8058TIP3    H224118   5.321   3.725   4.083
 8059TIP3   OH224119   2.679   1.304   1.039
 8059TIP3    H124120   2.739   1.369   1.075
 8059TIP3    H224121   2.602   1.309   1.097
 8060TIP3   OH224122   7.034   3.518   6.212
 8060TIP3    H124123   6.952   3.559   6.238
 8060TIP3    H224124   7.053   3.556   6.126
 8061TIP3   OH224125   2.134   7.685   3.476
 8061TIP3    H124126   2.088   7.616   3.428
 8061TIP3    H224127   2.104   7.767   3.436
 8062TIP3   OH224128   5.956   5.738   3.075
 8062TIP3    H124129   5.879   5.791   3.091
 8062TIP3    H224130   5.927   5.670   3.014
 8063TIP3   OH224131   2.874   0.329   4.480
 8063TIP3    H124132   2.853   0.355   4.570
 8063TIP3    H224133   2.850   0.236   4.476
 8064TIP3   OH224134   2.736   4.752   1.991
 8064TIP3    H124135   2.757   4.766   1.898
 8064TIP3    H224136   2.682   4.673   1.991
 8065TIP3   OH224137   5.683   4.647   3.617
 8065TIP3    H124138   5.706   4.555   3.629
 8065TIP3    H224139   5.592   4.645   3.586
 8066TIP3   OH224140   4.228   3.960   5.688
 8066TIP3    H124141   4.309   4.004   5.713
 8066TIP3    H224142   4.168   4.031   5.667
 8067TIP3   OH224143   5.910   1.296   0.922
 8067TIP3    H124144   5.830   1.348   0.929
 8067TIP3    H224145   5.902   1.251   0.838
 8068TIP3   OH224146   6.714   0.417   3.586
 8068TIP3    H124147   6.654   0.376   3.648
 8068TIP3    H224148   6.746   0.495   3.632
 8069TIP3   OH224149   4.987   2.152   4.702
 8069TIP3    H124150   5.025   2.127   4.787
 8069TIP3    H224151   5.019   2.086   4.641
 8070TIP3   OH224152   0.031   3.757   3.655
 8070TIP3    H124153  -0.004   3.678   3.698
 8070TIP3    H224154   0.052   3.728   3.566
 8071TIP3   OH224155   1.300   2.712   5.425
 8071TIP3    H124156   1.236   2.770   5.467
 8071TIP3    H224157   1.384   2.756   5.440
 8072TIP3   OH224158   0.261   3.457   5.548
 8072TIP3    H124159   0.308   3.375   5.562
 8072TIP3    H224160   0.307   3.521   5.602
 8073TIP3   OH224161   1.625   2.894   1.829
 8073TIP3    H124162   1.697   2.943   1.868
 8073TIP3    H224163   1.585   2.956   1.768
 8074TIP3   OH224164   4.219   2.186   0.145
 8074TIP3    H124165   4.280   2.138   0.090
 8074TIP3    H224166   4.132   2.161   0.113
 8075TIP3   OH224167   5.188   7.130   2.572
 8075TIP3    H124168   5.157   7.097   2.657
 8075TIP3    H224169   5.159   7.221   2.570
 8076TIP3   OH224170   0.658   7.137   2.203
 8076TIP3    H124171   0.653   7.127   2.108
 8076TIP3    H224172   0.585   7.194   2.225
 8077TIP3   OH224173   5.638   3.307   0.772
 8077TIP3    H124174   5.726   3.274   0.790
 8077TIP3    H224175   5.649   3.364   0.696
 8078TIP3   OH224176   3.378   1.219   2.358
 8078TIP3    H124177   3.396   1.311   2.374
 8078TIP3    H224178   3.405   1.175   2.439
 8079TIP3   OH224179   7.612   4.975   1.844
 8079TIP3    H124180   7.526   4.986   1.884
 8079TIP3    H224181   7.596   4.980   1.750
 8080TIP3   OH224182   4.992   3.529   0.652
 8080TIP3    H124183   5.063   3.582   0.615
 8080TIP3    H224184   4.989   3.451   0.598
 8081TIP3   OH224185   5.731   1.799   1.696
 8081TIP3    H124186   5.790   1.872   1.716
 8081TIP3    H224187   5.765   1.761   1.615
 8082TIP3   OH224188   0.078   1.476   0.463
 8082TIP3    H124189   0.157   1.426   0.486
 8082TIP3    H224190   0.106   1.533   0.392
 8083TIP3   OH224191   1.395   3.305   0.467
 8083TIP3    H124192   1.455   3.379   0.476
 8083TIP3    H224193   1.315   3.333   0.511
 8084TIP3   OH224194   8.000   2.546   0.627
 8084TIP3    H124195   7.944   2.519   0.700
 8084TIP3    H224196   7.948   2.531   0.549
 8085TIP3   OH224197   0.863   7.193   6.282
 8085TIP3    H124198   0.934   7.229   6.229
 8085TIP3    H224199   0.797   7.263   6.285
 8086TIP3   OH224200   5.360   6.813   4.689
 8086TIP3    H124201   5.388   6.844   4.603
 8086TIP3    H224202   5.364   6.890   4.746
 8087TIP3   OH224203   8.112   5.059   4.579
 8087TIP3    H124204   8.079   5.147   4.598
 8087TIP3    H224205   8.051   5.023   4.515
 8088TIP3   OH224206   7.222   7.349   6.279
 8088TIP3    H124207   7.203   7.355   6.185
 8088TIP3    H224208   7.306   7.304   6.284
 8089TIP3   OH224209   6.833   5.564   6.233
 8089TIP3    H124210   6.878   5.481   6.244
 8089TIP3    H224211   6.903   5.628   6.220
 8090TIP3   OH224212   1.703   5.743   5.339
 8090TIP3    H124213   1.771   5.698   5.289
 8090TIP3    H224214   1.748   5.774   5.418
 8091TIP3   OH224215   8.173   4.029   1.659
 8091TIP3    H124216   8.183   4.004   1.751
 8091TIP3    H224217   8.092   4.081   1.657
 8092TIP3   OH224218   6.994   2.732   6.164
 8092TIP3    H124219   7.042   2.808   6.129
 8092TIP3    H224220   6.906   2.765   6.180
 8093TIP3   OH224221   2.193   7.117   0.061
 8093TIP3    H124222   2.123   7.063   0.098
 8093TIP3    H224223   2.149   7.199   0.038
 8094TIP3   OH224224   6.411   3.157   0.854
 8094TIP3    H124225   6.497   3.118   0.840
 8094TIP3    H224226   6.385   3.189   0.767
 8095TIP3   OH224227   4.098   6.607   4.363
 8095TIP3    H124228   4.049   6.608   4.281
 8095TIP3    H224229   4.031   6.600   4.431
 8096TIP3   OH224230   6.600   1.126   2.995
 8096TIP3    H124231   6.513   1.167   2.999
 8096TIP3    H224232   6.590   1.055   2.932
 8097TIP3   OH224233   3.849   7.401   0.424
 8097TIP3    H124234   3.867   7.483   0.469
 8097TIP3    H224235   3.791   7.353   0.483
 8098TIP3   OH224236   5.061   7.008   5.525
 8098TIP3    H124237   5.087   6.916   5.517
 8098TIP3    H224238   5.031   7.018   5.615
 8099TIP3   OH224239   0.469   4.016   2.117
 8099TIP3    H124240   0.424   3.936   2.088
 8099TIP3    H224241   0.427   4.086   2.068
 8100TIP3   OH224242   3.110   0.564   2.376
 8100TIP3    H124243   3.090   0.572   2.283
 8100TIP3    H224244   3.206   0.562   2.380
 8101TIP3   OH224245   6.388   3.264   0.604
 8101TIP3    H124246   6.389   3.220   0.519
 8101TIP3    H224247   6.472   3.311   0.606
 8102TIP3   OH224248   2.934   4.787   4.541
 8102TIP3    H124249   3.017   4.817   4.577
 8102TIP3    H224250   2.873   4.790   4.615
 8103TIP3   OH224251  -0.020   3.484   6.602
 8103TIP3    H124252   0.054   3.451   6.653
 8103TIP3    H224253  -0.054   3.407   6.557
 8104TIP3   OH224254   7.030   5.781   5.654
 8104TIP3    H124255   6.940   5.778   5.623
 8104TIP3    H224256   7.055   5.873   5.646
 8105TIP3   OH224257   2.408   5.642   3.469
 8105TIP3    H124258   2.327   5.686   3.445
 8105TIP3    H224259   2.469   5.712   3.490
 8106TIP3   OH224260   2.016   6.997   5.833
 8106TIP3    H124261   1.997   7.091   5.841
 8106TIP3    H224262   1.978   6.973   5.748
 8107TIP3   OH224263   7.347   2.922   3.360
 8107TIP3    H124264   7.377   2.844   3.314
 8107TIP3    H224265   7.348   2.991   3.294
 8108TIP3   OH224266   0.860   6.001   0.789
 8108TIP3    H124267   0.869   6.095   0.806
 8108TIP3    H224268   0.854   5.994   0.694
 8109TIP3   OH224269   0.182   1.485   5.682
 8109TIP3    H124270   0.233   1.419   5.728
 8109TIP3    H224271   0.208   1.476   5.590
 8110TIP3   OH224272   4.722   2.144   2.466
 8110TIP3    H124273   4.740   2.237   2.475
 8110TIP3    H224274   4.770   2.117   2.388
 8111TIP3   OH224275   5.657   3.422   1.199
 8111TIP3    H124276   5.562   3.414   1.195
 8111TIP3    H224277   5.675   3.446   1.290
 8112TIP3   OH224278   0.204   2.928   3.727
 8112TIP3    H124279   0.291   2.919   3.767
 8112TIP3    H224280   0.143   2.915   3.800
 8113TIP3   OH224281   7.507   0.533   5.421
 8113TIP3    H124282   7.490   0.622   5.451
 8113TIP3    H224283   7.563   0.494   5.489
 8114TIP3   OH224284   5.554   0.451   1.368
 8114TIP3    H124285   5.588   0.531   1.328
 8114TIP3    H224286   5.574   0.461   1.461
 8115TIP3   OH224287   8.188   4.334   4.911
 8115TIP3    H124288   8.171   4.342   4.817
 8115TIP3    H224289   8.260   4.394   4.927
 8116TIP3   OH224290   6.275   6.991   4.168
 8116TIP3    H124291   6.227   7.041   4.233
 8116TIP3    H224292   6.264   7.040   4.087
 8117TIP3   OH224293   1.875   0.268   0.486
 8117TIP3    H124294   1.899   0.273   0.394
 8117TIP3    H224295   1.804   0.331   0.496
 8118TIP3   OH224296   1.361   1.413   1.757
 8118TIP3    H124297   1.303   1.458   1.697
 8118TIP3    H224298   1.303   1.366   1.817
 8119TIP3   OH224299   4.501   6.652   1.293
 8119TIP3    H124300   4.556   6.575   1.302
 8119TIP3    H224301   4.493   6.665   1.198
 8120TIP3   OH224302   2.478   0.518   5.157
 8120TIP3    H124303   2.511   0.532   5.246
 8120TIP3    H224304   2.458   0.606   5.125
 8121TIP3   OH224305   4.539   3.426   3.762
 8121TIP3    H124306   4.552   3.385   3.676
 8121TIP3    H224307   4.534   3.520   3.743
 8122TIP3   OH224308   5.247   1.995   3.934
 8122TIP3    H124309   5.187   1.921   3.932
 8122TIP3    H224310   5.252   2.019   4.027
 8123TIP3   OH224311   7.057   5.767   2.106
 8123TIP3    H124312   7.103   5.695   2.148
 8123TIP3    H224313   7.006   5.808   2.177
 8124TIP3   OH224314   2.802   4.605   6.275
 8124TIP3    H124315   2.784   4.517   6.310
 8124TIP3    H224316   2.883   4.632   6.318
 8125TIP3   OH224317   3.989   7.155   2.176
 8125TIP3    H124318   4.058   7.176   2.114
 8125TIP3    H224319   3.992   7.226   2.240
 8126TIP3   OH224320   5.742   0.571   2.478
 8126TIP3    H124321   5.757   0.603   2.567
 8126TIP3    H224322   5.761   0.477   2.483
 8127TIP3   OH224323   6.742   3.483   6.086
 8127TIP3    H124324   6.767   3.536   6.162
 8127TIP3    H224325   6.721   3.397   6.123
 8128TIP3   OH224326   0.503   0.360   3.498
 8128TIP3    H124327   0.568   0.291   3.485
 8128TIP3    H224328   0.474   0.349   3.588
 8129TIP3   OH224329   7.213   5.011   4.692
 8129TIP3    H124330   7.205   4.916   4.689
 8129TIP3    H224331   7.265   5.029   4.771
 8130TIP3   OH224332   1.833   5.190   2.186
 8130TIP3    H124333   1.776   5.135   2.240
 8130TIP3    H224334   1.865   5.132   2.117
 8131TIP3   OH224335   4.469   0.188   2.106
 8131TIP3    H124336   4.437   0.266   2.151
 8131TIP3    H224337   4.535   0.152   2.165
 8132TIP3   OH224338   4.268   3.570   1.396
 8132TIP3    H124339   4.261   3.621   1.476
 8132TIP3    H224340   4.296   3.483   1.425
 8133TIP3   OH224341   0.226   0.719   6.516
 8133TIP3    H124342   0.246   0.809   6.539
 8133TIP3    H224343   0.141   0.723   6.472
 8134TIP3   OH224344   1.987   7.171   2.209
 8134TIP3    H124345   1.898   7.170   2.173
 8134TIP3    H224346   1.995   7.087   2.255
 8135TIP3   OH224347   1.605   3.247   4.846
 8135TIP3    H124348   1.660   3.282   4.917
 8135TIP3    H224349   1.585   3.324   4.792
 8136TIP3   OH224350   6.415   2.753   0.843
 8136TIP3    H124351   6.508   2.731   0.831
 8136TIP3    H224352   6.409   2.781   0.935
 8137TIP3   OH224353   0.737   3.706   4.897
 8137TIP3    H124354   0.669   3.740   4.955
 8137TIP3    H224355   0.769   3.627   4.941
 8138TIP3   OH224356   3.179   6.303   1.841
 8138TIP3    H124357   3.267   6.267   1.857
 8138TIP3    H224358   3.169   6.371   1.908
 8139TIP3   OH224359   3.167   5.873   6.003
 8139TIP3    H124360   3.260   5.889   5.983
 8139TIP3    H224361   3.169   5.811   6.076
 8140TIP3   OH224362   5.586   4.437   6.437
 8140TIP3    H124363   5.639   4.447   6.358
 8140TIP3    H224364   5.538   4.356   6.423
 8141TIP3   OH224365   7.861   4.130   6.267
 8141TIP3    H124366   7.915   4.181   6.206
 8141TIP3    H224367   7.922   4.068   6.307
 8142TIP3   OH224368   1.105   5.682   5.935
 8142TIP3    H124369   1.195   5.713   5.950
 8142TIP3    H224370   1.106   5.591   5.962
 8143TIP3   OH224371   7.475   7.207   6.340
 8143TIP3    H124372   7.434   7.122   6.328
 8143TIP3    H224373   7.489   7.214   6.435
 8144TIP3   OH224374   1.855   1.059   0.897
 8144TIP3    H124375   1.853   0.968   0.868
 8144TIP3    H224376   1.817   1.057   0.985
 8145TIP3   OH224377   7.505   6.615   1.199
 8145TIP3    H124378   7.570   6.548   1.179
 8145TIP3    H224379   7.551   6.698   1.186
 8146TIP3   OH224380   3.188   1.504   0.114
 8146TIP3    H124381   3.179   1.493   0.019
 8146TIP3    H224382   3.153   1.591   0.132
 8147TIP3   OH224383   6.900   5.454   3.421
 8147TIP3    H124384   6.820   5.502   3.444
 8147TIP3    H224385   6.879   5.362   3.440
 8148TIP3   OH224386   3.622   3.592   1.150
 8148TIP3    H124387   3.709   3.628   1.136
 8148TIP3    H224388   3.604   3.539   1.072
 8149TIP3   OH224389   5.843   2.543   0.494
 8149TIP3    H124390   5.825   2.544   0.400
 8149TIP3    H224391   5.765   2.583   0.534
 8150TIP3   OH224392   2.334   3.378   0.697
 8150TIP3    H124393   2.430   3.380   0.704
 8150TIP3    H224394   2.304   3.369   0.788
 8151TIP3   OH224395   3.069   7.164   4.593
 8151TIP3    H124396   3.005   7.092   4.595
 8151TIP3    H224397   3.091   7.179   4.685
 8152TIP3   OH224398   6.064   4.810   3.670
 8152TIP3    H124399   6.042   4.718   3.687
 8152TIP3    H224400   6.061   4.852   3.755
 8153TIP3   OH224401   6.949   1.403   0.898
 8153TIP3    H124402   6.915   1.426   0.811
 8153TIP3    H224403   6.876   1.420   0.957
 8154TIP3   OH224404   1.843   7.172   4.124
 8154TIP3    H124405   1.754   7.155   4.155
 8154TIP3    H224406   1.895   7.103   4.165
 8155TIP3   OH224407   7.297   3.867   2.484
 8155TIP3    H124408   7.246   3.925   2.541
 8155TIP3    H224409   7.233   3.806   2.449
 8156TIP3   OH224410   4.040   0.432   1.733
 8156TIP3    H124411   4.094   0.501   1.694
 8156TIP3    H224412   4.069   0.352   1.690
 8157TIP3   OH224413   1.327   5.860   3.404
 8157TIP3    H124414   1.293   5.933   3.352
 8157TIP3    H224415   1.269   5.787   3.383
 8158TIP3   OH224416   5.394   6.702   0.175
 8158TIP3    H124417   5.437   6.785   0.196
 8158TIP3    H224418   5.423   6.682   0.086
 8159TIP3   OH224419   0.077   4.049   6.332
 8159TIP3    H124420   0.125   4.037   6.414
 8159TIP3    H224421   0.115   3.985   6.272
 8160TIP3   OH224422   4.621   0.122   5.048
 8160TIP3    H124423   4.633   0.172   5.129
 8160TIP3    H224424   4.583   0.185   4.986
 8161TIP3   OH224425   2.500   2.194   5.435
 8161TIP3    H124426   2.510   2.128   5.504
 8161TIP3    H224427   2.437   2.156   5.374
 8162TIP3   OH224428   0.834   4.521   4.856
 8162TIP3    H124429   0.860   4.599   4.807
 8162TIP3    H224430   0.748   4.498   4.820
 8163TIP3   OH224431   5.011   5.864   0.058
 8163TIP3    H124432   4.948   5.910   0.003
 8163TIP3    H224433   5.096   5.903   0.035
 8164TIP3   OH224434   2.543   5.782   5.275
 8164TIP3    H124435   2.603   5.852   5.248
 8164TIP3    H224436   2.571   5.758   5.363
 8165TIP3   OH224437   0.244   6.697   3.163
 8165TIP3    H124438   0.266   6.607   3.187
 8165TIP3    H224439   0.150   6.696   3.147
 8166TIP3   OH224440   1.257   2.589   4.163
 8166TIP3    H124441   1.343   2.548   4.157
 8166TIP3    H224442   1.252   2.623   4.252
 8167TIP3   OH224443   1.718   3.193   5.972
 8167TIP3    H124444   1.750   3.117   5.924
 8167TIP3    H224445   1.657   3.236   5.913
 8168TIP3   OH224446   5.195   4.676   1.212
 8168TIP3    H124447   5.129   4.621   1.168
 8168TIP3    H224448   5.215   4.744   1.148
 8169TIP3   OH224449   1.604   3.926   0.071
 8169TIP3    H124450   1.580   3.921  -0.021
 8169TIP3    H224451   1.545   3.993   0.107
 8170TIP3   OH224452   3.545   7.497   0.289
 8170TIP3    H124453   3.537   7.449   0.372
 8170TIP3    H224454   3.537   7.589   0.314
 8171TIP3   OH224455   2.210   3.746   5.414
 8171TIP3    H124456   2.118   3.745   5.442
 8171TIP3    H224457   2.234   3.654   5.409
 8172TIP3   OH224458   6.415   1.019   6.645
 8172TIP3    H124459   6.467   1.086   6.599
 8172TIP3    H224460   6.457   0.936   6.621
 8173TIP3   OH224461   7.573   5.984   6.737
 8173TIP3    H124462   7.594   6.016   6.649
 8173TIP3    H224463   7.659   5.968   6.778
 8174TIP3   OH224464   6.628   3.570   5.133
 8174TIP3    H124465   6.561   3.517   5.091
 8174TIP3    H224466   6.700   3.572   5.070
 8175TIP3   OH224467   6.671   0.675   4.359
 8175TIP3    H124468   6.753   0.717   4.334
 8175TIP3    H224469   6.612   0.748   4.380
 8176TIP3   OH224470   5.537   6.605   4.688
 8176TIP3    H124471   5.497   6.692   4.686
 8176TIP3    H224472   5.630   6.621   4.669
 8177TIP3   OH224473   3.644   4.757   5.256
 8177TIP3    H124474   3.575   4.821   5.270
 8177TIP3    H224475   3.612   4.677   5.298
 8178TIP3   OH224476   6.157   6.560   6.207
 8178TIP3    H124477   6.185   6.566   6.298
 8178TIP3    H224478   6.238   6.556   6.157
 8179TIP3   OH224479   1.592   6.288   2.942
 8179TIP3    H124480   1.591   6.193   2.953
 8179TIP3    H224481   1.501   6.311   2.923
 8180TIP3   OH224482   0.983   4.515   4.357
 8180TIP3    H124483   0.940   4.430   4.366
 8180TIP3    H224484   1.032   4.526   4.438
 8181TIP3   OH224485   2.931   5.978   3.602
 8181TIP3    H124486   2.858   6.040   3.606
 8181TIP3    H224487   2.997   6.024   3.549
 8182TIP3   OH224488   3.172   1.140   1.143
 8182TIP3    H124489   3.229   1.193   1.199
 8182TIP3    H224490   3.164   1.190   1.062
 8183TIP3   OH224491   5.444   0.994   0.442
 8183TIP3    H124492   5.489   0.994   0.357
 8183TIP3    H224493   5.514   0.983   0.506
 8184TIP3   OH224494   1.178   0.412   4.522
 8184TIP3    H124495   1.246   0.345   4.527
 8184TIP3    H224496   1.163   0.438   4.612
 8185TIP3   OH224497   4.360   5.106   6.204
 8185TIP3    H124498   4.313   5.186   6.181
 8185TIP3    H224499   4.306   5.066   6.272
 8186TIP3   OH224500   8.027   3.271   3.584
 8186TIP3    H124501   8.039   3.219   3.664
 8186TIP3    H224502   8.034   3.362   3.613
 8187TIP3   OH224503   6.941   2.172   0.789
 8187TIP3    H124504   6.894   2.148   0.709
 8187TIP3    H224505   6.891   2.134   0.860
 8188TIP3   OH224506   3.856   6.528   6.368
 8188TIP3    H124507   3.825   6.617   6.351
 8188TIP3    H224508   3.829   6.509   6.458
 8189TIP3   OH224509   4.440   2.681   1.946
 8189TIP3    H124510   4.361   2.641   1.983
 8189TIP3    H224511   4.407   2.737   1.876
 8190TIP3   OH224512   4.108   7.623   5.334
 8190TIP3    H124513   4.154   7.549   5.374
 8190TIP3    H224514   4.022   7.622   5.376
 8191TIP3   OH224515   0.202   5.538   5.812
 8191TIP3    H124516   0.126   5.576   5.767
 8191TIP3    H224517   0.245   5.484   5.745
 8192TIP3   OH224518   5.653   6.533   5.160
 8192TIP3    H124519   5.574   6.492   5.195
 8192TIP3    H224520   5.667   6.491   5.075
 8193TIP3   OH224521   1.753   1.179   0.430
 8193TIP3    H124522   1.767   1.193   0.524
 8193TIP3    H224523   1.741   1.084   0.422
 8194TIP3   OH224524   7.526   4.223   3.948
 8194TIP3    H124525   7.474   4.190   3.874
 8194TIP3    H224526   7.523   4.318   3.938
 8195TIP3   OH224527   5.665   4.697   2.845
 8195TIP3    H124528   5.717   4.644   2.784
 8195TIP3    H224529   5.577   4.696   2.807
 8196TIP3   OH224530   2.005   1.178   0.614
 8196TIP3    H124531   1.985   1.252   0.556
 8196TIP3    H224532   1.981   1.209   0.701
 8197TIP3   OH224533   3.478   1.517   3.605
 8197TIP3    H124534   3.453   1.497   3.695
 8197TIP3    H224535   3.454   1.439   3.555
 8198TIP3   OH224536   3.024   5.171   4.417
 8198TIP3    H124537   2.967   5.247   4.431
 8198TIP3    H224538   3.070   5.159   4.500
 8199TIP3   OH224539   1.889   6.603   4.602
 8199TIP3    H124540   1.827   6.545   4.646
 8199TIP3    H224541   1.834   6.666   4.555
 8200TIP3   OH224542   4.972   3.290   0.447
 8200TIP3    H124543   5.006   3.330   0.366
 8200TIP3    H224544   4.877   3.300   0.439
 8201TIP3   OH224545   1.105   6.134   1.578
 8201TIP3    H124546   1.173   6.176   1.526
 8201TIP3    H224547   1.116   6.170   1.666
 8202TIP3   OH224548   6.493   2.367   4.334
 8202TIP3    H124549   6.445   2.341   4.413
 8202TIP3    H224550   6.514   2.284   4.291
 8203TIP3   OH224551   2.661   7.496   1.463
 8203TIP3    H124552   2.727   7.517   1.529
 8203TIP3    H224553   2.694   7.536   1.383
 8204TIP3   OH224554   5.110   3.097   4.255
 8204TIP3    H124555   5.024   3.110   4.294
 8204TIP3    H224556   5.091   3.067   4.166
 8205TIP3   OH224557   3.155   2.577   0.871
 8205TIP3    H124558   3.105   2.657   0.854
 8205TIP3    H224559   3.091   2.507   0.863
 8206TIP3   OH224560   5.858   6.147   0.024
 8206TIP3    H124561   5.762   6.153   0.023
 8206TIP3    H224562   5.878   6.099   0.104
 8207TIP3   OH224563   5.553   4.983   2.749
 8207TIP3    H124564   5.502   4.930   2.810
 8207TIP3    H224565   5.626   5.016   2.802
 8208TIP3   OH224566   3.343   3.547   3.345
 8208TIP3    H124567   3.370   3.593   3.266
 8208TIP3    H224568   3.287   3.609   3.391
 8209TIP3   OH224569   5.953   7.652   5.221
 8209TIP3    H124570   5.905   7.614   5.295
 8209TIP3    H224571   6.041   7.613   5.227
 8210TIP3   OH224572   0.670   3.051   2.778
 8210TIP3    H124573   0.731   3.072   2.849
 8210TIP3    H224574   0.595   3.011   2.822
 8211TIP3   OH224575   4.928   1.634   3.024
 8211TIP3    H124576   4.976   1.627   2.941
 8211TIP3    H224577   4.996   1.631   3.091
 8212TIP3   OH224578   5.479   0.266   5.526
 8212TIP3    H124579   5.389   0.242   5.547
 8212TIP3    H224580   5.525   0.263   5.609
 8213TIP3   OH224581   4.715   0.412   0.977
 8213TIP3    H124582   4.664   0.435   0.899
 8213TIP3    H224583   4.791   0.471   0.975
 8214TIP3   OH224584   3.773   3.415   3.877
 8214TIP3    H124585   3.701   3.399   3.817
 8214TIP3    H224586   3.731   3.449   3.957
 8215TIP3   OH224587   7.875   1.490   2.839
 8215TIP3    H124588   7.966   1.466   2.822
 8215TIP3    H224589   7.838   1.504   2.752
 8216TIP3   OH224590   7.959   2.291   2.277
 8216TIP3    H124591   8.042   2.312   2.235
 8216TIP3    H224592   7.892   2.319   2.214
 8217TIP3   OH224593   4.126   7.685   0.063
 8217TIP3    H124594   4.055   7.629   0.094
 8217TIP3    H224595   4.206   7.641   0.092
 8218TIP3   OH224596   1.361   0.655   1.901
 8218TIP3    H124597   1.291   0.688   1.844
 8218TIP3    H224598   1.382   0.569   1.866
 8219TIP3   OH224599   4.770   2.595   0.201
 8219TIP3    H124600   4.856   2.554   0.210
 8219TIP3    H224601   4.759   2.647   0.281
 8220TIP3   OH224602   4.822   7.164   5.503
 8220TIP3    H124603   4.898   7.105   5.502
 8220TIP3    H224604   4.764   7.129   5.436
 8221TIP3   OH224605   8.081   5.304   3.882
 8221TIP3    H124606   8.057   5.391   3.850
 8221TIP3    H224607   8.129   5.264   3.809
 8222TIP3   OH224608   0.699   2.680   5.284
 8222TIP3    H124609   0.680   2.770   5.311
 8222TIP3    H224610   0.787   2.663   5.319
 8223TIP3   OH224611   5.838   6.013   5.596
 8223TIP3    H124612   5.921   6.051   5.626
 8223TIP3    H224613   5.837   6.029   5.502
 8224TIP3   OH224614   7.799   3.102   5.645
 8224TIP3    H124615   7.879   3.142   5.612
 8224TIP3    H224616   7.729   3.156   5.610
 8225TIP3   OH224617   5.233   4.865   1.894
 8225TIP3    H124618   5.238   4.953   1.857
 8225TIP3    H224619   5.295   4.814   1.842
 8226TIP3   OH224620   1.459   2.014   1.383
 8226TIP3    H124621   1.524   2.023   1.313
 8226TIP3    H224622   1.490   2.071   1.452
 8227TIP3   OH224623   3.129   6.475   2.828
 8227TIP3    H124624   3.192   6.420   2.781
 8227TIP3    H224625   3.111   6.547   2.768
 8228TIP3   OH224626   4.581   3.885   5.563
 8228TIP3    H124627   4.653   3.825   5.545
 8228TIP3    H224628   4.599   3.919   5.650
 8229TIP3   OH224629   6.930   1.810   1.497
 8229TIP3    H124630   6.988   1.862   1.552
 8229TIP3    H224631   6.882   1.874   1.444
 8230TIP3   OH224632   4.031   3.712   1.984
 8230TIP3    H124633   4.042   3.645   2.052
 8230TIP3    H224634   4.104   3.697   1.924
 8231TIP3   OH224635   3.143   0.125   6.651
 8231TIP3    H124636   3.201   0.134   6.576
 8231TIP3    H224637   3.060   0.094   6.613
 8232TIP3   OH224638   3.663   0.641   1.741
 8232TIP3    H124639   3.701   0.601   1.819
 8232TIP3    H224640   3.675   0.575   1.673
 8233TIP3   OH224641   4.068   7.298   5.961
 8233TIP3    H124642   4.118   7.263   5.887
 8233TIP3    H224643   4.064   7.392   5.944
 8234TIP3   OH224644   4.288   3.232   4.075
 8234TIP3    H124645   4.200   3.195   4.085
 8234TIP3    H224646   4.344   3.157   4.056
 8235TIP3   OH224647   5.358   5.910   1.064
 8235TIP3    H124648   5.275   5.949   1.037
 8235TIP3    H224649   5.377   5.845   0.996
 8236TIP3   OH224650   4.211   0.847   5.634
 8236TIP3    H124651   4.270   0.895   5.576
 8236TIP3    H224652   4.230   0.755   5.616
 8237TIP3   OH224653   0.054   3.859   4.415
 8237TIP3    H124654   0.110   3.927   4.455
 8237TIP3    H224655   0.073   3.865   4.322
 8238TIP3   OH224656   4.583   7.028   5.391
 8238TIP3    H124657   4.494   7.026   5.424
 8238TIP3    H224658   4.579   6.986   5.305
 8239TIP3   OH224659   2.124   7.097   5.010
 8239TIP3    H124660   2.090   7.180   4.976
 8239TIP3    H224661   2.178   7.122   5.084
 8240TIP3   OH224662   5.139   6.402   0.608
 8240TIP3    H124663   5.143   6.460   0.684
 8240TIP3    H224664   5.131   6.462   0.533
 8241TIP3   OH224665   1.854   3.490   1.554
 8241TIP3    H124666   1.935   3.451   1.520
 8241TIP3    H224667   1.832   3.559   1.491
 8242TIP3   OH224668   5.745   0.504   0.644
 8242TIP3    H124669   5.786   0.471   0.564
 8242TIP3    H224670   5.718   0.425   0.691
 8243TIP3   OH224671   4.078   6.472   5.155
 8243TIP3    H124672   4.166   6.510   5.158
 8243TIP3    H224673   4.037   6.513   5.078
 8244TIP3   OH224674   8.326   1.562   6.415
 8244TIP3    H124675   8.254   1.625   6.411
 8244TIP3    H224676   8.293   1.491   6.470
 8245TIP3   OH224677   3.813   1.048   5.058
 8245TIP3    H124678   3.841   1.013   5.143
 8245TIP3    H224679   3.764   1.127   5.080
 8246TIP3   OH224680   3.956   3.473   1.646
 8246TIP3    H124681   3.874   3.520   1.629
 8246TIP3    H224682   4.024   3.539   1.634
 8247TIP3   OH224683   4.850   0.637   0.316
 8247TIP3    H124684   4.922   0.600   0.367
 8247TIP3    H224685   4.772   0.590   0.347
 8248TIP3   OH224686   2.915   5.871   6.444
 8248TIP3    H124687   2.843   5.930   6.463
 8248TIP3    H224688   2.941   5.892   6.354
 8249TIP3   OH224689   3.054   7.233   5.797
 8249TIP3    H124690   3.144   7.262   5.783
 8249TIP3    H224691   3.026   7.199   5.712
 8250TIP3   OH224692   6.821   5.980   2.228
 8250TIP3    H124693   6.777   6.054   2.271
 8250TIP3    H224694   6.857   5.929   2.300
 8251TIP3   OH224695   3.511   2.912   1.032
 8251TIP3    H124696   3.428   2.958   1.017
 8251TIP3    H224697   3.565   2.935   0.957
 8252TIP3   OH224698   3.665   7.250   4.512
 8252TIP3    H124699   3.633   7.337   4.490
 8252TIP3    H224700   3.690   7.211   4.428
 8253TIP3   OH224701   8.151   5.174   2.755
 8253TIP3    H124702   8.127   5.082   2.743
 8253TIP3    H224703   8.233   5.171   2.805
 8254TIP3   OH224704   4.465   1.473   0.082
 8254TIP3    H124705   4.389   1.447   0.030
 8254TIP3    H224706   4.445   1.562   0.111
 8255TIP3   OH224707   0.426   4.334   1.312
 8255TIP3    H124708   0.424   4.319   1.217
 8255TIP3    H224709   0.506   4.290   1.341
 8256TIP3   OH224710   6.279   2.362   1.348
 8256TIP3    H124711   6.299   2.313   1.427
 8256TIP3    H224712   6.236   2.299   1.290
 8257TIP3   OH224713   8.137   1.612   3.109
 8257TIP3    H124714   8.043   1.618   3.126
 8257TIP3    H224715   8.168   1.547   3.172
 8258TIP3   OH224716   7.908   5.690   2.789
 8258TIP3    H124717   7.854   5.674   2.866
 8258TIP3    H224718   7.949   5.605   2.771
 8259TIP3   OH224719   3.407   0.992   5.904
 8259TIP3    H124720   3.324   1.002   5.858
 8259TIP3    H224721   3.383   0.977   5.995
 8260TIP3   OH224722   1.208   4.388   5.206
 8260TIP3    H124723   1.147   4.389   5.280
 8260TIP3    H224724   1.164   4.334   5.140
 8261TIP3   OH224725   6.407   6.030   5.957
 8261TIP3    H124726   6.349   5.959   5.985
 8261TIP3    H224727   6.434   6.006   5.869
 8262TIP3   OH224728   7.098   2.333   2.762
 8262TIP3    H124729   7.139   2.251   2.789
 8262TIP3    H224730   7.143   2.401   2.813
 8263TIP3   OH224731   1.757   5.371   1.660
 8263TIP3    H124732   1.779   5.461   1.687
 8263TIP3    H224733   1.813   5.316   1.714
 8264TIP3   OH224734   1.496   2.673   0.313
 8264TIP3    H124735   1.406   2.653   0.290
 8264TIP3    H224736   1.526   2.732   0.244
 8265TIP3   OH224737   2.172   4.527   0.244
 8265TIP3    H124738   2.212   4.542   0.158
 8265TIP3    H224739   2.121   4.606   0.261
 8266TIP3   OH224740   2.282   6.475   3.893
 8266TIP3    H124741   2.281   6.381   3.913
 8266TIP3    H224742   2.375   6.497   3.889
 8267TIP3   OH224743   2.863   0.451   2.523
 8267TIP3    H124744   2.929   0.477   2.459
 8267TIP3    H224745   2.786   0.502   2.501
 8268TIP3   OH224746   2.983   0.325   6.406
 8268TIP3    H124747   3.035   0.280   6.340
 8268TIP3    H224748   2.959   0.257   6.469
 8269TIP3   OH224749   2.366   4.312   0.294
 8269TIP3    H124750   2.329   4.225   0.308
 8269TIP3    H224751   2.290   4.370   0.290
 8270TIP3   OH224752   6.721   1.875   0.676
 8270TIP3    H124753   6.635   1.844   0.703
 8270TIP3    H224754   6.781   1.803   0.699
 8271TIP3   OH224755   5.845   2.090   4.081
 8271TIP3    H124756   5.778   2.158   4.078
 8271TIP3    H224757   5.801   2.011   4.052
 8272TIP3   OH224758   6.423   1.244   6.304
 8272TIP3    H124759   6.344   1.214   6.350
 8272TIP3    H224760   6.391   1.305   6.238
 8273TIP3   OH224761   7.691   6.202   0.368
 8273TIP3    H124762   7.717   6.118   0.330
 8273TIP3    H224763   7.769   6.257   0.362
 8274TIP3   OH224764   5.578   1.646   3.368
 8274TIP3    H124765   5.665   1.679   3.344
 8274TIP3    H224766   5.568   1.669   3.461
 8275TIP3   OH224767   8.257   3.323   6.353
 8275TIP3    H124768   8.252   3.358   6.264
 8275TIP3    H224769   8.350   3.327   6.376
 8276TIP3   OH224770   6.828   0.318   5.685
 8276TIP3    H124771   6.923   0.319   5.676
 8276TIP3    H224772   6.807   0.225   5.697
 8277TIP3   OH224773   8.156   4.841   6.436
 8277TIP3    H124774   8.119   4.849   6.348
 8277TIP3    H224775   8.205   4.758   6.434
 8278TIP3   OH224776   3.891   6.018   3.639
 8278TIP3    H124777   3.921   6.101   3.601
 8278TIP3    H224778   3.969   5.983   3.684
 8279TIP3   OH224779   4.321   3.945   4.090
 8279TIP3    H124780   4.333   3.977   4.001
 8279TIP3    H224781   4.236   3.981   4.117
 8280TIP3   OH224782   7.734   4.190   3.186
 8280TIP3    H124783   7.800   4.144   3.135
 8280TIP3    H224784   7.784   4.233   3.256
 8281TIP3   OH224785   0.846   4.769   3.885
 8281TIP3    H124786   0.853   4.705   3.956
 8281TIP3    H224787   0.834   4.853   3.930
 8282TIP3   OH224788   7.962   7.827   5.798
 8282TIP3    H124789   7.867   7.834   5.800
 8282TIP3    H224790   7.979   7.743   5.755
 8283TIP3   OH224791   3.499   6.448   0.888
 8283TIP3    H124792   3.415   6.481   0.856
 8283TIP3    H224793   3.480   6.418   0.977
 8284TIP3   OH224794   6.867   4.451   0.573
 8284TIP3    H124795   6.789   4.429   0.523
 8284TIP3    H224796   6.935   4.394   0.538
 8285TIP3   OH224797   1.609   6.780   4.125
 8285TIP3    H124798   1.534   6.725   4.148
 8285TIP3    H224799   1.672   6.719   4.085
 8286TIP3   OH224800   4.268   1.390   1.231
 8286TIP3    H124801   4.292   1.432   1.314
 8286TIP3    H224802   4.250   1.299   1.255
 8287TIP3   OH224803   0.463   6.851   4.288
 8287TIP3    H124804   0.442   6.760   4.305
 8287TIP3    H224805   0.482   6.889   4.374
 8288TIP3   OH224806   1.521   3.498   0.062
 8288TIP3    H124807   1.615   3.482   0.054
 8288TIP3    H224808   1.481   3.411   0.058
 8289TIP3   OH224809   0.313   1.616   6.398
 8289TIP3    H124810   0.291   1.676   6.326
 8289TIP3    H224811   0.229   1.575   6.421
 8290TIP3   OH224812   0.230   3.257   4.526
 8290TIP3    H124813   0.279   3.339   4.532
 8290TIP3    H224814   0.152   3.271   4.580
 8291TIP3   OH224815   2.548   6.617   2.368
 8291TIP3    H124816   2.479   6.681   2.356
 8291TIP3    H224817   2.503   6.535   2.389
 8292TIP3   OH224818   2.601   0.324   4.268
 8292TIP3    H124819   2.589   0.278   4.351
 8292TIP3    H224820   2.530   0.388   4.265
 8293TIP3   OH224821   5.540   7.250   3.496
 8293TIP3    H124822   5.517   7.206   3.414
 8293TIP3    H224823   5.563   7.179   3.556
 8294TIP3   OH224824   1.201   4.675   1.120
 8294TIP3    H124825   1.255   4.611   1.167
 8294TIP3    H224826   1.262   4.719   1.060
 8295TIP3   OH224827   5.859   3.194   6.547
 8295TIP3    H124828   5.842   3.247   6.626
 8295TIP3    H224829   5.786   3.215   6.489
 8296TIP3   OH224830   8.197   2.453   3.273
 8296TIP3    H124831   8.215   2.377   3.328
 8296TIP3    H224832   8.162   2.416   3.192
 8297TIP3   OH224833   0.419   5.489   3.392
 8297TIP3    H124834   0.484   5.487   3.322
 8297TIP3    H224835   0.417   5.581   3.420
 8298TIP3   OH224836   4.963   0.128   4.904
 8298TIP3    H124837   5.031   0.121   4.837
 8298TIP3    H224838   4.940   0.221   4.904
 8299TIP3   OH224839   0.195   6.824   1.326
 8299TIP3    H124840   0.139   6.846   1.252
 8299TIP3    H224841   0.168   6.884   1.396
 8300TIP3   OH224842   5.062   2.326   1.109
 8300TIP3    H124843   5.127   2.314   1.178
 8300TIP3    H224844   5.076   2.417   1.080
 8301TIP3   OH224845   2.743   6.480   5.126
 8301TIP3    H124846   2.652   6.454   5.137
 8301TIP3    H224847   2.740   6.553   5.065
 8302TIP3   OH224848   5.220   6.579   3.138
 8302TIP3    H124849   5.140   6.570   3.191
 8302TIP3    H224850   5.288   6.538   3.190
 8303TIP3   OH224851   5.312   4.598   6.353
 8303TIP3    H124852   5.316   4.586   6.258
 8303TIP3    H224853   5.335   4.690   6.366
 8304TIP3   OH224854   7.560   4.302   5.119
 8304TIP3    H124855   7.645   4.319   5.077
 8304TIP3    H224856   7.581   4.244   5.192
 8305TIP3   OH224857   5.624   1.367   3.625
 8305TIP3    H124858   5.597   1.378   3.534
 8305TIP3    H224859   5.673   1.446   3.645
 8306TIP3   OH224860   1.013   4.123   0.271
 8306TIP3    H124861   1.027   4.215   0.293
 8306TIP3    H224862   1.083   4.102   0.210
 8307TIP3   OH224863   5.239   4.519   1.686
 8307TIP3    H124864   5.321   4.501   1.641
 8307TIP3    H224865   5.189   4.574   1.625
 8308TIP3   OH224866   5.832   3.792   1.878
 8308TIP3    H124867   5.850   3.817   1.788
 8308TIP3    H224868   5.763   3.852   1.906
 8309TIP3   OH224869   6.014   4.675   1.614
 8309TIP3    H124870   6.083   4.628   1.566
 8309TIP3    H224871   5.979   4.738   1.551
 8310TIP3   OH224872   4.634   4.220   1.066
 8310TIP3    H124873   4.572   4.237   1.137
 8310TIP3    H224874   4.615   4.130   1.039
 8311TIP3   OH224875   3.136   0.966   0.858
 8311TIP3    H124876   3.110   1.052   0.825
 8311TIP3    H224877   3.230   0.973   0.871
 8312TIP3   OH224878   6.099   3.237   6.199
 8312TIP3    H124879   6.093   3.331   6.218
 8312TIP3    H224880   6.086   3.230   6.104
 8313TIP3   OH224881   7.653   0.853   1.131
 8313TIP3    H124882   7.681   0.823   1.217
 8313TIP3    H224883   7.605   0.779   1.094
 8314TIP3   OH224884   1.898   5.795   2.942
 8314TIP3    H124885   1.955   5.827   2.872
 8314TIP3    H224886   1.908   5.858   3.013
 8315TIP3   OH224887   5.820   5.229   2.221
 8315TIP3    H124888   5.889   5.288   2.251
 8315TIP3    H224889   5.851   5.142   2.244
 8316TIP3   OH224890   1.971   7.592   4.067
 8316TIP3    H124891   2.021   7.613   3.988
 8316TIP3    H224892   1.984   7.498   4.079
 8317TIP3   OH224893   2.401   6.704   6.444
 8317TIP3    H124894   2.400   6.681   6.351
 8317TIP3    H224895   2.313   6.682   6.475
 8318TIP3   OH224896   6.225   1.390   2.417
 8318TIP3    H124897   6.180   1.381   2.501
 8318TIP3    H224898   6.318   1.385   2.440
 8319TIP3   OH224899   6.835   5.741   1.543
 8319TIP3    H124900   6.802   5.693   1.467
 8319TIP3    H224901   6.818   5.682   1.617
 8320TIP3   OH224902   6.758   0.351   1.857
 8320TIP3    H124903   6.835   0.404   1.837
 8320TIP3    H224904   6.791   0.261   1.862
 8321TIP3   OH224905   6.961   4.323   1.831
 8321TIP3    H124906   6.963   4.232   1.863
 8321TIP3    H224907   6.963   4.376   1.911
 8322TIP3   OH224908   7.106   1.383   6.140
 8322TIP3    H124909   7.089   1.332   6.060
 8322TIP3    H224910   7.035   1.446   6.144
 8323TIP3   OH224911   3.240   4.266   1.406
 8323TIP3    H124912   3.158   4.311   1.423
 8323TIP3    H224913   3.241   4.252   1.311
 8324TIP3   OH224914   4.960   4.642   5.940
 8324TIP3    H124915   5.031   4.632   5.877
 8324TIP3    H224916   4.901   4.569   5.922
 8325TIP3   OH224917   2.959   5.874   5.115
 8325TIP3    H124918   2.976   5.916   5.031
 8325TIP3    H224919   3.007   5.926   5.179
 8326TIP3   OH224920   1.167   0.088   5.433
 8326TIP3    H124921   1.148   0.111   5.524
 8326TIP3    H224922   1.250   0.040   5.437
 8327TIP3   OH224923   6.339   4.671   3.350
 8327TIP3    H124924   6.407   4.603   3.348
 8327TIP3    H224925   6.268   4.635   3.297
 8328TIP3   OH224926   1.889   6.177   6.534
 8328TIP3    H124927   1.838   6.096   6.529
 8328TIP3    H224928   1.945   6.165   6.611
 8329TIP3   OH224929   3.509   3.663   2.452
 8329TIP3    H124930   3.586   3.652   2.508
 8329TIP3    H224931   3.504   3.581   2.402
 8330TIP3   OH224932   5.160   7.270   6.327
 8330TIP3    H124933   5.074   7.239   6.298
 8330TIP3    H224934   5.198   7.194   6.372
 8331TIP3   OH224935   6.537   7.007   2.466
 8331TIP3    H124936   6.618   6.962   2.490
 8331TIP3    H224937   6.475   6.937   2.445
 8332TIP3   OH224938   0.516   4.651   0.521
 8332TIP3    H124939   0.451   4.647   0.591
 8332TIP3    H224940   0.478   4.599   0.450
 8333TIP3   OH224941   3.672   0.127   0.354
 8333TIP3    H124942   3.724   0.198   0.390
 8333TIP3    H224943   3.690   0.129   0.260
 8334TIP3   OH224944   3.144   2.595   3.700
 8334TIP3    H124945   3.211   2.545   3.654
 8334TIP3    H224946   3.062   2.551   3.678
 8335TIP3   OH224947   5.130   6.123   5.487
 8335TIP3    H124948   5.160   6.195   5.542
 8335TIP3    H224949   5.200   6.058   5.493
 8336TIP3   OH224950   5.786   4.706   4.008
 8336TIP3    H124951   5.845   4.780   3.999
 8336TIP3    H224952   5.706   4.742   4.047
 8337TIP3   OH224953   5.294   1.136   5.625
 8337TIP3    H124954   5.374   1.149   5.677
 8337TIP3    H224955   5.233   1.093   5.684
 8338TIP3   OH224956   8.133   4.795   0.161
 8338TIP3    H124957   8.133   4.868   0.098
 8338TIP3    H224958   8.046   4.757   0.153
 8339TIP3   OH224959   0.746   1.495   1.576
 8339TIP3    H124960   0.783   1.509   1.663
 8339TIP3    H224961   0.774   1.573   1.526
 8340TIP3   OH224962   7.664   0.665   1.945
 8340TIP3    H124963   7.682   0.757   1.926
 8340TIP3    H224964   7.711   0.648   2.027
 8341TIP3   OH224965   8.153   1.077   1.534
 8341TIP3    H124966   8.091   1.032   1.591
 8341TIP3    H224967   8.228   1.097   1.590
 8342TIP3   OH224968   7.521   1.420   1.998
 8342TIP3    H124969   7.509   1.330   1.967
 8342TIP3    H224970   7.594   1.414   2.059
 8343TIP3   OH224971   2.868   4.184   4.860
 8343TIP3    H124972   2.921   4.122   4.910
 8343TIP3    H224973   2.794   4.132   4.828
 8344TIP3   OH224974   5.835   3.615   5.068
 8344TIP3    H124975   5.926   3.602   5.040
 8344TIP3    H224976   5.790   3.645   4.989
 8345TIP3   OH224977   2.496   0.488   3.038
 8345TIP3    H124978   2.587   0.493   3.008
 8345TIP3    H224979   2.470   0.579   3.052
 8346TIP3   OH224980   6.735   4.093   4.272
 8346TIP3    H124981   6.781   4.126   4.194
 8346TIP3    H224982   6.652   4.059   4.238
 8347TIP3   OH224983   6.191   5.021   4.100
 8347TIP3    H124984   6.102   5.052   4.085
 8347TIP3    H224985   6.185   4.926   4.098
 8348TIP3   OH224986   6.251   3.528   4.187
 8348TIP3    H124987   6.290   3.614   4.203
 8348TIP3    H224988   6.306   3.489   4.119
 8349TIP3   OH224989   6.004   6.572   4.835
 8349TIP3    H124990   6.017   6.485   4.873
 8349TIP3    H224991   5.951   6.556   4.757
 8350TIP3   OH224992   2.012   2.292   6.190
 8350TIP3    H124993   2.083   2.332   6.139
 8350TIP3    H224994   1.994   2.354   6.260
 8351TIP3   OH224995   2.277   2.722   1.312
 8351TIP3    H124996   2.226   2.797   1.341
 8351TIP3    H224997   2.336   2.758   1.245
 8352TIP3   OH224998   4.790   6.986   1.764
 8352TIP3    H124999   4.708   6.937   1.766
 8352TIP3    H225000   4.779   7.054   1.831
 8353TIP3   OH225001   0.316   4.482   5.767
 8353TIP3    H125002   0.307   4.388   5.753
 8353TIP3    H225003   0.297   4.494   5.860
 8354TIP3   OH225004   3.850   1.137   3.003
 8354TIP3    H125005   3.796   1.071   3.046
 8354TIP3    H225006   3.883   1.192   3.074
 8355TIP3   OH225007   8.184   6.991   3.286
 8355TIP3    H125008   8.140   6.927   3.230
 8355TIP3    H225009   8.269   7.005   3.246
 8356TIP3   OH225010   6.049   0.089   4.368
 8356TIP3    H125011   5.973   0.116   4.316
 8356TIP3    H225012   6.119   0.149   4.342
 8357TIP3   OH225013   2.858   2.899   4.723
 8357TIP3    H125014   2.788   2.918   4.786
 8357TIP3    H225015   2.865   2.804   4.722
 8358TIP3   OH225016   4.090   4.414   1.569
 8358TIP3    H125017   4.060   4.357   1.499
 8358TIP3    H225018   4.171   4.453   1.535
 8359TIP3   OH225019   0.522   1.672   1.365
 8359TIP3    H125020   0.497   1.581   1.352
 8359TIP3    H225021   0.555   1.700   1.279
 8360TIP3   OH225022   6.527   3.036   5.369
 8360TIP3    H125023   6.597   2.972   5.383
 8360TIP3    H225024   6.568   3.121   5.386
 8361TIP3   OH225025   4.400   4.504   3.177
 8361TIP3    H125026   4.413   4.420   3.133
 8361TIP3    H225027   4.353   4.482   3.257
 8362TIP3   OH225028   0.309   6.830   3.511
 8362TIP3    H125029   0.274   6.918   3.494
 8362TIP3    H225030   0.403   6.839   3.496
 8363TIP3   OH225031   0.745   3.647   2.206
 8363TIP3    H125032   0.766   3.630   2.114
 8363TIP3    H225033   0.652   3.625   2.214
 8364TIP3   OH225034   3.980   4.827   5.817
 8364TIP3    H125035   3.887   4.807   5.824
 8364TIP3    H225036   3.992   4.904   5.873
 8365TIP3   OH225037   6.534   3.189   2.832
 8365TIP3    H125038   6.602   3.252   2.807
 8365TIP3    H225039   6.459   3.243   2.857
 8366TIP3   OH225040   6.636   1.438   4.315
 8366TIP3    H125041   6.611   1.514   4.263
 8366TIP3    H225042   6.652   1.369   4.251
 8367TIP3   OH225043   8.268   7.163   2.083
 8367TIP3    H125044   8.364   7.152   2.085
 8367TIP3    H225045   8.251   7.212   2.003
 8368TIP3   OH225046   0.830   0.286   3.375
 8368TIP3    H125047   0.832   0.354   3.308
 8368TIP3    H225048   0.841   0.204   3.327
 8369TIP3   OH225049   4.245   7.220   5.765
 8369TIP3    H125050   4.223   7.237   5.673
 8369TIP3    H225051   4.317   7.158   5.762
 8370TIP3   OH225052   7.462   5.787   4.839
 8370TIP3    H125053   7.554   5.780   4.863
 8370TIP3    H225054   7.461   5.841   4.760
 8371TIP3   OH225055   6.861   3.174   3.193
 8371TIP3    H125056   6.771   3.157   3.221
 8371TIP3    H225057   6.914   3.118   3.250
 8372TIP3   OH225058   4.158   1.890   2.201
 8372TIP3    H125059   4.174   1.944   2.279
 8372TIP3    H225060   4.064   1.898   2.185
 8373TIP3   OH225061   2.895   0.903   6.437
 8373TIP3    H125062   2.834   0.956   6.489
 8373TIP3    H225063   2.870   0.919   6.346
 8374TIP3   OH225064   7.644   2.497   0.772
 8374TIP3    H125065   7.594   2.575   0.796
 8374TIP3    H225066   7.678   2.517   0.684
 8375TIP3   OH225067   5.121   1.288   4.825
 8375TIP3    H125068   5.072   1.218   4.782
 8375TIP3    H225069   5.133   1.257   4.915
 8376TIP3   OH225070   3.192   3.472   0.375
 8376TIP3    H125071   3.102   3.448   0.352
 8376TIP3    H225072   3.246   3.405   0.335
 8377TIP3   OH225073   6.200   0.251   4.784
 8377TIP3    H125074   6.155   0.220   4.862
 8377TIP3    H225075   6.218   0.343   4.802
 8378TIP3   OH225076   2.686   1.728   3.436
 8378TIP3    H125077   2.692   1.697   3.345
 8378TIP3    H225078   2.645   1.655   3.483
 8379TIP3   OH225079   4.029   6.802   1.248
 8379TIP3    H125080   4.083   6.872   1.211
 8379TIP3    H225081   4.072   6.781   1.331
 8380TIP3   OH225082   4.166   6.418   4.843
 8380TIP3    H125083   4.133   6.507   4.830
 8380TIP3    H225084   4.261   6.428   4.843
 8381TIP3   OH225085   2.606   2.772   6.437
 8381TIP3    H125086   2.549   2.718   6.382
 8381TIP3    H225087   2.691   2.767   6.395
 8382TIP3   OH225088   2.084   3.047   4.977
 8382TIP3    H125089   2.129   3.061   4.894
 8382TIP3    H225090   2.116   2.962   5.008
 8383TIP3   OH225091   0.296   4.215   5.691
 8383TIP3    H125092   0.216   4.197   5.641
 8383TIP3    H225093   0.275   4.184   5.779
 8384TIP3   OH225094   7.144   0.762   4.072
 8384TIP3    H125095   7.237   0.785   4.064
 8384TIP3    H225096   7.144   0.669   4.095
 8385TIP3   OH225097   7.239   2.052   1.059
 8385TIP3    H125098   7.211   2.125   1.114
 8385TIP3    H225099   7.293   2.093   0.991
 8386TIP3   OH225100   6.435   4.665   6.667
 8386TIP3    H125101   6.494   4.680   6.594
 8386TIP3    H225102   6.417   4.571   6.664
 8387TIP3   OH225103   1.661   7.006   4.551
 8387TIP3    H125104   1.692   7.022   4.641
 8387TIP3    H225105   1.700   6.921   4.528
 8388TIP3   OH225106   0.554   1.660   5.188
 8388TIP3    H125107   0.535   1.566   5.185
 8388TIP3    H225108   0.647   1.666   5.168
 8389TIP3   OH225109   2.107   2.878   6.645
 8389TIP3    H125110   2.165   2.824   6.591
 8389TIP3    H225111   2.164   2.912   6.714
 8390TIP3   OH225112   6.020   5.254   3.649
 8390TIP3    H125113   5.991   5.300   3.727
 8390TIP3    H225114   5.942   5.207   3.619
 8391TIP3   OH225115   7.305   0.897   1.143
 8391TIP3    H125116   7.223   0.884   1.094
 8391TIP3    H225117   7.295   0.983   1.183
 8392TIP3   OH225118   5.183   0.833   2.842
 8392TIP3    H125119   5.238   0.845   2.765
 8392TIP3    H225120   5.236   0.780   2.901
 8393TIP3   OH225121   2.602   5.085   5.553
 8393TIP3    H125122   2.515   5.047   5.565
 8393TIP3    H225123   2.659   5.033   5.609
 8394TIP3   OH225124   6.028   4.841   3.185
 8394TIP3    H125125   6.046   4.923   3.232
 8394TIP3    H225126   6.112   4.794   3.186
 8395TIP3   OH225127   2.111   4.957   2.705
 8395TIP3    H125128   2.197   4.916   2.715
 8395TIP3    H225129   2.063   4.897   2.648
 8396TIP3   OH225130   3.452   3.695   5.822
 8396TIP3    H125131   3.531   3.749   5.819
 8396TIP3    H225132   3.456   3.641   5.744
 8397TIP3   OH225133   7.733   3.880   5.244
 8397TIP3    H125134   7.783   3.837   5.175
 8397TIP3    H225135   7.721   3.812   5.310
 8398TIP3   OH225136   1.238   0.967   2.949
 8398TIP3    H125137   1.252   0.996   3.039
 8398TIP3    H225138   1.148   0.994   2.929
 8399TIP3   OH225139   4.561   6.838   0.392
 8399TIP3    H125140   4.545   6.918   0.443
 8399TIP3    H225141   4.507   6.772   0.433
 8400TIP3   OH225142   3.141   4.687   2.088
 8400TIP3    H125143   3.214   4.718   2.142
 8400TIP3    H225144   3.063   4.703   2.141
 8401TIP3   OH225145   2.427   3.130   2.517
 8401TIP3    H125146   2.504   3.085   2.551
 8401TIP3    H225147   2.356   3.067   2.526
 8402TIP3   OH225148   7.649   5.362   1.878
 8402TIP3    H125149   7.709   5.415   1.930
 8402TIP3    H225150   7.563   5.403   1.892
 8403TIP3   OH225151   2.152   2.186   1.633
 8403TIP3    H125152   2.087   2.176   1.703
 8403TIP3    H225153   2.106   2.235   1.565
 8404TIP3   OH225154   5.054   1.840   4.930
 8404TIP3    H125155   4.964   1.842   4.963
 8404TIP3    H225156   5.083   1.931   4.933
 8405TIP3   OH225157   4.870   4.807   5.752
 8405TIP3    H125158   4.826   4.883   5.790
 8405TIP3    H225159   4.844   4.734   5.807
 8406TIP3   OH225160   4.962   7.690   2.616
 8406TIP3    H125161   5.057   7.680   2.618
 8406TIP3    H225162   4.943   7.757   2.682
 8407TIP3   OH225163   4.081   4.459   0.704
 8407TIP3    H125164   4.151   4.443   0.641
 8407TIP3    H225165   4.118   4.521   0.766
 8408TIP3   OH225166   7.606   1.024   3.009
 8408TIP3    H125167   7.640   1.112   2.994
 8408TIP3    H225168   7.548   1.033   3.084
 8409TIP3   OH225169   2.573   0.172   4.040
 8409TIP3    H125170   2.482   0.200   4.025
 8409TIP3    H225171   2.596   0.213   4.124
 8410TIP3   OH225172   0.437   2.195   2.359
 8410TIP3    H125173   0.396   2.133   2.299
 8410TIP3    H225174   0.450   2.274   2.307
 8411TIP3   OH225175   1.949   7.264   6.672
 8411TIP3    H125176   2.026   7.294   6.721
 8411TIP3    H225177   1.893   7.341   6.667
 8412TIP3   OH225178   4.865   4.792   6.162
 8412TIP3    H125179   4.898   4.733   6.094
 8412TIP3    H225180   4.788   4.748   6.198
 8413TIP3   OH225181   6.962   1.671   3.326
 8413TIP3    H125182   6.984   1.724   3.250
 8413TIP3    H225183   7.042   1.671   3.379
 8414TIP3   OH225184   3.050   7.553   3.315
 8414TIP3    H125185   3.019   7.547   3.405
 8414TIP3    H225186   3.116   7.484   3.308
 8415TIP3   OH225187   1.338   6.462   3.819
 8415TIP3    H125188   1.312   6.386   3.768
 8415TIP3    H225189   1.412   6.431   3.872
 8416TIP3   OH225190   0.020   5.790   0.821
 8416TIP3    H125191   0.026   5.796   0.916
 8416TIP3    H225192   0.107   5.760   0.793
 8417TIP3   OH225193   1.048   6.171   5.491
 8417TIP3    H125194   1.106   6.208   5.558
 8417TIP3    H225195   1.036   6.080   5.519
 8418TIP3   OH225196   6.450   7.537   3.296
 8418TIP3    H125197   6.484   7.534   3.207
 8418TIP3    H225198   6.471   7.451   3.333
 8419TIP3   OH225199   7.429   4.171   0.589
 8419TIP3    H125200   7.510   4.207   0.623
 8419TIP3    H225201   7.455   4.115   0.516
 8420TIP3   OH225202   3.524   3.441   2.977
 8420TIP3    H125203   3.467   3.366   2.994
 8420TIP3    H225204   3.496   3.473   2.891
 8421TIP3   OH225205   7.425   3.701   1.097
 8421TIP3    H125206   7.441   3.785   1.053
 8421TIP3    H225207   7.411   3.639   1.026
 8422TIP3   OH225208   7.509   6.853   6.788
 8422TIP3    H125209   7.577   6.838   6.722
 8422TIP3    H225210   7.525   6.786   6.855
 8423TIP3   OH225211   5.385   6.380   0.432
 8423TIP3    H125212   5.332   6.347   0.360
 8423TIP3    H225213   5.340   6.351   0.511
 8424TIP3   OH225214   5.138   5.636   4.768
 8424TIP3    H125215   5.042   5.635   4.766
 8424TIP3    H225216   5.164   5.625   4.677
 8425TIP3   OH225217   1.755   4.745   1.430
 8425TIP3    H125218   1.829   4.746   1.369
 8425TIP3    H225219   1.705   4.667   1.406
 8426TIP3   OH225220   7.384   1.980   6.291
 8426TIP3    H125221   7.296   1.993   6.328
 8426TIP3    H225222   7.426   2.066   6.301
 8427TIP3   OH225223   1.922   6.858   5.037
 8427TIP3    H125224   1.970   6.939   5.056
 8427TIP3    H225225   1.957   6.829   4.953
 8428TIP3   OH225226   5.625   3.789   6.460
 8428TIP3    H125227   5.684   3.810   6.533
 8428TIP3    H225228   5.597   3.874   6.427
 8429TIP3   OH225229   0.374   1.479   2.616
 8429TIP3    H125230   0.392   1.573   2.620
 8429TIP3    H225231   0.401   1.453   2.528
 8430TIP3   OH225232   2.464   5.529   1.537
 8430TIP3    H125233   2.483   5.437   1.557
 8430TIP3    H225234   2.534   5.578   1.579
 8431TIP3   OH225235   7.053   2.387   3.601
 8431TIP3    H125236   7.057   2.392   3.696
 8431TIP3    H225237   6.965   2.414   3.578
 8432TIP3   OH225238   3.251   6.789   5.850
 8432TIP3    H125239   3.255   6.767   5.943
 8432TIP3    H225240   3.235   6.883   5.847
 8433TIP3   OH225241   3.877   6.112   5.016
 8433TIP3    H125242   3.950   6.133   5.075
 8433TIP3    H225243   3.832   6.039   5.058
 8434TIP3   OH225244   7.171   7.047   0.430
 8434TIP3    H125245   7.264   7.064   0.413
 8434TIP3    H225246   7.141   6.998   0.354
 8435TIP3   OH225247   3.604   6.203   3.473
 8435TIP3    H125248   3.593   6.296   3.458
 8435TIP3    H225249   3.695   6.185   3.450
 8436TIP3   OH225250   7.849   3.857   1.122
 8436TIP3    H125251   7.915   3.890   1.060
 8436TIP3    H225252   7.855   3.916   1.197
 8437TIP3   OH225253   3.585   0.021   0.906
 8437TIP3    H125254   3.514  -0.037   0.933
 8437TIP3    H225255   3.569   0.038   0.813
 8438TIP3   OH225256   6.560   5.063   1.502
 8438TIP3    H125257   6.602   5.050   1.417
 8438TIP3    H225258   6.477   5.105   1.480
 8439TIP3   OH225259   2.851   3.479   1.123
 8439TIP3    H125260   2.938   3.518   1.130
 8439TIP3    H225261   2.790   3.552   1.131
 8440TIP3   OH225262   2.932   5.014   4.844
 8440TIP3    H125263   2.911   4.939   4.901
 8440TIP3    H225264   2.920   5.091   4.900
 8441TIP3   OH225265   4.049   5.435   6.360
 8441TIP3    H125266   4.033   5.515   6.311
 8441TIP3    H225267   4.103   5.381   6.303
 8442TIP3   OH225268   5.389   2.410   1.989
 8442TIP3    H125269   5.466   2.371   1.948
 8442TIP3    H225270   5.315   2.362   1.951
 8443TIP3   OH225271   7.372   2.557   6.795
 8443TIP3    H125272   7.467   2.563   6.785
 8443TIP3    H225273   7.352   2.466   6.774
 8444TIP3   OH225274   3.078   2.653   1.913
 8444TIP3    H125275   3.090   2.730   1.857
 8444TIP3    H225276   3.155   2.599   1.896
 8445TIP3   OH225277   7.097   1.572   1.797
 8445TIP3    H125278   7.164   1.604   1.737
 8445TIP3    H225279   7.145   1.518   1.860
 8446TIP3   OH225280   4.715   5.554   5.238
 8446TIP3    H125281   4.801   5.515   5.255
 8446TIP3    H225282   4.664   5.533   5.316
 8447TIP3   OH225283   5.585   6.472   3.371
 8447TIP3    H125284   5.659   6.530   3.353
 8447TIP3    H225285   5.617   6.415   3.441
 8448TIP3   OH225286   0.257   0.882   0.773
 8448TIP3    H125287   0.313   0.836   0.836
 8448TIP3    H225288   0.197   0.815   0.740
 8449TIP3   OH225289   3.873   5.723   1.203
 8449TIP3    H125290   3.803   5.784   1.180
 8449TIP3    H225291   3.894   5.743   1.294
 8450TIP3   OH225292   6.646   4.099   0.616
 8450TIP3    H125293   6.551   4.093   0.604
 8450TIP3    H225294   6.668   4.186   0.582
 8451TIP3   OH225295   0.409   0.051   3.163
 8451TIP3    H125296   0.369   0.136   3.182
 8451TIP3    H225297   0.385  -0.004   3.238
 8452TIP3   OH225298   6.793   4.145   3.770
 8452TIP3    H125299   6.865   4.133   3.832
 8452TIP3    H225300   6.755   4.229   3.794
 8453TIP3   OH225301   0.176   3.018   6.332
 8453TIP3    H125302   0.106   2.968   6.372
 8453TIP3    H225303   0.161   3.108   6.361
 8454TIP3   OH225304   0.238   6.532   6.101
 8454TIP3    H125305   0.310   6.553   6.043
 8454TIP3    H225306   0.171   6.597   6.080
 8455TIP3   OH225307   2.999   6.106   2.091
 8455TIP3    H125308   2.948   6.162   2.032
 8455TIP3    H225309   2.933   6.061   2.144
 8456TIP3   OH225310   3.544   5.809   5.366
 8456TIP3    H125311   3.551   5.717   5.393
 8456TIP3    H225312   3.451   5.830   5.380
 8457TIP3   OH225313   7.714   7.010   1.999
 8457TIP3    H125314   7.651   7.081   1.990
 8457TIP3    H225315   7.794   7.045   1.959
 8458TIP3   OH225316   1.458   6.617   1.693
 8458TIP3    H125317   1.498   6.556   1.755
 8458TIP3    H225318   1.521   6.623   1.621
 8459TIP3   OH225319   2.376   4.836   0.858
 8459TIP3    H125320   2.327   4.755   0.847
 8459TIP3    H225321   2.343   4.874   0.940
 8460TIP3   OH225322   0.126   7.021   1.548
 8460TIP3    H125323   0.064   7.070   1.495
 8460TIP3    H225324   0.201   7.080   1.558
 8461TIP3   OH225325   4.618   3.587   2.019
 8461TIP3    H125326   4.608   3.550   2.106
 8461TIP3    H225327   4.583   3.520   1.960
 8462TIP3   OH225328   4.686   3.429   3.228
 8462TIP3    H125329   4.717   3.341   3.250
 8462TIP3    H225330   4.684   3.475   3.312
 8463TIP3   OH225331   3.492   7.171   0.247
 8463TIP3    H125332   3.553   7.244   0.257
 8463TIP3    H225333   3.490   7.129   0.333
 8464TIP3   OH225334   6.960   1.740   5.291
 8464TIP3    H125335   6.879   1.741   5.341
 8464TIP3    H225336   6.933   1.729   5.200
 8465TIP3   OH225337   1.123   3.645   4.811
 8465TIP3    H125338   1.199   3.701   4.821
 8465TIP3    H225339   1.148   3.562   4.851
 8466TIP3   OH225340   7.247   7.259   2.402
 8466TIP3    H125341   7.263   7.259   2.308
 8466TIP3    H225342   7.168   7.206   2.413
 8467TIP3   OH225343   1.770   6.904   3.157
 8467TIP3    H125344   1.829   6.834   3.183
 8467TIP3    H225345   1.694   6.859   3.119
 8468TIP3   OH225346   2.536   7.528   1.126
 8468TIP3    H125347   2.561   7.516   1.034
 8468TIP3    H225348   2.444   7.502   1.129
 8469TIP3   OH225349   0.075   3.293   0.842
 8469TIP3    H125350   0.024   3.212   0.834
 8469TIP3    H225351   0.012   3.358   0.872
 8470TIP3   OH225352   1.493   0.308   4.714
 8470TIP3    H125353   1.445   0.292   4.633
 8470TIP3    H225354   1.546   0.230   4.727
 8471TIP3   OH225355   2.513   6.088   3.672
 8471TIP3    H125356   2.466   6.171   3.667
 8471TIP3    H225357   2.444   6.023   3.685
 8472TIP3   OH225358   8.200   0.135   6.716
 8472TIP3    H125359   8.123   0.082   6.736
 8472TIP3    H225360   8.195   0.209   6.777
 8473TIP3   OH225361   1.188   7.129   3.822
 8473TIP3    H125362   1.098   7.112   3.796
 8473TIP3    H225363   1.188   7.121   3.917
 8474TIP3   OH225364   6.299   1.370   4.213
 8474TIP3    H125365   6.344   1.294   4.250
 8474TIP3    H225366   6.326   1.443   4.269
 8475TIP3   OH225367   5.453   4.684   0.018
 8475TIP3    H125368   5.453   4.770   0.061
 8475TIP3    H225369   5.404   4.627   0.077
 8476TIP3   OH225370   6.631   2.289   2.613
 8476TIP3    H125371   6.721   2.271   2.640
 8476TIP3    H225372   6.636   2.374   2.570
 8477TIP3   OH225373   0.333   1.343   3.927
 8477TIP3    H125374   0.261   1.362   3.988
 8477TIP3    H225375   0.290   1.303   3.851
 8478TIP3   OH225376   6.667   5.214   1.729
 8478TIP3    H125377   6.594   5.153   1.722
 8478TIP3    H225378   6.653   5.278   1.660
 8479TIP3   OH225379   7.766   6.101   1.528
 8479TIP3    H125380   7.833   6.058   1.581
 8479TIP3    H225381   7.797   6.191   1.516
 8480TIP3   OH225382   3.845   7.851   3.779
 8480TIP3    H125383   3.759   7.891   3.791
 8480TIP3    H225384   3.836   7.798   3.699
 8481TIP3   OH225385   4.547   7.827   2.021
 8481TIP3    H125386   4.522   7.916   2.045
 8481TIP3    H225387   4.504   7.772   2.087
 8482TIP3   OH225388   3.571   5.873   4.757
 8482TIP3    H125389   3.583   5.831   4.672
 8482TIP3    H225390   3.609   5.961   4.746
 8483TIP3   OH225391   7.267   6.684   6.002
 8483TIP3    H125392   7.358   6.689   6.032
 8483TIP3    H225393   7.235   6.774   6.011
 8484TIP3   OH225394   6.056   7.321   4.536
 8484TIP3    H125395   6.096   7.403   4.567
 8484TIP3    H225396   5.967   7.323   4.571
 8485TIP3   OH225397   1.692   3.384   1.250
 8485TIP3    H125398   1.693   3.460   1.192
 8485TIP3    H225399   1.783   3.373   1.277
 8486TIP3   OH225400   4.450   4.921   1.981
 8486TIP3    H125401   4.540   4.907   1.951
 8486TIP3    H225402   4.406   4.961   1.906
 8487TIP3   OH225403   1.428   6.353   5.634
 8487TIP3    H125404   1.505   6.319   5.588
 8487TIP3    H225405   1.422   6.299   5.713
 8488TIP3   OH225406   5.013   4.978   3.471
 8488TIP3    H125407   5.038   4.921   3.544
 8488TIP3    H225408   5.096   5.000   3.428
 8489TIP3   OH225409   7.045   2.056   3.858
 8489TIP3    H125410   6.968   2.109   3.838
 8489TIP3    H225411   7.023   2.010   3.939
 8490TIP3   OH225412   8.138   5.216   1.375
 8490TIP3    H125413   8.060   5.260   1.407
 8490TIP3    H225414   8.203   5.286   1.364
 8491TIP3   OH225415   2.442   3.111   0.247
 8491TIP3    H125416   2.510   3.067   0.195
 8491TIP3    H225417   2.438   3.061   0.328
 8492TIP3   OH225418   5.485   7.342   6.267
 8492TIP3    H125419   5.566   7.385   6.240
 8492TIP3    H225420   5.465   7.282   6.195
 8493TIP3   OH225421   5.357   3.196   1.315
 8493TIP3    H125422   5.357   3.100   1.322
 8493TIP3    H225423   5.445   3.222   1.339
 8494TIP3   OH225424   8.088   1.986   0.991
 8494TIP3    H125425   8.046   2.002   1.075
 8494TIP3    H225426   8.169   1.941   1.013
 8495TIP3   OH225427   5.897   5.826   0.955
 8495TIP3    H125428   5.907   5.878   1.035
 8495TIP3    H225429   5.843   5.882   0.898
 8496TIP3   OH225430   4.674   1.068   2.107
 8496TIP3    H125431   4.603   1.005   2.092
 8496TIP3    H225432   4.709   1.045   2.193
 8497TIP3   OH225433   7.825   1.572   3.103
 8497TIP3    H125434   7.733   1.554   3.123
 8497TIP3    H225435   7.834   1.547   3.011
 8498TIP3   OH225436   2.614   4.069   6.617
 8498TIP3    H125437   2.548   4.056   6.549
 8498TIP3    H225438   2.574   4.035   6.697
 8499TIP3   OH225439   4.283   5.524   6.649
 8499TIP3    H125440   4.335   5.448   6.676
 8499TIP3    H225441   4.201   5.515   6.697
 8500TIP3   OH225442   0.099   3.703   0.847
 8500TIP3    H125443   0.049   3.763   0.904
 8500TIP3    H225444   0.149   3.648   0.908
 8501TIP3   OH225445   5.218   2.748   4.690
 8501TIP3    H125446   5.203   2.713   4.602
 8501TIP3    H225447   5.147   2.711   4.743
 8502TIP3   OH225448   3.872   3.085   2.479
 8502TIP3    H125449   3.885   3.170   2.521
 8502TIP3    H225450   3.956   3.067   2.436
 8503TIP3   OH225451   0.955   0.388   1.582
 8503TIP3    H125452   0.906   0.387   1.664
 8503TIP3    H225453   0.972   0.296   1.563
 8504TIP3   OH225454   7.252   7.590   0.165
 8504TIP3    H125455   7.316   7.638   0.218
 8504TIP3    H225456   7.303   7.556   0.091
 8505TIP3   OH225457   7.466   4.410   1.394
 8505TIP3    H125458   7.488   4.402   1.301
 8505TIP3    H225459   7.454   4.504   1.408
 8506TIP3   OH225460   7.471   5.883   4.073
 8506TIP3    H125461   7.507   5.940   4.005
 8506TIP3    H225462   7.381   5.867   4.045
 8507TIP3   OH225463   4.451   3.056   4.890
 8507TIP3    H125464   4.384   3.042   4.822
 8507TIP3    H225465   4.516   3.112   4.847
 8508TIP3   OH225466   2.271   4.579   0.906
 8508TIP3    H125467   2.308   4.493   0.921
 8508TIP3    H225468   2.211   4.593   0.979
 8509TIP3   OH225469   3.944   5.480   3.950
 8509TIP3    H125470   3.928   5.386   3.943
 8509TIP3    H225471   3.946   5.510   3.859
 8510TIP3   OH225472   6.560   1.007   6.279
 8510TIP3    H125473   6.642   1.019   6.230
 8510TIP3    H225474   6.517   1.093   6.274
 8511TIP3   OH225475   5.749   7.178   2.404
 8511TIP3    H125476   5.668   7.164   2.454
 8511TIP3    H225477   5.793   7.250   2.448
 8512TIP3   OH225478   5.619   6.320   1.082
 8512TIP3    H125479   5.667   6.243   1.111
 8512TIP3    H225480   5.527   6.300   1.100
 8513TIP3   OH225481   8.030   1.080   4.830
 8513TIP3    H125482   8.125   1.066   4.832
 8513TIP3    H225483   8.014   1.140   4.903
 8514TIP3   OH225484   2.633   1.937   1.259
 8514TIP3    H125485   2.540   1.916   1.250
 8514TIP3    H225486   2.643   1.963   1.351
 8515TIP3   OH225487   2.074   6.667   0.676
 8515TIP3    H125488   2.083   6.669   0.581
 8515TIP3    H225489   2.146   6.610   0.706
 8516TIP3   OH225490   6.844   4.095   2.328
 8516TIP3    H125491   6.874   4.103   2.419
 8516TIP3    H225492   6.808   4.181   2.306
 8517TIP3   OH225493   4.072   1.959   5.087
 8517TIP3    H125494   4.014   1.926   5.156
 8517TIP3    H225495   4.115   2.035   5.126
 8518TIP3   OH225496   7.464   3.319   3.690
 8518TIP3    H125497   7.428   3.235   3.663
 8518TIP3    H225498   7.558   3.313   3.671
 8519TIP3   OH225499   5.377   3.058   3.712
 8519TIP3    H125500   5.295   3.092   3.678
 8519TIP3    H225501   5.444   3.113   3.671
 8520TIP3   OH225502   7.553   5.439   5.085
 8520TIP3    H125503   7.619   5.472   5.146
 8520TIP3    H225504   7.494   5.387   5.140
 8521TIP3   OH225505   4.979   2.297   0.278
 8521TIP3    H125506   5.044   2.251   0.225
 8521TIP3    H225507   4.948   2.232   0.341
 8522TIP3   OH225508   5.876   1.130   2.708
 8522TIP3    H125509   5.856   1.037   2.703
 8522TIP3    H225510   5.904   1.153   2.620
 8523TIP3   OH225511   7.809   5.251   0.150
 8523TIP3    H125512   7.780   5.342   0.162
 8523TIP3    H225513   7.872   5.255   0.079
 8524TIP3   OH225514   3.084   1.556   3.616
 8524TIP3    H125515   3.025   1.513   3.554
 8524TIP3    H225516   3.137   1.485   3.651
 8525TIP3   OH225517   1.041   4.390   4.967
 8525TIP3    H125518   1.004   4.302   4.978
 8525TIP3    H225519   0.972   4.439   4.921
 8526TIP3   OH225520   5.114   6.824   6.748
 8526TIP3    H125521   5.201   6.848   6.779
 8526TIP3    H225522   5.068   6.795   6.827
 8527TIP3   OH225523   5.949   6.881   0.145
 8527TIP3    H125524   5.864   6.836   0.150
 8527TIP3    H225525   6.013   6.812   0.162
 8528TIP3   OH225526   4.608   6.860   4.258
 8528TIP3    H125527   4.545   6.808   4.208
 8528TIP3    H225528   4.660   6.796   4.305
 8529TIP3   OH225529   6.420   2.664   2.488
 8529TIP3    H125530   6.431   2.578   2.448
 8529TIP3    H225531   6.441   2.651   2.580
 8530TIP3   OH225532   1.989   3.487   3.602
 8530TIP3    H125533   1.934   3.562   3.623
 8530TIP3    H225534   2.070   3.502   3.652
 8531TIP3   OH225535   6.978   1.148   1.810
 8531TIP3    H125536   7.073   1.157   1.813
 8531TIP3    H225537   6.959   1.069   1.861
 8532TIP3   OH225538   7.390   5.136   0.251
 8532TIP3    H125539   7.396   5.164   0.160
 8532TIP3    H225540   7.471   5.166   0.291
 8533TIP3   OH225541   2.365   7.028   5.514
 8533TIP3    H125542   2.296   7.066   5.569
 8533TIP3    H225543   2.367   7.085   5.437
 8534TIP3   OH225544   0.544   6.530   1.646
 8534TIP3    H125545   0.505   6.488   1.570
 8534TIP3    H225546   0.631   6.557   1.617
 8535TIP3   OH225547   5.667   4.169   1.589
 8535TIP3    H125548   5.733   4.149   1.522
 8535TIP3    H225549   5.646   4.084   1.627
 8536TIP3   OH225550   1.082   5.437   2.219
 8536TIP3    H125551   1.173   5.419   2.241
 8536TIP3    H225552   1.062   5.519   2.263
 8537TIP3   OH225553   3.929   4.135   1.654
 8537TIP3    H125554   3.867   4.176   1.714
 8537TIP3    H225555   3.928   4.190   1.576
 8538TIP3   OH225556   0.822   2.206   2.979
 8538TIP3    H125557   0.870   2.198   3.062
 8538TIP3    H225558   0.808   2.300   2.970
 8539TIP3   OH225559   3.092   1.032   4.040
 8539TIP3    H125560   3.139   0.995   4.115
 8539TIP3    H225561   3.010   1.064   4.076
 8540TIP3   OH225562   2.703   5.276   4.331
 8540TIP3    H125563   2.731   5.187   4.311
 8540TIP3    H225564   2.611   5.279   4.307
 8541TIP3   OH225565   7.098   0.387   6.638
 8541TIP3    H125566   7.177   0.428   6.674
 8541TIP3    H225567   7.130   0.308   6.594
 8542TIP3   OH225568   6.155   2.570   5.223
 8542TIP3    H125569   6.157   2.506   5.294
 8542TIP3    H225570   6.180   2.521   5.145
 8543TIP3   OH225571   3.101   4.725   2.420
 8543TIP3    H125572   3.022   4.727   2.367
 8543TIP3    H225573   3.141   4.812   2.408
 8544TIP3   OH225574   7.338   3.441   3.891
 8544TIP3    H125575   7.399   3.403   3.827
 8544TIP3    H225576   7.291   3.366   3.927
 8545TIP3   OH225577   3.699   2.435   3.569
 8545TIP3    H125578   3.761   2.474   3.508
 8545TIP3    H225579   3.749   2.426   3.651
 8546TIP3   OH225580   2.977   0.229   2.225
 8546TIP3    H125581   3.060   0.199   2.190
 8546TIP3    H225582   2.994   0.243   2.318
 8547TIP3   OH225583   0.067   4.331   1.995
 8547TIP3    H125584   0.138   4.323   1.933
 8547TIP3    H225585   0.007   4.259   1.973
 8548TIP3   OH225586   2.762   5.169   4.587
 8548TIP3    H125587   2.822   5.120   4.644
 8548TIP3    H225588   2.702   5.213   4.648
 8549TIP3   OH225589   6.027   4.174   3.668
 8549TIP3    H125590   6.019   4.080   3.651
 8549TIP3    H225591   5.937   4.207   3.664
 8550TIP3   OH225592   6.960   4.551   0.826
 8550TIP3    H125593   6.935   4.491   0.756
 8550TIP3    H225594   6.880   4.597   0.848
 8551TIP3   OH225595   3.525   2.568   1.415
 8551TIP3    H125596   3.592   2.538   1.476
 8551TIP3    H225597   3.466   2.493   1.405
 8552TIP3   OH225598   1.752   5.578   3.785
 8552TIP3    H125599   1.844   5.593   3.805
 8552TIP3    H225600   1.750   5.560   3.691
 8553TIP3   OH225601   5.593   6.119   1.488
 8553TIP3    H125602   5.522   6.164   1.534
 8553TIP3    H225603   5.672   6.144   1.536
 8554TIP3   OH225604   8.184   2.619   5.317
 8554TIP3    H125605   8.101   2.585   5.354
 8554TIP3    H225606   8.206   2.693   5.374
 8555TIP3   OH225607   8.136   7.148   2.545
 8555TIP3    H125608   8.166   7.058   2.536
 8555TIP3    H225609   8.208   7.202   2.512
 8556TIP3   OH225610   7.498   0.155   0.201
 8556TIP3    H125611   7.434   0.092   0.234
 8556TIP3    H225612   7.582   0.121   0.229
 8557TIP3   OH225613   6.887   3.464   4.328
 8557TIP3    H125614   6.976   3.433   4.310
 8557TIP3    H225615   6.871   3.439   4.419
 8558TIP3   OH225616   6.297   3.117   6.373
 8558TIP3    H125617   6.303   3.148   6.464
 8558TIP3    H225618   6.330   3.191   6.322
 8559TIP3   OH225619   4.849   2.190   6.222
 8559TIP3    H125620   4.921   2.238   6.179
 8559TIP3    H225621   4.780   2.255   6.232
 8560TIP3   OH225622   0.023   6.487   3.128
 8560TIP3    H125623   0.000   6.534   3.208
 8560TIP3    H225624   0.012   6.394   3.150
 8561TIP3   OH225625   4.558   0.678   5.762
 8561TIP3    H125626   4.497   0.709   5.830
 8561TIP3    H225627   4.644   0.687   5.802
 8562TIP3   OH225628   5.538   0.885   1.511
 8562TIP3    H125629   5.464   0.898   1.571
 8562TIP3    H225630   5.597   0.825   1.558
 8563TIP3   OH225631   6.816   6.034   5.839
 8563TIP3    H125632   6.820   6.125   5.868
 8563TIP3    H225633   6.903   6.017   5.802
 8564TIP3   OH225634   8.111   5.542   5.780
 8564TIP3    H125635   8.166   5.464   5.781
 8564TIP3    H225636   8.170   5.613   5.752
 8565TIP3   OH225637   5.597   2.629   1.676
 8565TIP3    H125638   5.629   2.684   1.747
 8565TIP3    H225639   5.674   2.613   1.622
 8566TIP3   OH225640   4.446   6.713   1.023
 8566TIP3    H125641   4.441   6.668   0.939
 8566TIP3    H225642   4.531   6.756   1.023
 8567TIP3   OH225643   6.082   7.318   5.505
 8567TIP3    H125644   6.071   7.327   5.410
 8567TIP3    H225645   6.087   7.407   5.537
 8568TIP3   OH225646   5.890   6.982   4.296
 8568TIP3    H125647   5.832   7.037   4.349
 8568TIP3    H225648   5.888   6.896   4.339
 8569TIP3   OH225649   7.544   3.138   4.014
 8569TIP3    H125650   7.562   3.057   3.966
 8569TIP3    H225651   7.617   3.196   3.991
 8570TIP3   OH225652   2.980   0.028   6.438
 8570TIP3    H125653   2.962  -0.064   6.418
 8570TIP3    H225654   3.005   0.067   6.354
 8571TIP3   OH225655   3.145   6.859   1.430
 8571TIP3    H125656   3.217   6.820   1.380
 8571TIP3    H225657   3.182   6.939   1.467
 8572TIP3   OH225658   3.209   4.803   5.506
 8572TIP3    H125659   3.230   4.797   5.600
 8572TIP3    H225660   3.204   4.712   5.478
 8573TIP3   OH225661   8.180   2.074   6.521
 8573TIP3    H125662   8.118   2.017   6.567
 8573TIP3    H225663   8.195   2.147   6.581
 8574TIP3   OH225664   1.480   2.327   3.844
 8574TIP3    H125665   1.512   2.352   3.757
 8574TIP3    H225666   1.549   2.270   3.879
 8575TIP3   OH225667   6.070   4.250   2.936
 8575TIP3    H125668   6.000   4.190   2.965
 8575TIP3    H225669   6.035   4.337   2.955
 8576TIP3   OH225670   4.606   3.785   1.335
 8576TIP3    H125671   4.663   3.711   1.352
 8576TIP3    H225672   4.622   3.845   1.408
 8577TIP3   OH225673   2.323   6.692   3.398
 8577TIP3    H125674   2.375   6.724   3.471
 8577TIP3    H225675   2.312   6.767   3.341
 8578TIP3   OH225676   2.141   0.948   5.469
 8578TIP3    H125677   2.100   1.016   5.416
 8578TIP3    H225678   2.223   0.929   5.425
 8579TIP3   OH225679   2.020   1.305   6.523
 8579TIP3    H125680   2.054   1.355   6.597
 8579TIP3    H225681   2.090   1.306   6.459
 8580TIP3   OH225682   3.871   7.345   0.954
 8580TIP3    H125683   3.906   7.298   0.879
 8580TIP3    H225684   3.777   7.352   0.936
 8581TIP3   OH225685   5.051   5.803   2.346
 8581TIP3    H125686   4.981   5.867   2.344
 8581TIP3    H225687   5.014   5.725   2.306
 8582TIP3   OH225688   0.498   4.811   1.857
 8582TIP3    H125689   0.507   4.896   1.813
 8582TIP3    H225690   0.534   4.826   1.945
 8583TIP3   OH225691   2.300   7.140   1.819
 8583TIP3    H125692   2.275   7.187   1.740
 8583TIP3    H225693   2.248   7.180   1.889
 8584TIP3   OH225694   2.578   3.824   3.491
 8584TIP3    H125695   2.489   3.833   3.456
 8584TIP3    H225696   2.634   3.821   3.413
 8585TIP3   OH225697   1.237   1.832   1.444
 8585TIP3    H125698   1.176   1.905   1.446
 8585TIP3    H225699   1.319   1.870   1.410
 8586TIP3   OH225700   8.276   6.191   6.499
 8586TIP3    H125701   8.315   6.246   6.431
 8586TIP3    H225702   8.350   6.139   6.532
 8587TIP3   OH225703   4.415   4.755   6.125
 8587TIP3    H125704   4.360   4.733   6.200
 8587TIP3    H225705   4.359   4.738   6.049
 8588TIP3   OH225706   1.167   4.946   4.501
 8588TIP3    H125707   1.181   4.978   4.590
 8588TIP3    H225708   1.254   4.918   4.472
 8589TIP3   OH225709   4.536   0.928   6.286
 8589TIP3    H125710   4.547   0.843   6.328
 8589TIP3    H225711   4.446   0.953   6.305
 8590TIP3   OH225712   7.581   2.382   2.272
 8590TIP3    H125713   7.581   2.388   2.177
 8590TIP3    H225714   7.618   2.465   2.302
 8591TIP3   OH225715   6.041   0.292   2.802
 8591TIP3    H125716   6.032   0.232   2.877
 8591TIP3    H225717   6.095   0.364   2.836
 8592TIP3   OH225718   0.351   6.135   3.221
 8592TIP3    H125719   0.363   6.041   3.234
 8592TIP3    H225720   0.366   6.174   3.308
 8593TIP3   OH225721   2.861   0.897   2.024
 8593TIP3    H125722   2.832   0.977   1.979
 8593TIP3    H225723   2.872   0.833   1.953
 8594TIP3   OH225724   1.230   5.395   3.616
 8594TIP3    H125725   1.273   5.332   3.674
 8594TIP3    H225726   1.196   5.462   3.676
 8595TIP3   OH225727   4.923   4.470   5.188
 8595TIP3    H125728   4.888   4.488   5.276
 8595TIP3    H225729   4.973   4.389   5.198
 8596TIP3   OH225730   5.359   6.977   5.580
 8596TIP3    H125731   5.292   7.040   5.606
 8596TIP3    H225732   5.396   7.014   5.500
 8597TIP3   OH225733   3.140   6.219   1.054
 8597TIP3    H125734   3.167   6.179   0.971
 8597TIP3    H225735   3.053   6.183   1.071
 8598TIP3   OH225736   1.555   3.699   1.245
 8598TIP3    H125737   1.540   3.785   1.206
 8598TIP3    H225738   1.468   3.666   1.265
 8599TIP3   OH225739   5.113   3.041   2.872
 8599TIP3    H125740   5.135   2.962   2.920
 8599TIP3    H225741   5.018   3.048   2.880
 8600TIP3   OH225742   0.989   7.150   0.648
 8600TIP3    H125743   1.050   7.159   0.721
 8600TIP3    H225744   1.044   7.129   0.573
 8601TIP3   OH225745   3.800   4.897   4.934
 8601TIP3    H125746   3.709   4.916   4.957
 8601TIP3    H225747   3.818   4.954   4.860
 8602TIP3   OH225748   5.031   0.485   3.357
 8602TIP3    H125749   5.092   0.416   3.333
 8602TIP3    H225750   4.964   0.441   3.410
 8603TIP3   OH225751   2.415   0.567   3.339
 8603TIP3    H125752   2.352   0.518   3.393
 8603TIP3    H225753   2.363   0.640   3.304
 8604TIP3   OH225754   5.260   0.056   0.603
 8604TIP3    H125755   5.190   0.012   0.554
 8604TIP3    H225756   5.335  -0.002   0.596
 8605TIP3   OH225757   5.228   3.114   0.365
 8605TIP3    H125758   5.163   3.075   0.307
 8605TIP3    H225759   5.268   3.184   0.314
 8606TIP3   OH225760   4.084   1.379   2.815
 8606TIP3    H125761   4.094   1.462   2.770
 8606TIP3    H225762   3.994   1.352   2.797
 8607TIP3   OH225763   2.825   1.781   1.139
 8607TIP3    H125764   2.894   1.770   1.205
 8607TIP3    H225765   2.754   1.825   1.186
 8608TIP3   OH225766   3.854   0.512   4.301
 8608TIP3    H125767   3.941   0.546   4.284
 8608TIP3    H225768   3.813   0.503   4.215
 8609TIP3   OH225769   0.518   7.388   2.225
 8609TIP3    H125770   0.438   7.403   2.175
 8609TIP3    H225771   0.501   7.426   2.311
 8610TIP3   OH225772   6.663   3.390   1.259
 8610TIP3    H125773   6.646   3.450   1.332
 8610TIP3    H225774   6.608   3.423   1.188
 8611TIP3   OH225775   3.878   2.179   4.281
 8611TIP3    H125776   3.859   2.266   4.317
 8611TIP3    H225777   3.921   2.132   4.353
 8612TIP3   OH225778   1.842   5.657   4.947
 8612TIP3    H125779   1.791   5.577   4.960
 8612TIP3    H225780   1.797   5.702   4.875
 8613TIP3   OH225781   8.227   1.876   1.502
 8613TIP3    H125782   8.179   1.912   1.577
 8613TIP3    H225783   8.315   1.911   1.511
 8614TIP3   OH225784   3.964   4.210   2.188
 8614TIP3    H125785   3.990   4.119   2.172
 8614TIP3    H225786   3.869   4.207   2.195
 8615TIP3   OH225787   4.662   6.815   0.764
 8615TIP3    H125788   4.676   6.851   0.852
 8615TIP3    H225789   4.663   6.892   0.707
 8616TIP3   OH225790   5.022   7.799   5.479
 8616TIP3    H125791   5.026   7.834   5.390
 8616TIP3    H225792   5.077   7.720   5.477
 8617TIP3   OH225793   0.069   5.794   6.086
 8617TIP3    H125794   0.143   5.749   6.126
 8617TIP3    H225795   0.014   5.821   6.160
 8618TIP3   OH225796   2.804   1.511   6.364
 8618TIP3    H125797   2.781   1.424   6.398
 8618TIP3    H225798   2.723   1.562   6.372
 8619TIP3   OH225799   1.018   6.196   0.460
 8619TIP3    H125800   0.985   6.112   0.492
 8619TIP3    H225801   1.112   6.194   0.478
 8620TIP3   OH225802   3.135   6.409   2.089
 8620TIP3    H125803   3.088   6.325   2.086
 8620TIP3    H225804   3.077   6.467   2.138
 8621TIP3   OH225805   7.700   5.285   5.804
 8621TIP3    H125806   7.749   5.359   5.840
 8621TIP3    H225807   7.744   5.208   5.840
 8622TIP3   OH225808   1.400   2.689   3.942
 8622TIP3    H125809   1.374   2.642   3.863
 8622TIP3    H225810   1.350   2.648   4.012
 8623TIP3   OH225811   7.671   1.431   5.332
 8623TIP3    H125812   7.614   1.423   5.409
 8623TIP3    H225813   7.612   1.461   5.263
 8624TIP3   OH225814   0.574   1.867   0.897
 8624TIP3    H125815   0.637   1.938   0.887
 8624TIP3    H225816   0.620   1.802   0.950
 8625TIP3   OH225817   0.133   2.483   2.646
 8625TIP3    H125818   0.186   2.526   2.579
 8625TIP3    H225819   0.055   2.452   2.599
 8626TIP3   OH225820   1.228   1.361   0.355
 8626TIP3    H125821   1.200   1.309   0.430
 8626TIP3    H225822   1.164   1.433   0.351
 8627TIP3   OH225823   3.681   3.202   2.304
 8627TIP3    H125824   3.604   3.222   2.358
 8627TIP3    H225825   3.734   3.145   2.359
 8628TIP3   OH225826   0.710   6.801   5.080
 8628TIP3    H125827   0.687   6.786   4.988
 8628TIP3    H225828   0.774   6.872   5.077
 8629TIP3   OH225829   0.169   1.040   0.996
 8629TIP3    H125830   0.218   0.997   0.925
 8629TIP3    H225831   0.095   0.982   1.013
 8630TIP3   OH225832   7.685   2.891   3.074
 8630TIP3    H125833   7.777   2.865   3.068
 8630TIP3    H225834   7.675   2.927   3.162
 8631TIP3   OH225835   5.765   2.053   4.939
 8631TIP3    H125836   5.792   1.993   4.869
 8631TIP3    H225837   5.766   1.998   5.018
 8632TIP3   OH225838   3.285   6.550   3.044
 8632TIP3    H125839   3.369   6.503   3.048
 8632TIP3    H225840   3.238   6.510   2.972
 8633TIP3   OH225841   5.348   7.636   0.676
 8633TIP3    H125842   5.388   7.652   0.590
 8633TIP3    H225843   5.421   7.612   0.732
 8634TIP3   OH225844   3.135   1.696   1.533
 8634TIP3    H125845   3.042   1.676   1.538
 8634TIP3    H225846   3.177   1.627   1.584
 8635TIP3   OH225847   3.445   4.577   1.412
 8635TIP3    H125848   3.455   4.650   1.352
 8635TIP3    H225849   3.454   4.499   1.357
 8636TIP3   OH225850   1.437   1.325   4.945
 8636TIP3    H125851   1.342   1.329   4.952
 8636TIP3    H225852   1.463   1.253   5.003
 8637TIP3   OH225853   7.052   6.232   2.353
 8637TIP3    H125854   7.064   6.138   2.341
 8637TIP3    H225855   6.972   6.252   2.304
 8638TIP3   OH225856   2.763   0.829   5.718
 8638TIP3    H125857   2.743   0.795   5.631
 8638TIP3    H225858   2.809   0.911   5.701
 8639TIP3   OH225859   1.703   4.267   0.335
 8639TIP3    H125860   1.693   4.309   0.420
 8639TIP3    H225861   1.652   4.186   0.341
 8640TIP3   OH225862   7.279   1.131   3.530
 8640TIP3    H125863   7.201   1.105   3.580
 8640TIP3    H225864   7.343   1.063   3.549
 8641TIP3   OH225865   1.145   4.767   6.338
 8641TIP3    H125866   1.217   4.750   6.398
 8641TIP3    H225867   1.086   4.692   6.350
 8642TIP3   OH225868   3.522   3.432   6.141
 8642TIP3    H125869   3.473   3.394   6.068
 8642TIP3    H225870   3.612   3.404   6.127
 8643TIP3   OH225871   5.009   3.145   1.703
 8643TIP3    H125872   5.046   3.230   1.680
 8643TIP3    H225873   4.929   3.139   1.651
 8644TIP3   OH225874   0.181   1.970   4.303
 8644TIP3    H125875   0.217   1.883   4.287
 8644TIP3    H225876   0.243   2.011   4.363
 8645TIP3   OH225877   2.271   4.512   0.632
 8645TIP3    H125878   2.291   4.530   0.724
 8645TIP3    H225879   2.357   4.504   0.590
 8646TIP3   OH225880   0.426   5.711   0.312
 8646TIP3    H125881   0.434   5.711   0.408
 8646TIP3    H225882   0.343   5.667   0.295
 8647TIP3   OH225883   3.245   5.790   0.830
 8647TIP3    H125884   3.221   5.781   0.922
 8647TIP3    H225885   3.246   5.884   0.814
 8648TIP3   OH225886   3.227   3.452   6.269
 8648TIP3    H125887   3.273   3.490   6.343
 8648TIP3    H225888   3.255   3.503   6.194
 8649TIP3   OH225889   4.607   2.080   5.557
 8649TIP3    H125890   4.605   2.124   5.642
 8649TIP3    H225891   4.662   2.136   5.502
 8650TIP3   OH225892   2.756   2.276   0.723
 8650TIP3    H125893   2.741   2.333   0.799
 8650TIP3    H225894   2.728   2.328   0.648
 8651TIP3   OH225895   0.808   5.241   5.797
 8651TIP3    H125896   0.717   5.220   5.819
 8651TIP3    H225897   0.859   5.200   5.866
 8652TIP3   OH225898   6.857   7.284   5.022
 8652TIP3    H125899   6.867   7.265   5.115
 8652TIP3    H225900   6.784   7.228   4.994
 8653TIP3   OH225901   6.818   0.600   3.838
 8653TIP3    H125902   6.811   0.652   3.918
 8653TIP3    H225903   6.764   0.647   3.774
 8654TIP3   OH225904   7.520   5.846   2.075
 8654TIP3    H125905   7.575   5.792   2.019
 8654TIP3    H225906   7.551   5.829   2.164
 8655TIP3   OH225907   1.970   2.947   0.859
 8655TIP3    H125908   1.988   2.867   0.908
 8655TIP3    H225909   2.028   2.941   0.783
 8656TIP3   OH225910   7.306   6.008   2.171
 8656TIP3    H125911   7.316   6.102   2.182
 8656TIP3    H225912   7.384   5.980   2.123
 8657TIP3   OH225913   2.915   7.716   2.641
 8657TIP3    H125914   2.902   7.660   2.565
 8657TIP3    H225915   2.967   7.789   2.609
 8658TIP3   OH225916   3.022   2.578   0.186
 8658TIP3    H125917   3.052   2.517   0.253
 8658TIP3    H225918   3.096   2.638   0.174
 8659TIP3   OH225919   0.578   3.084   2.162
 8659TIP3    H125920   0.525   3.045   2.232
 8659TIP3    H225921   0.599   3.010   2.105
 8660TIP3   OH225922   2.940   2.366   2.612
 8660TIP3    H125923   2.876   2.365   2.683
 8660TIP3    H225924   3.003   2.433   2.638
 8661TIP3   OH225925   2.516   6.982   6.260
 8661TIP3    H125926   2.528   6.971   6.355
 8661TIP3    H225927   2.440   7.040   6.252
 8662TIP3   OH225928   4.088   7.635   4.555
 8662TIP3    H125929   4.098   7.721   4.596
 8662TIP3    H225930   4.017   7.646   4.491
 8663TIP3   OH225931   6.888   1.640   0.257
 8663TIP3    H125932   6.905   1.549   0.280
 8663TIP3    H225933   6.930   1.652   0.172
 8664TIP3   OH225934   6.544   6.305   0.215
 8664TIP3    H125935   6.499   6.227   0.245
 8664TIP3    H225936   6.505   6.377   0.265
 8665TIP3   OH225937   5.045   5.041   1.499
 8665TIP3    H125938   5.059   4.971   1.564
 8665TIP3    H225939   5.133   5.074   1.480
 8666TIP3   OH225940   1.711   2.764   0.835
 8666TIP3    H125941   1.795   2.725   0.859
 8666TIP3    H225942   1.731   2.857   0.819
 8667TIP3   OH225943   5.129   4.200   0.263
 8667TIP3    H125944   5.176   4.260   0.205
 8667TIP3    H225945   5.109   4.124   0.209
 8668TIP3   OH225946   7.703   2.970   4.490
 8668TIP3    H125947   7.622   2.932   4.524
 8668TIP3    H225948   7.676   3.053   4.451
 8669TIP3   OH225949   4.944   6.287   4.665
 8669TIP3    H125950   4.880   6.288   4.736
 8669TIP3    H225951   5.026   6.315   4.705
 8670TIP3   OH225952   4.694   4.198   1.867
 8670TIP3    H125953   4.765   4.134   1.872
 8670TIP3    H225954   4.726   4.264   1.806
 8671TIP3   OH225955   3.446   6.913   2.064
 8671TIP3    H125956   3.521   6.873   2.021
 8671TIP3    H225957   3.440   7.001   2.026
 8672TIP3   OH225958   1.647   4.202   6.517
 8672TIP3    H125959   1.677   4.113   6.537
 8672TIP3    H225960   1.635   4.203   6.423
 8673TIP3   OH225961   0.987   1.768   0.674
 8673TIP3    H125962   1.078   1.797   0.668
 8673TIP3    H225963   0.943   1.811   0.601
 8674TIP3   OH225964   5.164   7.475   3.948
 8674TIP3    H125965   5.160   7.405   4.014
 8674TIP3    H225966   5.181   7.430   3.866
 8675TIP3   OH225967   5.672   1.019   0.646
 8675TIP3    H125968   5.644   1.035   0.737
 8675TIP3    H225969   5.726   0.940   0.651
 8676TIP3   OH225970   5.725   3.252   5.842
 8676TIP3    H125971   5.632   3.263   5.825
 8676TIP3    H225972   5.737   3.279   5.934
 8677TIP3   OH225973   6.178   0.909   3.596
 8677TIP3    H125974   6.227   0.828   3.582
 8677TIP3    H225975   6.202   0.937   3.685
 8678TIP3   OH225976   3.663   0.750   3.242
 8678TIP3    H125977   3.646   0.843   3.234
 8678TIP3    H225978   3.681   0.737   3.335
 8679TIP3   OH225979   6.734   4.898   6.022
 8679TIP3    H125980   6.681   4.975   6.004
 8679TIP3    H225981   6.710   4.836   5.953
 8680TIP3   OH225982   0.246   2.847   5.822
 8680TIP3    H125983   0.160   2.850   5.780
 8680TIP3    H225984   0.307   2.839   5.749
 8681TIP3   OH225985   1.960   4.339   5.346
 8681TIP3    H125986   2.030   4.397   5.316
 8681TIP3    H225987   1.900   4.396   5.395
 8682TIP3   OH225988   3.579   2.807   3.698
 8682TIP3    H125989   3.665   2.779   3.729
 8682TIP3    H225990   3.598   2.873   3.632
 8683TIP3   OH225991   3.256   1.912   4.936
 8683TIP3    H125992   3.198   1.865   4.996
 8683TIP3    H225993   3.201   1.931   4.860
 8684TIP3   OH225994   1.969   3.373   0.870
 8684TIP3    H125995   1.940   3.375   0.778
 8684TIP3    H225996   1.926   3.297   0.907
 8685TIP3   OH225997   4.818   0.662   5.883
 8685TIP3    H125998   4.864   0.725   5.939
 8685TIP3    H225999   4.795   0.591   5.943
 8686TIP3   OH226000   0.544   4.717   2.991
 8686TIP3    H126001   0.576   4.782   2.929
 8686TIP3    H226002   0.605   4.644   2.984
 8687TIP3   OH226003   7.734   1.939   3.241
 8687TIP3    H126004   7.659   1.891   3.277
 8687TIP3    H226005   7.723   2.028   3.275
 8688TIP3   OH226006   8.107   4.297   5.720
 8688TIP3    H126007   8.082   4.258   5.804
 8688TIP3    H226008   8.143   4.225   5.669
 8689TIP3   OH226009   6.015   1.215   1.159
 8689TIP3    H126010   6.050   1.299   1.190
 8689TIP3    H226011   5.983   1.234   1.071
 8690TIP3   OH226012   2.220   1.261   0.945
 8690TIP3    H126013   2.147   1.312   0.909
 8690TIP3    H226014   2.294   1.322   0.942
 8691TIP3   OH226015   2.995   3.956   0.201
 8691TIP3    H126016   2.982   4.014   0.276
 8691TIP3    H226017   3.090   3.956   0.187
 8692TIP3   OH226018   0.687   0.160   3.704
 8692TIP3    H126019   0.658   0.134   3.791
 8692TIP3    H226020   0.743   0.236   3.720
 8693TIP3   OH226021   1.057   1.218   1.053
 8693TIP3    H126022   1.145   1.255   1.042
 8693TIP3    H226023   1.072   1.126   1.072
 8694TIP3   OH226024   2.103   5.975   0.727
 8694TIP3    H126025   2.127   6.041   0.663
 8694TIP3    H226026   2.153   5.998   0.806
 8695TIP3   OH226027   1.606   3.067   6.222
 8695TIP3    H126028   1.647   3.133   6.277
 8695TIP3    H226029   1.606   3.105   6.134
 8696TIP3   OH226030   0.117   7.807   5.410
 8696TIP3    H126031   0.119   7.862   5.489
 8696TIP3    H226032   0.096   7.720   5.442
 8697TIP3   OH226033   5.873   2.858   2.968
 8697TIP3    H126034   5.793   2.813   2.941
 8697TIP3    H226035   5.842   2.930   3.023
 8698TIP3   OH226036   8.272   4.473   3.294
 8698TIP3    H126037   8.201   4.448   3.235
 8698TIP3    H226038   8.240   4.453   3.381
 8699TIP3   OH226039   4.418   3.359   6.427
 8699TIP3    H126040   4.324   3.347   6.438
 8699TIP3    H226041   4.444   3.411   6.503
 8700TIP3   OH226042   5.756   3.168   1.119
 8700TIP3    H126043   5.841   3.143   1.155
 8700TIP3    H226044   5.737   3.253   1.158
 8701TIP3   OH226045   4.162   7.301   2.388
 8701TIP3    H126046   4.191   7.236   2.452
 8701TIP3    H226047   4.115   7.367   2.440
 8702TIP3   OH226048   1.959   2.404   2.500
 8702TIP3    H126049   1.943   2.465   2.427
 8702TIP3    H226050   1.897   2.431   2.567
 8703TIP3   OH226051   6.457   2.574   1.375
 8703TIP3    H126052   6.392   2.503   1.378
 8703TIP3    H226053   6.541   2.530   1.389
 8704TIP3   OH226054   4.977   4.964   3.983
 8704TIP3    H126055   4.981   4.887   4.040
 8704TIP3    H226056   4.883   4.981   3.974
 8705TIP3   OH226057   1.402   6.320   1.455
 8705TIP3    H126058   1.348   6.319   1.376
 8705TIP3    H226059   1.365   6.391   1.508
 8706TIP3   OH226060   2.765   5.760   0.503
 8706TIP3    H126061   2.713   5.830   0.545
 8706TIP3    H226062   2.753   5.684   0.560
 8707TIP3   OH226063   3.111   3.188   5.899
 8707TIP3    H126064   3.078   3.134   5.971
 8707TIP3    H226065   3.044   3.181   5.831
 8708TIP3   OH226066   3.504   1.794   3.875
 8708TIP3    H126067   3.519   1.883   3.844
 8708TIP3    H226068   3.579   1.744   3.842
 8709TIP3   OH226069   8.214   0.422   0.095
 8709TIP3    H126070   8.183   0.331   0.091
 8709TIP3    H226071   8.284   0.421   0.161
 8710TIP3   OH226072   6.444   4.203   3.334
 8710TIP3    H126073   6.411   4.293   3.339
 8710TIP3    H226074   6.522   4.203   3.389
 8711TIP3   OH226075   5.535   5.107   0.805
 8711TIP3    H126076   5.614   5.053   0.812
 8711TIP3    H226077   5.533   5.157   0.887
 8712TIP3   OH226078   4.319   2.467   4.897
 8712TIP3    H126079   4.374   2.540   4.924
 8712TIP3    H226080   4.375   2.390   4.907
 8713TIP3   OH226081   7.526   4.554   5.009
 8713TIP3    H126082   7.542   4.478   5.065
 8713TIP3    H226083   7.587   4.620   5.041
 8714TIP3   OH226084   6.999   7.541   3.160
 8714TIP3    H126085   7.024   7.450   3.170
 8714TIP3    H226086   6.912   7.539   3.120
 8715TIP3   OH226087   5.003   5.305   0.929
 8715TIP3    H126088   5.083   5.291   0.980
 8715TIP3    H226089   5.031   5.352   0.851
 8716TIP3   OH226090   3.367   1.231   3.492
 8716TIP3    H126091   3.331   1.251   3.578
 8716TIP3    H226092   3.440   1.171   3.511
 8717TIP3   OH226093   4.087   4.598   5.690
 8717TIP3    H126094   4.035   4.605   5.610
 8717TIP3    H226095   4.089   4.687   5.725
 8718TIP3   OH226096   3.098   2.681   2.209
 8718TIP3    H126097   3.052   2.756   2.247
 8718TIP3    H226098   3.096   2.696   2.115
 8719TIP3   OH226099   6.348   3.389   6.303
 8719TIP3    H126100   6.426   3.418   6.351
 8719TIP3    H226101   6.353   3.433   6.219
 8720TIP3   OH226102   8.238   2.855   5.435
 8720TIP3    H126103   8.296   2.931   5.434
 8720TIP3    H226104   8.154   2.890   5.404
 8721TIP3   OH226105   2.433   2.715   2.360
 8721TIP3    H126106   2.358   2.663   2.387
 8721TIP3    H226107   2.405   2.806   2.372
 8722TIP3   OH226108   7.332   0.201   5.065
 8722TIP3    H126109   7.311   0.139   5.135
 8722TIP3    H226110   7.412   0.244   5.093
 8723TIP3   OH226111   0.262   1.145   5.300
 8723TIP3    H126112   0.227   1.059   5.324
 8723TIP3    H226113   0.303   1.177   5.381
 8724TIP3   OH226114   4.703   3.817   6.420
 8724TIP3    H126115   4.629   3.877   6.416
 8724TIP3    H226116   4.663   3.730   6.426
 8725TIP3   OH226117   1.449   2.540   3.254
 8725TIP3    H126118   1.367   2.567   3.211
 8725TIP3    H226119   1.426   2.459   3.299
 8726TIP3   OH226120   3.837   6.742   5.181
 8726TIP3    H126121   3.842   6.806   5.252
 8726TIP3    H226122   3.820   6.658   5.225
 8727TIP3   OH226123   2.900   5.839   1.979
 8727TIP3    H126124   2.838   5.866   2.046
 8727TIP3    H226125   2.891   5.904   1.910
 8728TIP3   OH226126   7.733   7.486   5.166
 8728TIP3    H126127   7.757   7.417   5.228
 8728TIP3    H226128   7.774   7.565   5.201
 8729TIP3   OH226129   2.565   4.493   2.128
 8729TIP3    H126130   2.502   4.498   2.056
 8729TIP3    H226131   2.590   4.401   2.131
 8730TIP3   OH226132   2.792   2.410   0.225
 8730TIP3    H126133   2.772   2.349   0.154
 8730TIP3    H226134   2.824   2.489   0.181
 8731TIP3   OH226135   5.529   5.213   3.880
 8731TIP3    H126136   5.447   5.223   3.831
 8731TIP3    H226137   5.585   5.160   3.823
 8732TIP3   OH226138   7.507   1.588   2.714
 8732TIP3    H126139   7.568   1.557   2.647
 8732TIP3    H226140   7.559   1.648   2.767
 8733TIP3   OH226141   7.548   2.675   0.242
 8733TIP3    H126142   7.458   2.706   0.243
 8733TIP3    H226143   7.543   2.588   0.203
 8734TIP3   OH226144   5.116   2.567   0.995
 8734TIP3    H126145   5.163   2.638   1.039
 8734TIP3    H226146   5.145   2.572   0.904
 8735TIP3   OH226147   4.171   7.515   3.033
 8735TIP3    H126148   4.175   7.420   3.043
 8735TIP3    H226149   4.262   7.543   3.042
 8736TIP3   OH226150   4.548   3.832   4.463
 8736TIP3    H126151   4.562   3.752   4.515
 8736TIP3    H226152   4.611   3.825   4.392
 8737TIP3   OH226153   0.316   6.414   0.009
 8737TIP3    H126154   0.241   6.464  -0.021
 8737TIP3    H226155   0.386   6.479   0.021
 8738TIP3   OH226156   4.580   0.737   2.784
 8738TIP3    H126157   4.562   0.811   2.843
 8738TIP3    H226158   4.500   0.727   2.733
 8739TIP3   OH226159   5.852   3.347   3.555
 8739TIP3    H126160   5.834   3.420   3.615
 8739TIP3    H226161   5.920   3.296   3.599
 8740TIP3   OH226162   3.530   5.748   2.424
 8740TIP3    H126163   3.456   5.710   2.473
 8740TIP3    H226164   3.490   5.783   2.344
 8741TIP3   OH226165   5.962   2.253   1.052
 8741TIP3    H126166   6.031   2.230   1.115
 8741TIP3    H226167   5.888   2.280   1.107
 8742TIP3   OH226168   4.356   1.507   3.875
 8742TIP3    H126169   4.394   1.583   3.918
 8742TIP3    H226170   4.286   1.478   3.935
 8743TIP3   OH226171   4.639   5.822   5.245
 8743TIP3    H126172   4.652   5.731   5.219
 8743TIP3    H226173   4.685   5.873   5.179
 8744TIP3   OH226174   5.295   4.529   0.445
 8744TIP3    H126175   5.376   4.483   0.469
 8744TIP3    H226176   5.280   4.590   0.517
 8745TIP3   OH226177   5.262   5.240   0.155
 8745TIP3    H126178   5.233   5.325   0.121
 8745TIP3    H226179   5.357   5.249   0.162
 8746TIP3   OH226180   8.075   6.664   0.394
 8746TIP3    H126181   8.134   6.682   0.467
 8746TIP3    H226182   8.010   6.604   0.430
 8747TIP3   OH226183   1.584   4.334   2.812
 8747TIP3    H126184   1.671   4.352   2.776
 8747TIP3    H226185   1.578   4.390   2.889
 8748TIP3   OH226186   6.415   7.093   6.313
 8748TIP3    H126187   6.364   7.051   6.382
 8748TIP3    H226188   6.401   7.187   6.326
 8749TIP3   OH226189   4.194   3.083   3.080
 8749TIP3    H126190   4.159   3.073   2.991
 8749TIP3    H226191   4.129   3.041   3.136
 8750TIP3   OH226192   3.678   3.262   1.137
 8750TIP3    H126193   3.706   3.180   1.176
 8750TIP3    H226194   3.722   3.330   1.189
 8751TIP3   OH226195   2.988   5.973   0.240
 8751TIP3    H126196   2.959   5.884   0.222
 8751TIP3    H226197   3.080   5.964   0.266
 8752TIP3   OH226198   6.852   3.015   0.641
 8752TIP3    H126199   6.910   2.958   0.692
 8752TIP3    H226200   6.896   3.024   0.556
 8753TIP3   OH226201   4.427   6.631   4.857
 8753TIP3    H126202   4.365   6.703   4.843
 8753TIP3    H226203   4.497   6.646   4.794
 8754TIP3   OH226204   8.078   4.973   3.332
 8754TIP3    H126205   8.007   5.015   3.284
 8754TIP3    H226206   8.052   4.979   3.424
 8755TIP3   OH226207   6.944   2.765   3.658
 8755TIP3    H126208   6.869   2.707   3.644
 8755TIP3    H226209   6.913   2.828   3.723
 8756TIP3   OH226210   4.209   3.968   3.843
 8756TIP3    H126211   4.160   4.050   3.833
 8756TIP3    H226212   4.144   3.905   3.873
 8757TIP3   OH226213   1.084   1.403   3.709
 8757TIP3    H126214   1.109   1.475   3.767
 8757TIP3    H226215   1.042   1.339   3.767
 8758TIP3   OH226216   7.916   0.908   4.353
 8758TIP3    H126217   8.001   0.894   4.395
 8758TIP3    H226218   7.885   0.991   4.388
 8759TIP3   OH226219   3.634   5.248   2.116
 8759TIP3    H126220   3.726   5.241   2.139
 8759TIP3    H226221   3.628   5.205   2.030
 8760TIP3   OH226222   2.086   5.993   0.333
 8760TIP3    H126223   2.025   6.054   0.292
 8760TIP3    H226224   2.071   5.910   0.289
 8761TIP3   OH226225   5.076   2.492   0.492
 8761TIP3    H126226   5.045   2.512   0.580
 8761TIP3    H226227   5.017   2.424   0.460
 8762TIP3   OH226228   7.768   0.218   4.326
 8762TIP3    H126229   7.788   0.208   4.419
 8762TIP3    H226230   7.792   0.134   4.287
 8763TIP3   OH226231   6.585   2.762   1.652
 8763TIP3    H126232   6.590   2.811   1.569
 8763TIP3    H226233   6.673   2.727   1.664
 8764TIP3   OH226234   7.482   4.094   2.703
 8764TIP3    H126235   7.427   4.034   2.754
 8764TIP3    H226236   7.480   4.059   2.614
 8765TIP3   OH226237   2.397   1.345   4.945
 8765TIP3    H126238   2.380   1.430   4.906
 8765TIP3    H226239   2.349   1.348   5.029
 8766TIP3   OH226240   0.091   1.007   5.960
 8766TIP3    H126241   0.143   0.955   6.022
 8766TIP3    H226242   0.028   0.945   5.923
 8767TIP3   OH226243   4.166   5.843   6.467
 8767TIP3    H126244   4.204   5.761   6.499
 8767TIP3    H226245   4.150   5.826   6.374
 8768TIP3   OH226246   3.910   4.583   0.344
 8768TIP3    H126247   3.962   4.557   0.268
 8768TIP3    H226248   3.973   4.593   0.415
 8769TIP3   OH226249   7.205   0.682   5.638
 8769TIP3    H126250   7.124   0.702   5.590
 8769TIP3    H226251   7.274   0.723   5.586
 8770TIP3   OH226252   2.758   0.048   4.621
 8770TIP3    H126253   2.704   0.064   4.698
 8770TIP3    H226254   2.847   0.065   4.651
 8771TIP3   OH226255   7.663   7.475   5.506
 8771TIP3    H126256   7.603   7.546   5.484
 8771TIP3    H226257   7.620   7.428   5.578
 8772TIP3   OH226258   5.837   6.945   6.757
 8772TIP3    H126259   5.771   6.879   6.735
 8772TIP3    H226260   5.848   6.996   6.677
 8773TIP3   OH226261   3.466   4.543   1.983
 8773TIP3    H126262   3.548   4.507   2.017
 8773TIP3    H226263   3.400   4.477   2.006
 8774TIP3   OH226264   4.197   4.504   1.797
 8774TIP3    H126265   4.224   4.448   1.870
 8774TIP3    H226266   4.188   4.444   1.723
 8775TIP3   OH226267   3.687   0.624   5.996
 8775TIP3    H126268   3.612   0.632   5.937
 8775TIP3    H226269   3.675   0.695   6.060
 8776TIP3   OH226270   3.798   2.407   1.890
 8776TIP3    H126271   3.757   2.340   1.943
 8776TIP3    H226272   3.887   2.376   1.876
 8777TIP3   OH226273   0.625   2.737   3.608
 8777TIP3    H126274   0.653   2.815   3.656
 8777TIP3    H226275   0.564   2.693   3.668
 8778TIP3   OH226276   5.862   3.256   4.734
 8778TIP3    H126277   5.922   3.312   4.783
 8778TIP3    H226278   5.821   3.202   4.801
 8779TIP3   OH226279   7.065   6.149   1.236
 8779TIP3    H126280   7.039   6.059   1.255
 8779TIP3    H226281   7.079   6.189   1.322
 8780TIP3   OH226282   1.994   4.398   3.081
 8780TIP3    H126283   2.078   4.407   3.125
 8780TIP3    H226284   1.994   4.310   3.045
 8781TIP3   OH226285   2.052   5.115   3.433
 8781TIP3    H126286   1.993   5.063   3.379
 8781TIP3    H226287   2.139   5.091   3.403
 8782TIP3   OH226288   0.393   6.848   5.668
 8782TIP3    H126289   0.346   6.883   5.744
 8782TIP3    H226290   0.326   6.803   5.617
 8783TIP3   OH226291   7.157   4.043   0.443
 8783TIP3    H126292   7.242   4.071   0.477
 8783TIP3    H226293   7.161   3.947   0.446
 8784TIP3   OH226294   6.680   2.636   3.711
 8784TIP3    H126295   6.588   2.649   3.731
 8784TIP3    H226296   6.682   2.557   3.656
 8785TIP3   OH226297   0.506   4.419   1.659
 8785TIP3    H126298   0.499   4.406   1.564
 8785TIP3    H226299   0.549   4.504   1.668
 8786TIP3   OH226300   1.134   1.262   6.347
 8786TIP3    H126301   1.092   1.201   6.286
 8786TIP3    H226302   1.108   1.349   6.315
 8787TIP3   OH226303   6.430   7.541   3.025
 8787TIP3    H126304   6.382   7.502   2.951
 8787TIP3    H226305   6.377   7.617   3.051
 8788TIP3   OH226306   4.152   7.146   0.510
 8788TIP3    H126307   4.235   7.132   0.555
 8788TIP3    H226308   4.087   7.104   0.566
 8789TIP3   OH226309   0.189   7.740   2.530
 8789TIP3    H126310   0.240   7.742   2.611
 8789TIP3    H226311   0.126   7.669   2.543
 8790TIP3   OH226312   5.439   5.288   4.687
 8790TIP3    H126313   5.370   5.251   4.631
 8790TIP3    H226314   5.392   5.319   4.764
 8791TIP3   OH226315   7.564   3.993   4.873
 8791TIP3    H126316   7.479   3.959   4.902
 8791TIP3    H226317   7.541   4.064   4.812
 8792TIP3   OH226318   2.342   6.416   2.123
 8792TIP3    H126319   2.325   6.389   2.213
 8792TIP3    H226320   2.304   6.504   2.117
 8793TIP3   OH226321   1.394   0.965   4.146
 8793TIP3    H126322   1.429   0.885   4.186
 8793TIP3    H226323   1.332   0.933   4.080
 8794TIP3   OH226324   7.284   6.011   0.323
 8794TIP3    H126325   7.331   6.094   0.323
 8794TIP3    H226326   7.196   6.033   0.354
 8795TIP3   OH226327   3.404   0.321   0.770
 8795TIP3    H126328   3.410   0.356   0.859
 8795TIP3    H226329   3.415   0.397   0.713
 8796TIP3   OH226330   4.272   4.234   4.705
 8796TIP3    H126331   4.358   4.198   4.685
 8796TIP3    H226332   4.282   4.274   4.791
 8797TIP3   OH226333   7.016   7.278   0.401
 8797TIP3    H126334   7.066   7.202   0.432
 8797TIP3    H226335   6.931   7.243   0.376
 8798TIP3   OH226336   0.589   3.967   1.183
 8798TIP3    H126337   0.632   3.988   1.265
 8798TIP3    H226338   0.610   3.875   1.168
 8799TIP3   OH226339   1.996   3.823   1.172
 8799TIP3    H126340   1.922   3.767   1.151
 8799TIP3    H226341   1.969   3.911   1.144
 8800TIP3   OH226342   2.381   5.683   5.835
 8800TIP3    H126343   2.411   5.769   5.804
 8800TIP3    H226344   2.415   5.677   5.924
 8801TIP3   OH226345   0.114   7.426   6.351
 8801TIP3    H126346   0.209   7.425   6.368
 8801TIP3    H226347   0.080   7.351   6.400
 8802TIP3   OH226348   6.569   6.528   5.783
 8802TIP3    H126349   6.595   6.608   5.737
 8802TIP3    H226350   6.620   6.530   5.864
 8803TIP3   OH226351   6.709   0.960   2.713
 8803TIP3    H126352   6.687   0.902   2.640
 8803TIP3    H226353   6.705   1.048   2.676
 8804TIP3   OH226354   5.501   6.193   5.463
 8804TIP3    H126355   5.476   6.107   5.429
 8804TIP3    H226356   5.544   6.174   5.546
 8805TIP3   OH226357   0.460   0.027   0.046
 8805TIP3    H126358   0.446   0.115   0.012
 8805TIP3    H226359   0.387  -0.024   0.011
 8806TIP3   OH226360   3.052   2.391   5.006
 8806TIP3    H126361   3.076   2.324   5.070
 8806TIP3    H226362   3.129   2.446   4.998
 8807TIP3   OH226363   5.128   2.400   5.467
 8807TIP3    H126364   5.212   2.410   5.421
 8807TIP3    H226365   5.113   2.306   5.468
 8808TIP3   OH226366   6.894   6.278   0.315
 8808TIP3    H126367   6.866   6.241   0.232
 8808TIP3    H226368   6.817   6.269   0.372
 8809TIP3   OH226369   0.945   1.716   4.024
 8809TIP3    H126370   0.868   1.666   3.998
 8809TIP3    H226371   0.919   1.807   4.017
 8810TIP3   OH226372   7.667   4.619   0.004
 8810TIP3    H126373   7.610   4.638   0.079
 8810TIP3    H226374   7.672   4.524   0.002
 8811TIP3   OH226375   2.458   6.911   1.859
 8811TIP3    H126376   2.478   6.846   1.791
 8811TIP3    H226377   2.396   6.971   1.816
 8812TIP3   OH226378   4.728   0.710   4.396
 8812TIP3    H126379   4.781   0.789   4.394
 8812TIP3    H226380   4.662   0.722   4.328
 8813TIP3   OH226381   4.436   0.404   5.593
 8813TIP3    H126382   4.387   0.325   5.616
 8813TIP3    H226383   4.461   0.441   5.677
 8814TIP3   OH226384   8.196   6.356   5.362
 8814TIP3    H126385   8.175   6.384   5.273
 8814TIP3    H226386   8.285   6.322   5.357
 8815TIP3   OH226387   4.873   4.857   2.506
 8815TIP3    H126388   4.793   4.855   2.558
 8815TIP3    H226389   4.916   4.773   2.523
 8816TIP3   OH226390   6.638   1.840   1.821
 8816TIP3    H126391   6.653   1.923   1.865
 8816TIP3    H226392   6.723   1.795   1.824
 8817TIP3   OH226393   7.322   0.374   4.177
 8817TIP3    H126394   7.345   0.424   4.255
 8817TIP3    H226395   7.226   0.371   4.179
 8818TIP3   OH226396   5.426   1.564   2.185
 8818TIP3    H126397   5.343   1.588   2.143
 8818TIP3    H226398   5.405   1.556   2.278
 8819TIP3   OH226399   5.464   3.928   1.262
 8819TIP3    H126400   5.534   3.905   1.324
 8819TIP3    H226401   5.466   4.024   1.258
 8820TIP3   OH226402   5.394   4.070   2.080
 8820TIP3    H126403   5.408   4.164   2.091
 8820TIP3    H226404   5.309   4.053   2.120
 8821TIP3   OH226405   6.924   3.820   5.280
 8821TIP3    H126406   6.993   3.868   5.326
 8821TIP3    H226407   6.887   3.884   5.219
 8822TIP3   OH226408   6.518   3.879   1.744
 8822TIP3    H126409   6.576   3.805   1.727
 8822TIP3    H226410   6.539   3.907   1.834
 8823TIP3   OH226411   1.087   2.045   4.167
 8823TIP3    H126412   1.038   2.032   4.248
 8823TIP3    H226413   1.176   2.066   4.196
 8824TIP3   OH226414   4.590   3.728   6.072
 8824TIP3    H126415   4.500   3.752   6.097
 8824TIP3    H226416   4.599   3.637   6.102
 8825TIP3   OH226417   7.931   1.716   1.938
 8825TIP3    H126418   8.003   1.778   1.954
 8825TIP3    H226419   7.883   1.754   1.864
 8826TIP3   OH226420   2.026   5.867   1.853
 8826TIP3    H126421   1.999   5.825   1.935
 8826TIP3    H226422   1.952   5.852   1.794
 8827TIP3   OH226423   1.185   7.068   2.966
 8827TIP3    H126424   1.237   7.148   2.957
 8827TIP3    H226425   1.246   7.003   3.000
 8828TIP3   OH226426   5.002   1.149   3.364
 8828TIP3    H126427   5.041   1.232   3.335
 8828TIP3    H226428   5.074   1.103   3.408
 8829TIP3   OH226429   5.824   1.713   3.260
 8829TIP3    H126430   5.866   1.745   3.339
 8829TIP3    H226431   5.878   1.746   3.188
 8830TIP3   OH226432   1.773   1.966   5.279
 8830TIP3    H126433   1.710   1.959   5.207
 8830TIP3    H226434   1.721   1.998   5.353
 8831TIP3   OH226435   5.297   4.470   0.152
 8831TIP3    H126436   5.201   4.477   0.154
 8831TIP3    H226437   5.324   4.494   0.240
 8832TIP3   OH226438   7.915   6.560   1.230
 8832TIP3    H126439   7.948   6.635   1.181
 8832TIP3    H226440   7.918   6.587   1.322
 8833TIP3   OH226441   0.311   4.583   0.785
 8833TIP3    H126442   0.380   4.627   0.836
 8833TIP3    H226443   0.231   4.629   0.808
 8834TIP3   OH226444   1.145   0.278   3.174
 8834TIP3    H126445   1.090   0.320   3.240
 8834TIP3    H226446   1.169   0.348   3.114
 8835TIP3   OH226447   1.290   2.754   1.453
 8835TIP3    H126448   1.205   2.711   1.442
 8835TIP3    H226449   1.293   2.820   1.384
 8836TIP3   OH226450   1.877   4.806   2.501
 8836TIP3    H126451   1.861   4.829   2.410
 8836TIP3    H226452   1.913   4.718   2.498
 8837TIP3   OH226453   1.922   4.665   4.194
 8837TIP3    H126454   1.973   4.702   4.122
 8837TIP3    H226455   1.859   4.608   4.151
 8838TIP3   OH226456   3.881   7.613   2.055
 8838TIP3    H126457   3.969   7.606   2.017
 8838TIP3    H226458   3.896   7.615   2.150
 8839TIP3   OH226459   5.014   3.398   4.088
 8839TIP3    H126460   5.071   3.322   4.081
 8839TIP3    H226461   5.066   3.471   4.056
 8840TIP3   OH226462   7.730   4.368   2.467
 8840TIP3    H126463   7.799   4.328   2.414
 8840TIP3    H226464   7.777   4.428   2.525
 8841TIP3   OH226465   6.441   1.216   5.274
 8841TIP3    H126466   6.355   1.180   5.251
 8841TIP3    H226467   6.437   1.307   5.246
 8842TIP3   OH226468   1.740   0.925   5.888
 8842TIP3    H126469   1.683   0.898   5.960
 8842TIP3    H226470   1.740   1.020   5.891
 8843TIP3   OH226471   2.291   7.315   0.954
 8843TIP3    H126472   2.357   7.246   0.946
 8843TIP3    H226473   2.265   7.313   1.047
 8844TIP3   OH226474   0.823   6.062   6.420
 8844TIP3    H126475   0.905   6.015   6.408
 8844TIP3    H226476   0.840   6.123   6.491
 8845TIP3   OH226477   3.560   7.748   0.372
 8845TIP3    H126478   3.535   7.799   0.295
 8845TIP3    H226479   3.558   7.812   0.444
 8846TIP3   OH226480   3.124   2.043   4.362
 8846TIP3    H126481   3.081   2.098   4.297
 8846TIP3    H226482   3.172   1.978   4.310
 8847TIP3   OH226483   0.051   3.310   1.734
 8847TIP3    H126484   0.085   3.365   1.805
 8847TIP3    H226485   0.111   3.235   1.732
 8848TIP3   OH226486   4.116   4.221   4.278
 8848TIP3    H126487   4.134   4.304   4.234
 8848TIP3    H226488   4.185   4.214   4.345
 8849TIP3   OH226489   7.031   4.794   5.755
 8849TIP3    H126490   7.098   4.860   5.771
 8849TIP3    H226491   6.992   4.777   5.841
 8850TIP3   OH226492   0.181   3.098   0.388
 8850TIP3    H126493   0.157   3.161   0.456
 8850TIP3    H226494   0.257   3.138   0.346
 8851TIP3   OH226495   0.555   0.665   6.673
 8851TIP3    H126496   0.524   0.749   6.705
 8851TIP3    H226497   0.648   0.678   6.656
 8852TIP3   OH226498   2.271   4.480   2.890
 8852TIP3    H126499   2.303   4.565   2.921
 8852TIP3    H226500   2.351   4.431   2.868
 8853TIP3   OH226501   5.291   3.297   4.558
 8853TIP3    H126502   5.293   3.203   4.543
 8853TIP3    H226503   5.241   3.332   4.485
 8854TIP3   OH226504   5.065   1.398   3.271
 8854TIP3    H126505   5.132   1.451   3.228
 8854TIP3    H226506   5.000   1.462   3.302
 8855TIP3   OH226507   0.349   3.512   0.343
 8855TIP3    H126508   0.324   3.429   0.302
 8855TIP3    H226509   0.268   3.561   0.350
 8856TIP3   OH226510   4.919   6.727   6.176
 8856TIP3    H126511   4.993   6.675   6.144
 8856TIP3    H226512   4.875   6.757   6.097
 8857TIP3   OH226513   8.110   1.378   1.209
 8857TIP3    H126514   8.163   1.362   1.132
 8857TIP3    H226515   8.024   1.342   1.187
 8858TIP3   OH226516   6.348   2.617   4.771
 8858TIP3    H126517   6.386   2.565   4.700
 8858TIP3    H226518   6.395   2.700   4.766
 8859TIP3   OH226519   5.011   5.520   3.693
 8859TIP3    H126520   4.985   5.612   3.703
 8859TIP3    H226521   4.936   5.471   3.726
 8860TIP3   OH226522   6.188   2.877   4.096
 8860TIP3    H126523   6.280   2.869   4.120
 8860TIP3    H226524   6.144   2.903   4.177
 8861TIP3   OH226525   7.619   6.996   5.538
 8861TIP3    H126526   7.696   6.986   5.594
 8861TIP3    H226527   7.579   6.909   5.537
 8862TIP3   OH226528   2.273   7.375   4.695
 8862TIP3    H126529   2.283   7.347   4.604
 8862TIP3    H226530   2.346   7.334   4.741
 8863TIP3   OH226531   0.930   3.026   3.525
 8863TIP3    H126532   0.948   2.933   3.508
 8863TIP3    H226533   0.895   3.027   3.614
 8864TIP3   OH226534   7.784   5.339   4.271
 8864TIP3    H126535   7.861   5.338   4.214
 8864TIP3    H226536   7.811   5.390   4.347
 8865TIP3   OH226537   4.378   0.808   1.034
 8865TIP3    H126538   4.398   0.722   0.999
 8865TIP3    H226539   4.453   0.831   1.089
 8866TIP3   OH226540   7.801   2.687   1.409
 8866TIP3    H126541   7.879   2.687   1.354
 8866TIP3    H226542   7.794   2.776   1.443
 8867TIP3   OH226543   3.425   3.535   2.214
 8867TIP3    H126544   3.390   3.448   2.234
 8867TIP3    H226545   3.514   3.518   2.181
 8868TIP3   OH226546   5.843   0.494   4.877
 8868TIP3    H126547   5.851   0.437   4.953
 8868TIP3    H226548   5.790   0.568   4.907
 8869TIP3   OH226549   7.243   0.220   6.485
 8869TIP3    H126550   7.297   0.293   6.454
 8869TIP3    H226551   7.287   0.142   6.452
 8870TIP3   OH226552   1.804   5.540   5.805
 8870TIP3    H126553   1.755   5.508   5.729
 8870TIP3    H226554   1.876   5.478   5.815
 8871TIP3   OH226555   7.072   2.170   6.195
 8871TIP3    H126556   7.115   2.143   6.276
 8871TIP3    H226557   7.135   2.228   6.152
 8872TIP3   OH226558   3.402   3.793   4.470
 8872TIP3    H126559   3.320   3.776   4.425
 8872TIP3    H226560   3.387   3.763   4.560
 8873TIP3   OH226561   3.338   5.657   2.610
 8873TIP3    H126562   3.303   5.588   2.667
 8873TIP3    H226563   3.287   5.649   2.529
 8874TIP3   OH226564   4.081   2.458   4.216
 8874TIP3    H126565   4.056   2.503   4.135
 8874TIP3    H226566   3.998   2.434   4.257
 8875TIP3   OH226567   7.904   4.142   2.395
 8875TIP3    H126568   7.993   4.139   2.431
 8875TIP3    H226569   7.870   4.054   2.406
 8876TIP3   OH226570   7.277   2.504   1.922
 8876TIP3    H126571   7.227   2.576   1.882
 8876TIP3    H226572   7.323   2.464   1.848
 8877TIP3   OH226573   6.135   2.160   1.246
 8877TIP3    H126574   6.202   2.093   1.233
 8877TIP3    H226575   6.083   2.127   1.320
 8878TIP3   OH226576   1.751   0.845   5.307
 8878TIP3    H126577   1.716   0.923   5.264
 8878TIP3    H226578   1.793   0.795   5.237
 8879TIP3   OH226579   8.155   0.745   3.533
 8879TIP3    H126580   8.191   0.795   3.460
 8879TIP3    H226581   8.223   0.680   3.553
 8880TIP3   OH226582   0.912   5.665   0.192
 8880TIP3    H126583   0.921   5.756   0.162
 8880TIP3    H226584   0.967   5.661   0.271
 8881TIP3   OH226585   2.867   3.558   3.169
 8881TIP3    H126586   2.809   3.482   3.177
 8881TIP3    H226587   2.847   3.594   3.083
 8882TIP3   OH226588   5.294   4.421   1.099
 8882TIP3    H126589   5.234   4.473   1.046
 8882TIP3    H226590   5.255   4.420   1.186
 8883TIP3   OH226591   3.987   7.518   3.242
 8883TIP3    H126592   3.893   7.516   3.258
 8883TIP3    H226593   3.997   7.501   3.148
 8884TIP3   OH226594   5.233   1.965   4.220
 8884TIP3    H126595   5.147   1.970   4.178
 8884TIP3    H226596   5.237   1.876   4.255
 8885TIP3   OH226597   6.804   6.281   1.925
 8885TIP3    H126598   6.777   6.225   1.852
 8885TIP3    H226599   6.888   6.317   1.897
 8886TIP3   OH226600   7.480   1.859   3.310
 8886TIP3    H126601   7.418   1.882   3.241
 8886TIP3    H226602   7.435   1.880   3.391
 8887TIP3   OH226603   4.090   5.717   1.012
 8887TIP3    H126604   4.103   5.626   0.984
 8887TIP3    H226605   4.010   5.714   1.065
 8888TIP3   OH226606   7.373   1.749   5.016
 8888TIP3    H126607   7.327   1.762   4.934
 8888TIP3    H226608   7.332   1.810   5.077
 8889TIP3   OH226609   6.775   3.738   2.711
 8889TIP3    H126610   6.778   3.683   2.633
 8889TIP3    H226611   6.743   3.823   2.680
 8890TIP3   OH226612   4.624   6.854   4.783
 8890TIP3    H126613   4.583   6.797   4.718
 8890TIP3    H226614   4.656   6.928   4.732
 8891TIP3   OH226615   5.064   5.651   1.096
 8891TIP3    H126616   5.071   5.559   1.118
 8891TIP3    H226617   5.140   5.670   1.042
 8892TIP3   OH226618   0.403   3.157   3.921
 8892TIP3    H126619   0.401   3.085   3.984
 8892TIP3    H226620   0.375   3.233   3.972
 8893TIP3   OH226621   4.888   4.449   4.815
 8893TIP3    H126622   4.828   4.418   4.883
 8893TIP3    H226623   4.847   4.529   4.782
 8894TIP3   OH226624   3.143   7.093   1.585
 8894TIP3    H126625   3.140   7.189   1.585
 8894TIP3    H226626   3.058   7.066   1.550
 8895TIP3   OH226627   3.594   3.803   3.635
 8895TIP3    H126628   3.601   3.822   3.541
 8895TIP3    H226629   3.684   3.806   3.667
 8896TIP3   OH226630   7.530   4.609   3.369
 8896TIP3    H126631   7.618   4.577   3.350
 8896TIP3    H226632   7.479   4.587   3.291
 8897TIP3   OH226633   2.464   1.794   3.846
 8897TIP3    H126634   2.386   1.780   3.899
 8897TIP3    H226635   2.509   1.709   3.846
 8898TIP3   OH226636   7.019   6.538   2.073
 8898TIP3    H126637   7.027   6.454   2.028
 8898TIP3    H226638   7.101   6.583   2.053
 8899TIP3   OH226639   2.905   6.606   2.551
 8899TIP3    H126640   2.921   6.698   2.573
 8899TIP3    H226641   2.992   6.569   2.536
 8900TIP3   OH226642   8.000   5.091   1.659
 8900TIP3    H126643   7.949   5.121   1.734
 8900TIP3    H226644   8.076   5.149   1.656
 8901TIP3   OH226645   7.406   6.642   4.110
 8901TIP3    H126646   7.313   6.634   4.129
 8901TIP3    H226647   7.442   6.685   4.188
 8902TIP3   OH226648   5.169   3.397   4.355
 8902TIP3    H126649   5.132   3.326   4.302
 8902TIP3    H226650   5.144   3.477   4.309
 8903TIP3   OH226651   1.851   1.081   1.260
 8903TIP3    H126652   1.818   1.132   1.186
 8903TIP3    H226653   1.850   1.142   1.334
 8904TIP3   OH226654   2.279   3.156   1.088
 8904TIP3    H126655   2.269   3.240   1.043
 8904TIP3    H226656   2.310   3.096   1.021
 8905TIP3   OH226657   1.158   3.278   4.080
 8905TIP3    H126658   1.236   3.321   4.045
 8905TIP3    H226659   1.113   3.346   4.129
 8906TIP3   OH226660   6.157   0.348   6.247
 8906TIP3    H126661   6.104   0.327   6.170
 8906TIP3    H226662   6.243   0.372   6.211
 8907TIP3   OH226663   1.239   1.784   3.086
 8907TIP3    H126664   1.179   1.850   3.119
 8907TIP3    H226665   1.182   1.711   3.060
 8908TIP3   OH226666   7.235   2.726   6.492
 8908TIP3    H126667   7.239   2.811   6.448
 8908TIP3    H226668   7.309   2.677   6.458
 8909TIP3   OH226669   7.694   2.492   1.189
 8909TIP3    H126670   7.779   2.517   1.225
 8909TIP3    H226671   7.644   2.460   1.264
 8910TIP3   OH226672   2.407   0.037   6.219
 8910TIP3    H126673   2.433   0.081   6.138
 8910TIP3    H226674   2.488   0.001   6.254
 8911TIP3   OH226675   2.498   2.871   0.442
 8911TIP3    H126676   2.590   2.876   0.466
 8911TIP3    H226677   2.476   2.778   0.452
 8912TIP3   OH226678   6.590   6.788   6.288
 8912TIP3    H126679   6.596   6.883   6.302
 8912TIP3    H226680   6.509   6.762   6.332
 8913TIP3   OH226681   5.856   5.709   5.965
 8913TIP3    H126682   5.931   5.735   6.017
 8913TIP3    H226683   5.880   5.624   5.929
 8914TIP3   OH226684   2.613   4.745   1.456
 8914TIP3    H126685   2.536   4.701   1.495
 8914TIP3    H226686   2.594   4.745   1.362
 8915TIP3   OH226687   0.288   3.494   4.261
 8915TIP3    H126688   0.196   3.473   4.277
 8915TIP3    H226689   0.327   3.497   4.348
 8916TIP3   OH226690   6.190   2.763   2.196
 8916TIP3    H126691   6.150   2.685   2.234
 8916TIP3    H226692   6.235   2.805   2.270
 8917TIP3   OH226693   7.830   6.909   6.006
 8917TIP3    H126694   7.767   6.953   6.064
 8917TIP3    H226695   7.789   6.826   5.984
 8918TIP3   OH226696   5.403   3.341   2.088
 8918TIP3    H126697   5.388   3.289   2.009
 8918TIP3    H226698   5.494   3.322   2.112
 8919TIP3   OH226699   3.528   5.242   5.445
 8919TIP3    H126700   3.476   5.231   5.365
 8919TIP3    H226701   3.567   5.156   5.460
 8920TIP3   OH226702   1.516   1.735   0.237
 8920TIP3    H126703   1.482   1.711   0.323
 8920TIP3    H226704   1.539   1.828   0.246
 8921TIP3   OH226705   1.217   6.869   5.186
 8921TIP3    H126706   1.305   6.831   5.191
 8921TIP3    H226707   1.231   6.962   5.202
 8922TIP3   OH226708   6.697   6.941   1.634
 8922TIP3    H126709   6.775   6.961   1.582
 8922TIP3    H226710   6.728   6.879   1.700
 8923TIP3   OH226711   1.920   1.675   3.775
 8923TIP3    H126712   1.829   1.669   3.803
 8923TIP3    H226713   1.939   1.590   3.735
 8924TIP3   OH226714   0.425   6.437   0.439
 8924TIP3    H126715   0.437   6.344   0.421
 8924TIP3    H226716   0.478   6.453   0.518
 8925TIP3   OH226717   2.306   3.403   6.263
 8925TIP3    H126718   2.269   3.479   6.309
 8925TIP3    H226719   2.255   3.329   6.296
 8926TIP3   OH226720   6.418   1.523   6.160
 8926TIP3    H126721   6.419   1.599   6.102
 8926TIP3    H226722   6.505   1.486   6.152
 8927TIP3   OH226723   2.051   2.807   3.700
 8927TIP3    H126724   1.970   2.772   3.737
 8927TIP3    H226725   2.031   2.899   3.681
 8928TIP3   OH226726   6.333   4.624   0.448
 8928TIP3    H126727   6.289   4.709   0.437
 8928TIP3    H226728   6.393   4.619   0.374
 8929TIP3   OH226729   6.473   3.748   4.372
 8929TIP3    H126730   6.452   3.655   4.385
 8929TIP3    H226731   6.569   3.750   4.367
 8930TIP3   OH226732   7.942   1.084   6.261
 8930TIP3    H126733   7.872   1.097   6.325
 8930TIP3    H226734   7.992   1.166   6.263
 8931TIP3   OH226735   2.408   6.037   2.444
 8931TIP3    H126736   2.404   5.954   2.491
 8931TIP3    H226737   2.351   6.096   2.495
 8932TIP3   OH226738   6.860   2.790   1.665
 8932TIP3    H126739   6.904   2.846   1.601
 8932TIP3    H226740   6.869   2.836   1.748
 8933TIP3   OH226741   1.643   4.902   4.702
 8933TIP3    H126742   1.651   4.973   4.639
 8933TIP3    H226743   1.732   4.869   4.712
 8934TIP3   OH226744   0.152   0.113   0.657
 8934TIP3    H126745   0.079   0.109   0.594
 8934TIP3    H226746   0.230   0.118   0.602
 8935TIP3   OH226747   3.095   0.992   2.124
 8935TIP3    H126748   3.066   1.082   2.139
 8935TIP3    H226749   3.015   0.944   2.100
 8936TIP3   OH226750   5.753   6.809   0.552
 8936TIP3    H126751   5.827   6.754   0.526
 8936TIP3    H226752   5.786   6.899   0.544
 8937TIP3   OH226753   0.938   5.398   2.954
 8937TIP3    H126754   0.860   5.367   2.907
 8937TIP3    H226755   0.903   5.455   3.023
 8938TIP3   OH226756   1.744   3.191   0.181
 8938TIP3    H126757   1.787   3.160   0.101
 8938TIP3    H226758   1.782   3.278   0.196
 8939TIP3   OH226759   4.844   1.934   5.904
 8939TIP3    H126760   4.795   1.857   5.877
 8939TIP3    H226761   4.913   1.943   5.838
 8940TIP3   OH226762   7.251   0.409   1.705
 8940TIP3    H126763   7.296   0.394   1.622
 8940TIP3    H226764   7.318   0.444   1.763
 8941TIP3   OH226765   1.919   2.592   2.275
 8941TIP3    H126766   1.901   2.685   2.263
 8941TIP3    H226767   1.887   2.551   2.195
 8942TIP3   OH226768   5.686   6.433   6.019
 8942TIP3    H126769   5.716   6.467   5.934
 8942TIP3    H226770   5.766   6.415   6.068
 8943TIP3   OH226771   3.945   4.714   1.486
 8943TIP3    H126772   3.935   4.660   1.407
 8943TIP3    H226773   4.026   4.683   1.526
 8944TIP3   OH226774   7.221   3.033   1.481
 8944TIP3    H126775   7.277   3.072   1.413
 8944TIP3    H226776   7.228   3.093   1.555
 8945TIP3   OH226777   2.710   3.750   1.146
 8945TIP3    H126778   2.705   3.758   1.241
 8945TIP3    H226779   2.785   3.805   1.122
 8946TIP3   OH226780   7.355   7.075   5.509
 8946TIP3    H126781   7.332   7.083   5.602
 8946TIP3    H226782   7.451   7.070   5.509
 8947TIP3   OH226783   1.366   1.588   2.662
 8947TIP3    H126784   1.442   1.567   2.607
 8947TIP3    H226785   1.393   1.564   2.751
 8948TIP3   OH226786   2.975   3.293   2.060
 8948TIP3    H126787   2.997   3.280   2.152
 8948TIP3    H226788   2.879   3.286   2.057
 8949TIP3   OH226789   4.441   7.775   5.146
 8949TIP3    H126790   4.424   7.692   5.191
 8949TIP3    H226791   4.368   7.832   5.171
 8950TIP3   OH226792   3.171   1.922   1.892
 8950TIP3    H126793   3.154   1.892   1.981
 8950TIP3    H226794   3.260   1.894   1.873
 8951TIP3   OH226795   8.221   2.464   3.604
 8951TIP3    H126796   8.207   2.370   3.595
 8951TIP3    H226797   8.137   2.503   3.580
 8952TIP3   OH226798   6.165   5.139   4.557
 8952TIP3    H126799   6.176   5.191   4.637
 8952TIP3    H226800   6.169   5.048   4.587
 8953TIP3   OH226801   0.790   5.666   2.096
 8953TIP3    H126802   0.764   5.574   2.107
 8953TIP3    H226803   0.759   5.710   2.175
 8954TIP3   OH226804   0.183   6.862   3.784
 8954TIP3    H126805   0.230   6.802   3.842
 8954TIP3    H226806   0.218   6.845   3.697
 8955TIP3   OH226807   7.971   6.531   6.060
 8955TIP3    H126808   7.895   6.475   6.075
 8955TIP3    H226809   8.046   6.477   6.085
 8956TIP3   OH226810   6.837   0.350   3.316
 8956TIP3    H126811   6.804   0.395   3.393
 8956TIP3    H226812   6.815   0.407   3.243
 8957TIP3   OH226813   3.724   6.228   1.909
 8957TIP3    H126814   3.785   6.271   1.969
 8957TIP3    H226815   3.778   6.206   1.833
 8958TIP3   OH226816   4.007   4.796   6.583
 8958TIP3    H126817   4.042   4.747   6.657
 8958TIP3    H226818   3.983   4.881   6.619
 8959TIP3   OH226819   2.888   0.840   0.085
 8959TIP3    H126820   2.851   0.887   0.159
 8959TIP3    H226821   2.848   0.881   0.008
 8960TIP3   OH226822   2.428   3.477   0.346
 8960TIP3    H126823   2.445   3.568   0.368
 8960TIP3    H226824   2.366   3.481   0.273
 8961TIP3   OH226825   3.873   5.468   4.726
 8961TIP3    H126826   3.891   5.405   4.796
 8961TIP3    H226827   3.821   5.537   4.769
 8962TIP3   OH226828   6.627   6.080   1.658
 8962TIP3    H126829   6.649   6.030   1.579
 8962TIP3    H226830   6.537   6.055   1.678
 8963TIP3   OH226831   5.632   2.269   5.179
 8963TIP3    H126832   5.637   2.296   5.088
 8963TIP3    H226833   5.644   2.174   5.177
 8964TIP3   OH226834   5.933   4.331   4.174
 8964TIP3    H126835   5.890   4.384   4.107
 8964TIP3    H226836   5.873   4.333   4.248
 8965TIP3   OH226837   1.123   4.341   6.442
 8965TIP3    H126838   1.087   4.360   6.355
 8965TIP3    H226839   1.215   4.320   6.427
 8966TIP3   OH226840   0.619   4.918   4.615
 8966TIP3    H126841   0.586   4.932   4.526
 8966TIP3    H226842   0.714   4.913   4.605
 8967TIP3   OH226843   7.605   0.587   0.701
 8967TIP3    H126844   7.686   0.636   0.716
 8967TIP3    H226845   7.624   0.531   0.627
 8968TIP3   OH226846   1.200   7.089   4.732
 8968TIP3    H126847   1.284   7.112   4.771
 8968TIP3    H226848   1.184   6.999   4.761
 8969TIP3   OH226849   5.025   6.765   4.165
 8969TIP3    H126850   4.980   6.826   4.107
 8969TIP3    H226851   4.995   6.678   4.135
 8970TIP3   OH226852   7.934   6.326   4.402
 8970TIP3    H126853   8.028   6.323   4.423
 8970TIP3    H226854   7.917   6.418   4.382
 8971TIP3   OH226855   1.423   3.126   2.355
 8971TIP3    H126856   1.454   3.195   2.414
 8971TIP3    H226857   1.356   3.080   2.406
 8972TIP3   OH226858   3.362   2.983   6.096
 8972TIP3    H126859   3.282   3.000   6.047
 8972TIP3    H226860   3.367   3.054   6.160
 8973TIP3   OH226861   4.482   7.536   4.920
 8973TIP3    H126862   4.487   7.569   5.010
 8973TIP3    H226863   4.436   7.605   4.871
 8974TIP3   OH226864   1.378   0.549   4.751
 8974TIP3    H126865   1.292   0.509   4.758
 8974TIP3    H226866   1.439   0.476   4.761
 8975TIP3   OH226867   4.330   1.188   5.927
 8975TIP3    H126868   4.317   1.095   5.949
 8975TIP3    H226869   4.265   1.205   5.859
 8976TIP3   OH226870   6.556   1.496   3.491
 8976TIP3    H126871   6.525   1.437   3.422
 8976TIP3    H226872   6.521   1.459   3.572
 8977TIP3   OH226873   6.222   2.462   3.182
 8977TIP3    H126874   6.205   2.556   3.180
 8977TIP3    H226875   6.316   2.455   3.162
 8978TIP3   OH226876   6.378   5.315   5.977
 8978TIP3    H126877   6.474   5.314   5.976
 8978TIP3    H226878   6.354   5.365   5.899
 8979TIP3   OH226879   5.343   5.470   5.637
 8979TIP3    H126880   5.436   5.445   5.637
 8979TIP3    H226881   5.303   5.410   5.700
 8980TIP3   OH226882   1.266   2.460   5.566
 8980TIP3    H126883   1.281   2.540   5.515
 8980TIP3    H226884   1.280   2.487   5.657
 8981TIP3   OH226885   5.576   4.171   0.033
 8981TIP3    H126886   5.551   4.222  -0.044
 8981TIP3    H226887   5.492   4.152   0.077
 8982TIP3   OH226888   6.587   0.602   0.686
 8982TIP3    H126889   6.636   0.534   0.732
 8982TIP3    H226890   6.629   0.609   0.601
 8983TIP3   OH226891   2.581   2.066   3.135
 8983TIP3    H126892   2.507   2.007   3.120
 8983TIP3    H226893   2.611   2.089   3.047
 8984TIP3   OH226894   6.769   2.842   6.506
 8984TIP3    H126895   6.733   2.798   6.429
 8984TIP3    H226896   6.829   2.779   6.545
 8985TIP3   OH226897   0.538   1.447   0.816
 8985TIP3    H126898   0.508   1.360   0.844
 8985TIP3    H226899   0.627   1.433   0.784
 8986TIP3   OH226900   2.406   1.747   0.497
 8986TIP3    H126901   2.322   1.704   0.513
 8986TIP3    H226902   2.462   1.718   0.569
 8987TIP3   OH226903   4.667   5.631   0.554
 8987TIP3    H126904   4.755   5.669   0.550
 8987TIP3    H226905   4.669   5.574   0.631
 8988TIP3   OH226906   5.434   3.188   4.812
 8988TIP3    H126907   5.375   3.117   4.837
 8988TIP3    H226908   5.387   3.235   4.743
 8989TIP3   OH226909   8.303   2.657   5.088
 8989TIP3    H126910   8.247   2.734   5.075
 8989TIP3    H226911   8.292   2.635   5.181
 8990TIP3   OH226912   1.619   4.002   0.465
 8990TIP3    H126913   1.661   3.948   0.398
 8990TIP3    H226914   1.563   3.942   0.514
 8991TIP3   OH226915   2.050   3.648   2.046
 8991TIP3    H126916   2.029   3.614   2.133
 8991TIP3    H226917   2.034   3.574   1.987
 8992TIP3   OH226918   6.825   4.423   2.621
 8992TIP3    H126919   6.798   4.368   2.694
 8992TIP3    H226920   6.895   4.478   2.657
 8993TIP3   OH226921   3.545   7.345   6.123
 8993TIP3    H126922   3.529   7.291   6.045
 8993TIP3    H226923   3.462   7.390   6.139
 8994TIP3   OH226924   2.933   3.126   4.090
 8994TIP3    H126925   3.016   3.097   4.052
 8994TIP3    H226926   2.875   3.139   4.015
 8995TIP3   OH226927   7.320   3.301   5.637
 8995TIP3    H126928   7.369   3.383   5.628
 8995TIP3    H226929   7.374   3.248   5.697
 8996TIP3   OH226930   6.134   4.628   6.271
 8996TIP3    H126931   6.061   4.614   6.331
 8996TIP3    H226932   6.127   4.719   6.244
 8997TIP3   OH226933   3.609   7.781   2.810
 8997TIP3    H126934   3.562   7.785   2.893
 8997TIP3    H226935   3.573   7.853   2.758
 8998TIP3   OH226936   2.941   0.648   4.087
 8998TIP3    H126937   2.901   0.578   4.138
 8998TIP3    H226938   2.894   0.647   4.004
 8999TIP3   OH226939   6.846   3.819   4.064
 8999TIP3    H126940   6.921   3.845   4.010
 8999TIP3    H226941   6.876   3.831   4.154
 9000TIP3   OH226942   4.522   3.710   3.815
 9000TIP3    H126943   4.506   3.797   3.777
 9000TIP3    H226944   4.505   3.722   3.909
 9001TIP3   OH226945   5.629   1.466   5.172
 9001TIP3    H126946   5.702   1.470   5.111
 9001TIP3    H226947   5.559   1.425   5.123
 9002TIP3   OH226948   5.945   2.642   0.027
 9002TIP3    H126949   5.857   2.675   0.044
 9002TIP3    H226950   6.003   2.705   0.069
 9003TIP3   OH226951   0.777   7.029   2.439
 9003TIP3    H126952   0.770   7.081   2.359
 9003TIP3    H226953   0.742   7.086   2.508
 9004TIP3   OH226954   0.066   5.909   3.402
 9004TIP3    H126955   0.122   5.908   3.480
 9004TIP3    H226956  -0.023   5.912   3.435
 9005TIP3   OH226957   6.753   7.186   0.393
 9005TIP3    H126958   6.690   7.252   0.421
 9005TIP3    H226959   6.723   7.105   0.433
 9006TIP3   OH226960   5.115   5.430   2.847
 9006TIP3    H126961   5.026   5.465   2.847
 9006TIP3    H226962   5.169   5.500   2.884
 9007TIP3   OH226963   0.759   3.340   6.017
 9007TIP3    H126964   0.678   3.290   6.017
 9007TIP3    H226965   0.761   3.382   5.930
 9008TIP3   OH226966   3.224   6.720   5.166
 9008TIP3    H126967   3.302   6.761   5.129
 9008TIP3    H226968   3.171   6.793   5.197
 9009TIP3   OH226969   7.335   2.974   5.281
 9009TIP3    H126970   7.411   2.983   5.223
 9009TIP3    H226971   7.263   2.950   5.223
 9010TIP3   OH226972   5.794   0.590   5.196
 9010TIP3    H126973   5.850   0.631   5.262
 9010TIP3    H226974   5.744   0.663   5.159
 9011TIP3   OH226975   3.685   3.000   3.518
 9011TIP3    H126976   3.739   3.020   3.441
 9011TIP3    H226977   3.708   3.068   3.582
 9012TIP3   OH226978   7.225   2.783   3.904
 9012TIP3    H126979   7.246   2.752   3.816
 9012TIP3    H226980   7.147   2.734   3.929
 9013TIP3   OH226981   3.115   1.002   0.042
 9013TIP3    H126982   3.189   0.943   0.036
 9013TIP3    H226983   3.041   0.952   0.008
 9014TIP3   OH226984   3.657   3.861   3.165
 9014TIP3    H126985   3.698   3.775   3.161
 9014TIP3    H226986   3.567   3.847   3.136
 9015TIP3   OH226987   3.009   6.608   0.680
 9015TIP3    H126988   2.991   6.607   0.586
 9015TIP3    H226989   3.052   6.692   0.696
 9016TIP3   OH226990   3.241   3.391   1.264
 9016TIP3    H126991   3.292   3.361   1.189
 9016TIP3    H226992   3.305   3.404   1.334
 9017TIP3   OH226993   3.065   5.014   5.450
 9017TIP3    H126994   3.140   4.953   5.454
 9017TIP3    H226995   2.995   4.968   5.496
 9018TIP3   OH226996   4.892   7.342   0.731
 9018TIP3    H126997   4.959   7.382   0.674
 9018TIP3    H226998   4.836   7.416   0.757
 9019TIP3   OH226999   2.332   2.047   6.000
 9019TIP3    H127000   2.299   2.117   5.944
 9019TIP3    H227001   2.375   1.986   5.940
 9020TIP3   OH227002   3.730   1.945   4.710
 9020TIP3    H127003   3.773   1.957   4.795
 9020TIP3    H227004   3.637   1.946   4.730
 9021TIP3   OH227005   7.997   1.468   1.985
 9021TIP3    H127006   7.973   1.561   1.989
 9021TIP3    H227007   7.989   1.445   1.892
 9022TIP3   OH227008   1.376   4.676   6.435
 9022TIP3    H127009   1.348   4.615   6.503
 9022TIP3    H227010   1.452   4.634   6.395
 9023TIP3   OH227011   2.215   7.397   4.211
 9023TIP3    H127012   2.197   7.487   4.238
 9023TIP3    H227013   2.310   7.387   4.220
 9024TIP3   OH227014   2.884   1.975   2.660
 9024TIP3    H127015   2.904   1.882   2.646
 9024TIP3    H227016   2.967   2.020   2.645
 9025TIP3   OH227017   3.131   7.698   4.393
 9025TIP3    H127018   3.187   7.775   4.382
 9025TIP3    H227019   3.081   7.693   4.312
 9026TIP3   OH227020   6.633   0.187   3.389
 9026TIP3    H127021   6.657   0.161   3.300
 9026TIP3    H227022   6.716   0.213   3.430
 9027TIP3   OH227023   4.291   3.383   0.397
 9027TIP3    H127024   4.321   3.464   0.438
 9027TIP3    H227025   4.237   3.341   0.464
 9028TIP3   OH227026   2.824   4.949   2.573
 9028TIP3    H127027   2.790   4.998   2.648
 9028TIP3    H227028   2.818   4.857   2.601
 9029TIP3   OH227029   5.229   5.327   2.153
 9029TIP3    H127030   5.316   5.324   2.113
 9029TIP3    H227031   5.245   5.319   2.247
 9030TIP3   OH227032   0.446   0.891   1.246
 9030TIP3    H127033   0.527   0.877   1.196
 9030TIP3    H227034   0.463   0.851   1.331
 9031TIP3   OH227035   2.176   6.301   2.921
 9031TIP3    H127036   2.256   6.253   2.939
 9031TIP3    H227037   2.154   6.279   2.831
 9032TIP3   OH227038   0.573   7.514   4.297
 9032TIP3    H127039   0.601   7.555   4.215
 9032TIP3    H227040   0.641   7.450   4.317
 9033TIP3   OH227041   4.848   2.399   2.356
 9033TIP3    H127042   4.841   2.441   2.442
 9033TIP3    H227043   4.941   2.408   2.333
 9034TIP3   OH227044   1.516   5.164   4.320
 9034TIP3    H127045   1.492   5.201   4.236
 9034TIP3    H227046   1.526   5.240   4.378
 9035TIP3   OH227047   1.673   3.530   6.680
 9035TIP3    H127048   1.678   3.505   6.772
 9035TIP3    H227049   1.589   3.496   6.649
 9036TIP3   OH227050   5.199   5.452   4.513
 9036TIP3    H127051   5.187   5.396   4.589
 9036TIP3    H227052   5.155   5.406   4.442
 9037TIP3   OH227053   6.037   5.618   3.795
 9037TIP3    H127054   6.104   5.570   3.747
 9037TIP3    H227055   6.025   5.569   3.876
 9038TIP3   OH227056   6.214   3.514   6.512
 9038TIP3    H127057   6.218   3.455   6.587
 9038TIP3    H227058   6.229   3.458   6.436
 9039TIP3   OH227059   5.092   6.067   0.854
 9039TIP3    H127060   5.048   5.982   0.858
 9039TIP3    H227061   5.037   6.120   0.796
 9040TIP3   OH227062   0.296   0.028   1.168
 9040TIP3    H127063   0.280   0.056   1.077
 9040TIP3    H227064   0.324   0.108   1.213
 9041TIP3   OH227065   3.725   7.652   0.751
 9041TIP3    H127066   3.749   7.677   0.840
 9041TIP3    H227067   3.644   7.602   0.761
 9042TIP3   OH227068   3.951   2.917   2.783
 9042TIP3    H127069   3.859   2.945   2.781
 9042TIP3    H227070   4.001   2.999   2.787
 9043TIP3   OH227071   6.478   3.769   2.029
 9043TIP3    H127072   6.497   3.857   1.996
 9043TIP3    H227073   6.396   3.778   2.077
 9044TIP3   OH227074   1.574   5.836   1.440
 9044TIP3    H127075   1.497   5.855   1.494
 9044TIP3    H227076   1.599   5.921   1.404
 9045TIP3   OH227077   0.790   7.050   4.068
 9045TIP3    H127078   0.762   7.139   4.090
 9045TIP3    H227079   0.872   7.040   4.116
 9046TIP3   OH227080   1.281   7.660   1.913
 9046TIP3    H127081   1.363   7.612   1.909
 9046TIP3    H227082   1.222   7.603   1.962
 9047TIP3   OH227083   1.915   3.631   0.624
 9047TIP3    H127084   1.957   3.700   0.676
 9047TIP3    H227085   1.986   3.570   0.604
 9048TIP3   OH227086   3.424   0.470   4.209
 9048TIP3    H127087   3.357   0.433   4.266
 9048TIP3    H227088   3.467   0.537   4.262
 9049TIP3   OH227089   6.296   4.220   2.801
 9049TIP3    H127090   6.291   4.188   2.711
 9049TIP3    H227091   6.207   4.211   2.835
 9050TIP3   OH227092   0.206   0.503   6.659
 9050TIP3    H127093   0.198   0.582   6.604
 9050TIP3    H227094   0.196   0.535   6.748
 9051TIP3   OH227095   2.053   6.308   0.773
 9051TIP3    H127096   2.116   6.380   0.779
 9051TIP3    H227097   2.047   6.274   0.862
 9052TIP3   OH227098   2.786   5.079   3.728
 9052TIP3    H127099   2.798   5.149   3.792
 9052TIP3    H227100   2.856   5.016   3.747
 9053TIP3   OH227101   1.278   6.648   1.340
 9053TIP3    H127102   1.303   6.731   1.380
 9053TIP3    H227103   1.273   6.587   1.414
 9054TIP3   OH227104   2.092   4.426   1.987
 9054TIP3    H127105   2.049   4.350   2.027
 9054TIP3    H227106   2.021   4.489   1.974
 9055TIP3   OH227107   4.850   7.804   4.616
 9055TIP3    H127108   4.840   7.735   4.681
 9055TIP3    H227109   4.766   7.848   4.613
 9056TIP3   OH227110   7.443   3.513   1.709
 9056TIP3    H127111   7.386   3.586   1.687
 9056TIP3    H227112   7.500   3.503   1.633
 9057TIP3   OH227113   0.392   2.030   0.768
 9057TIP3    H127114   0.457   1.984   0.822
 9057TIP3    H227115   0.316   1.972   0.768
 9058TIP3   OH227116   3.842   3.105   5.801
 9058TIP3    H127117   3.752   3.090   5.831
 9058TIP3    H227118   3.892   3.033   5.839
 9059TIP3   OH227119   2.016   5.550   1.916
 9059TIP3    H127120   2.105   5.515   1.909
 9059TIP3    H227121   1.961   5.472   1.929
 9060TIP3   OH227122   4.874   3.674   3.179
 9060TIP3    H127123   4.885   3.736   3.251
 9060TIP3    H227124   4.822   3.603   3.216
 9061TIP3   OH227125   1.055   5.047   5.629
 9061TIP3    H127126   1.076   4.964   5.672
 9061TIP3    H227127   1.037   5.108   5.700
 9062TIP3   OH227128   2.375   6.570   1.843
 9062TIP3    H127129   2.411   6.484   1.823
 9062TIP3    H227130   2.331   6.597   1.763
 9063TIP3   OH227131   7.207   5.494   6.276
 9063TIP3    H127132   7.167   5.580   6.266
 9063TIP3    H227133   7.178   5.444   6.200
 9064TIP3   OH227134   3.932   3.342   2.387
 9064TIP3    H127135   3.915   3.349   2.293
 9064TIP3    H227136   4.013   3.392   2.401
 9065TIP3   OH227137   3.883   6.597   4.535
 9065TIP3    H127138   3.792   6.612   4.513
 9065TIP3    H227139   3.899   6.652   4.612
 9066TIP3   OH227140   7.825   1.154   4.426
 9066TIP3    H127141   7.782   1.207   4.359
 9066TIP3    H227142   7.784   1.182   4.509
 9067TIP3   OH227143   5.881   6.313   5.455
 9067TIP3    H127144   5.883   6.273   5.369
 9067TIP3    H227145   5.788   6.329   5.472
 9068TIP3   OH227146   0.418   5.929   2.446
 9068TIP3    H127147   0.408   5.834   2.435
 9068TIP3    H227148   0.343   5.966   2.399
 9069TIP3   OH227149   1.712   4.242   1.143
 9069TIP3    H127150   1.662   4.278   1.070
 9069TIP3    H227151   1.783   4.193   1.101
 9070TIP3   OH227152   1.841   4.455   4.018
 9070TIP3    H127153   1.804   4.406   3.945
 9070TIP3    H227154   1.924   4.490   3.984
 9071TIP3   OH227155   3.605   6.476   2.143
 9071TIP3    H127156   3.533   6.417   2.165
 9071TIP3    H227157   3.684   6.426   2.162
 9072TIP3   OH227158   8.200   3.140   2.671
 9072TIP3    H127159   8.136   3.205   2.701
 9072TIP3    H227160   8.226   3.171   2.584
 9073TIP3   OH227161   6.830   4.558   2.938
 9073TIP3    H127162   6.836   4.632   2.998
 9073TIP3    H227163   6.736   4.545   2.925
 9074TIP3   OH227164   8.183   2.486   2.944
 9074TIP3    H127165   8.125   2.559   2.965
 9074TIP3    H227166   8.150   2.453   2.860
 9075TIP3   OH227167   7.715   3.740   6.598
 9075TIP3    H127168   7.795   3.756   6.648
 9075TIP3    H227169   7.644   3.752   6.662
 9076TIP3   OH227170   2.993   3.178   4.357
 9076TIP3    H127171   2.902   3.168   4.383
 9076TIP3    H227172   2.991   3.176   4.261
 9077TIP3   OH227173   0.051   1.872   6.706
 9077TIP3    H127174  -0.025   1.832   6.662
 9077TIP3    H227175   0.017   1.904   6.789
 9078TIP3   OH227176   2.131   0.316   3.741
 9078TIP3    H127177   2.146   0.321   3.835
 9078TIP3    H227178   2.066   0.247   3.731
 9079TIP3   OH227179   5.106   2.117   6.700
 9079TIP3    H127180   5.114   2.129   6.605
 9079TIP3    H227181   5.079   2.026   6.711
 9080TIP3   OH227182   4.716   4.445   0.301
 9080TIP3    H127183   4.727   4.353   0.324
 9080TIP3    H227184   4.650   4.478   0.361
 9081TIP3   OH227185   2.462   2.690   3.456
 9081TIP3    H127186   2.479   2.741   3.535
 9081TIP3    H227187   2.541   2.638   3.443
 9082TIP3   OH227188   2.736   0.457   0.565
 9082TIP3    H127189   2.810   0.413   0.607
 9082TIP3    H227190   2.733   0.543   0.607
 9083TIP3   OH227191   0.564   2.690   2.714
 9083TIP3    H127192   0.639   2.731   2.758
 9083TIP3    H227193   0.559   2.602   2.752
 9084TIP3   OH227194   8.013   0.517   3.584
 9084TIP3    H127195   8.019   0.611   3.570
 9084TIP3    H227196   8.068   0.480   3.515
 9085TIP3   OH227197   7.283   4.805   1.181
 9085TIP3    H127198   7.240   4.746   1.120
 9085TIP3    H227199   7.233   4.887   1.175
 9086TIP3   OH227200   4.037   0.532   5.753
 9086TIP3    H127201   3.998   0.609   5.794
 9086TIP3    H227202   4.094   0.567   5.685
 9087TIP3   OH227203   0.034   6.909   0.039
 9087TIP3    H127204   0.100   6.871   0.098
 9087TIP3    H227205   0.024   6.999   0.070
 9088TIP3   OH227206   3.803   7.700   3.541
 9088TIP3    H127207   3.791   7.724   3.449
 9088TIP3    H227208   3.898   7.686   3.550
 9089TIP3   OH227209   6.713   0.792   4.022
 9089TIP3    H127210   6.620   0.775   4.037
 9089TIP3    H227211   6.743   0.836   4.101
 9090TIP3   OH227212   6.506   7.749   5.961
 9090TIP3    H127213   6.495   7.830   6.010
 9090TIP3    H227214   6.423   7.703   5.973
 9091TIP3   OH227215   3.937   0.975   1.155
 9091TIP3    H127216   3.993   1.047   1.184
 9091TIP3    H227217   3.884   0.954   1.232
 9092TIP3   OH227218   4.909   1.464   0.699
 9092TIP3    H127219   4.846   1.455   0.770
 9092TIP3    H227220   4.978   1.401   0.718
 9093TIP3   OH227221   7.063   6.596   0.841
 9093TIP3    H127222   7.131   6.542   0.882
 9093TIP3    H227223   7.079   6.587   0.747
 9094TIP3   OH227224   2.472   1.058   6.556
 9094TIP3    H127225   2.476   1.060   6.460
 9094TIP3    H227226   2.564   1.052   6.583
 9095TIP3   OH227227   5.564   5.060   6.367
 9095TIP3    H127228   5.644   5.052   6.315
 9095TIP3    H227229   5.568   5.149   6.403
 9096TIP3   OH227230   7.464   0.907   1.371
 9096TIP3    H127231   7.501   0.995   1.363
 9096TIP3    H227232   7.415   0.894   1.290
 9097TIP3   OH227233   6.687   1.923   1.335
 9097TIP3    H127234   6.649   1.900   1.420
 9097TIP3    H227235   6.640   1.868   1.272
 9098TIP3   OH227236   6.235   5.546   6.731
 9098TIP3    H127237   6.275   5.528   6.816
 9098TIP3    H227238   6.211   5.460   6.697
 9099TIP3   OH227239   2.485   1.722   4.529
 9099TIP3    H127240   2.473   1.627   4.524
 9099TIP3    H227241   2.516   1.747   4.442
 9100TIP3   OH227242   0.920   0.881   0.149
 9100TIP3    H127243   1.007   0.840   0.151
 9100TIP3    H227244   0.869   0.833   0.214
 9101TIP3   OH227245   0.577   4.688   0.071
 9101TIP3    H127246   0.503   4.629   0.082
 9101TIP3    H227247   0.643   4.656   0.133
 9102TIP3   OH227248   4.262   6.757   1.424
 9102TIP3    H127249   4.355   6.740   1.407
 9102TIP3    H227250   4.261   6.843   1.467
 9103TIP3   OH227251   2.654   2.628   4.325
 9103TIP3    H127252   2.717   2.625   4.253
 9103TIP3    H227253   2.681   2.703   4.378
 9104TIP3   OH227254   6.947   1.360   0.161
 9104TIP3    H127255   7.038   1.330   0.161
 9104TIP3    H227256   6.901   1.299   0.219
 9105TIP3   OH227257   3.300   2.450   0.630
 9105TIP3    H127258   3.262   2.461   0.717
 9105TIP3    H227259   3.298   2.538   0.592
 9106TIP3   OH227260   1.322   4.774   1.427
 9106TIP3    H127261   1.306   4.865   1.404
 9106TIP3    H227262   1.257   4.755   1.495
 9107TIP3   OH227263   6.223   4.147   2.531
 9107TIP3    H127264   6.237   4.134   2.437
 9107TIP3    H227265   6.170   4.071   2.557
 9108TIP3   OH227266   0.698   2.727   5.634
 9108TIP3    H127267   0.765   2.773   5.583
 9108TIP3    H227268   0.615   2.757   5.596
 9109TIP3   OH227269   4.830   4.252   5.864
 9109TIP3    H127270   4.902   4.254   5.927
 9109TIP3    H227271   4.859   4.190   5.797
 9110TIP3   OH227272   3.974   3.959   0.314
 9110TIP3    H127273   4.028   3.883   0.294
 9110TIP3    H227274   3.904   3.956   0.248
 9111TIP3   OH227275   8.116   0.633   2.764
 9111TIP3    H127276   8.083   0.695   2.699
 9111TIP3    H227277   8.183   0.583   2.718
 9112TIP3   OH227278   2.738   0.921   6.202
 9112TIP3    H127279   2.747   0.854   6.135
 9112TIP3    H227280   2.658   0.898   6.249
 9113TIP3   OH227281   4.024   3.596   6.717
 9113TIP3    H127282   3.993   3.684   6.736
 9113TIP3    H227283   4.010   3.547   6.798
 9114TIP3   OH227284   3.515   3.100   4.675
 9114TIP3    H127285   3.550   3.143   4.597
 9114TIP3    H227286   3.477   3.171   4.726
 9115TIP3   OH227287   0.963   6.726   2.665
 9115TIP3    H127288   0.901   6.784   2.710
 9115TIP3    H227289   0.908   6.657   2.629
 9116TIP3   OH227290   5.668   5.748   0.549
 9116TIP3    H127291   5.745   5.695   0.528
 9116TIP3    H227292   5.655   5.736   0.643
 9117TIP3   OH227293   1.720   6.658   2.456
 9117TIP3    H127294   1.798   6.626   2.501
 9117TIP3    H227295   1.717   6.607   2.374
 9118TIP3   OH227296   5.446   4.542   4.429
 9118TIP3    H127297   5.478   4.461   4.469
 9118TIP3    H227298   5.422   4.597   4.504
 9119TIP3   OH227299   5.810   3.693   3.161
 9119TIP3    H127300   5.819   3.772   3.107
 9119TIP3    H227301   5.888   3.694   3.217
 9120TIP3   OH227302   4.430   4.233   3.044
 9120TIP3    H127303   4.470   4.237   2.957
 9120TIP3    H227304   4.473   4.159   3.087
 9121TIP3   OH227305   3.304   5.868   4.810
 9121TIP3    H127306   3.393   5.850   4.838
 9121TIP3    H227307   3.250   5.852   4.888
 9122TIP3   OH227308   4.627   2.353   0.355
 9122TIP3    H127309   4.577   2.271   0.349
 9122TIP3    H227310   4.589   2.409   0.288
 9123TIP3   OH227311   1.540   0.742   4.562
 9123TIP3    H127312   1.611   0.686   4.532
 9123TIP3    H227313   1.488   0.686   4.620
 9124TIP3   OH227314   5.100   0.445   3.899
 9124TIP3    H127315   5.157   0.501   3.952
 9124TIP3    H227316   5.015   0.488   3.900
 9125TIP3   OH227317   2.677   6.813   5.142
 9125TIP3    H127318   2.593   6.839   5.182
 9125TIP3    H227319   2.674   6.850   5.054
 9126TIP3   OH227320   3.436   6.062   3.650
 9126TIP3    H127321   3.518   6.026   3.683
 9126TIP3    H227322   3.435   6.040   3.557
 9127TIP3   OH227323   2.642   6.050   1.224
 9127TIP3    H127324   2.637   5.977   1.163
 9127TIP3    H227325   2.589   6.119   1.183
 9128TIP3   OH227326   0.863   3.540   2.625
 9128TIP3    H127327   0.846   3.489   2.704
 9128TIP3    H227328   0.903   3.478   2.564
 9129TIP3   OH227329   6.057   7.616   5.876
 9129TIP3    H127330   5.972   7.656   5.858
 9129TIP3    H227331   6.037   7.525   5.896
 9130TIP3   OH227332   1.731   7.443   3.214
 9130TIP3    H127333   1.747   7.353   3.243
 9130TIP3    H227334   1.702   7.434   3.123
 9131TIP3   OH227335   4.978   4.761   1.862
 9131TIP3    H127336   5.062   4.805   1.848
 9131TIP3    H227337   5.001   4.676   1.901
 9132TIP3   OH227338   4.887   1.760   1.796
 9132TIP3    H127339   4.924   1.798   1.875
 9132TIP3    H227340   4.863   1.836   1.742
 9133TIP3   OH227341   4.951   6.255   2.996
 9133TIP3    H127342   5.004   6.331   3.022
 9133TIP3    H227343   4.872   6.292   2.958
 9134TIP3   OH227344   4.660   7.586   0.448
 9134TIP3    H127345   4.754   7.569   0.442
 9134TIP3    H227346   4.622   7.500   0.468
 9135TIP3   OH227347   6.388   7.664   3.727
 9135TIP3    H127348   6.410   7.742   3.676
 9135TIP3    H227349   6.298   7.679   3.756
 9136TIP3   OH227350   3.315   2.878   4.525
 9136TIP3    H127351   3.295   2.961   4.482
 9136TIP3    H227352   3.399   2.893   4.569
 9137TIP3   OH227353   3.270   4.348   1.979
 9137TIP3    H127354   3.210   4.276   1.999
 9137TIP3    H227355   3.218   4.407   1.924
 9138TIP3   OH227356   7.975   5.208   3.270
 9138TIP3    H127357   8.028   5.241   3.343
 9138TIP3    H227358   7.990   5.270   3.200
 9139TIP3   OH227359   4.976   5.605   4.403
 9139TIP3    H127360   4.935   5.521   4.384
 9139TIP3    H227361   4.945   5.628   4.491
 9140TIP3   OH227362   4.440   7.713   2.250
 9140TIP3    H127363   4.412   7.622   2.261
 9140TIP3    H227364   4.412   7.757   2.330
 9141TIP3   OH227365   7.407   0.432   5.685
 9141TIP3    H127366   7.319   0.468   5.682
 9141TIP3    H227367   7.400   0.345   5.645
 9142TIP3   OH227368   1.927   7.397   3.656
 9142TIP3    H127369   1.943   7.361   3.569
 9142TIP3    H227370   1.925   7.320   3.713
 9143TIP3   OH227371   0.966   0.388   0.013
 9143TIP3    H127372   0.884   0.344   0.035
 9143TIP3    H227373   0.950   0.481   0.030
 9144TIP3   OH227374   8.053   3.235   3.051
 9144TIP3    H127375   8.020   3.145   3.055
 9144TIP3    H227376   8.048   3.258   2.958
 9145TIP3   OH227377   0.892   2.805   0.324
 9145TIP3    H127378   0.958   2.835   0.387
 9145TIP3    H227379   0.927   2.723   0.289
 9146TIP3   OH227380   3.603   1.827   3.526
 9146TIP3    H127381   3.644   1.812   3.611
 9146TIP3    H227382   3.602   1.740   3.484
 9147TIP3   OH227383   7.081   5.647   1.193
 9147TIP3    H127384   7.121   5.662   1.108
 9147TIP3    H227385   7.037   5.562   1.185
 9148TIP3   OH227386   1.462   4.180   4.980
 9148TIP3    H127387   1.536   4.175   4.918
 9148TIP3    H227388   1.475   4.263   5.025
 9149TIP3   OH227389   6.760   4.735   5.024
 9149TIP3    H127390   6.712   4.817   5.017
 9149TIP3    H227391   6.717   4.687   5.095
 9150TIP3   OH227392   0.901   2.990   4.421
 9150TIP3    H127393   0.820   3.020   4.463
 9150TIP3    H227394   0.952   3.070   4.407
 9151TIP3   OH227395   3.588   4.984   5.481
 9151TIP3    H127396   3.618   4.991   5.571
 9151TIP3    H227397   3.546   4.898   5.476
 9152TIP3   OH227398   3.202   3.655   5.039
 9152TIP3    H127399   3.116   3.676   5.002
 9152TIP3    H227400   3.187   3.573   5.087
 9153TIP3   OH227401   2.331   5.938   1.914
 9153TIP3    H127402   2.281   5.901   1.841
 9153TIP3    H227403   2.307   6.031   1.915
 9154TIP3   OH227404   6.242   3.059   0.126
 9154TIP3    H127405   6.239   3.037   0.033
 9154TIP3    H227406   6.182   2.997   0.168
 9155TIP3   OH227407   2.653   3.055   4.901
 9155TIP3    H127408   2.588   3.017   4.961
 9155TIP3    H227409   2.721   3.089   4.959
 9156TIP3   OH227410   0.667   1.052   0.205
 9156TIP3    H127411   0.751   1.019   0.173
 9156TIP3    H227412   0.663   1.025   0.297
 9157TIP3   OH227413   1.657   1.343   3.331
 9157TIP3    H127414   1.633   1.365   3.421
 9157TIP3    H227415   1.734   1.398   3.313
 9158TIP3   OH227416   0.627   4.992   0.821
 9158TIP3    H127417   0.695   5.059   0.820
 9158TIP3    H227418   0.595   4.990   0.911
 9159TIP3   OH227419   8.187   4.000   1.915
 9159TIP3    H127420   8.139   4.071   1.958
 9159TIP3    H227421   8.199   3.934   1.983
 9160TIP3   OH227422   5.291   0.278   5.787
 9160TIP3    H127423   5.228   0.334   5.832
 9160TIP3    H227424   5.250   0.192   5.785
 9161TIP3   OH227425   3.670   5.489   5.173
 9161TIP3    H127426   3.680   5.581   5.200
 9161TIP3    H227427   3.577   5.472   5.179
 9162TIP3   OH227428   1.520   0.557   5.850
 9162TIP3    H127429   1.527   0.498   5.924
 9162TIP3    H227430   1.539   0.503   5.773
 9163TIP3   OH227431   1.543   2.067   5.043
 9163TIP3    H127432   1.537   1.971   5.042
 9163TIP3    H227433   1.475   2.096   4.982
 9164TIP3   OH227434   0.077   4.784   4.190
 9164TIP3    H127435   0.018   4.797   4.116
 9164TIP3    H227436   0.162   4.814   4.159
 9165TIP3   OH227437   4.403   2.158   1.612
 9165TIP3    H127438   4.337   2.206   1.563
 9165TIP3    H227439   4.364   2.072   1.627
 9166TIP3   OH227440   0.069   0.742   4.994
 9166TIP3    H127441  -0.003   0.742   5.057
 9166TIP3    H227442   0.055   0.663   4.942
 9167TIP3   OH227443   6.513   7.314   2.387
 9167TIP3    H127444   6.583   7.372   2.356
 9167TIP3    H227445   6.455   7.304   2.312
 9168TIP3   OH227446   4.750   7.219   0.221
 9168TIP3    H127447   4.821   7.251   0.166
 9168TIP3    H227448   4.786   7.220   0.310
 9169TIP3   OH227449   3.337   7.077   2.299
 9169TIP3    H127450   3.331   7.011   2.230
 9169TIP3    H227451   3.323   7.161   2.255
 9170TIP3   OH227452   0.896   5.657   4.909
 9170TIP3    H127453   0.972   5.609   4.876
 9170TIP3    H227454   0.862   5.604   4.980
 9171TIP3   OH227455   4.943   2.181   4.325
 9171TIP3    H127456   4.891   2.256   4.295
 9171TIP3    H227457   5.017   2.220   4.371
 9172TIP3   OH227458   3.406   4.346   1.604
 9172TIP3    H127459   3.489   4.299   1.598
 9172TIP3    H227460   3.357   4.318   1.527
 9173TIP3   OH227461   3.843   6.135   0.310
 9173TIP3    H127462   3.901   6.059   0.300
 9173TIP3    H227463   3.761   6.098   0.343
 9174TIP3   OH227464   7.244   5.163   5.013
 9174TIP3    H127465   7.231   5.119   5.097
 9174TIP3    H227466   7.313   5.112   4.970
 9175TIP3   OH227467   1.316   2.699   4.768
 9175TIP3    H127468   1.369   2.626   4.738
 9175TIP3    H227469   1.375   2.774   4.767
 9176TIP3   OH227470   5.675   5.681   1.530
 9176TIP3    H127471   5.702   5.679   1.438
 9176TIP3    H227472   5.589   5.638   1.530
 9177TIP3   OH227473   8.253   0.361   5.574
 9177TIP3    H127474   8.260   0.287   5.634
 9177TIP3    H227475   8.301   0.333   5.496
 9178TIP3   OH227476   5.456   6.895   5.809
 9178TIP3    H127477   5.434   6.938   5.726
 9178TIP3    H227478   5.371   6.875   5.849
 9179TIP3   OH227479   6.969   5.433   1.097
 9179TIP3    H127480   6.879   5.423   1.127
 9179TIP3    H227481   7.011   5.349   1.115
 9180TIP3   OH227482   6.357   4.573   1.969
 9180TIP3    H127483   6.365   4.530   2.054
 9180TIP3    H227484   6.288   4.524   1.924
 9181TIP3   OH227485   5.460   3.323   5.318
 9181TIP3    H127486   5.460   3.263   5.392
 9181TIP3    H227487   5.552   3.326   5.290
 9182TIP3   OH227488   5.435   6.376   5.200
 9182TIP3    H127489   5.349   6.351   5.165
 9182TIP3    H227490   5.447   6.322   5.277
 9183TIP3   OH227491   0.361   2.916   4.112
 9183TIP3    H127492   0.403   2.832   4.093
 9183TIP3    H227493   0.296   2.896   4.180
 9184TIP3   OH227494   1.149   7.040   4.252
 9184TIP3    H127495   1.226   6.984   4.266
 9184TIP3    H227496   1.111   7.049   4.340
 9185TIP3   OH227497   7.116   1.841   3.708
 9185TIP3    H127498   7.093   1.908   3.773
 9185TIP3    H227499   7.033   1.818   3.667
 9186TIP3   OH227500   4.126   0.348   2.445
 9186TIP3    H127501   4.081   0.376   2.525
 9186TIP3    H227502   4.066   0.373   2.374
 9187TIP3   OH227503   0.152   1.699   3.342
 9187TIP3    H127504   0.143   1.676   3.434
 9187TIP3    H227505   0.125   1.620   3.295
 9188TIP3   OH227506   2.247   2.977   2.949
 9188TIP3    H127507   2.184   3.041   2.917
 9188TIP3    H227508   2.193   2.904   2.980
 9189TIP3   OH227509   1.599   4.385   0.952
 9189TIP3    H127510   1.506   4.392   0.929
 9189TIP3    H227511   1.645   4.425   0.878
 9190TIP3   OH227512   3.913   6.692   1.889
 9190TIP3    H127513   3.826   6.685   1.928
 9190TIP3    H227514   3.897   6.724   1.800
 9191TIP3   OH227515   3.875   4.877   5.316
 9191TIP3    H127516   3.785   4.861   5.286
 9191TIP3    H227517   3.876   4.971   5.338
 9192TIP3   OH227518   7.028   4.399   2.364
 9192TIP3    H127519   7.102   4.454   2.337
 9192TIP3    H227520   7.058   4.354   2.443
 9193TIP3   OH227521   0.970   7.550   0.289
 9193TIP3    H127522   1.049   7.501   0.313
 9193TIP3    H227523   0.951   7.605   0.365
 9194TIP3   OH227524   1.677   7.278   0.817
 9194TIP3    H127525   1.714   7.350   0.767
 9194TIP3    H227526   1.614   7.319   0.876
 9195TIP3   OH227527   3.010   1.489   0.831
 9195TIP3    H127528   3.012   1.582   0.808
 9195TIP3    H227529   2.946   1.482   0.901
 9196TIP3   OH227530   3.470   1.319   0.803
 9196TIP3    H127531   3.549   1.337   0.853
 9196TIP3    H227532   3.501   1.286   0.719
 9197TIP3   OH227533   2.389   2.569   0.968
 9197TIP3    H127534   2.437   2.608   1.041
 9197TIP3    H227535   2.388   2.475   0.987
 9198TIP3   OH227536   0.575   4.151   6.190
 9198TIP3    H127537   0.592   4.195   6.107
 9198TIP3    H227538   0.650   4.094   6.203
 9199TIP3   OH227539   6.003   4.882   6.125
 9199TIP3    H127540   5.957   4.813   6.077
 9199TIP3    H227541   5.937   4.951   6.136
 9200TIP3   OH227542   7.134   4.603   1.056
 9200TIP3    H127543   7.074   4.595   0.982
 9200TIP3    H227544   7.077   4.598   1.133
 9201TIP3   OH227545   0.836   0.352   5.809
 9201TIP3    H127546   0.841   0.303   5.891
 9201TIP3    H227547   0.876   0.437   5.829
 9202TIP3   OH227548   5.018   4.464   0.441
 9202TIP3    H127549   5.067   4.383   0.431
 9202TIP3    H227550   5.085   4.533   0.446
 9203TIP3   OH227551   4.652   4.913   0.283
 9203TIP3    H127552   4.658   5.008   0.271
 9203TIP3    H227553   4.578   4.887   0.228
 9204TIP3   OH227554   0.236   5.446   2.219
 9204TIP3    H127555   0.219   5.428   2.311
 9204TIP3    H227556   0.330   5.430   2.208
 9205TIP3   OH227557   7.546   4.717   1.239
 9205TIP3    H127558   7.468   4.766   1.215
 9205TIP3    H227559   7.616   4.782   1.238
 9206TIP3   OH227560   7.527   7.199   0.083
 9206TIP3    H127561   7.473   7.154   0.149
 9206TIP3    H227562   7.464   7.227   0.017
 9207TIP3   OH227563   1.861   3.875   0.825
 9207TIP3    H127564   1.766   3.866   0.821
 9207TIP3    H227565   1.890   3.806   0.886
 9208TIP3   OH227566   2.429   7.178   2.679
 9208TIP3    H127567   2.500   7.142   2.625
 9208TIP3    H227568   2.379   7.234   2.620
 9209TIP3   OH227569   0.910   4.549   5.411
 9209TIP3    H127570   0.975   4.480   5.400
 9209TIP3    H227571   0.827   4.501   5.424
 9210TIP3   OH227572   6.600   2.164   2.207
 9210TIP3    H127573   6.661   2.125   2.269
 9210TIP3    H227574   6.518   2.115   2.220
 9211TIP3   OH227575   5.654   1.409   2.187
 9211TIP3    H127576   5.681   1.420   2.278
 9211TIP3    H227577   5.595   1.482   2.170
 9212TIP3   OH227578   0.273   4.342   3.388
 9212TIP3    H127579   0.293   4.262   3.437
 9212TIP3    H227580   0.201   4.317   3.330
 9213TIP3   OH227581   4.883   5.759   3.834
 9213TIP3    H127582   4.937   5.719   3.902
 9213TIP3    H227583   4.798   5.772   3.874
 9214TIP3   OH227584   4.103   6.723   4.724
 9214TIP3    H127585   4.066   6.804   4.690
 9214TIP3    H227586   4.177   6.751   4.778
 9215TIP3   OH227587   3.165   4.031   1.524
 9215TIP3    H127588   3.206   4.117   1.514
 9215TIP3    H227589   3.188   4.003   1.612
 9216TIP3   OH227590   3.671   7.310   5.274
 9216TIP3    H127591   3.614   7.254   5.221
 9216TIP3    H227592   3.707   7.373   5.212
 9217TIP3   OH227593   3.252   5.783   5.122
 9217TIP3    H127594   3.183   5.729   5.162
 9217TIP3    H227595   3.275   5.846   5.190
 9218TIP3   OH227596   0.777   7.765   5.289
 9218TIP3    H127597   0.713   7.836   5.288
 9218TIP3    H227598   0.727   7.689   5.317
 9219TIP3   OH227599   2.123   5.643   0.619
 9219TIP3    H127600   2.071   5.722   0.606
 9219TIP3    H227601   2.122   5.629   0.714
 9220TIP3   OH227602   3.734   3.004   1.198
 9220TIP3    H127603   3.708   2.965   1.115
 9220TIP3    H227604   3.704   2.941   1.264
 9221TIP3   OH227605   0.903   3.799   0.194
 9221TIP3    H127606   0.884   3.755   0.111
 9221TIP3    H227607   0.854   3.881   0.189
 9222TIP3   OH227608   3.128   0.937   3.317
 9222TIP3    H127609   3.136   1.027   3.348
 9222TIP3    H227610   3.147   0.941   3.224
 9223TIP3   OH227611   7.755   3.312   3.919
 9223TIP3    H127612   7.800   3.349   3.995
 9223TIP3    H227613   7.782   3.368   3.846
 9224TIP3   OH227614   2.320   0.748   3.901
 9224TIP3    H127615   2.256   0.680   3.878
 9224TIP3    H227616   2.332   0.738   3.995
 9225TIP3   OH227617   4.284   7.448   4.627
 9225TIP3    H127618   4.216   7.512   4.606
 9225TIP3    H227619   4.247   7.363   4.602
 9226TIP3   OH227620   2.018   4.147   5.725
 9226TIP3    H127621   2.074   4.122   5.799
 9226TIP3    H227622   1.986   4.234   5.747
 9227TIP3   OH227623   4.178   0.377   2.072
 9227TIP3    H127624   4.175   0.440   2.000
 9227TIP3    H227625   4.267   0.384   2.106
 9228TIP3   OH227626   3.475   2.530   3.705
 9228TIP3    H127627   3.558   2.525   3.658
 9228TIP3    H227628   3.456   2.624   3.710
 9229TIP3   OH227629   3.165   6.539   6.492
 9229TIP3    H127630   3.172   6.590   6.411
 9229TIP3    H227631   3.226   6.466   6.480
 9230TIP3   OH227632   4.075   4.055   2.875
 9230TIP3    H127633   3.986   4.059   2.840
 9230TIP3    H227634   4.073   4.113   2.952
 9231TIP3   OH227635   1.959   5.207   3.688
 9231TIP3    H127636   2.000   5.149   3.624
 9231TIP3    H227637   1.918   5.276   3.635
 9232TIP3   OH227638   0.917   0.582   5.939
 9232TIP3    H127639   1.012   0.593   5.936
 9232TIP3    H227640   0.881   0.668   5.918
 9233TIP3   OH227641   7.630   1.787   1.525
 9233TIP3    H127642   7.670   1.726   1.463
 9233TIP3    H227643   7.599   1.860   1.472
 9234TIP3   OH227644   2.165   2.302   0.675
 9234TIP3    H127645   2.257   2.281   0.691
 9234TIP3    H227646   2.120   2.218   0.686
 9235TIP3   OH227647   3.841   3.697   3.679
 9235TIP3    H127648   3.865   3.768   3.737
 9235TIP3    H227649   3.906   3.628   3.696
 9236TIP3   OH227650   2.348   0.806   0.958
 9236TIP3    H127651   2.368   0.787   1.050
 9236TIP3    H227652   2.262   0.850   0.962
 9237TIP3   OH227653   3.191   2.136   0.304
 9237TIP3    H127654   3.204   2.041   0.310
 9237TIP3    H227655   3.102   2.150   0.336
 9238TIP3   OH227656   3.767   3.063   6.159
 9238TIP3    H127657   3.723   2.980   6.179
 9238TIP3    H227658   3.855   3.053   6.195
 9239TIP3   OH227659   4.277   6.463   0.609
 9239TIP3    H127660   4.337   6.501   0.673
 9239TIP3    H227661   4.274   6.370   0.630
 9240TIP3   OH227662   5.896   4.781   2.161
 9240TIP3    H127663   5.821   4.825   2.121
 9240TIP3    H227664   5.950   4.753   2.087
 9241TIP3   OH227665   3.643   3.103   1.941
 9241TIP3    H127666   3.558   3.065   1.918
 9241TIP3    H227667   3.625   3.196   1.952
 9242TIP3   OH227668   7.124   0.361   3.087
 9242TIP3    H127669   7.193   0.427   3.087
 9242TIP3    H227670   7.146   0.303   3.160
 9243TIP3   OH227671   0.360   5.121   1.146
 9243TIP3    H127672   0.347   5.087   1.235
 9243TIP3    H227673   0.430   5.185   1.155
 9244TIP3   OH227674   6.004   1.040   4.280
 9244TIP3    H127675   5.958   1.116   4.245
 9244TIP3    H227676   5.945   1.004   4.346
 9245TIP3   OH227677   6.100   7.354   6.742
 9245TIP3    H127678   6.151   7.431   6.718
 9245TIP3    H227679   6.014   7.370   6.704
 9246TIP3   OH227680   6.198   0.126   0.822
 9246TIP3    H127681   6.192   0.207   0.873
 9246TIP3    H227682   6.288   0.125   0.789
 9247TIP3   OH227683   4.503   4.431   1.495
 9247TIP3    H127684   4.566   4.439   1.566
 9247TIP3    H227685   4.520   4.344   1.458
 9248TIP3   OH227686   3.901   3.301   4.236
 9248TIP3    H127687   3.984   3.312   4.283
 9248TIP3    H227688   3.880   3.389   4.205
 9249TIP3   OH227689   1.417   2.934   4.897
 9249TIP3    H127690   1.429   2.958   4.805
 9249TIP3    H227691   1.333   2.972   4.921
 9250TIP3   OH227692   3.180   7.677   0.346
 9250TIP3    H127693   3.154   7.627   0.269
 9250TIP3    H227694   3.111   7.659   0.410
 9251TIP3   OH227695   0.117   6.221   2.835
 9251TIP3    H127696   0.125   6.219   2.739
 9251TIP3    H227697   0.103   6.129   2.860
 9252TIP3   OH227698   0.054   5.338   4.502
 9252TIP3    H127699  -0.029   5.377   4.530
 9252TIP3    H227700   0.036   5.244   4.500
 9253TIP3   OH227701   2.250   4.157   2.239
 9253TIP3    H127702   2.235   4.063   2.226
 9253TIP3    H227703   2.341   4.171   2.214
 9254TIP3   OH227704   5.791   6.733   4.672
 9254TIP3    H127705   5.803   6.728   4.577
 9254TIP3    H227706   5.797   6.827   4.692
 9255TIP3   OH227707   3.646   6.699   1.967
 9255TIP3    H127708   3.609   6.648   1.895
 9255TIP3    H227709   3.641   6.640   2.042
 9256TIP3   OH227710   0.758   4.574   5.807
 9256TIP3    H127711   0.761   4.479   5.799
 9256TIP3    H227712   0.734   4.590   5.898
 9257TIP3   OH227713   0.932   4.755   0.480
 9257TIP3    H127714   0.904   4.820   0.416
 9257TIP3    H227715   0.876   4.771   0.556
 9258TIP3   OH227716   3.339   7.176   3.158
 9258TIP3    H127717   3.352   7.130   3.241
 9258TIP3    H227718   3.259   7.226   3.170
 9259TIP3   OH227719   7.401   1.177   4.254
 9259TIP3    H127720   7.449   1.260   4.255
 9259TIP3    H227721   7.320   1.197   4.206
 9260TIP3   OH227722   1.834   2.545   4.403
 9260TIP3    H127723   1.849   2.452   4.421
 9260TIP3    H227724   1.775   2.575   4.472
 9261TIP3   OH227725   1.858   1.764   5.831
 9261TIP3    H127726   1.904   1.681   5.817
 9261TIP3    H227727   1.889   1.794   5.916
 9262TIP3   OH227728   3.671   1.665   3.226
 9262TIP3    H127729   3.718   1.590   3.263
 9262TIP3    H227730   3.729   1.698   3.158
 9263TIP3   OH227731   7.477   0.123   5.331
 9263TIP3    H127732   7.524   0.192   5.285
 9263TIP3    H227733   7.508   0.042   5.291
 9264TIP3   OH227734   7.884   1.722   3.314
 9264TIP3    H127735   7.863   1.679   3.231
 9264TIP3    H227736   7.848   1.810   3.304
 9265TIP3   OH227737   8.073   2.317   6.632
 9265TIP3    H127738   8.018   2.386   6.670
 9265TIP3    H227739   8.097   2.350   6.545
 9266TIP3   OH227740   4.769   6.174   3.279
 9266TIP3    H127741   4.841   6.112   3.269
 9266TIP3    H227742   4.705   6.128   3.333
 9267TIP3   OH227743   0.424   0.391   2.071
 9267TIP3    H127744   0.378   0.343   2.002
 9267TIP3    H227745   0.408   0.483   2.049
 9268TIP3   OH227746   0.336   6.303   3.004
 9268TIP3    H127747   0.339   6.242   3.078
 9268TIP3    H227748   0.255   6.281   2.958
 9269TIP3   OH227749   1.325   5.240   3.866
 9269TIP3    H127750   1.301   5.147   3.862
 9269TIP3    H227751   1.419   5.240   3.883
 9270TIP3   OH227752   5.766   2.607   6.160
 9270TIP3    H127753   5.754   2.513   6.170
 9270TIP3    H227754   5.695   2.646   6.212
 9271TIP3   OH227755   0.727   7.725   1.998
 9271TIP3    H127756   0.818   7.739   1.972
 9271TIP3    H227757   0.712   7.788   2.069
 9272TIP3   OH227758   7.773   0.254   6.096
 9272TIP3    H127759   7.697   0.298   6.057
 9272TIP3    H227760   7.848   0.303   6.061
 9273TIP3   OH227761   6.709   2.351   0.160
 9273TIP3    H127762   6.664   2.280   0.114
 9273TIP3    H227763   6.780   2.307   0.208
 9274TIP3   OH227764   6.905   1.859   2.112
 9274TIP3    H127765   6.971   1.791   2.106
 9274TIP3    H227766   6.824   1.812   2.134
 9275TIP3   OH227767   1.133   0.697   4.450
 9275TIP3    H127768   1.166   0.609   4.465
 9275TIP3    H227769   1.046   0.685   4.412
 9276TIP3   OH227770   1.045   6.874   4.770
 9276TIP3    H127771   0.982   6.830   4.713
 9276TIP3    H227772   1.032   6.835   4.856
 9277TIP3   OH227773   5.876   6.032   0.270
 9277TIP3    H127774   5.911   5.958   0.319
 9277TIP3    H227775   5.781   6.018   0.271
 9278TIP3   OH227776   7.424   7.525   5.994
 9278TIP3    H127777   7.489   7.473   6.042
 9278TIP3    H227778   7.419   7.607   6.043
 9279TIP3   OH227779   7.263   3.207   4.009
 9279TIP3    H127780   7.356   3.202   4.031
 9279TIP3    H227781   7.256   3.163   3.924
 9280TIP3   OH227782   0.295   5.787   1.494
 9280TIP3    H127783   0.321   5.697   1.474
 9280TIP3    H227784   0.342   5.840   1.429
 9281TIP3   OH227785   3.227   0.268   2.106
 9281TIP3    H127786   3.199   0.346   2.154
 9281TIP3    H227787   3.180   0.273   2.022
 9282TIP3   OH227788   1.956   4.976   3.115
 9282TIP3    H127789   1.915   4.933   3.040
 9282TIP3    H227790   1.902   4.953   3.189
 9283TIP3   OH227791   2.099   0.905   0.977
 9283TIP3    H127792   2.046   0.859   1.040
 9283TIP3    H227793   2.142   0.975   1.027
 9284TIP3   OH227794   0.759   0.215   0.053
 9284TIP3    H127795   0.774   0.121   0.040
 9284TIP3    H227796   0.664   0.225   0.048
 9285TIP3   OH227797   2.646   7.742   2.778
 9285TIP3    H127798   2.624   7.831   2.805
 9285TIP3    H227799   2.697   7.753   2.698
 9286TIP3   OH227800   1.330   0.987   6.272
 9286TIP3    H127801   1.272   0.948   6.206
 9286TIP3    H227802   1.285   1.066   6.301
 9287TIP3   OH227803   4.864   0.396   6.640
 9287TIP3    H127804   4.941   0.345   6.615
 9287TIP3    H227805   4.818   0.341   6.703
 9288TIP3   OH227806   7.237   1.805   6.117
 9288TIP3    H127807   7.293   1.846   6.183
 9288TIP3    H227808   7.290   1.806   6.037
 9289TIP3   OH227809   2.487   3.411   5.183
 9289TIP3    H127810   2.527   3.401   5.097
 9289TIP3    H227811   2.412   3.353   5.182
 9290TIP3   OH227812   1.175   0.030   4.500
 9290TIP3    H127813   1.097   0.035   4.445
 9290TIP3    H227814   1.248   0.046   4.440
 9291TIP3   OH227815   3.193   5.495   2.808
 9291TIP3    H127816   3.229   5.523   2.892
 9291TIP3    H227817   3.212   5.401   2.804
 9292TIP3   OH227818   7.080   2.511   4.907
 9292TIP3    H127819   7.095   2.430   4.955
 9292TIP3    H227820   7.045   2.482   4.823
 9293TIP3   OH227821   2.272   2.030   5.347
 9293TIP3    H127822   2.236   2.066   5.267
 9293TIP3    H227823   2.285   1.937   5.328
 9294TIP3   OH227824   3.665   6.848   0.316
 9294TIP3    H127825   3.709   6.776   0.361
 9294TIP3    H227826   3.702   6.847   0.228
 9295TIP3   OH227827   3.119   4.254   4.196
 9295TIP3    H127828   3.161   4.189   4.139
 9295TIP3    H227829   3.135   4.223   4.285
 9296TIP3   OH227830   6.693   7.474   5.558
 9296TIP3    H127831   6.659   7.482   5.647
 9296TIP3    H227832   6.760   7.406   5.563
 9297TIP3   OH227833   4.073   1.041   2.066
 9297TIP3    H127834   4.141   1.009   2.126
 9297TIP3    H227835   4.006   0.973   2.067
 9298TIP3   OH227836   5.005   6.673   3.478
 9298TIP3    H127837   4.996   6.641   3.388
 9298TIP3    H227838   5.042   6.761   3.468
 9299TIP3   OH227839   4.911   0.595   0.935
 9299TIP3    H127840   4.987   0.652   0.944
 9299TIP3    H227841   4.885   0.603   0.843
 9300TIP3   OH227842   1.185   4.331   1.419
 9300TIP3    H127843   1.203   4.349   1.511
 9300TIP3    H227844   1.224   4.404   1.371
 9301TIP3   OH227845   1.554   0.693   4.904
 9301TIP3    H127846   1.529   0.688   4.996
 9301TIP3    H227847   1.482   0.651   4.857
 9302TIP3   OH227848   7.937   0.580   0.935
 9302TIP3    H127849   7.938   0.671   0.962
 9302TIP3    H227850   7.846   0.553   0.943
 9303TIP3   OH227851   6.688   7.652   3.964
 9303TIP3    H127852   6.782   7.646   3.982
 9303TIP3    H227853   6.674   7.594   3.889
 9304TIP3   OH227854   7.110   0.209   2.865
 9304TIP3    H127855   7.101   0.267   2.940
 9304TIP3    H227856   7.056   0.249   2.797
 9305TIP3   OH227857   6.201   2.507   4.969
 9305TIP3    H127858   6.255   2.574   4.927
 9305TIP3    H227859   6.167   2.455   4.896
 9306TIP3   OH227860   7.740   5.799   4.155
 9306TIP3    H127861   7.805   5.869   4.162
 9306TIP3    H227862   7.694   5.817   4.073
 9307TIP3   OH227863   1.745   7.131   2.958
 9307TIP3    H127864   1.765   7.055   3.012
 9307TIP3    H227865   1.826   7.149   2.910
 9308TIP3   OH227866   2.833   5.175   1.802
 9308TIP3    H127867   2.790   5.217   1.876
 9308TIP3    H227868   2.764   5.123   1.760
 9309TIP3   OH227869   6.872   0.777   0.106
 9309TIP3    H127870   6.908   0.711   0.047
 9309TIP3    H227871   6.944   0.797   0.166
 9310TIP3   OH227872   8.162   3.796   2.097
 9310TIP3    H127873   8.194   3.845   2.173
 9310TIP3    H227874   8.071   3.826   2.086
 9311TIP3   OH227875   6.260   6.471   4.400
 9311TIP3    H127876   6.326   6.416   4.358
 9311TIP3    H227877   6.296   6.490   4.487
 9312TIP3   OH227878   7.325   1.823   3.981
 9312TIP3    H127879   7.417   1.826   3.955
 9312TIP3    H227880   7.287   1.754   3.927
 9313TIP3   OH227881   1.864   0.914   2.512
 9313TIP3    H127882   1.921   0.937   2.585
 9313TIP3    H227883   1.906   0.952   2.435
 9314TIP3   OH227884   7.828   5.016   2.460
 9314TIP3    H127885   7.742   5.031   2.498
 9314TIP3    H227886   7.885   5.080   2.504
 9315TIP3   OH227887   8.158   1.096   0.364
 9315TIP3    H127888   8.197   1.022   0.411
 9315TIP3    H227889   8.099   1.056   0.301
 9316TIP3   OH227890   4.519   1.147   3.344
 9316TIP3    H127891   4.596   1.201   3.329
 9316TIP3    H227892   4.458   1.204   3.391
 9317TIP3   OH227893   5.260   7.766   6.280
 9317TIP3    H127894   5.259   7.699   6.349
 9317TIP3    H227895   5.280   7.847   6.326
 9318TIP3   OH227896   2.544   2.598   4.017
 9318TIP3    H127897   2.544   2.609   3.922
 9318TIP3    H227898   2.482   2.527   4.034
 9319TIP3   OH227899   7.894   6.592   4.555
 9319TIP3    H127900   7.911   6.539   4.632
 9319TIP3    H227901   7.922   6.680   4.579
 9320TIP3   OH227902   8.015   2.273   6.241
 9320TIP3    H127903   8.061   2.340   6.291
 9320TIP3    H227904   8.058   2.191   6.265
 9321TIP3   OH227905   7.004   7.107   2.320
 9321TIP3    H127906   7.037   7.026   2.282
 9321TIP3    H227907   6.975   7.160   2.245
 9322TIP3   OH227908   3.581   7.756   1.372
 9322TIP3    H127909   3.605   7.754   1.464
 9322TIP3    H227910   3.664   7.773   1.326
 9323TIP3   OH227911   5.949   0.970   6.591
 9323TIP3    H127912   5.978   0.885   6.624
 9323TIP3    H227913   6.029   1.011   6.557
 9324TIP3   OH227914   3.712   4.462   6.354
 9324TIP3    H127915   3.692   4.520   6.281
 9324TIP3    H227916   3.723   4.520   6.429
 9325TIP3   OH227917   5.418   2.816   4.982
 9325TIP3    H127918   5.430   2.905   5.017
 9325TIP3    H227919   5.404   2.829   4.888
 9326TIP3   OH227920   0.800   5.518   5.747
 9326TIP3    H127921   0.805   5.424   5.765
 9326TIP3    H227922   0.710   5.533   5.719
 9327TIP3   OH227923   1.981   2.580   3.454
 9327TIP3    H127924   2.011   2.657   3.405
 9327TIP3    H227925   1.946   2.616   3.535
 9328TIP3   OH227926   1.215   4.647   3.885
 9328TIP3    H127927   1.127   4.610   3.883
 9328TIP3    H227928   1.264   4.591   3.944
 9329TIP3   OH227929   6.691   1.727   2.584
 9329TIP3    H127930   6.750   1.739   2.510
 9329TIP3    H227931   6.708   1.803   2.640
 9330TIP3   OH227932   5.532   0.573   5.816
 9330TIP3    H127933   5.619   0.603   5.844
 9330TIP3    H227934   5.488   0.548   5.898
 9331TIP3   OH227935   6.309   5.708   4.087
 9331TIP3    H127936   6.248   5.702   4.161
 9331TIP3    H227937   6.297   5.796   4.053
 9332TIP3   OH227938   3.865   6.863   5.446
 9332TIP3    H127939   3.824   6.796   5.502
 9332TIP3    H227940   3.841   6.946   5.488
 9333TIP3   OH227941   4.048   5.168   0.847
 9333TIP3    H127942   4.063   5.074   0.843
 9333TIP3    H227943   3.982   5.180   0.915
 9334TIP3   OH227944   6.149   0.689   5.381
 9334TIP3    H127945   6.089   0.764   5.383
 9334TIP3    H227946   6.236   0.726   5.394
 9335TIP3   OH227947   0.648   2.923   3.895
 9335TIP3    H127948   0.676   2.858   3.959
 9335TIP3    H227949   0.639   3.004   3.946
 9336TIP3   OH227950   4.556   2.968   6.811
 9336TIP3    H127951   4.486   3.021   6.773
 9336TIP3    H227952   4.577   2.904   6.744
 9337TIP3   OH227953   2.779   4.058   3.397
 9337TIP3    H127954   2.814   4.066   3.308
 9337TIP3    H227955   2.788   3.965   3.417
 9338TIP3   OH227956   1.669   7.724   5.763
 9338TIP3    H127957   1.636   7.635   5.755
 9338TIP3    H227958   1.734   7.733   5.693
 9339TIP3   OH227959   6.968   7.583   3.958
 9339TIP3    H127960   7.053   7.623   3.942
 9339TIP3    H227961   6.985   7.489   3.955
 9340TIP3   OH227962   6.435   1.040   1.259
 9340TIP3    H127963   6.390   1.105   1.314
 9340TIP3    H227964   6.367   1.008   1.200
 9341TIP3   OH227965   5.551   3.737   1.458
 9341TIP3    H127966   5.531   3.658   1.508
 9341TIP3    H227967   5.638   3.720   1.421
 9342TIP3   OH227968   0.055   5.937   5.152
 9342TIP3    H127969  -0.014   5.893   5.202
 9342TIP3    H227970   0.027   5.931   5.061
 9343TIP3   OH227971   8.169   0.714   5.177
 9343TIP3    H127972   8.141   0.668   5.256
 9343TIP3    H227973   8.088   0.749   5.139
 9344TIP3   OH227974   4.052   0.283   5.891
 9344TIP3    H127975   4.034   0.364   5.842
 9344TIP3    H227976   4.140   0.296   5.926
 9345TIP3   OH227977   3.702   3.874   4.997
 9345TIP3    H127978   3.713   3.871   4.902
 9345TIP3    H227979   3.617   3.832   5.012
 9346TIP3   OH227980   3.482   1.185   0.543
 9346TIP3    H127981   3.514   1.100   0.510
 9346TIP3    H227982   3.466   1.236   0.464
 9347TIP3   OH227983   1.830   1.636   4.586
 9347TIP3    H127984   1.865   1.562   4.636
 9347TIP3    H227985   1.906   1.675   4.542
 9348TIP3   OH227986   0.060   4.284   0.137
 9348TIP3    H127987  -0.028   4.278   0.100
 9348TIP3    H227988   0.077   4.377   0.145
 9349TIP3   OH227989   8.012   5.223   4.158
 9349TIP3    H127990   7.981   5.139   4.122
 9349TIP3    H227991   8.051   5.268   4.083
 9350TIP3   OH227992   2.356   0.621   4.734
 9350TIP3    H127993   2.420   0.570   4.684
 9350TIP3    H227994   2.361   0.585   4.823
 9351TIP3   OH227995   8.293   2.593   4.190
 9351TIP3    H127996   8.281   2.673   4.240
 9351TIP3    H227997   8.355   2.616   4.121
 9352TIP3   OH227998   3.602   5.530   3.428
 9352TIP3    H127999   3.622   5.439   3.451
 9352TIP3    H228000   3.681   5.562   3.385
 9353TIP3   OH228001   2.866   6.644   3.996
 9353TIP3    H128002   2.785   6.595   4.008
 9353TIP3    H228003   2.915   6.630   4.077
 9354TIP3   OH228004   5.699   6.975   5.148
 9354TIP3    H128005   5.656   6.901   5.191
 9354TIP3    H228006   5.787   6.943   5.128
 9355TIP3   OH228007   6.705   1.507   2.281
 9355TIP3    H128008   6.687   1.574   2.214
 9355TIP3    H228009   6.795   1.478   2.262
 9356TIP3   OH228010   4.761   1.496   5.967
 9356TIP3    H128011   4.740   1.480   5.876
 9356TIP3    H228012   4.722   1.581   5.987
 9357TIP3   OH228013   0.459   4.368   6.304
 9357TIP3    H128014   0.532   4.393   6.361
 9357TIP3    H228015   0.487   4.286   6.263
 9358TIP3   OH228016   0.540   5.089   6.129
 9358TIP3    H128017   0.482   5.052   6.196
 9358TIP3    H228018   0.533   5.184   6.141
 9359TIP3   OH228019   5.178   7.817   4.820
 9359TIP3    H128020   5.101   7.869   4.843
 9359TIP3    H228021   5.144   7.728   4.811
 9360TIP3   OH228022   0.937   0.301   2.721
 9360TIP3    H128023   0.966   0.231   2.779
 9360TIP3    H228024   0.934   0.261   2.634
 9361TIP3   OH228025   4.223   3.183   5.757
 9361TIP3    H128026   4.193   3.110   5.703
 9361TIP3    H228027   4.214   3.260   5.701
 9362TIP3   OH228028   7.652   5.684   6.473
 9362TIP3    H128029   7.614   5.607   6.430
 9362TIP3    H228030   7.595   5.701   6.548
 9363TIP3   OH228031   4.937   3.683   3.560
 9363TIP3    H128032   4.910   3.702   3.649
 9363TIP3    H228033   5.033   3.691   3.561
 9364TIP3   OH228034   3.961   3.780   4.112
 9364TIP3    H128035   3.896   3.722   4.153
 9364TIP3    H228036   3.934   3.868   4.139
 9365TIP3   OH228037   0.154   0.520   0.250
 9365TIP3    H128038   0.208   0.502   0.327
 9365TIP3    H228039   0.116   0.605   0.267
 9366TIP3   OH228040   3.307   2.689   6.105
 9366TIP3    H128041   3.324   2.782   6.091
 9366TIP3    H228042   3.349   2.645   6.031
 9367TIP3   OH228043   2.184   7.213   2.029
 9367TIP3    H128044   2.111   7.192   2.088
 9367TIP3    H228045   2.260   7.218   2.087
 9368TIP3   OH228046   4.304   3.760   4.614
 9368TIP3    H128047   4.327   3.779   4.704
 9368TIP3    H228048   4.209   3.767   4.611
 9369TIP3   OH228049   3.036   4.337   2.276
 9369TIP3    H128050   3.061   4.326   2.185
 9369TIP3    H228051   3.111   4.379   2.317
 9370TIP3   OH228052   6.969   0.719   6.397
 9370TIP3    H128053   6.921   0.715   6.314
 9370TIP3    H228054   7.022   0.639   6.397
 9371TIP3   OH228055   4.652   7.571   5.791
 9371TIP3    H128056   4.673   7.597   5.880
 9371TIP3    H228057   4.572   7.518   5.800
 9372TIP3   OH228058   2.835   4.875   3.275
 9372TIP3    H128059   2.866   4.963   3.253
 9372TIP3    H228060   2.859   4.822   3.199
 9373TIP3   OH228061   8.234   0.341   6.443
 9373TIP3    H128062   8.198   0.356   6.356
 9373TIP3    H228063   8.215   0.421   6.492
 9374TIP3   OH228064   2.560   1.271   2.609
 9374TIP3    H128065   2.552   1.189   2.561
 9374TIP3    H228066   2.487   1.324   2.578
 9375TIP3   OH228067   4.860   5.000   3.160
 9375TIP3    H128068   4.949   5.005   3.196
 9375TIP3    H228069   4.864   4.927   3.097
 9376TIP3   OH228070   7.174   2.991   4.174
 9376TIP3    H128071   7.085   3.019   4.195
 9376TIP3    H228072   7.214   3.067   4.131
 9377TIP3   OH228073   2.864   5.440   4.123
 9377TIP3    H128074   2.832   5.530   4.130
 9377TIP3    H228075   2.808   5.389   4.182
 9378TIP3   OH228076   7.579   7.023   4.566
 9378TIP3    H128077   7.502   7.002   4.513
 9378TIP3    H228078   7.559   7.107   4.607
 9379TIP3   OH228079   1.704   7.403   3.873
 9379TIP3    H128080   1.791   7.364   3.864
 9379TIP3    H228081   1.646   7.342   3.828
 9380TIP3   OH228082   2.574   5.211   2.651
 9380TIP3    H128083   2.537   5.152   2.585
 9380TIP3    H228084   2.550   5.299   2.622
 9381TIP3   OH228085   7.697   2.145   3.640
 9381TIP3    H128086   7.710   2.051   3.631
 9381TIP3    H228087   7.723   2.164   3.730
 9382TIP3   OH228088   6.860   1.656   4.150
 9382TIP3    H128089   6.784   1.656   4.209
 9382TIP3    H228090   6.861   1.568   4.113
 9383TIP3   OH228091   5.293   5.220   5.818
 9383TIP3    H128092   5.208   5.196   5.854
 9383TIP3    H228093   5.352   5.218   5.893
 9384TIP3   OH228094   3.385   0.223   1.612
 9384TIP3    H128095   3.334   0.142   1.616
 9384TIP3    H228096   3.381   0.249   1.520
 9385TIP3   OH228097   1.339   7.304   2.154
 9385TIP3    H128098   1.325   7.314   2.060
 9385TIP3    H228099   1.381   7.219   2.162
 9386TIP3   OH228100   4.020   6.143   0.656
 9386TIP3    H128101   4.001   6.066   0.710
 9386TIP3    H228102   4.115   6.147   0.652
 9387TIP3   OH228103   4.977   5.322   4.684
 9387TIP3    H128104   4.970   5.369   4.767
 9387TIP3    H228105   4.924   5.375   4.623
 9388TIP3   OH228106   3.707   5.499   0.402
 9388TIP3    H128107   3.708   5.406   0.427
 9388TIP3    H228108   3.615   5.521   0.394
 9389TIP3   OH228109   1.175   1.944   5.163
 9389TIP3    H128110   1.261   1.906   5.143
 9389TIP3    H228111   1.178   2.032   5.126
 9390TIP3   OH228112   4.795   0.347   0.356
 9390TIP3    H128113   4.734   0.400   0.408
 9390TIP3    H228114   4.879   0.358   0.401
 9391TIP3   OH228115   3.157   3.665   0.571
 9391TIP3    H128116   3.229   3.629   0.622
 9391TIP3    H228117   3.146   3.605   0.498
 9392TIP3   OH228118   7.370   1.234   5.303
 9392TIP3    H128119   7.453   1.281   5.297
 9392TIP3    H228120   7.304   1.298   5.278
 9393TIP3   OH228121   5.063   2.028   1.950
 9393TIP3    H128122   5.139   2.044   1.894
 9393TIP3    H228123   4.994   2.085   1.914
 9394TIP3   OH228124   7.117   6.549   4.051
 9394TIP3    H128125   7.127   6.457   4.073
 9394TIP3    H228126   7.043   6.578   4.105
 9395TIP3   OH228127   2.033   2.829   1.647
 9395TIP3    H128128   2.041   2.874   1.732
 9395TIP3    H228129   1.941   2.841   1.623
 9396TIP3   OH228130   4.812   0.144   0.945
 9396TIP3    H128131   4.776   0.096   0.870
 9396TIP3    H228132   4.779   0.233   0.934
 9397TIP3   OH228133   8.155   4.528   5.857
 9397TIP3    H128134   8.238   4.517   5.904
 9397TIP3    H228135   8.149   4.450   5.801
 9398TIP3   OH228136   8.248   5.119   4.287
 9398TIP3    H128137   8.160   5.157   4.282
 9398TIP3    H228138   8.275   5.111   4.196
 9399TIP3   OH228139   6.861   7.414   1.684
 9399TIP3    H128140   6.850   7.321   1.706
 9399TIP3    H228141   6.937   7.415   1.626
 9400TIP3   OH228142   5.421   0.043   2.523
 9400TIP3    H128143   5.483   0.078   2.460
 9400TIP3    H228144   5.337   0.082   2.498
 9401TIP3   OH228145   6.354   0.396   6.074
 9401TIP3    H128146   6.330   0.312   6.034
 9401TIP3    H228147   6.295   0.459   6.032
 9402TIP3   OH228148   0.621   4.195   1.410
 9402TIP3    H128149   0.668   4.278   1.422
 9402TIP3    H228150   0.685   4.127   1.427
 9403TIP3   OH228151   3.650   0.608   4.472
 9403TIP3    H128152   3.715   0.548   4.434
 9403TIP3    H228153   3.651   0.684   4.414
 9404TIP3   OH228154   4.715   7.507   4.742
 9404TIP3    H128155   4.633   7.525   4.788
 9404TIP3    H228156   4.701   7.421   4.701
 9405TIP3   OH228157   3.511   0.469   3.017
 9405TIP3    H128158   3.455   0.391   3.011
 9405TIP3    H228159   3.468   0.523   3.084
 9406TIP3   OH228160   0.968   3.968   0.548
 9406TIP3    H128161   0.875   3.973   0.523
 9406TIP3    H228162   1.003   3.899   0.492
 9407TIP3   OH228163   7.935   6.536   0.878
 9407TIP3    H128164   7.983   6.578   0.949
 9407TIP3    H228165   7.954   6.442   0.888
 9408TIP3   OH228166   1.661   1.892   4.110
 9408TIP3    H128167   1.679   1.838   4.187
 9408TIP3    H228168   1.566   1.907   4.112
 9409TIP3   OH228169   0.608   4.183   6.772
 9409TIP3    H128170   0.577   4.153   6.687
 9409TIP3    H228171   0.701   4.161   6.773
 9410TIP3   OH228172   0.633   1.138   5.912
 9410TIP3    H128173   0.640   1.150   5.818
 9410TIP3    H228174   0.723   1.150   5.945
 9411TIP3   OH228175   3.847   2.746   2.971
 9411TIP3    H128176   3.887   2.806   2.908
 9411TIP3    H228177   3.782   2.698   2.919
 9412TIP3   OH228178   4.693   6.543   5.670
 9412TIP3    H128179   4.633   6.578   5.736
 9412TIP3    H228180   4.778   6.538   5.715
 9413TIP3   OH228181   1.128   3.213   6.589
 9413TIP3    H128182   1.206   3.162   6.569
 9413TIP3    H228183   1.123   3.276   6.517
 9414TIP3   OH228184   0.820   7.026   4.681
 9414TIP3    H128185   0.819   7.034   4.586
 9414TIP3    H228186   0.905   6.988   4.702
 9415TIP3   OH228187   4.139   1.632   3.008
 9415TIP3    H128188   4.163   1.666   3.095
 9415TIP3    H228189   4.143   1.537   3.017
 9416TIP3   OH228190   2.724   4.739   0.513
 9416TIP3    H128191   2.643   4.788   0.498
 9416TIP3    H228192   2.703   4.679   0.585
 9417TIP3   OH228193   2.810   7.345   4.693
 9417TIP3    H128194   2.745   7.341   4.763
 9417TIP3    H228195   2.885   7.297   4.728
 9418TIP3   OH228196   2.107   7.500   1.619
 9418TIP3    H128197   2.069   7.587   1.611
 9418TIP3    H228198   2.201   7.514   1.607
 9419TIP3   OH228199   5.656   7.682   6.416
 9419TIP3    H128200   5.691   7.728   6.492
 9419TIP3    H228201   5.619   7.601   6.452
 9420TIP3   OH228202   7.551   3.112   2.017
 9420TIP3    H128203   7.557   3.190   1.962
 9420TIP3    H228204   7.637   3.103   2.057
 9421TIP3   OH228205   0.700   4.890   6.028
 9421TIP3    H128206   0.668   4.904   5.939
 9421TIP3    H228207   0.640   4.941   6.083
 9422TIP3   OH228208   7.267   2.219   3.797
 9422TIP3    H128209   7.212   2.292   3.827
 9422TIP3    H228210   7.213   2.141   3.811
 9423TIP3   OH228211   4.826   4.843   6.592
 9423TIP3    H128212   4.906   4.817   6.547
 9423TIP3    H228213   4.830   4.800   6.677
 9424TIP3   OH228214   4.106   2.058   3.971
 9424TIP3    H128215   4.153   2.086   4.049
 9424TIP3    H228216   4.135   1.968   3.957
 9425TIP3   OH228217   5.553   7.012   4.519
 9425TIP3    H128218   5.524   6.980   4.434
 9425TIP3    H228219   5.648   7.013   4.513
 9426TIP3   OH228220   7.579   3.992   3.616
 9426TIP3    H128221   7.537   4.026   3.695
 9426TIP3    H228222   7.506   3.956   3.565
 9427TIP3   OH228223   5.580   0.998   6.732
 9427TIP3    H128224   5.579   1.082   6.778
 9427TIP3    H228225   5.488   0.982   6.711
 9428TIP3   OH228226   5.783   1.605   0.053
 9428TIP3    H128227   5.818   1.690   0.078
 9428TIP3    H228228   5.808   1.545   0.123
 9429TIP3   OH228229   2.951   1.735   6.414
 9429TIP3    H128230   2.912   1.647   6.406
 9429TIP3    H228231   3.025   1.723   6.474
 9430TIP3   OH228232   8.168   6.381   5.096
 9430TIP3    H128233   8.131   6.469   5.094
 9430TIP3    H228234   8.196   6.365   5.006
 9431TIP3   OH228235   7.372   0.954   0.737
 9431TIP3    H128236   7.392   1.044   0.763
 9431TIP3    H228237   7.444   0.928   0.680
 9432TIP3   OH228238   2.158   2.407   5.256
 9432TIP3    H128239   2.234   2.426   5.311
 9432TIP3    H228240   2.118   2.330   5.297
 9433TIP3   OH228241   2.656   2.592   2.404
 9433TIP3    H128242   2.703   2.585   2.320
 9433TIP3    H228243   2.578   2.643   2.384
 9434TIP3   OH228244   4.755   0.878   1.898
 9434TIP3    H128245   4.713   0.922   1.972
 9434TIP3    H228246   4.685   0.870   1.833
 9435TIP3   OH228247   1.922   6.018   0.960
 9435TIP3    H128248   1.995   6.059   1.006
 9435TIP3    H228249   1.960   5.981   0.880
 9436TIP3   OH228250   4.892   6.075   3.503
 9436TIP3    H128251   4.987   6.073   3.517
 9436TIP3    H228252   4.874   6.166   3.479
 9437TIP3   OH228253   5.123   1.601   6.407
 9437TIP3    H128254   5.138   1.511   6.378
 9437TIP3    H228255   5.155   1.655   6.334
 9438TIP3   OH228256   4.952   3.627   5.622
 9438TIP3    H128257   4.909   3.582   5.694
 9438TIP3    H228258   5.043   3.596   5.624
 9439TIP3   OH228259   6.687   6.861   2.085
 9439TIP3    H128260   6.644   6.947   2.087
 9439TIP3    H228261   6.675   6.826   2.173
 9440TIP3   OH228262   0.723   4.423   3.022
 9440TIP3    H128263   0.791   4.376   3.070
 9440TIP3    H228264   0.697   4.362   2.953
 9441TIP3   OH228265   6.049   0.387   0.687
 9441TIP3    H128266   6.133   0.411   0.725
 9441TIP3    H228267   5.991   0.377   0.763
 9442TIP3   OH228268   3.282   0.324   6.359
 9442TIP3    H128269   3.362   0.375   6.353
 9442TIP3    H228270   3.309   0.240   6.396
 9443TIP3   OH228271   5.911   1.325   1.541
 9443TIP3    H128272   5.952   1.342   1.457
 9443TIP3    H228273   5.948   1.390   1.600
 9444TIP3   OH228274   4.754   0.384   3.036
 9444TIP3    H128275   4.709   0.361   2.955
 9444TIP3    H228276   4.687   0.424   3.091
 9445TIP3   OH228277   2.626   5.965   0.641
 9445TIP3    H128278   2.571   5.892   0.666
 9445TIP3    H228279   2.565   6.036   0.622
 9446TIP3   OH228280   5.184   3.639   6.119
 9446TIP3    H128281   5.098   3.674   6.142
 9446TIP3    H228282   5.242   3.715   6.118
 9447TIP3   OH228283   3.654   2.330   6.361
 9447TIP3    H128284   3.739   2.298   6.329
 9447TIP3    H228285   3.590   2.283   6.307
 9448TIP3   OH228286   0.636   0.999   4.082
 9448TIP3    H128287   0.716   0.960   4.117
 9448TIP3    H228288   0.596   0.929   4.031
 9449TIP3   OH228289   6.398   1.741   2.883
 9449TIP3    H128290   6.356   1.731   2.969
 9449TIP3    H228291   6.365   1.825   2.850
 9450TIP3   OH228292   1.037   3.227   0.161
 9450TIP3    H128293   1.060   3.252   0.251
 9450TIP3    H228294   0.968   3.162   0.171
 9451TIP3   OH228295   3.982   2.241   5.402
 9451TIP3    H128296   4.022   2.306   5.345
 9451TIP3    H228297   4.034   2.162   5.388
 9452TIP3   OH228298   0.652   7.115   0.390
 9452TIP3    H128299   0.567   7.138   0.428
 9452TIP3    H228300   0.693   7.199   0.370
 9453TIP3   OH228301   5.609   0.034   4.354
 9453TIP3    H128302   5.527   0.011   4.398
 9453TIP3    H228303   5.674  -0.023   4.395
 9454TIP3   OH228304   2.850   6.245   4.613
 9454TIP3    H128305   2.923   6.308   4.613
 9454TIP3    H228306   2.817   6.247   4.702
 9455TIP3   OH228307   6.221   0.473   5.202
 9455TIP3    H128308   6.265   0.525   5.134
 9455TIP3    H228309   6.178   0.538   5.257
 9456TIP3   OH228310   7.140   0.417   2.314
 9456TIP3    H128311   7.226   0.377   2.321
 9456TIP3    H228312   7.106   0.418   2.403
 9457TIP3   OH228313   7.358   2.543   5.390
 9457TIP3    H128314   7.315   2.628   5.399
 9457TIP3    H228315   7.412   2.551   5.312
 9458TIP3   OH228316   1.611   3.088   2.700
 9458TIP3    H128317   1.677   3.020   2.693
 9458TIP3    H228318   1.658   3.169   2.680
 9459TIP3   OH228319   1.246   7.599   3.423
 9459TIP3    H128320   1.338   7.620   3.407
 9459TIP3    H228321   1.247   7.505   3.445
 9460TIP3   OH228322   4.830   3.793   1.754
 9460TIP3    H128323   4.864   3.805   1.843
 9460TIP3    H228324   4.903   3.753   1.706
 9461TIP3   OH228325   2.454   5.903   0.870
 9461TIP3    H128326   2.394   5.974   0.889
 9461TIP3    H228327   2.404   5.842   0.816
 9462TIP3   OH228328   2.098   2.501   0.257
 9462TIP3    H128329   2.107   2.432   0.191
 9462TIP3    H228330   2.035   2.562   0.219
 9463TIP3   OH228331   7.784   3.697   0.895
 9463TIP3    H128332   7.880   3.690   0.894
 9463TIP3    H228333   7.764   3.732   0.981
 9464TIP3   OH228334   6.325   3.623   0.223
 9464TIP3    H128335   6.273   3.549   0.254
 9464TIP3    H228336   6.368   3.657   0.301
 9465TIP3   OH228337   0.697   1.044   2.713
 9465TIP3    H128338   0.682   0.995   2.632
 9465TIP3    H228339   0.683   1.136   2.689
 9466TIP3   OH228340   5.150   2.269   6.361
 9466TIP3    H128341   5.244   2.261   6.344
 9466TIP3    H228342   5.125   2.183   6.396
 9467TIP3   OH228343   2.017   5.362   5.821
 9467TIP3    H128344   2.059   5.276   5.812
 9467TIP3    H228345   2.086   5.418   5.857
 9468TIP3   OH228346   2.026   7.624   3.756
 9468TIP3    H128347   2.006   7.531   3.745
 9468TIP3    H228348   2.071   7.649   3.676
 9469TIP3   OH228349   8.191   7.222   5.504
 9469TIP3    H128350   8.212   7.139   5.460
 9469TIP3    H228351   8.164   7.280   5.433
 9470TIP3   OH228352   3.999   2.573   0.289
 9470TIP3    H128353   4.040   2.524   0.360
 9470TIP3    H228354   3.934   2.627   0.333
 9471TIP3   OH228355   4.323   0.757   2.658
 9471TIP3    H128356   4.282   0.690   2.603
 9471TIP3    H228357   4.293   0.840   2.622
 9472TIP3   OH228358   2.245   7.012   4.742
 9472TIP3    H128359   2.203   7.081   4.794
 9472TIP3    H228360   2.225   7.034   4.651
 9473TIP3   OH228361   3.794   3.175   3.692
 9473TIP3    H128362   3.780   3.235   3.765
 9473TIP3    H228363   3.888   3.156   3.695
 9474TIP3   OH228364   0.600   1.875   4.023
 9474TIP3    H128365   0.510   1.863   4.054
 9474TIP3    H228366   0.594   1.947   3.960
 9475TIP3   OH228367   7.766   4.739   5.611
 9475TIP3    H128368   7.679   4.765   5.640
 9475TIP3    H228369   7.800   4.683   5.681
 9476TIP3   OH228370   1.521   3.686   0.264
 9476TIP3    H128371   1.600   3.722   0.225
 9476TIP3    H228372   1.502   3.607   0.213
 9477TIP3   OH228373   4.333   2.361   3.937
 9477TIP3    H128374   4.350   2.430   4.000
 9477TIP3    H228375   4.294   2.290   3.989
 9478TIP3   OH228376   4.032   6.086   6.469
 9478TIP3    H128377   4.071   5.999   6.482
 9478TIP3    H228378   4.000   6.112   6.555
 9479TIP3   OH228379   4.190   5.475   4.921
 9479TIP3    H128380   4.123   5.407   4.920
 9479TIP3    H228381   4.145   5.553   4.890
 9480TIP3   OH228382   1.941   5.719   4.536
 9480TIP3    H128383   1.925   5.795   4.591
 9480TIP3    H228384   1.859   5.670   4.537
 9481TIP3   OH228385   1.908   3.571   5.872
 9481TIP3    H128386   1.944   3.484   5.887
 9481TIP3    H228387   1.854   3.589   5.949
 9482TIP3   OH228388   6.532   0.268   2.387
 9482TIP3    H128389   6.604   0.286   2.326
 9482TIP3    H228390   6.472   0.213   2.337
 9483TIP3   OH228391   4.115   2.988   5.609
 9483TIP3    H128392   4.106   2.991   5.513
 9483TIP3    H228393   4.037   2.941   5.638
 9484TIP3   OH228394   3.571   5.522   5.903
 9484TIP3    H128395   3.552   5.534   5.996
 9484TIP3    H228396   3.502   5.463   5.873
 9485TIP3   OH228397   0.190   2.563   5.383
 9485TIP3    H128398   0.155   2.610   5.458
 9485TIP3    H228399   0.129   2.490   5.370
 9486TIP3   OH228400   5.732   0.502   3.375
 9486TIP3    H128401   5.706   0.410   3.365
 9486TIP3    H228402   5.649   0.549   3.380
 9487TIP3   OH228403   6.428   6.001   1.808
 9487TIP3    H128404   6.357   5.998   1.872
 9487TIP3    H228405   6.448   5.909   1.791
 9488TIP3   OH228406   6.353   5.478   1.566
 9488TIP3    H128407   6.419   5.528   1.517
 9488TIP3    H228408   6.379   5.387   1.555
 9489TIP3   OH228409   4.321   5.594   0.267
 9489TIP3    H128410   4.296   5.651   0.194
 9489TIP3    H228411   4.336   5.509   0.227
 9490TIP3   OH228412   8.306   3.828   5.744
 9490TIP3    H128413   8.272   3.819   5.833
 9490TIP3    H228414   8.288   3.919   5.720
 9491TIP3   OH228415   0.505   5.213   5.047
 9491TIP3    H128416   0.560   5.231   4.970
 9491TIP3    H228417   0.565   5.176   5.111
 9492TIP3   OH228418   4.826   7.066   4.833
 9492TIP3    H128419   4.782   7.143   4.796
 9492TIP3    H228420   4.864   7.098   4.916
 9493TIP3   OH228421   6.502   1.024   4.081
 9493TIP3    H128422   6.422   1.018   4.135
 9493TIP3    H228423   6.550   1.098   4.118
 9494TIP3   OH228424   4.102   4.709   0.540
 9494TIP3    H128425   4.173   4.681   0.598
 9494TIP3    H228426   4.147   4.741   0.461
 9495TIP3   OH228427   3.372   7.566   1.942
 9495TIP3    H128428   3.357   7.578   1.848
 9495TIP3    H228429   3.464   7.541   1.948
 9496TIP3   OH228430   3.494   2.679   5.022
 9496TIP3    H128431   3.509   2.667   5.116
 9496TIP3    H228432   3.549   2.613   4.981
 9497TIP3   OH228433   3.923   7.620   0.589
 9497TIP3    H128434   3.852   7.621   0.653
 9497TIP3    H228435   3.926   7.710   0.555
 9498TIP3   OH228436   2.071   0.441   6.722
 9498TIP3    H128437   1.987   0.401   6.744
 9498TIP3    H228438   2.090   0.500   6.794
 9499TIP3   OH228439   5.537   4.477   0.996
 9499TIP3    H128440   5.600   4.406   0.985
 9499TIP3    H228441   5.456   4.433   1.022
 9500TIP3   OH228442   7.705   3.515   4.564
 9500TIP3    H128443   7.748   3.432   4.544
 9500TIP3    H228444   7.773   3.581   4.548
 9501TIP3   OH228445   4.518   0.246   4.121
 9501TIP3    H128446   4.513   0.179   4.052
 9501TIP3    H228447   4.532   0.328   4.073
 9502TIP3   OH228448   7.544   6.281   4.381
 9502TIP3    H128449   7.470   6.276   4.441
 9502TIP3    H228450   7.517   6.346   4.316
 9503TIP3   OH228451   7.523   2.182   2.759
 9503TIP3    H128452   7.558   2.220   2.678
 9503TIP3    H228453   7.586   2.209   2.826
 9504TIP3   OH228454   5.331   1.497   4.480
 9504TIP3    H128455   5.412   1.548   4.476
 9504TIP3    H228456   5.304   1.502   4.572
 9505TIP3   OH228457   2.865   0.784   3.414
 9505TIP3    H128458   2.832   0.782   3.504
 9505TIP3    H228459   2.951   0.825   3.420
 9506TIP3   OH228460   1.041   0.824   3.538
 9506TIP3    H128461   1.020   0.908   3.578
 9506TIP3    H228462   1.062   0.845   3.447
 9507TIP3   OH228463   5.596   3.233   1.478
 9507TIP3    H128464   5.637   3.170   1.420
 9507TIP3    H228465   5.626   3.208   1.566
 9508TIP3   OH228466   1.211   2.171   6.469
 9508TIP3    H128467   1.251   2.256   6.448
 9508TIP3    H228468   1.117   2.185   6.453
 9509TIP3   OH228469   0.079   6.671   2.144
 9509TIP3    H128470   0.062   6.609   2.214
 9509TIP3    H228471   0.100   6.753   2.189
 9510TIP3   OH228472   7.376   1.718   1.200
 9510TIP3    H128473   7.298   1.772   1.213
 9510TIP3    H228474   7.443   1.780   1.170
 9511TIP3   OH228475   1.105   0.210   5.681
 9511TIP3    H128476   1.173   0.258   5.728
 9511TIP3    H228477   1.070   0.273   5.618
 9512TIP3   OH228478   5.001   2.393   5.713
 9512TIP3    H128479   5.071   2.336   5.746
 9512TIP3    H228480   5.030   2.419   5.625
 9513TIP3   OH228481   2.636   6.225   2.831
 9513TIP3    H128482   2.689   6.244   2.753
 9513TIP3    H228483   2.700   6.202   2.898
 9514TIP3   OH228484   4.001   7.307   6.233
 9514TIP3    H128485   3.914   7.276   6.258
 9514TIP3    H228486   3.991   7.334   6.141
 9515TIP3   OH228487   3.549   4.640   6.058
 9515TIP3    H128488   3.569   4.582   5.983
 9515TIP3    H228489   3.634   4.677   6.081
 9516TIP3   OH228490   6.535   2.526   6.635
 9516TIP3    H128491   6.597   2.586   6.677
 9516TIP3    H228492   6.485   2.489   6.708
 9517TIP3   OH228493   0.625   2.926   0.061
 9517TIP3    H128494   0.604   2.843   0.018
 9517TIP3    H228495   0.621   2.905   0.155
 9518TIP3   OH228496   7.665   6.790   4.009
 9518TIP3    H128497   7.626   6.715   3.965
 9518TIP3    H228498   7.678   6.761   4.099
 9519TIP3   OH228499   8.269   1.389   1.769
 9519TIP3    H128500   8.256   1.441   1.690
 9519TIP3    H228501   8.320   1.313   1.740
 9520TIP3   OH228502   1.901   4.942   4.820
 9520TIP3    H128503   1.922   4.926   4.912
 9520TIP3    H228504   1.963   4.886   4.772
 9521TIP3   OH228505   5.830   7.194   3.221
 9521TIP3    H128506   5.743   7.161   3.199
 9521TIP3    H228507   5.817   7.288   3.235
 9522TIP3   OH228508   5.449   7.036   1.151
 9522TIP3    H128509   5.377   6.994   1.197
 9522TIP3    H228510   5.436   7.129   1.167
 9523TIP3   OH228511   0.222   2.311   5.904
 9523TIP3    H128512   0.280   2.379   5.940
 9523TIP3    H228513   0.192   2.347   5.820
 9524TIP3   OH228514   3.863   3.133   4.548
 9524TIP3    H128515   3.863   3.084   4.630
 9524TIP3    H228516   3.899   3.073   4.483
 9525TIP3   OH228517   8.240   6.627   5.485
 9525TIP3    H128518   8.196   6.542   5.484
 9525TIP3    H228519   8.187   6.682   5.543
 9526TIP3   OH228520   4.176   5.502   4.101
 9526TIP3    H128521   4.154   5.586   4.142
 9526TIP3    H228522   4.099   5.481   4.048
 9527TIP3   OH228523   4.388   7.496   0.955
 9527TIP3    H128524   4.375   7.552   0.879
 9527TIP3    H228525   4.301   7.491   0.996
 9528TIP3   OH228526   5.411   6.242   1.631
 9528TIP3    H128527   5.389   6.313   1.692
 9528TIP3    H228528   5.403   6.162   1.684
 9529TIP3   OH228529   5.252   5.597   2.185
 9529TIP3    H128530   5.202   5.648   2.121
 9529TIP3    H228531   5.214   5.509   2.181
 9530TIP3   OH228532   0.940   3.410   5.389
 9530TIP3    H128533   0.939   3.349   5.315
 9530TIP3    H228534   1.029   3.405   5.423
 9531TIP3   OH228535   0.267   7.167   2.054
 9531TIP3    H128536   0.294   7.125   1.972
 9531TIP3    H228537   0.288   7.260   2.042
 9532TIP3   OH228538   0.632   5.798   6.055
 9532TIP3    H128539   0.656   5.879   6.099
 9532TIP3    H228540   0.618   5.824   5.964
 9533TIP3   OH228541   0.731   2.879   2.041
 9533TIP3    H128542   0.718   2.877   1.946
 9533TIP3    H228543   0.812   2.929   2.053
 9534TIP3   OH228544   2.670   5.146   6.334
 9534TIP3    H128545   2.608   5.083   6.370
 9534TIP3    H228546   2.712   5.186   6.410
 9535TIP3   OH228547   5.194   7.009   2.817
 9535TIP3    H128548   5.222   7.092   2.854
 9535TIP3    H228549   5.164   6.958   2.892
 9536TIP3   OH228550   2.747   2.521   6.640
 9536TIP3    H128551   2.836   2.551   6.660
 9536TIP3    H228552   2.691   2.592   6.670
 9537TIP3   OH228553   3.602   2.059   4.492
 9537TIP3    H128554   3.601   2.017   4.406
 9537TIP3    H228555   3.665   2.007   4.543
 9538TIP3   OH228556   5.516   0.966   0.176
 9538TIP3    H128557   5.469   1.027   0.119
 9538TIP3    H228558   5.525   0.886   0.124
 9539TIP3   OH228559   1.030   5.501   2.654
 9539TIP3    H128560   1.065   5.417   2.626
 9539TIP3    H228561   0.940   5.481   2.682
 9540TIP3   OH228562   2.307   4.387   3.699
 9540TIP3    H128563   2.396   4.375   3.668
 9540TIP3    H228564   2.315   4.396   3.794
 9541TIP3   OH228565   5.497   0.280   1.069
 9541TIP3    H128566   5.460   0.214   1.010
 9541TIP3    H228567   5.538   0.344   1.011
 9542TIP3   OH228568   5.535   2.055   1.818
 9542TIP3    H128569   5.496   2.002   1.888
 9542TIP3    H228570   5.527   2.001   1.740
 9543TIP3   OH228571   4.642   6.965   0.101
 9543TIP3    H128572   4.586   6.953   0.178
 9543TIP3    H228573   4.677   7.053   0.111
 9544TIP3   OH228574   1.163   7.396   6.382
 9544TIP3    H128575   1.226   7.331   6.353
 9544TIP3    H228576   1.124   7.430   6.301
 9545TIP3   OH228577   7.966   5.419   6.272
 9545TIP3    H128578   8.040   5.462   6.229
 9545TIP3    H228579   7.890   5.471   6.245
 9546TIP3   OH228580   7.423   3.555   4.580
 9546TIP3    H128581   7.518   3.566   4.580
 9546TIP3    H228582   7.410   3.465   4.549
 9547TIP3   OH228583   3.312   3.037   0.618
 9547TIP3    H128584   3.223   3.032   0.583
 9547TIP3    H228585   3.364   3.071   0.546
 9548TIP3   OH228586   5.814   7.665   3.301
 9548TIP3    H128587   5.813   7.603   3.374
 9548TIP3    H228588   5.819   7.610   3.223
 9549TIP3   OH228589   4.376   1.778   3.469
 9549TIP3    H128590   4.317   1.727   3.524
 9549TIP3    H228591   4.438   1.817   3.531
 9550TIP3   OH228592   6.638   4.878   1.243
 9550TIP3    H128593   6.545   4.902   1.247
 9550TIP3    H228594   6.638   4.784   1.224
 9551TIP3   OH228595   3.690   5.184   2.742
 9551TIP3    H128596   3.769   5.158   2.790
 9551TIP3    H228597   3.723   5.243   2.673
 9552TIP3   OH228598   5.649   5.800   4.840
 9552TIP3    H128599   5.740   5.792   4.811
 9552TIP3    H228600   5.603   5.838   4.765
 9553TIP3   OH228601   4.255   5.997   2.797
 9553TIP3    H128602   4.257   6.018   2.890
 9553TIP3    H228603   4.172   6.032   2.766
 9554TIP3   OH228604   5.403   5.339   5.108
 9554TIP3    H128605   5.382   5.266   5.166
 9554TIP3    H228606   5.328   5.346   5.049
 9555TIP3   OH228607   1.831   5.097   5.400
 9555TIP3    H128608   1.856   5.053   5.481
 9555TIP3    H228609   1.736   5.089   5.396
 9556TIP3   OH228610   2.556   7.874   1.544
 9556TIP3    H128611   2.465   7.848   1.560
 9556TIP3    H228612   2.590   7.807   1.485
 9557TIP3   OH228613   1.309   4.047   5.590
 9557TIP3    H128614   1.225   4.014   5.624
 9557TIP3    H228615   1.367   4.047   5.667
 9558TIP3   OH228616   2.200   7.837   2.956
 9558TIP3    H128617   2.227   7.811   2.868
 9558TIP3    H228618   2.107   7.858   2.948
 9559TIP3   OH228619   3.152   0.725   5.193
 9559TIP3    H128620   3.059   0.744   5.190
 9559TIP3    H228621   3.184   0.777   5.267
 9560TIP3   OH228622   5.148   0.787   3.243
 9560TIP3    H128623   5.172   0.847   3.313
 9560TIP3    H228624   5.112   0.711   3.287
 9561TIP3   OH228625   8.288   5.351   0.886
 9561TIP3    H128626   8.325   5.318   0.803
 9561TIP3    H228627   8.284   5.273   0.942
 9562TIP3   OH228628   1.056   2.778   0.860
 9562TIP3    H128629   1.080   2.689   0.887
 9562TIP3    H228630   1.005   2.766   0.780
 9563TIP3   OH228631   6.144   1.410   0.951
 9563TIP3    H128632   6.192   1.336   0.913
 9563TIP3    H228633   6.062   1.412   0.903
 9564TIP3   OH228634   5.903   5.916   4.737
 9564TIP3    H128635   5.926   5.826   4.715
 9564TIP3    H228636   5.873   5.953   4.654
 9565TIP3   OH228637   4.644   5.233   1.187
 9565TIP3    H128638   4.653   5.294   1.261
 9565TIP3    H228639   4.726   5.185   1.185
 9566TIP3   OH228640   4.294   6.472   5.723
 9566TIP3    H128641   4.247   6.389   5.734
 9566TIP3    H228642   4.375   6.447   5.678
 9567TIP3   OH228643   2.015   7.467   3.368
 9567TIP3    H128644   1.943   7.482   3.308
 9567TIP3    H228645   2.083   7.426   3.315
 9568TIP3   OH228646   1.650   7.019   1.894
 9568TIP3    H128647   1.629   7.107   1.864
 9568TIP3    H228648   1.566   6.978   1.912
 9569TIP3   OH228649   5.606   3.997   6.083
 9569TIP3    H128650   5.664   3.921   6.088
 9569TIP3    H228651   5.663   4.072   6.100
 9570TIP3   OH228652   0.409   4.867   3.711
 9570TIP3    H128653   0.391   4.842   3.621
 9570TIP3    H228654   0.502   4.889   3.713
 9571TIP3   OH228655   3.614   1.153   5.986
 9571TIP3    H128656   3.542   1.104   5.947
 9571TIP3    H228657   3.691   1.098   5.969
 9572TIP3   OH228658   2.884   3.906   0.990
 9572TIP3    H128659   2.817   3.947   0.936
 9572TIP3    H228660   2.935   3.980   1.024
 9573TIP3   OH228661   2.990   7.561   0.150
 9573TIP3    H128662   2.966   7.594   0.063
 9573TIP3    H228663   2.961   7.470   0.150
 9574TIP3   OH228664   2.011   7.723   4.859
 9574TIP3    H128665   2.052   7.809   4.873
 9574TIP3    H228666   2.059   7.685   4.785
 9575TIP3   OH228667   0.610   0.663   4.992
 9575TIP3    H128668   0.594   0.739   5.048
 9575TIP3    H228669   0.554   0.678   4.915
 9576TIP3   OH228670   6.433   0.609   6.306
 9576TIP3    H128671   6.355   0.665   6.310
 9576TIP3    H228672   6.415   0.548   6.235
 9577TIP3   OH228673   6.334   6.331   5.055
 9577TIP3    H128674   6.383   6.265   5.103
 9577TIP3    H228675   6.371   6.329   4.966
 9578TIP3   OH228676   4.890   2.056   1.246
 9578TIP3    H128677   4.798   2.081   1.250
 9578TIP3    H228678   4.894   1.987   1.180
 9579TIP3   OH228679   6.393   5.293   1.826
 9579TIP3    H128680   6.393   5.242   1.907
 9579TIP3    H228681   6.455   5.363   1.841
 9580TIP3   OH228682   1.314   3.696   5.875
 9580TIP3    H128683   1.329   3.609   5.912
 9580TIP3    H228684   1.219   3.702   5.865
 9581TIP3   OH228685   2.554   5.261   1.483
 9581TIP3    H128686   2.521   5.272   1.394
 9581TIP3    H228687   2.503   5.189   1.520
 9582TIP3   OH228688   4.500   3.416   6.132
 9582TIP3    H128689   4.591   3.417   6.162
 9582TIP3    H228690   4.448   3.420   6.212
 9583TIP3   OH228691   3.208   5.962   3.345
 9583TIP3    H128692   3.299   5.990   3.347
 9583TIP3    H228693   3.208   5.876   3.387
 9584TIP3   OH228694   6.899   6.131   1.673
 9584TIP3    H128695   6.917   6.038   1.681
 9584TIP3    H228696   6.804   6.137   1.661
 9585TIP3   OH228697   4.682   3.457   2.257
 9585TIP3    H128698   4.739   3.496   2.324
 9585TIP3    H228699   4.672   3.366   2.285
 9586TIP3   OH228700   1.149   2.881   3.182
 9586TIP3    H128701   1.139   2.905   3.275
 9586TIP3    H228702   1.178   2.790   3.184
 9587TIP3   OH228703   5.672   4.348   1.282
 9587TIP3    H128704   5.743   4.298   1.242
 9587TIP3    H228705   5.713   4.431   1.308
 9588TIP3   OH228706   0.973   0.979   5.383
 9588TIP3    H128707   1.061   0.942   5.378
 9588TIP3    H228708   0.987   1.069   5.411
 9589TIP3   OH228709   1.476   4.172   0.176
 9589TIP3    H128710   1.487   4.252   0.125
 9589TIP3    H228711   1.384   4.148   0.163
 9590TIP3   OH228712   7.795   3.078   2.143
 9590TIP3    H128713   7.812   3.136   2.217
 9590TIP3    H228714   7.882   3.062   2.105
 9591TIP3   OH228715   7.354   4.152   6.346
 9591TIP3    H128716   7.411   4.213   6.300
 9591TIP3    H228717   7.314   4.100   6.276
 9592TIP3   OH228718   4.567   1.042   2.675
 9592TIP3    H128719   4.647   1.026   2.724
 9592TIP3    H228720   4.497   1.006   2.730
 9593TIP3   OH228721   0.448   7.735   3.357
 9593TIP3    H128722   0.444   7.830   3.348
 9593TIP3    H228723   0.542   7.715   3.362
 9594TIP3   OH228724   8.112   2.330   1.612
 9594TIP3    H128725   8.200   2.293   1.606
 9594TIP3    H228726   8.124   2.412   1.660
 9595TIP3   OH228727   1.300   3.626   6.403
 9595TIP3    H128728   1.242   3.593   6.471
 9595TIP3    H228729   1.329   3.711   6.435
 9596TIP3   OH228730   1.365   2.368   2.929
 9596TIP3    H128731   1.450   2.405   2.951
 9596TIP3    H228732   1.355   2.293   2.987
 9597TIP3   OH228733   6.076   5.128   2.140
 9597TIP3    H128734   6.051   5.083   2.221
 9597TIP3    H228735   6.120   5.208   2.169
 9598TIP3   OH228736   5.031   1.897   5.678
 9598TIP3    H128737   5.037   1.896   5.582
 9598TIP3    H228738   5.083   1.973   5.705
 9599TIP3   OH228739   1.784   7.753   4.191
 9599TIP3    H128740   1.851   7.690   4.165
 9599TIP3    H228741   1.746   7.783   4.108
 9600TIP3   OH228742   3.518   2.463   6.025
 9600TIP3    H128743   3.532   2.410   5.946
 9600TIP3    H228744   3.482   2.401   6.089
 9601TIP3   OH228745   5.079   6.623   2.377
 9601TIP3    H128746   5.157   6.652   2.425
 9601TIP3    H228747   5.018   6.595   2.446
 9602TIP3   OH228748   7.736   5.469   4.881
 9602TIP3    H128749   7.672   5.456   4.951
 9602TIP3    H228750   7.719   5.398   4.819
 9603TIP3   OH228751   5.302   2.374   0.325
 9603TIP3    H128752   5.225   2.388   0.380
 9603TIP3    H228753   5.319   2.459   0.285
 9604TIP3   OH228754   4.192   7.243   3.064
 9604TIP3    H128755   4.161   7.200   3.143
 9604TIP3    H228756   4.125   7.223   2.998
 9605TIP3   OH228757   1.543   2.064   2.061
 9605TIP3    H128758   1.485   2.080   2.136
 9605TIP3    H228759   1.485   2.032   1.992
 9606TIP3   OH228760   1.607   2.525   6.653
 9606TIP3    H128761   1.641   2.580   6.724
 9606TIP3    H228762   1.616   2.435   6.686
 9607TIP3   OH228763   0.800   1.890   2.467
 9607TIP3    H128764   0.857   1.860   2.538
 9607TIP3    H228765   0.718   1.912   2.510
 9608TIP3   OH228766   6.838   4.737   5.355
 9608TIP3    H128767   6.775   4.672   5.324
 9608TIP3    H228768   6.924   4.700   5.332
 9609TIP3   OH228769   7.927   4.665   5.917
 9609TIP3    H128770   8.011   4.636   5.880
 9609TIP3    H228771   7.899   4.592   5.972
 9610TIP3   OH228772   2.821   5.257   5.500
 9610TIP3    H128773   2.735   5.239   5.538
 9610TIP3    H228774   2.814   5.228   5.409
 9611TIP3   OH228775   2.340   4.538   1.959
 9611TIP3    H128776   2.321   4.617   2.008
 9611TIP3    H228777   2.260   4.485   1.967
 9612TIP3   OH228778   4.055   4.049   6.715
 9612TIP3    H128779   4.034   4.055   6.808
 9612TIP3    H228780   4.123   3.982   6.710
 9613TIP3   OH228781   3.524   4.014   4.374
 9613TIP3    H128782   3.486   3.942   4.423
 9613TIP3    H228783   3.553   3.974   4.292
 9614TIP3   OH228784   5.918   5.634   4.771
 9614TIP3    H128785   5.827   5.604   4.773
 9614TIP3    H228786   5.964   5.568   4.718
 9615TIP3   OH228787   5.013   0.294   6.387
 9615TIP3    H128788   5.084   0.305   6.450
 9615TIP3    H228789   5.054   0.248   6.314
 9616TIP3   OH228790   3.345   1.277   1.313
 9616TIP3    H128791   3.336   1.233   1.398
 9616TIP3    H228792   3.437   1.263   1.289
 9617TIP3   OH228793   0.364   4.442   3.862
 9617TIP3    H128794   0.310   4.368   3.836
 9617TIP3    H228795   0.384   4.487   3.779
 9618TIP3   OH228796   6.749   5.032   0.625
 9618TIP3    H128797   6.794   4.965   0.675
 9618TIP3    H228798   6.724   5.098   0.689
 9619TIP3   OH228799   0.868   2.583   2.806
 9619TIP3    H128800   0.894   2.672   2.828
 9619TIP3    H228801   0.921   2.528   2.863
 9620TIP3   OH228802   5.059   4.594   1.468
 9620TIP3    H128803   4.984   4.547   1.430
 9620TIP3    H228804   5.134   4.565   1.416
 9621TIP3   OH228805   7.411   5.509   1.973
 9621TIP3    H128806   7.335   5.566   1.979
 9621TIP3    H228807   7.451   5.513   2.060
 9622TIP3   OH228808   0.785   2.757   1.474
 9622TIP3    H128809   0.819   2.843   1.499
 9622TIP3    H228810   0.854   2.696   1.500
 9623TIP3   OH228811   6.961   2.929   4.561
 9623TIP3    H128812   6.961   3.005   4.502
 9623TIP3    H228813   6.882   2.881   4.539
 9624TIP3   OH228814   1.415   2.822   3.030
 9624TIP3    H128815   1.405   2.840   3.124
 9624TIP3    H228816   1.493   2.871   3.005
 9625TIP3   OH228817   2.873   1.655   5.612
 9625TIP3    H128818   2.863   1.700   5.529
 9625TIP3    H228819   2.916   1.718   5.669
 9626TIP3   OH228820   5.975   4.019   2.312
 9626TIP3    H128821   5.932   3.979   2.236
 9626TIP3    H228822   6.067   4.026   2.287
 9627TIP3   OH228823   3.728   7.174   3.345
 9627TIP3    H128824   3.672   7.097   3.331
 9627TIP3    H228825   3.754   7.167   3.437
 9628TIP3   OH228826   1.851   1.268   4.168
 9628TIP3    H128827   1.777   1.209   4.177
 9628TIP3    H228828   1.926   1.219   4.203
 9629TIP3   OH228829   1.198   2.611   1.076
 9629TIP3    H128830   1.202   2.526   1.120
 9629TIP3    H228831   1.289   2.633   1.058
 9630TIP3   OH228832   7.592   6.759   6.337
 9630TIP3    H128833   7.658   6.827   6.355
 9630TIP3    H228834   7.582   6.713   6.421
 9631TIP3   OH228835   4.274   7.007   1.536
 9631TIP3    H128836   4.316   7.047   1.459
 9631TIP3    H228837   4.244   7.082   1.587
 9632TIP3   OH228838   1.779   3.314   3.330
 9632TIP3    H128839   1.692   3.282   3.304
 9632TIP3    H228840   1.790   3.284   3.420
 9633TIP3   OH228841   1.389   4.973   6.617
 9633TIP3    H128842   1.308   4.926   6.638
 9633TIP3    H228843   1.445   4.957   6.693
 9634TIP3   OH228844   6.492   6.792   0.639
 9634TIP3    H128845   6.399   6.780   0.619
 9634TIP3    H228846   6.535   6.716   0.598
 9635TIP3   OH228847   5.279   6.600   2.571
 9635TIP3    H128848   5.234   6.533   2.623
 9635TIP3    H228849   5.319   6.551   2.499
 9636TIP3   OH228850   0.957   5.237   1.470
 9636TIP3    H128851   0.983   5.259   1.380
 9636TIP3    H228852   0.990   5.309   1.523
 9637TIP3   OH228853   8.142   4.184   3.973
 9637TIP3    H128854   8.163   4.277   3.961
 9637TIP3    H228855   8.081   4.164   3.902
 9638TIP3   OH228856   1.653   0.654   6.525
 9638TIP3    H128857   1.748   0.646   6.512
 9638TIP3    H228858   1.627   0.568   6.559
 9639TIP3   OH228859   0.274   2.366   5.090
 9639TIP3    H128860   0.263   2.457   5.062
 9639TIP3    H228861   0.367   2.359   5.109
 9640TIP3   OH228862   2.780   4.052   3.930
 9640TIP3    H128863   2.844   3.983   3.913
 9640TIP3    H228864   2.748   4.077   3.843
 9641TIP3   OH228865   3.663   0.884   0.595
 9641TIP3    H128866   3.572   0.854   0.594
 9641TIP3    H228867   3.700   0.843   0.673
 9642TIP3   OH228868   5.456   6.648   2.124
 9642TIP3    H128869   5.362   6.664   2.133
 9642TIP3    H228870   5.475   6.579   2.188
 9643TIP3   OH228871   3.861   5.570   0.628
 9643TIP3    H128872   3.954   5.562   0.608
 9643TIP3    H228873   3.817   5.567   0.543
 9644TIP3   OH228874   0.108   4.140   4.112
 9644TIP3    H128875   0.077   4.055   4.143
 9644TIP3    H228876   0.041   4.169   4.050
 9645TIP3   OH228877   1.504   3.182   5.124
 9645TIP3    H128878   1.523   3.164   5.032
 9645TIP3    H228879   1.500   3.278   5.129
 9646TIP3   OH228880   5.980   7.370   4.072
 9646TIP3    H128881   5.912   7.407   4.015
 9646TIP3    H228882   5.974   7.276   4.059
 9647TIP3   OH228883   3.019   3.063   3.223
 9647TIP3    H128884   2.984   3.105   3.301
 9647TIP3    H228885   2.966   2.984   3.212
 9648TIP3   OH228886   1.926   2.165   5.195
 9648TIP3    H128887   1.893   2.080   5.222
 9648TIP3    H228888   1.858   2.227   5.221
 9649TIP3   OH228889   6.848   3.462   3.252
 9649TIP3    H128890   6.846   3.367   3.245
 9649TIP3    H228891   6.764   3.485   3.291
 9650TIP3   OH228892   2.089   2.728   6.249
 9650TIP3    H128893   2.033   2.697   6.320
 9650TIP3    H228894   2.119   2.648   6.206
 9651TIP3   OH228895   4.295   5.966   3.987
 9651TIP3    H128896   4.297   6.061   3.993
 9651TIP3    H228897   4.366   5.936   4.045
 9652TIP3   OH228898   2.935   5.624   1.564
 9652TIP3    H128899   2.928   5.562   1.636
 9652TIP3    H228900   3.029   5.633   1.549
 9653TIP3   OH228901   6.375   1.482   5.179
 9653TIP3    H128902   6.445   1.508   5.119
 9653TIP3    H228903   6.374   1.551   5.245
 9654TIP3   OH228904   2.246   2.114   2.124
 9654TIP3    H128905   2.179   2.181   2.107
 9654TIP3    H228906   2.262   2.121   2.218
 9655TIP3   OH228907   5.363   4.209   1.517
 9655TIP3    H128908   5.315   4.127   1.523
 9655TIP3    H228909   5.455   4.185   1.532
 9656TIP3   OH228910   2.188   3.799   0.445
 9656TIP3    H128911   2.105   3.828   0.483
 9656TIP3    H228912   2.240   3.769   0.521
 9657TIP3   OH228913   3.205   1.001   2.502
 9657TIP3    H128914   3.170   1.090   2.502
 9657TIP3    H228915   3.263   0.998   2.426
 9658TIP3   OH228916   5.701   6.695   1.304
 9658TIP3    H128917   5.674   6.766   1.246
 9658TIP3    H228918   5.624   6.678   1.358
 9659TIP3   OH228919   4.939   0.848   6.059
 9659TIP3    H128920   5.029   0.865   6.033
 9659TIP3    H228921   4.917   0.920   6.119
 9660TIP3   OH228922   6.015   2.367   3.017
 9660TIP3    H128923   6.064   2.425   3.075
 9660TIP3    H228924   6.046   2.279   3.040
 9661TIP3   OH228925   4.743   7.368   1.717
 9661TIP3    H128926   4.745   7.298   1.782
 9661TIP3    H228927   4.724   7.447   1.768
 9662TIP3   OH228928   2.156   5.312   1.758
 9662TIP3    H128929   2.162   5.326   1.852
 9662TIP3    H228930   2.138   5.219   1.748
 9663TIP3   OH228931   5.229   6.465   3.683
 9663TIP3    H128932   5.238   6.385   3.734
 9663TIP3    H228933   5.311   6.512   3.699
 9664TIP3   OH228934   4.340   5.773   0.908
 9664TIP3    H128935   4.258   5.756   0.954
 9664TIP3    H228936   4.403   5.714   0.950
 9665TIP3   OH228937   6.440   2.378   2.907
 9665TIP3    H128938   6.351   2.393   2.874
 9665TIP3    H228939   6.495   2.380   2.828
 9666TIP3   OH228940   4.853   6.342   5.514
 9666TIP3    H128941   4.834   6.352   5.608
 9666TIP3    H228942   4.925   6.403   5.498
 9667TIP3   OH228943   7.553   3.220   3.179
 9667TIP3    H128944   7.544   3.278   3.255
 9667TIP3    H228945   7.572   3.134   3.216
 9668TIP3   OH228946   6.077   4.734   2.941
 9668TIP3    H128947   6.021   4.766   3.012
 9668TIP3    H228948   6.089   4.810   2.884
 9669TIP3   OH228949   3.452   0.859   2.266
 9669TIP3    H128950   3.390   0.834   2.198
 9669TIP3    H228951   3.518   0.910   2.220
 9670TIP3   OH228952   1.326   7.320   3.465
 9670TIP3    H128953   1.407   7.368   3.478
 9670TIP3    H228954   1.349   7.229   3.481
 9671TIP3   OH228955   6.307   1.591   6.411
 9671TIP3    H128956   6.336   1.566   6.323
 9671TIP3    H228957   6.377   1.562   6.469
 9672TIP3   OH228958   3.322   4.806   4.378
 9672TIP3    H128959   3.312   4.748   4.453
 9672TIP3    H228960   3.233   4.822   4.348
 9673TIP3   OH228961   1.402   6.607   5.342
 9673TIP3    H128962   1.463   6.546   5.300
 9673TIP3    H228963   1.417   6.690   5.296
 9674TIP3   OH228964   2.941   7.060   3.028
 9674TIP3    H128965   2.896   7.080   3.110
 9674TIP3    H228966   2.876   7.077   2.960
 9675TIP3   OH228967   6.077   0.961   2.515
 9675TIP3    H128968   6.059   0.902   2.588
 9675TIP3    H228969   6.023   0.927   2.443
 9676TIP3   OH228970   4.866   1.098   0.090
 9676TIP3    H128971   4.818   1.046   0.026
 9676TIP3    H228972   4.871   1.186   0.050
 9677TIP3   OH228973   2.154   0.817   2.583
 9677TIP3    H128974   2.143   0.748   2.648
 9677TIP3    H228975   2.142   0.773   2.499
 9678TIP3   OH228976   2.191   4.706   2.115
 9678TIP3    H128977   2.119   4.759   2.080
 9678TIP3    H228978   2.187   4.718   2.209
 9679TIP3   OH228979   5.795   7.525   3.868
 9679TIP3    H128980   5.701   7.511   3.860
 9679TIP3    H228981   5.802   7.609   3.914
 9680TIP3   OH228982   7.809   1.791   2.475
 9680TIP3    H128983   7.812   1.883   2.500
 9680TIP3    H228984   7.846   1.789   2.386
 9681TIP3   OH228985   2.051   1.800   6.008
 9681TIP3    H128986   2.075   1.885   5.971
 9681TIP3    H228987   2.124   1.777   6.064
 9682TIP3   OH228988   4.814   3.926   3.346
 9682TIP3    H128989   4.778   3.845   3.381
 9682TIP3    H228990   4.893   3.942   3.397
 9683TIP3   OH228991   8.199   4.173   0.951
 9683TIP3    H128992   8.222   4.254   0.997
 9683TIP3    H228993   8.213   4.192   0.859
 9684TIP3   OH228994   7.055   6.769   1.846
 9684TIP3    H128995   7.052   6.786   1.940
 9684TIP3    H228996   7.148   6.765   1.825
 9685TIP3   OH228997   1.731   6.480   4.802
 9685TIP3    H128998   1.653   6.495   4.856
 9685TIP3    H228999   1.739   6.385   4.796
 9686TIP3   OH229000   2.402   3.572   5.621
 9686TIP3    H129001   2.373   3.524   5.543
 9686TIP3    H229002   2.433   3.656   5.587
 9687TIP3   OH229003   4.085   5.029   1.940
 9687TIP3    H129004   4.028   4.975   1.886
 9687TIP3    H229005   4.119   5.096   1.880
 9688TIP3   OH229006   7.036   0.348   4.210
 9688TIP3    H129007   6.942   0.344   4.228
 9688TIP3    H229008   7.077   0.329   4.295
 9689TIP3   OH229009   2.879   6.106   1.039
 9689TIP3    H129010   2.809   6.092   1.103
 9689TIP3    H229011   2.836   6.143   0.962
 9690TIP3   OH229012   1.226   5.139   3.151
 9690TIP3    H129013   1.198   5.048   3.148
 9690TIP3    H229014   1.186   5.173   3.231
 9691TIP3   OH229015   7.324   0.697   0.781
 9691TIP3    H129016   7.387   0.663   0.718
 9691TIP3    H229017   7.332   0.792   0.774
 9692TIP3   OH229018   7.536   4.805   2.777
 9692TIP3    H129019   7.575   4.823   2.863
 9692TIP3    H229020   7.611   4.788   2.720
 9693TIP3   OH229021   1.558   2.870   0.098
 9693TIP3    H129022   1.586   2.937   0.036
 9693TIP3    H229023   1.528   2.919   0.175
 9694TIP3   OH229024   2.072   2.725   3.198
 9694TIP3    H129025   2.126   2.778   3.256
 9694TIP3    H229026   2.133   2.666   3.154
 9695TIP3   OH229027   7.082   4.317   6.654
 9695TIP3    H129028   7.163   4.269   6.635
 9695TIP3    H229029   7.025   4.252   6.695
 9696TIP3   OH229030   1.804   1.502   3.120
 9696TIP3    H129031   1.882   1.557   3.116
 9696TIP3    H229032   1.809   1.447   3.041
 9697TIP3   OH229033   6.748   5.562   1.767
 9697TIP3    H129034   6.733   5.508   1.689
 9697TIP3    H229035   6.687   5.526   1.832
 9698TIP3   OH229036   8.162   4.395   0.725
 9698TIP3    H129037   8.161   4.334   0.651
 9698TIP3    H229038   8.249   4.436   0.721
 9699TIP3   OH229039   0.455   4.905   5.426
 9699TIP3    H129040   0.520   4.841   5.397
 9699TIP3    H229041   0.374   4.854   5.434
 9700TIP3   OH229042   0.042   1.341   2.037
 9700TIP3    H129043   0.131   1.376   2.037
 9700TIP3    H229044   0.007   1.364   1.951
 9701TIP3   OH229045   7.989   5.974   0.631
 9701TIP3    H129046   8.062   5.951   0.573
 9701TIP3    H229047   7.931   5.899   0.628
 9702TIP3   OH229048   0.079   7.493   1.593
 9702TIP3    H129049   0.108   7.460   1.508
 9702TIP3    H229050   0.016   7.428   1.624
 9703TIP3   OH229051   1.414   1.544   3.802
 9703TIP3    H129052   1.440   1.502   3.884
 9703TIP3    H229053   1.390   1.633   3.827
 9704TIP3   OH229054   0.448   0.751   3.012
 9704TIP3    H129055   0.388   0.779   3.082
 9704TIP3    H229056   0.527   0.803   3.026
 9705TIP3   OH229057   4.884   6.848   2.479
 9705TIP3    H129058   4.891   6.784   2.409
 9705TIP3    H229059   4.963   6.836   2.531
 9706TIP3   OH229060   4.103   2.981   2.362
 9706TIP3    H129061   4.093   2.996   2.268
 9706TIP3    H229062   4.135   2.891   2.369
 9707TIP3   OH229063   5.605   3.526   0.587
 9707TIP3    H129064   5.665   3.576   0.642
 9707TIP3    H229065   5.536   3.589   0.564
 9708TIP3   OH229066   7.265   2.935   5.661
 9708TIP3    H129067   7.250   2.872   5.731
 9708TIP3    H229068   7.335   2.992   5.694
 9709TIP3   OH229069   6.218   6.695   0.519
 9709TIP3    H129070   6.212   6.675   0.613
 9709TIP3    H229071   6.171   6.777   0.509
 9710TIP3   OH229072   3.581   7.504   3.607
 9710TIP3    H129073   3.649   7.469   3.665
 9710TIP3    H229074   3.610   7.594   3.589
 9711TIP3   OH229075   6.890   1.182   1.256
 9711TIP3    H129076   6.933   1.268   1.258
 9711TIP3    H229077   6.804   1.199   1.218
 9712TIP3   OH229078   6.816   2.230   3.196
 9712TIP3    H129079   6.869   2.218   3.275
 9712TIP3    H229080   6.731   2.191   3.218
 9713TIP3   OH229081   4.943   7.685   4.385
 9713TIP3    H129082   4.926   7.728   4.469
 9713TIP3    H229083   4.887   7.607   4.386
 9714TIP3   OH229084   0.275   7.444   5.293
 9714TIP3    H129085   0.198   7.387   5.283
 9714TIP3    H229086   0.268   7.478   5.383
 9715TIP3   OH229087   5.558   0.886   2.827
 9715TIP3    H129088   5.597   0.799   2.822
 9715TIP3    H229089   5.494   0.889   2.756
 9716TIP3   OH229090   6.769   4.284   1.132
 9716TIP3    H129091   6.791   4.355   1.192
 9716TIP3    H229092   6.757   4.208   1.189
 9717TIP3   OH229093   8.017   6.989   0.089
 9717TIP3    H129094   8.003   6.920   0.024
 9717TIP3    H229095   8.111   7.003   0.090
 9718TIP3   OH229096   3.489   0.631   5.253
 9718TIP3    H129097   3.573   0.601   5.218
 9718TIP3    H229098   3.481   0.721   5.220
 9719TIP3   OH229099   3.267   5.594   4.714
 9719TIP3    H129100   3.243   5.686   4.723
 9719TIP3    H229101   3.183   5.547   4.718
 9720TIP3   OH229102   1.186   1.627   1.629
 9720TIP3    H129103   1.183   1.646   1.723
 9720TIP3    H229104   1.191   1.713   1.588
 9721TIP3   OH229105   3.902   3.672   4.979
 9721TIP3    H129106   3.851   3.746   5.013
 9721TIP3    H229107   3.913   3.614   5.055
 9722TIP3   OH229108   3.773   0.553   3.064
 9722TIP3    H129109   3.689   0.508   3.057
 9722TIP3    H229110   3.756   0.627   3.122
 9723TIP3   OH229111   5.855   5.746   1.332
 9723TIP3    H129112   5.933   5.710   1.376
 9723TIP3    H229113   5.888   5.820   1.282
 9724TIP3   OH229114   1.743   5.049   6.422
 9724TIP3    H129115   1.725   4.958   6.446
 9724TIP3    H229116   1.672   5.074   6.363
 9725TIP3   OH229117   0.386   2.045   4.472
 9725TIP3    H129118   0.363   2.126   4.518
 9725TIP3    H229119   0.481   2.046   4.469
 9726TIP3   OH229120   1.736   0.714   3.087
 9726TIP3    H129121   1.827   0.718   3.058
 9726TIP3    H229122   1.734   0.644   3.152
 9727TIP3   OH229123   3.326   7.810   6.001
 9727TIP3    H129124   3.233   7.818   6.023
 9727TIP3    H229125   3.358   7.740   6.058
 9728TIP3   OH229126   1.234   3.624   0.194
 9728TIP3    H129127   1.195   3.557   0.137
 9728TIP3    H229128   1.297   3.576   0.247
 9729TIP3   OH229129   1.825   0.741   6.219
 9729TIP3    H129130   1.763   0.809   6.247
 9729TIP3    H229131   1.808   0.667   6.277
 9730TIP3   OH229132   6.579   6.266   6.364
 9730TIP3    H129133   6.647   6.202   6.342
 9730TIP3    H229134   6.537   6.285   6.280
 9731TIP3   OH229135   3.238   1.740   2.466
 9731TIP3    H129136   3.264   1.736   2.558
 9731TIP3    H229137   3.319   1.758   2.419
 9732TIP3   OH229138   0.715   3.779   4.283
 9732TIP3    H129139   0.676   3.720   4.348
 9732TIP3    H229140   0.648   3.846   4.269
 9733TIP3   OH229141   7.847   1.070   0.477
 9733TIP3    H129142   7.921   1.099   0.530
 9733TIP3    H229143   7.795   1.150   0.463
 9734TIP3   OH229144   5.191   5.222   4.063
 9734TIP3    H129145   5.178   5.131   4.036
 9734TIP3    H229146   5.276   5.222   4.105
 9735TIP3   OH229147   6.955   5.318   6.273
 9735TIP3    H129148   6.934   5.226   6.260
 9735TIP3    H229149   7.046   5.318   6.304
 9736TIP3   OH229150   3.880   4.246   0.110
 9736TIP3    H129151   3.821   4.203   0.172
 9736TIP3    H229152   3.929   4.308   0.163
 9737TIP3   OH229153   2.404   3.179   5.483
 9737TIP3    H129154   2.365   3.092   5.476
 9737TIP3    H229155   2.384   3.207   5.573
 9738TIP3   OH229156   2.421   4.474   5.770
 9738TIP3    H129157   2.383   4.397   5.727
 9738TIP3    H229158   2.345   4.526   5.797
 9739TIP3   OH229159   0.298   7.771   4.026
 9739TIP3    H129160   0.387   7.802   4.009
 9739TIP3    H229161   0.294   7.762   4.122
 9740TIP3   OH229162   1.881   1.755   1.510
 9740TIP3    H129163   1.965   1.728   1.472
 9740TIP3    H229164   1.896   1.750   1.605
 9741TIP3   OH229165   0.615   2.136   1.449
 9741TIP3    H129166   0.663   2.143   1.367
 9741TIP3    H229167   0.638   2.214   1.498
 9742TIP3   OH229168   5.766   3.404   2.951
 9742TIP3    H129169   5.681   3.388   2.992
 9742TIP3    H229170   5.830   3.370   3.013
 9743TIP3   OH229171   7.609   7.065   6.071
 9743TIP3    H129172   7.603   7.133   6.004
 9743TIP3    H229173   7.596   7.112   6.154
 9744TIP3   OH229174   2.703   4.773   3.509
 9744TIP3    H129175   2.783   4.737   3.548
 9744TIP3    H229176   2.733   4.823   3.434
 9745TIP3   OH229177   0.090   6.259   3.446
 9745TIP3    H129178   0.134   6.339   3.475
 9745TIP3    H229179   0.065   6.214   3.527
 9746TIP3   OH229180   1.171   5.009   4.764
 9746TIP3    H129181   1.254   5.021   4.811
 9746TIP3    H229182   1.104   5.018   4.832
 9747TIP3   OH229183   7.715   0.226   3.853
 9747TIP3    H129184   7.644   0.193   3.909
 9747TIP3    H229185   7.678   0.225   3.765
 9748TIP3   OH229186   7.875   5.523   1.930
 9748TIP3    H129187   7.945   5.479   1.979
 9748TIP3    H229188   7.921   5.572   1.862
 9749TIP3   OH229189   0.801   6.406   5.017
 9749TIP3    H129190   0.802   6.340   5.086
 9749TIP3    H229191   0.708   6.422   5.000
 9750TIP3   OH229192   3.228   4.390   6.562
 9750TIP3    H129193   3.310   4.439   6.556
 9750TIP3    H229194   3.163   4.455   6.592
 9751TIP3   OH229195   4.339   0.270   3.768
 9751TIP3    H129196   4.330   0.181   3.802
 9751TIP3    H229197   4.427   0.297   3.795
 9752TIP3   OH229198   7.911   6.132   2.025
 9752TIP3    H129199   7.944   6.189   2.094
 9752TIP3    H229200   7.953   6.165   1.945
 9753TIP3   OH229201   5.441   5.559   3.598
 9753TIP3    H129202   5.379   5.505   3.548
 9753TIP3    H229203   5.406   5.647   3.591
 9754TIP3   OH229204   6.212   4.253   4.235
 9754TIP3    H129205   6.128   4.299   4.227
 9754TIP3    H229206   6.248   4.254   4.146
 9755TIP3   OH229207   7.983   0.732   1.693
 9755TIP3    H129208   7.966   0.821   1.722
 9755TIP3    H229209   7.900   0.686   1.706
 9756TIP3   OH229210   7.955   0.521   6.227
 9756TIP3    H129211   8.015   0.449   6.208
 9756TIP3    H229212   7.916   0.543   6.142
 9757TIP3   OH229213   3.850   0.191   2.517
 9757TIP3    H129214   3.784   0.260   2.510
 9757TIP3    H229215   3.838   0.155   2.605
 9758TIP3   OH229216   5.954   6.808   4.961
 9758TIP3    H129217   5.926   6.733   4.908
 9758TIP3    H229218   5.947   6.777   5.052
 9759TIP3   OH229219   7.044   0.472   5.476
 9759TIP3    H129220   7.129   0.456   5.436
 9759TIP3    H229221   7.049   0.429   5.561
 9760TIP3   OH229222   4.742   2.057   2.937
 9760TIP3    H129223   4.777   2.007   2.863
 9760TIP3    H229224   4.733   1.992   3.007
 9761TIP3   OH229225   6.120   0.037   0.246
 9761TIP3    H129226   6.123   0.109   0.310
 9761TIP3    H229227   6.075  -0.033   0.292
 9762TIP3   OH229228   5.714   2.662   5.166
 9762TIP3    H129229   5.635   2.608   5.164
 9762TIP3    H229230   5.756   2.647   5.082
 9763TIP3   OH229231   7.968   0.999   1.733
 9763TIP3    H129232   8.021   1.054   1.790
 9763TIP3    H229233   7.878   1.025   1.752
 9764TIP3   OH229234   7.822   2.164   6.661
 9764TIP3    H129235   7.855   2.080   6.692
 9764TIP3    H229236   7.900   2.216   6.641
 9765TIP3   OH229237   2.490   6.269   1.140
 9765TIP3    H129238   2.441   6.259   1.059
 9765TIP3    H229239   2.423   6.272   1.208
 9766TIP3   OH229240   8.028   3.579   5.393
 9766TIP3    H129241   8.117   3.615   5.394
 9766TIP3    H229242   7.996   3.592   5.482
 9767TIP3   OH229243   6.578   3.479   6.446
 9767TIP3    H129244   6.618   3.492   6.532
 9767TIP3    H229245   6.621   3.544   6.389
 9768TIP3   OH229246   3.119   3.167   1.115
 9768TIP3    H129247   3.145   3.147   1.024
 9768TIP3    H229248   3.170   3.245   1.138
 9769TIP3   OH229249   4.950   6.649   1.628
 9769TIP3    H129250   5.004   6.574   1.605
 9769TIP3    H229251   4.925   6.687   1.543
 9770TIP3   OH229252   5.589   3.812   3.530
 9770TIP3    H129253   5.500   3.796   3.500
 9770TIP3    H229254   5.635   3.845   3.453
 9771TIP3   OH229255   0.398   1.390   4.697
 9771TIP3    H129256   0.435   1.411   4.783
 9771TIP3    H229257   0.333   1.322   4.716
 9772TIP3   OH229258   7.030   3.777   0.744
 9772TIP3    H129259   7.095   3.771   0.674
 9772TIP3    H229260   6.949   3.803   0.700
 9773TIP3   OH229261   3.953   7.817   2.465
 9773TIP3    H129262   4.007   7.892   2.441
 9773TIP3    H229263   3.996   7.743   2.422
 9774TIP3   OH229264   6.251   3.369   3.532
 9774TIP3    H129265   6.163   3.359   3.569
 9774TIP3    H229266   6.286   3.448   3.573
 9775TIP3   OH229267   5.971   4.342   1.478
 9775TIP3    H129268   5.960   4.338   1.573
 9775TIP3    H229269   6.028   4.417   1.463
 9776TIP3   OH229270   2.543   7.147   0.701
 9776TIP3    H129271   2.578   7.210   0.638
 9776TIP3    H229272   2.474   7.101   0.653
 9777TIP3   OH229273   1.777   6.725   0.567
 9777TIP3    H129274   1.712   6.660   0.594
 9777TIP3    H229275   1.854   6.705   0.619
 9778TIP3   OH229276   6.040   0.122   1.465
 9778TIP3    H129277   5.983   0.196   1.484
 9778TIP3    H229278   6.051   0.124   1.370
 9779TIP3   OH229279   6.072   4.701   4.092
 9779TIP3    H129280   5.980   4.676   4.099
 9779TIP3    H229281   6.106   4.694   4.181
 9780TIP3   OH229282   5.305   7.188   0.569
 9780TIP3    H129283   5.288   7.154   0.657
 9780TIP3    H229284   5.280   7.280   0.573
 9781TIP3   OH229285   4.180   2.191   3.330
 9781TIP3    H129286   4.199   2.120   3.268
 9781TIP3    H229287   4.169   2.269   3.276
 9782TIP3   OH229288   5.138   6.237   3.859
 9782TIP3    H129289   5.050   6.272   3.850
 9782TIP3    H229290   5.182   6.297   3.918
 9783TIP3   OH229291   7.542   0.500   0.414
 9783TIP3    H129292   7.608   0.463   0.356
 9783TIP3    H229293   7.491   0.425   0.445
 9784TIP3   OH229294   8.116   6.241   4.840
 9784TIP3    H129295   8.049   6.174   4.849
 9784TIP3    H229296   8.198   6.193   4.837
 9785TIP3   OH229297   3.083   0.030   0.771
 9785TIP3    H129298   3.024  -0.030   0.815
 9785TIP3    H229299   3.149  -0.026   0.730
 9786TIP3   OH229300   7.249   6.924   4.177
 9786TIP3    H129301   7.206   6.921   4.263
 9786TIP3    H229302   7.319   6.988   4.187
 9787TIP3   OH229303   5.419   0.706   1.965
 9787TIP3    H129304   5.405   0.730   1.873
 9787TIP3    H229305   5.499   0.752   1.990
 9788TIP3   OH229306   0.534   0.757   5.269
 9788TIP3    H129307   0.580   0.711   5.339
 9788TIP3    H229308   0.448   0.776   5.306
 9789TIP3   OH229309   6.377   6.672   2.785
 9789TIP3    H129310   6.430   6.631   2.717
 9789TIP3    H229311   6.434   6.740   2.822
 9790TIP3   OH229312   0.432   1.634   4.008
 9790TIP3    H129313   0.363   1.675   3.955
 9790TIP3    H229314   0.443   1.547   3.969
 9791TIP3   OH229315   2.271   4.111   3.958
 9791TIP3    H129316   2.246   4.051   3.887
 9791TIP3    H229317   2.343   4.162   3.921
 9792TIP3   OH229318   7.221   1.627   3.081
 9792TIP3    H129319   7.299   1.675   3.052
 9792TIP3    H229320   7.240   1.606   3.173
 9793TIP3   OH229321   4.932   3.154   1.126
 9793TIP3    H129322   4.877   3.113   1.193
 9793TIP3    H229323   4.870   3.189   1.063
 9794TIP3   OH229324   5.121   2.105   4.936
 9794TIP3    H129325   5.077   2.096   5.020
 9794TIP3    H229326   5.208   2.138   4.959
 9795TIP3   OH229327   5.983   4.973   2.852
 9795TIP3    H129328   5.909   5.016   2.895
 9795TIP3    H229329   6.060   5.004   2.900
 9796TIP3   OH229330   4.716   6.121   1.266
 9796TIP3    H129331   4.635   6.084   1.232
 9796TIP3    H229332   4.777   6.117   1.192
 9797TIP3   OH229333   4.361   3.319   2.029
 9797TIP3    H129334   4.361   3.304   1.934
 9797TIP3    H229335   4.282   3.274   2.060
 9798TIP3   OH229336   1.342   5.312   0.458
 9798TIP3    H129337   1.272   5.285   0.398
 9798TIP3    H229338   1.370   5.232   0.502
 9799TIP3   OH229339   6.727   6.676   3.000
 9799TIP3    H129340   6.729   6.642   2.910
 9799TIP3    H229341   6.804   6.639   3.041
 9800TIP3   OH229342   1.758   0.108   6.709
 9800TIP3    H129343   1.755   0.199   6.739
 9800TIP3    H229344   1.666   0.081   6.703
 9801TIP3   OH229345   1.789   6.786   4.395
 9801TIP3    H129346   1.720   6.802   4.330
 9801TIP3    H229347   1.865   6.834   4.361
 9802TIP3   OH229348   4.194   2.162   5.216
 9802TIP3    H129349   4.282   2.144   5.249
 9802TIP3    H229350   4.199   2.252   5.183
 9803TIP3   OH229351   4.901   4.213   3.299
 9803TIP3    H129352   4.876   4.282   3.238
 9803TIP3    H229353   4.819   4.179   3.334
 9804TIP3   OH229354   2.559   3.927   5.629
 9804TIP3    H129355   2.510   3.926   5.711
 9804TIP3    H229356   2.608   3.845   5.628
 9805TIP3   OH229357   1.147   7.421   5.689
 9805TIP3    H129358   1.073   7.422   5.749
 9805TIP3    H229359   1.206   7.488   5.723
 9806TIP3   OH229360   2.170   3.906   5.084
 9806TIP3    H129361   2.261   3.880   5.093
 9806TIP3    H229362   2.170   4.001   5.095
 9807TIP3   OH229363   3.241   1.146   6.207
 9807TIP3    H129364   3.195   1.194   6.138
 9807TIP3    H229365   3.292   1.214   6.253
 9808TIP3   OH229366   6.606   2.377   3.912
 9808TIP3    H129367   6.630   2.355   3.822
 9808TIP3    H229368   6.517   2.411   3.905
 9809TIP3   OH229369   2.426   2.069   0.115
 9809TIP3    H129370   2.441   2.006   0.044
 9809TIP3    H229371   2.476   2.033   0.189
 9810TIP3   OH229372   0.920   0.391   5.230
 9810TIP3    H129373   0.967   0.352   5.156
 9810TIP3    H229374   0.854   0.447   5.190
 9811TIP3   OH229375   2.459   3.775   1.042
 9811TIP3    H129376   2.449   3.865   1.073
 9811TIP3    H229377   2.547   3.749   1.073
 9812TIP3   OH229378   4.887   7.073   4.317
 9812TIP3    H129379   4.851   7.044   4.234
 9812TIP3    H229380   4.914   6.993   4.361
 9813TIP3   OH229381   5.468   0.921   4.546
 9813TIP3    H129382   5.421   1.001   4.570
 9813TIP3    H229383   5.489   0.933   4.453
 9814TIP3   OH229384   2.706   7.463   3.889
 9814TIP3    H129385   2.742   7.511   3.963
 9814TIP3    H229386   2.621   7.504   3.874
 9815TIP3   OH229387   7.231   6.018   6.460
 9815TIP3    H129388   7.137   6.038   6.455
 9815TIP3    H229389   7.258   6.054   6.545
 9816TIP3   OH229390   6.492   3.645   6.744
 9816TIP3    H129391   6.551   3.720   6.750
 9816TIP3    H229392   6.411   3.681   6.707
 9817TIP3   OH229393   3.023   7.367   2.935
 9817TIP3    H129394   2.940   7.410   2.916
 9817TIP3    H229395   3.030   7.298   2.869
 9818TIP3   OH229396   4.639   1.403   5.401
 9818TIP3    H129397   4.584   1.471   5.440
 9818TIP3    H229398   4.682   1.446   5.328
 9819TIP3   OH229399   6.090   6.388   0.452
 9819TIP3    H129400   5.996   6.375   0.441
 9819TIP3    H229401   6.128   6.355   0.370
 9820TIP3   OH229402   4.491   1.059   5.266
 9820TIP3    H129403   4.586   1.068   5.276
 9820TIP3    H229404   4.479   0.969   5.236
 9821TIP3   OH229405   6.052   4.780   0.606
 9821TIP3    H129406   6.130   4.821   0.568
 9821TIP3    H229407   6.076   4.688   0.617
 9822TIP3   OH229408   6.507   4.636   0.208
 9822TIP3    H129409   6.518   4.715   0.156
 9822TIP3    H229410   6.447   4.581   0.157
 9823TIP3   OH229411   4.933   3.484   2.479
 9823TIP3    H129412   4.948   3.414   2.543
 9823TIP3    H229413   4.951   3.442   2.394
 9824TIP3   OH229414   3.105   2.986   6.439
 9824TIP3    H129415   3.115   3.068   6.487
 9824TIP3    H229416   3.194   2.951   6.432
 9825TIP3   OH229417   1.409   1.369   3.229
 9825TIP3    H129418   1.402   1.464   3.219
 9825TIP3    H229419   1.503   1.353   3.241
 9826TIP3   OH229420   5.231   3.227   2.686
 9826TIP3    H129421   5.173   3.176   2.742
 9826TIP3    H229422   5.258   3.301   2.741
 9827TIP3   OH229423   7.837   6.320   4.944
 9827TIP3    H129424   7.767   6.264   4.912
 9827TIP3    H229425   7.805   6.353   5.028
 9828TIP3   OH229426   1.899   0.411   1.824
 9828TIP3    H129427   1.853   0.375   1.748
 9828TIP3    H229428   1.915   0.502   1.801
 9829TIP3   OH229429   1.997   5.397   2.385
 9829TIP3    H129430   1.910   5.394   2.345
 9829TIP3    H229431   2.002   5.319   2.439
 9830TIP3   OH229432   4.674   7.468   1.459
 9830TIP3    H129433   4.708   7.557   1.471
 9830TIP3    H229434   4.676   7.430   1.547
 9831TIP3   OH229435   2.370   0.708   1.205
 9831TIP3    H129436   2.276   0.688   1.206
 9831TIP3    H229437   2.412   0.622   1.195
 9832TIP3   OH229438   0.886   6.969   1.704
 9832TIP3    H129439   0.892   7.039   1.770
 9832TIP3    H229440   0.796   6.938   1.710
 9833TIP3   OH229441   1.254   0.543   6.669
 9833TIP3    H129442   1.270   0.551   6.763
 9833TIP3    H229443   1.198   0.618   6.648
 9834TIP3   OH229444   0.407   5.371   6.442
 9834TIP3    H129445   0.499   5.374   6.416
 9834TIP3    H229446   0.363   5.434   6.386
 9835TIP3   OH229447   8.013   0.592   1.447
 9835TIP3    H129448   8.001   0.654   1.519
 9835TIP3    H229449   7.925   0.562   1.426
 9836TIP3   OH229450   2.540   4.476   4.864
 9836TIP3    H129451   2.630   4.454   4.842
 9836TIP3    H229452   2.499   4.392   4.887
 9837TIP3   OH229453   6.276   5.031   3.214
 9837TIP3    H129454   6.361   4.995   3.239
 9837TIP3    H229455   6.218   5.010   3.288
 9838TIP3   OH229456   1.764   3.114   6.628
 9838TIP3    H129457   1.827   3.127   6.699
 9838TIP3    H229458   1.688   3.075   6.671
 9839TIP3   OH229459   3.859   5.653   5.361
 9839TIP3    H129460   3.890   5.682   5.447
 9839TIP3    H229461   3.939   5.630   5.313
 9840TIP3   OH229462   5.008   5.190   3.845
 9840TIP3    H129463   4.921   5.189   3.805
 9840TIP3    H229464   5.011   5.111   3.898
 9841TIP3   OH229465   4.728   7.559   0.750
 9841TIP3    H129466   4.728   7.596   0.662
 9841TIP3    H229467   4.739   7.635   0.808
 9842TIP3   OH229468   3.743   1.875   1.741
 9842TIP3    H129469   3.733   1.788   1.701
 9842TIP3    H229470   3.832   1.901   1.717
 9843TIP3   OH229471   2.611   2.672   2.679
 9843TIP3    H129472   2.628   2.614   2.605
 9843TIP3    H229473   2.516   2.669   2.690
 9844TIP3   OH229474   3.927   3.674   0.709
 9844TIP3    H129475   3.940   3.606   0.643
 9844TIP3    H229476   3.836   3.665   0.736
 9845TIP3   OH229477   1.618   1.781   4.659
 9845TIP3    H129478   1.679   1.710   4.639
 9845TIP3    H229479   1.652   1.821   4.738
 9846TIP3   OH229480   5.227   0.349   5.110
 9846TIP3    H129481   5.207   0.298   5.188
 9846TIP3    H229482   5.212   0.440   5.136
 9847TIP3   OH229483   6.295   7.121   5.502
 9847TIP3    H129484   6.329   7.139   5.415
 9847TIP3    H229485   6.238   7.195   5.523
 9848TIP3   OH229486   4.337   1.958   6.584
 9848TIP3    H129487   4.337   1.951   6.489
 9848TIP3    H229488   4.351   1.868   6.615
 9849TIP3   OH229489   5.438   7.092   5.330
 9849TIP3    H129490   5.512   7.120   5.275
 9849TIP3    H229491   5.384   7.170   5.338
 9850TIP3   OH229492   2.356   4.018   4.730
 9850TIP3    H129493   2.303   3.970   4.666
 9850TIP3    H229494   2.389   3.950   4.789
 9851TIP3   OH229495   1.219   0.738   1.676
 9851TIP3    H129496   1.205   0.824   1.716
 9851TIP3    H229497   1.293   0.750   1.617
 9852TIP3   OH229498   6.554   7.619   6.596
 9852TIP3    H129499   6.462   7.644   6.590
 9852TIP3    H229500   6.574   7.578   6.512
 9853TIP3   OH229501   3.679   1.141   2.451
 9853TIP3    H129502   3.620   1.147   2.526
 9853TIP3    H229503   3.706   1.231   2.433
 9854TIP3   OH229504   8.081   4.946   3.644
 9854TIP3    H129505   8.002   4.943   3.698
 9854TIP3    H229506   8.120   4.859   3.655
 9855TIP3   OH229507   7.938   7.574   5.619
 9855TIP3    H129508   7.843   7.558   5.614
 9855TIP3    H229509   7.972   7.498   5.667
 9856TIP3   OH229510   4.173   3.452   5.265
 9856TIP3    H129511   4.105   3.519   5.277
 9856TIP3    H229512   4.125   3.370   5.260
 9857TIP3   OH229513   8.089   3.700   0.957
 9857TIP3    H129514   8.180   3.701   0.927
 9857TIP3    H229515   8.066   3.792   0.967
 9858TIP3   OH229516   8.224   3.604   0.499
 9858TIP3    H129517   8.206   3.510   0.507
 9858TIP3    H229518   8.300   3.609   0.441
 9859TIP3   OH229519   2.147   4.268   4.691
 9859TIP3    H129520   2.182   4.355   4.709
 9859TIP3    H229521   2.142   4.263   4.595
 9860TIP3   OH229522   3.859   6.957   6.171
 9860TIP3    H129523   3.853   7.052   6.167
 9860TIP3    H229524   3.920   6.933   6.101
 9861TIP3   OH229525   6.111   1.294   3.109
 9861TIP3    H129526   6.022   1.269   3.136
 9861TIP3    H229527   6.098   1.369   3.051
 9862TIP3   OH229528   0.468   3.538   6.360
 9862TIP3    H129529   0.534   3.555   6.293
 9862TIP3    H229530   0.517   3.540   6.442
 9863TIP3   OH229531   1.015   3.555   0.661
 9863TIP3    H129532   0.946   3.592   0.605
 9863TIP3    H229533   0.992   3.583   0.749
 9864TIP3   OH229534   2.022   4.091   4.860
 9864TIP3    H129535   2.043   4.170   4.809
 9864TIP3    H229536   2.102   4.039   4.856
 9865TIP3   OH229537   7.468   4.666   3.069
 9865TIP3    H129538   7.383   4.709   3.064
 9865TIP3    H229539   7.530   4.738   3.081
 9866TIP3   OH229540   4.621   7.256   4.695
 9866TIP3    H129541   4.641   7.185   4.633
 9866TIP3    H229542   4.535   7.233   4.730
 9867TIP3   OH229543   1.011   2.819   2.961
 9867TIP3    H129544   1.043   2.831   3.051
 9867TIP3    H229545   0.933   2.874   2.956
 9868TIP3   OH229546   2.944   7.096   5.556
 9868TIP3    H129547   2.991   7.109   5.474
 9868TIP3    H229548   2.864   7.051   5.531
 9869TIP3   OH229549   4.867   6.483   5.222
 9869TIP3    H129550   4.894   6.530   5.143
 9869TIP3    H229551   4.854   6.552   5.287
 9870TIP3   OH229552   5.566   6.504   0.247
 9870TIP3    H129553   5.520   6.432   0.291
 9870TIP3    H229554   5.502   6.574   0.241
 9871TIP3   OH229555   5.604   1.322   5.389
 9871TIP3    H129556   5.567   1.239   5.358
 9871TIP3    H229557   5.616   1.374   5.309
 9872TIP3   OH229558   4.681   5.616   4.223
 9872TIP3    H129559   4.695   5.701   4.265
 9872TIP3    H229560   4.736   5.619   4.145
 9873TIP3   OH229561   1.988   4.407   5.834
 9873TIP3    H129562   2.067   4.457   5.814
 9873TIP3    H229563   1.976   4.417   5.928
 9874TIP3   OH229564   5.793   3.606   1.395
 9874TIP3    H129565   5.866   3.643   1.344
 9874TIP3    H229566   5.834   3.545   1.456
 9875TIP3   OH229567   1.881   6.386   1.897
 9875TIP3    H129568   1.930   6.324   1.951
 9875TIP3    H229569   1.902   6.472   1.934
 9876TIP3   OH229570   2.983   3.458   0.853
 9876TIP3    H129571   3.008   3.366   0.866
 9876TIP3    H229572   3.055   3.508   0.892
 9877TIP3   OH229573   7.712   2.391   5.539
 9877TIP3    H129574   7.627   2.350   5.529
 9877TIP3    H229575   7.698   2.458   5.607
 9878TIP3   OH229576   4.102   5.230   0.500
 9878TIP3    H129577   4.148   5.152   0.529
 9878TIP3    H229578   4.135   5.300   0.556
 9879TIP3   OH229579   1.318   1.378   1.084
 9879TIP3    H129580   1.351   1.454   1.131
 9879TIP3    H229581   1.350   1.303   1.134
 9880TIP3   OH229582   3.213   5.353   4.296
 9880TIP3    H129583   3.292   5.404   4.314
 9880TIP3    H229584   3.141   5.413   4.317
 9881TIP3   OH229585   1.260   5.417   5.119
 9881TIP3    H129586   1.263   5.458   5.206
 9881TIP3    H229587   1.213   5.335   5.133
 9882TIP3   OH229588   4.011   7.726   1.606
 9882TIP3    H129589   4.019   7.793   1.538
 9882TIP3    H229590   4.077   7.750   1.671
 9883TIP3   OH229591   5.223   1.483   5.134
 9883TIP3    H129592   5.155   1.419   5.112
 9883TIP3    H229593   5.306   1.438   5.116
 9884TIP3   OH229594   4.274   7.127   6.068
 9884TIP3    H129595   4.197   7.181   6.082
 9884TIP3    H229596   4.239   7.039   6.051
 9885TIP3   OH229597   1.254   2.356   1.185
 9885TIP3    H129598   1.342   2.345   1.220
 9885TIP3    H229599   1.259   2.317   1.097
 9886TIP3   OH229600   4.413   5.445   2.467
 9886TIP3    H129601   4.470   5.481   2.399
 9886TIP3    H229602   4.331   5.494   2.457
 9887TIP3   OH229603   7.842   4.025   5.627
 9887TIP3    H129604   7.813   4.107   5.587
 9887TIP3    H229605   7.774   4.004   5.690
 9888TIP3   OH229606   3.361   6.744   4.388
 9888TIP3    H129607   3.307   6.792   4.451
 9888TIP3    H229608   3.307   6.668   4.364
 9889TIP3   OH229609   1.747   2.602   4.660
 9889TIP3    H129610   1.733   2.691   4.693
 9889TIP3    H229611   1.671   2.553   4.691
 9890TIP3   OH229612   3.344   6.070   1.692
 9890TIP3    H129613   3.260   6.042   1.728
 9890TIP3    H229614   3.379   6.131   1.757
 9891TIP3   OH229615   0.793   7.267   4.834
 9891TIP3    H129616   0.875   7.283   4.881
 9891TIP3    H229617   0.795   7.174   4.812
 9892TIP3   OH229618   6.102   1.917   6.650
 9892TIP3    H129619   6.103   1.877   6.737
 9892TIP3    H229620   6.020   1.967   6.648
 9893TIP3   OH229621   2.168   3.630   2.537
 9893TIP3    H129622   2.223   3.677   2.600
 9893TIP3    H229623   2.084   3.676   2.538
 9894TIP3   OH229624   3.757   7.444   2.544
 9894TIP3    H129625   3.772   7.490   2.627
 9894TIP3    H229626   3.673   7.400   2.556
 9895TIP3   OH229627   1.022   2.167   5.757
 9895TIP3    H129628   1.063   2.207   5.680
 9895TIP3    H229629   1.010   2.239   5.818
 9896TIP3   OH229630   6.730   1.265   5.939
 9896TIP3    H129631   6.693   1.239   5.855
 9896TIP3    H229632   6.711   1.358   5.945
 9897TIP3   OH229633   7.022   6.192   3.923
 9897TIP3    H129634   7.090   6.157   3.980
 9897TIP3    H229635   7.062   6.268   3.881
 9898TIP3   OH229636   4.692   1.497   0.475
 9898TIP3    H129637   4.741   1.570   0.514
 9898TIP3    H229638   4.601   1.516   0.498
 9899TIP3   OH229639   2.250   1.335   5.835
 9899TIP3    H129640   2.221   1.280   5.763
 9899TIP3    H229641   2.303   1.278   5.890
 9900TIP3   OH229642   1.192   3.476   3.266
 9900TIP3    H129643   1.203   3.383   3.286
 9900TIP3    H229644   1.277   3.503   3.230
 9901TIP3   OH229645   0.209   0.747   6.018
 9901TIP3    H129646   0.265   0.822   6.000
 9901TIP3    H229647   0.262   0.671   5.991
 9902TIP3   OH229648   2.743   4.662   0.104
 9902TIP3    H129649   2.831   4.626   0.114
 9902TIP3    H229650   2.687   4.601   0.151
 9903TIP3   OH229651   0.464   6.241   4.783
 9903TIP3    H129652   0.516   6.260   4.861
 9903TIP3    H229653   0.508   6.289   4.712
 9904TIP3   OH229654   7.354   7.042   1.573
 9904TIP3    H129655   7.404   7.096   1.635
 9904TIP3    H229656   7.278   7.095   1.551
 9905TIP3   OH229657   0.043   4.533   5.249
 9905TIP3    H129658   0.136   4.513   5.262
 9905TIP3    H229659   0.041   4.628   5.239
 9906TIP3   OH229660   8.154   2.457   5.683
 9906TIP3    H129661   8.089   2.419   5.624
 9906TIP3    H229662   8.105   2.483   5.761
 9907TIP3   OH229663   3.387   4.715   2.189
 9907TIP3    H129664   3.425   4.666   2.117
 9907TIP3    H229665   3.402   4.661   2.266
 9908TIP3   OH229666   3.548   4.952   2.767
 9908TIP3    H129667   3.519   4.910   2.847
 9908TIP3    H229668   3.611   5.018   2.796
 9909TIP3   OH229669   7.085   6.033   5.656
 9909TIP3    H129670   7.119   6.049   5.744
 9909TIP3    H229671   7.103   6.114   5.608
 9910TIP3   OH229672   1.694   2.006   3.644
 9910TIP3    H129673   1.785   1.980   3.655
 9910TIP3    H229674   1.671   1.976   3.556
 9911TIP3   OH229675   4.301   5.475   3.780
 9911TIP3    H129676   4.297   5.380   3.768
 9911TIP3    H229677   4.327   5.486   3.871
 9912TIP3   OH229678   1.481   0.724   1.518
 9912TIP3    H129679   1.447   0.745   1.431
 9912TIP3    H229680   1.493   0.629   1.517
 9913TIP3   OH229681   1.718   1.156   1.847
 9913TIP3    H129682   1.779   1.145   1.774
 9913TIP3    H229683   1.632   1.143   1.808
 9914TIP3   OH229684   5.403   4.962   4.763
 9914TIP3    H129685   5.351   4.976   4.684
 9914TIP3    H229686   5.368   4.882   4.801
 9915TIP3   OH229687   5.293   3.221   2.979
 9915TIP3    H129688   5.227   3.155   2.958
 9915TIP3    H229689   5.258   3.266   3.056
 9916TIP3   OH229690   1.605   6.627   1.444
 9916TIP3    H129691   1.554   6.707   1.431
 9916TIP3    H229692   1.630   6.600   1.355
 9917TIP3   OH229693   3.215   2.501   2.592
 9917TIP3    H129694   3.255   2.424   2.633
 9917TIP3    H229695   3.249   2.500   2.503
 9918TIP3   OH229696   6.436   7.396   6.716
 9918TIP3    H129697   6.432   7.488   6.690
 9918TIP3    H229698   6.396   7.349   6.642
 9919TIP3   OH229699   7.408   5.207   3.130
 9919TIP3    H129700   7.504   5.203   3.131
 9919TIP3    H229701   7.384   5.216   3.222
 9920TIP3   OH229702   4.043   3.091   6.195
 9920TIP3    H129703   4.058   3.138   6.113
 9920TIP3    H229704   4.076   3.150   6.263
 9921TIP3   OH229705   7.885   6.983   0.431
 9921TIP3    H129706   7.865   7.065   0.476
 9921TIP3    H229707   7.855   6.914   0.490
 9922TIP3   OH229708   4.372   3.128   6.672
 9922TIP3    H129709   4.277   3.140   6.666
 9922TIP3    H229710   4.398   3.098   6.586
 9923TIP3   OH229711   6.386   0.157   3.532
 9923TIP3    H129712   6.477   0.177   3.510
 9923TIP3    H229713   6.392   0.112   3.617
 9924TIP3   OH229714   0.963   0.192   3.835
 9924TIP3    H129715   1.004   0.135   3.769
 9924TIP3    H229716   0.934   0.269   3.785
 9925TIP3   OH229717   2.780   6.834   5.703
 9925TIP3    H129718   2.766   6.929   5.704
 9925TIP3    H229719   2.748   6.806   5.618
 9926TIP3   OH229720   2.140   1.878   6.337
 9926TIP3    H129721   2.210   1.814   6.340
 9926TIP3    H229722   2.175   1.950   6.285
 9927TIP3   OH229723   3.700   1.764   6.641
 9927TIP3    H129724   3.733   1.713   6.715
 9927TIP3    H229725   3.731   1.853   6.657
 9928TIP3   OH229726   1.806   0.822   0.820
 9928TIP3    H129727   1.734   0.801   0.761
 9928TIP3    H229728   1.856   0.740   0.827
 9929TIP3   OH229729   1.890   0.691   1.770
 9929TIP3    H129730   1.914   0.719   1.858
 9929TIP3    H229731   1.804   0.731   1.755
 9930TIP3   OH229732   6.687   2.452   2.223
 9930TIP3    H129733   6.611   2.475   2.277
 9930TIP3    H229734   6.666   2.366   2.187
 9931TIP3   OH229735   1.961   4.771   3.929
 9931TIP3    H129736   1.875   4.748   3.895
 9931TIP3    H229737   1.952   4.861   3.959
 9932TIP3   OH229738   8.231   5.314   6.763
 9932TIP3    H129739   8.158   5.370   6.736
 9932TIP3    H229740   8.307   5.348   6.716
 9933TIP3   OH229741   7.213   1.560   0.743
 9933TIP3    H129742   7.154   1.621   0.787
 9933TIP3    H229743   7.254   1.510   0.814
 9934TIP3   OH229744   4.659   7.656   6.057
 9934TIP3    H129745   4.708   7.713   6.116
 9934TIP3    H229746   4.634   7.581   6.111
 9935TIP3   OH229747   6.772   3.198   2.442
 9935TIP3    H129748   6.757   3.114   2.485
 9935TIP3    H229749   6.702   3.204   2.377
 9936TIP3   OH229750   2.137   0.169   0.964
 9936TIP3    H129751   2.207   0.232   0.981
 9936TIP3    H229752   2.158   0.094   1.020
 9937TIP3   OH229753   0.620   2.766   6.134
 9937TIP3    H129754   0.576   2.822   6.199
 9937TIP3    H229755   0.571   2.781   6.053
 9938TIP3   OH229756   2.629   3.705   6.328
 9938TIP3    H129757   2.698   3.771   6.330
 9938TIP3    H229758   2.675   3.622   6.337
 9939TIP3   OH229759   6.851   5.726   3.000
 9939TIP3    H129760   6.875   5.666   3.070
 9939TIP3    H229761   6.770   5.690   2.964
 9940TIP3   OH229762   6.020   6.903   4.686
 9940TIP3    H129763   6.004   6.810   4.670
 9940TIP3    H229764   6.023   6.911   4.781
 9941TIP3   OH229765   3.235   5.683   6.214
 9941TIP3    H129766   3.310   5.741   6.229
 9941TIP3    H229767   3.189   5.682   6.297
 9942TIP3   OH229768   2.022   1.118   4.322
 9942TIP3    H129769   1.962   1.054   4.358
 9942TIP3    H229770   2.081   1.139   4.395
 9943TIP3   OH229771   1.990   2.541   0.570
 9943TIP3    H129772   2.061   2.504   0.622
 9943TIP3    H229773   2.016   2.525   0.479
 9944TIP3   OH229774   3.418   3.036   5.754
 9944TIP3    H129775   3.402   3.108   5.693
 9944TIP3    H229776   3.487   3.069   5.812
 9945TIP3   OH229777   1.383   0.171   0.817
 9945TIP3    H129778   1.294   0.159   0.782
 9945TIP3    H229779   1.369   0.194   0.909
 9946TIP3   OH229780   3.208   2.106   3.868
 9946TIP3    H129781   3.196   2.062   3.783
 9946TIP3    H229782   3.273   2.174   3.850
 9947TIP3   OH229783   6.482   5.267   3.392
 9947TIP3    H129784   6.458   5.255   3.300
 9947TIP3    H229785   6.445   5.191   3.436
 9948TIP3   OH229786   7.543   1.420   0.706
 9948TIP3    H129787   7.612   1.379   0.653
 9948TIP3    H229788   7.561   1.392   0.795
 9949TIP3   OH229789   1.217   5.659   4.439
 9949TIP3    H129790   1.123   5.644   4.447
 9949TIP3    H229791   1.229   5.751   4.461
 9950TIP3   OH229792   6.547   7.249   2.697
 9950TIP3    H129793   6.495   7.272   2.774
 9950TIP3    H229794   6.632   7.292   2.711
 9951TIP3   OH229795   2.134  -0.012   4.493
 9951TIP3    H129796   2.085   0.053   4.543
 9951TIP3    H229797   2.213   0.033   4.464
 9952TIP3   OH229798   0.936   0.746   2.664
 9952TIP3    H129799   0.954   0.812   2.597
 9952TIP3    H229800   0.977   0.781   2.744
 9953TIP3   OH229801   6.850   4.432   3.709
 9953TIP3    H129802   6.776   4.401   3.656
 9953TIP3    H229803   6.824   4.519   3.737
 9954TIP3   OH229804   5.363   4.668   1.432
 9954TIP3    H129805   5.399   4.757   1.435
 9954TIP3    H229806   5.288   4.675   1.373
 9955TIP3   OH229807   7.727   2.339   5.225
 9955TIP3    H129808   7.659   2.305   5.283
 9955TIP3    H229809   7.693   2.325   5.137
 9956TIP3   OH229810   5.886   2.136   5.400
 9956TIP3    H129811   5.859   2.226   5.379
 9956TIP3    H229812   5.836   2.082   5.339
 9957TIP3   OH229813   3.142   1.966   1.493
 9957TIP3    H129814   3.206   1.960   1.422
 9957TIP3    H229815   3.138   1.877   1.529
 9958TIP3   OH229816   5.019   4.258   6.088
 9958TIP3    H129817   5.022   4.328   6.154
 9958TIP3    H229818   4.978   4.185   6.134
 9959TIP3   OH229819   6.224   6.773   1.342
 9959TIP3    H129820   6.275   6.748   1.265
 9959TIP3    H229821   6.290   6.800   1.406
 9960TIP3   OH229822   3.010   4.110   1.095
 9960TIP3    H129823   2.996   4.078   1.184
 9960TIP3    H229824   2.927   4.153   1.072
 9961TIP3   OH229825  -0.036   7.490   4.110
 9961TIP3    H129826   0.059   7.503   4.112
 9961TIP3    H229827  -0.055   7.443   4.191
 9962TIP3   OH229828   1.897   5.409   3.283
 9962TIP3    H129829   1.843   5.458   3.221
 9962TIP3    H229830   1.928   5.333   3.233
 9963TIP3   OH229831   2.230   6.716   1.605
 9963TIP3    H129832   2.174   6.699   1.681
 9963TIP3    H229833   2.201   6.802   1.573
 9964TIP3   OH229834   0.787   1.573   0.599
 9964TIP3    H129835   0.819   1.649   0.647
 9964TIP3    H229836   0.857   1.552   0.537
 9965TIP3   OH229837   1.298   2.624   4.453
 9965TIP3    H129838   1.296   2.718   4.468
 9965TIP3    H229839   1.377   2.608   4.401
 9966TIP3   OH229840   0.224   1.612   0.264
 9966TIP3    H129841   0.205   1.651   0.178
 9966TIP3    H229842   0.275   1.680   0.309
 9967TIP3   OH229843   3.601   3.565   0.599
 9967TIP3    H129844   3.612   3.607   0.684
 9967TIP3    H229845   3.646   3.624   0.538
 9968TIP3   OH229846   4.273   1.868   0.785
 9968TIP3    H129847   4.218   1.891   0.860
 9968TIP3    H229848   4.263   1.942   0.724
 9969TIP3   OH229849   7.209   1.580   3.893
 9969TIP3    H129850   7.116   1.600   3.883
 9969TIP3    H229851   7.217   1.488   3.870
 9970TIP3   OH229852   4.990   3.079   4.574
 9970TIP3    H129853   4.952   3.154   4.527
 9970TIP3    H229854   5.084   3.089   4.561
 9971TIP3   OH229855   7.714   7.056   5.058
 9971TIP3    H129856   7.657   7.011   4.995
 9971TIP3    H229857   7.657   7.077   5.132
 9972TIP3   OH229858   5.690   1.288   0.187
 9972TIP3    H129859   5.688   1.195   0.165
 9972TIP3    H229860   5.608   1.323   0.152
 9973TIP3   OH229861   5.820   4.518   4.620
 9973TIP3    H129862   5.871   4.440   4.598
 9973TIP3    H229863   5.745   4.484   4.669
 9974TIP3   OH229864   6.428   2.085   0.893
 9974TIP3    H129865   6.470   2.058   0.975
 9974TIP3    H229866   6.378   2.009   0.865
 9975TIP3   OH229867   0.649   1.293   1.991
 9975TIP3    H129868   0.637   1.354   1.918
 9975TIP3    H229869   0.719   1.332   2.044
 9976TIP3   OH229870   7.448   6.838   2.118
 9976TIP3    H129871   7.457   6.869   2.209
 9976TIP3    H229872   7.539   6.822   2.090
 9977TIP3   OH229873   7.263   1.855   4.768
 9977TIP3    H129874   7.174   1.828   4.748
 9977TIP3    H229875   7.318   1.787   4.729
 9978TIP3   OH229876   3.175   6.813   4.574
 9978TIP3    H129877   3.229   6.776   4.644
 9978TIP3    H229878   3.095   6.760   4.575
 9979TIP3   OH229879   0.179   7.419   3.689
 9979TIP3    H129880   0.250   7.383   3.741
 9979TIP3    H229881   0.206   7.508   3.669
 9980TIP3   OH229882   1.671   1.497   0.129
 9980TIP3    H129883   1.582   1.479   0.160
 9980TIP3    H229884   1.664   1.582   0.085
 9981TIP3   OH229885   2.473   3.343   2.325
 9981TIP3    H129886   2.411   3.416   2.326
 9981TIP3    H229887   2.438   3.281   2.389
 9982TIP3   OH229888   0.331   5.310   4.857
 9982TIP3    H129889   0.405   5.296   4.917
 9982TIP3    H229890   0.320   5.225   4.813
 9983TIP3   OH229891   6.189   7.587   6.378
 9983TIP3    H129892   6.221   7.677   6.374
 9983TIP3    H229893   6.111   7.587   6.322
 9984TIP3   OH229894   8.125   4.379   3.561
 9984TIP3    H129895   8.207   4.360   3.608
 9984TIP3    H229896   8.122   4.474   3.556
 9985TIP3   OH229897   3.502   6.214   5.850
 9985TIP3    H129898   3.413   6.194   5.879
 9985TIP3    H229899   3.546   6.128   5.848
 9986TIP3   OH229900   3.996   3.488   3.743
 9986TIP3    H129901   4.063   3.430   3.780
 9986TIP3    H229902   3.919   3.472   3.798
 9987TIP3   OH229903   3.960   0.005   0.203
 9987TIP3    H129904   3.885   0.028   0.257
 9987TIP3    H229905   4.031  -0.009   0.265
 9988TIP3   OH229906   4.338   1.454   6.060
 9988TIP3    H129907   4.422   1.414   6.083
 9988TIP3    H229908   4.288   1.384   6.019
 9989TIP3   OH229909   0.101   4.589   1.199
 9989TIP3    H129910   0.039   4.615   1.267
 9989TIP3    H229911   0.185   4.623   1.229
 9990TIP3   OH229912   4.011   7.012   0.306
 9990TIP3    H129913   4.044   7.039   0.220
 9990TIP3    H229914   4.064   7.062   0.369
 9991TIP3   OH229915   7.408   7.810   2.062
 9991TIP3    H129916   7.492   7.853   2.074
 9991TIP3    H229917   7.419   7.756   1.984
 9992TIP3   OH229918   7.551   1.020   6.155
 9992TIP3    H129919   7.591   1.024   6.242
 9992TIP3    H229920   7.503   1.102   6.148
 9993TIP3   OH229921   4.888   0.689   5.046
 9993TIP3    H129922   4.863   0.728   5.130
 9993TIP3    H229923   4.983   0.702   5.041
 9994TIP3   OH229924   6.349   3.842   2.639
 9994TIP3    H129925   6.348   3.822   2.545
 9994TIP3    H229926   6.258   3.865   2.659
 9995TIP3   OH229927   5.311   1.035   6.727
 9995TIP3    H129928   5.282   1.120   6.759
 9995TIP3    H229929   5.233   0.995   6.688
 9996TIP3   OH229930   7.128   3.993   0.849
 9996TIP3    H129931   7.090   3.913   0.813
 9996TIP3    H229932   7.063   4.023   0.913
 9997TIP3   OH229933   6.694   3.565   1.474
 9997TIP3    H129934   6.788   3.546   1.475
 9997TIP3    H229935   6.675   3.596   1.562
 9998TIP3   OH229936   0.942   6.480   4.244
 9998TIP3    H129937   0.948   6.569   4.211
 9998TIP3    H229938   0.970   6.487   4.336
 9999TIP3   OH229939   5.890   4.594   5.051
 9999TIP3    H129940   5.983   4.589   5.029
 9999TIP3    H229941   5.857   4.667   4.999
10000TIP3   OH229942   2.052   6.477   2.531
10000TIP3    H129943   2.026   6.491   2.440
10000TIP3    H229944   1.969   6.478   2.580
10001TIP3   OH229945   4.866   6.842   3.184
10001TIP3    H129946   4.790   6.812   3.234
10001TIP3    H229947   4.846   6.934   3.164
10002TIP3   OH229948   4.428   0.794   5.167
10002TIP3    H129949   4.445   0.740   5.090
10002TIP3    H229950   4.505   0.781   5.223
10003TIP3   OH229951   0.762   1.405   4.881
10003TIP3    H129952   0.852   1.418   4.850
10003TIP3    H229953   0.728   1.334   4.828
10004TIP3   OH229954   4.581   7.406   4.185
10004TIP3    H129955   4.531   7.469   4.237
10004TIP3    H229956   4.650   7.375   4.244
10005TIP3   OH229957   3.455   2.302   3.841
10005TIP3    H129958   3.443   2.393   3.814
10005TIP3    H229959   3.498   2.307   3.926
10006TIP3   OH229960   4.339   0.057   0.234
10006TIP3    H129961   4.404   0.004   0.280
10006TIP3    H229962   4.284   0.093   0.304
10007TIP3   OH229963   8.245   1.022   6.556
10007TIP3    H129964   8.197   0.942   6.578
10007TIP3    H229965   8.256   1.018   6.461
10008TIP3   OH229966   5.553   4.964   3.617
10008TIP3    H129967   5.646   4.946   3.601
10008TIP3    H229968   5.507   4.907   3.556
10009TIP3   OH229969   0.744   3.860   0.865
10009TIP3    H129970   0.715   3.897   0.781
10009TIP3    H229971   0.665   3.860   0.919
10010TIP3   OH229972   0.914   1.411   0.802
10010TIP3    H129973   0.999   1.407   0.759
10010TIP3    H229974   0.923   1.481   0.867
10011TIP3   OH229975   4.159   0.464   3.114
10011TIP3    H129976   4.133   0.381   3.154
10011TIP3    H229977   4.099   0.529   3.151
10012TIP3   OH229978   2.741   2.262   4.099
10012TIP3    H129979   2.744   2.241   4.005
10012TIP3    H229980   2.649   2.283   4.115
10013TIP3   OH229981   4.150   3.283   4.763
10013TIP3    H129982   4.082   3.345   4.734
10013TIP3    H229983   4.226   3.305   4.709
10014TIP3   OH229984   5.062   4.464   5.643
10014TIP3    H129985   4.967   4.450   5.643
10014TIP3    H229986   5.093   4.417   5.565
10015TIP3   OH229987   6.850   5.627   4.062
10015TIP3    H129988   6.781   5.561   4.060
10015TIP3    H229989   6.890   5.623   3.974
10016TIP3   OH229990   0.011   0.943   0.526
10016TIP3    H129991   0.066   1.000   0.579
10016TIP3    H229992  -0.054   0.909   0.586
10017TIP3   OH229993   5.316   2.160   2.784
10017TIP3    H129994   5.225   2.179   2.763
10017TIP3    H229995   5.326   2.183   2.876
10018TIP3   OH229996   2.373   7.074   2.924
10018TIP3    H129997   2.392   7.110   2.838
10018TIP3    H229998   2.319   7.140   2.967
10019TIP3   OH229999   2.719   3.638   0.037
10019TIP3    H130000   2.652   3.701   0.010
10019TIP3    H230001   2.672   3.556   0.050
10020TIP3   OH230002   6.496   3.976   4.187
10020TIP3    H130003   6.433   4.034   4.145
10020TIP3    H230004   6.443   3.920   4.244
10021TIP3   OH230005   2.305   2.958   4.009
10021TIP3    H130006   2.225   2.910   4.030
10021TIP3    H230007   2.371   2.922   4.068
10022TIP3   OH230008   2.708   0.425   6.080
10022TIP3    H130009   2.651   0.501   6.069
10022TIP3    H230010   2.797   0.460   6.074
10023TIP3   OH230011   0.869   7.735   0.527
10023TIP3    H130012   0.776   7.747   0.511
10023TIP3    H230013   0.908   7.821   0.510
10024TIP3   OH230014   4.062   5.201   1.701
10024TIP3    H130015   4.086   5.139   1.633
10024TIP3    H230016   4.004   5.263   1.657
10025TIP3   OH230017   4.315   1.693   6.606
10025TIP3    H130018   4.298   1.664   6.696
10025TIP3    H230019   4.228   1.709   6.569
10026TIP3   OH230020   5.252   6.104   5.187
10026TIP3    H130021   5.274   6.045   5.258
10026TIP3    H230022   5.167   6.140   5.211
10027TIP3   OH230023   1.693   2.892   3.049
10027TIP3    H130024   1.721   2.801   3.042
10027TIP3    H230025   1.703   2.913   3.142
10028TIP3   OH230026   0.619   6.524   5.381
10028TIP3    H130027   0.552   6.495   5.443
10028TIP3    H230028   0.697   6.475   5.405
10029TIP3   OH230029   5.932   2.003   1.752
10029TIP3    H130030   5.977   1.941   1.809
10029TIP3    H230031   5.869   2.048   1.808
10030TIP3   OH230032   1.550   3.940   4.723
10030TIP3    H130033   1.588   4.023   4.752
10030TIP3    H230034   1.591   3.924   4.638
10031TIP3   OH230035   2.981   2.971   2.215
10031TIP3    H130036   2.999   2.968   2.309
10031TIP3    H230037   3.050   3.026   2.179
10032TIP3   OH230038   2.215   2.646   2.099
10032TIP3    H130039   2.208   2.728   2.050
10032TIP3    H230040   2.230   2.673   2.189
10033TIP3   OH230041   6.031   2.962   1.127
10033TIP3    H130042   6.090   2.917   1.188
10033TIP3    H230043   6.075   3.045   1.109
10034TIP3   OH230044   0.192   2.014   5.430
10034TIP3    H130045   0.251   2.087   5.444
10034TIP3    H230046   0.221   1.947   5.492
10035TIP3   OH230047   3.782   7.086   0.463
10035TIP3    H130048   3.862   7.087   0.411
10035TIP3    H230049   3.733   7.011   0.429
10036TIP3   OH230050   5.245   0.633   4.028
10036TIP3    H130051   5.333   0.647   3.994
10036TIP3    H230052   5.251   0.659   4.120
10037TIP3   OH230053   4.920   2.418   6.090
10037TIP3    H130054   4.866   2.471   6.031
10037TIP3    H230055   5.002   2.404   6.041
10038TIP3   OH230056   5.601   5.748   2.520
10038TIP3    H130057   5.566   5.789   2.441
10038TIP3    H230058   5.646   5.670   2.489
10039TIP3   OH230059   6.762   0.946   1.101
10039TIP3    H130060   6.757   1.019   1.040
10039TIP3    H230061   6.718   0.874   1.056
10040TIP3   OH230062   5.169   0.647   5.558
10040TIP3    H130063   5.174   0.663   5.653
10040TIP3    H230064   5.237   0.703   5.521
10041TIP3   OH230065   3.721   6.522   5.373
10041TIP3    H130066   3.643   6.575   5.391
10041TIP3    H230067   3.724   6.458   5.444
10042TIP3   OH230068   6.965   0.742   5.483
10042TIP3    H130069   6.887   0.745   5.427
10042TIP3    H230070   7.009   0.661   5.458
10043TIP3   OH230071   7.631   6.295   3.941
10043TIP3    H130072   7.656   6.268   4.029
10043TIP3    H230073   7.690   6.246   3.884
10044TIP3   OH230074   4.037   1.060   4.068
10044TIP3    H130075   3.989   1.075   4.149
10044TIP3    H230076   3.975   1.082   3.998
10045TIP3   OH230077   3.781   6.812   6.409
10045TIP3    H130078   3.849   6.837   6.471
10045TIP3    H230079   3.794   6.870   6.334
10046TIP3   OH230080   7.395   5.475   4.674
10046TIP3    H130081   7.460   5.406   4.662
10046TIP3    H230082   7.334   5.439   4.739
10047TIP3   OH230083   4.260   7.101   2.617
10047TIP3    H130084   4.336   7.064   2.662
10047TIP3    H230085   4.245   7.185   2.660
10048TIP3   OH230086   1.667   4.204   6.250
10048TIP3    H130087   1.741   4.264   6.241
10048TIP3    H230088   1.680   4.139   6.181
10049TIP3   OH230089   5.350   0.210   1.294
10049TIP3    H130090   5.366   0.120   1.267
10049TIP3    H230091   5.292   0.203   1.370
10050TIP3   OH230092   2.431   5.878   4.961
10050TIP3    H130093   2.364   5.827   4.914
10050TIP3    H230094   2.510   5.825   4.954
10051TIP3   OH230095   7.976   2.434   3.936
10051TIP3    H130096   7.963   2.375   3.862
10051TIP3    H230097   8.062   2.473   3.920
10052TIP3   OH230098   4.124   6.425   2.474
10052TIP3    H130099   4.076   6.343   2.485
10052TIP3    H230100   4.214   6.398   2.458
10053TIP3   OH230101   0.452   6.280   5.140
10053TIP3    H130102   0.546   6.270   5.148
10053TIP3    H230103   0.416   6.199   5.175
10054TIP3   OH230104   6.129   2.743   4.629
10054TIP3    H130105   6.050   2.702   4.664
10054TIP3    H230106   6.201   2.702   4.677
10055TIP3   OH230107   6.652   4.763   5.579
10055TIP3    H130108   6.733   4.758   5.528
10055TIP3    H230109   6.582   4.752   5.514
10056TIP3   OH230110   6.036   6.988   5.639
10056TIP3    H130111   6.116   6.969   5.588
10056TIP3    H230112   6.025   6.911   5.695
10057TIP3   OH230113   3.253   6.659   1.745
10057TIP3    H130114   3.197   6.645   1.821
10057TIP3    H230115   3.231   6.747   1.714
10058TIP3   OH230116   2.059  -0.003   0.315
10058TIP3    H130117   2.048   0.084   0.276
10058TIP3    H230118   2.115   0.012   0.391
10059TIP3   OH230119   0.721   4.615   0.311
10059TIP3    H130120   0.669   4.686   0.347
10059TIP3    H230121   0.810   4.631   0.343
10060TIP3   OH230122   6.465   6.706   4.160
10060TIP3    H130123   6.536   6.745   4.210
10060TIP3    H230124   6.490   6.614   4.151
10061TIP3   OH230125   6.297   5.066   1.415
10061TIP3    H130126   6.288   4.995   1.478
10061TIP3    H230127   6.234   5.045   1.346
10062TIP3   OH230128   5.157   5.101   3.143
10062TIP3    H130129   5.230   5.070   3.197
10062TIP3    H230130   5.130   5.182   3.185
10063TIP3   OH230131   2.586   3.521   3.261
10063TIP3    H130132   2.630   3.437   3.249
10063TIP3    H230133   2.566   3.524   3.355
10064TIP3   OH230134   3.956   0.809   5.348
10064TIP3    H130135   4.036   0.812   5.295
10064TIP3    H230136   3.971   0.740   5.411
10065TIP3   OH230137   1.516   7.540   1.885
10065TIP3    H130138   1.568   7.556   1.806
10065TIP3    H230139   1.573   7.568   1.957
10066TIP3   OH230140   4.479   5.187   4.451
10066TIP3    H130141   4.384   5.190   4.439
10066TIP3    H230142   4.509   5.274   4.425
10067TIP3   OH230143   1.876   3.893   3.169
10067TIP3    H130144   1.893   3.818   3.226
10067TIP3    H230145   1.955   3.946   3.176
10068TIP3   OH230146   1.791   2.753   0.221
10068TIP3    H130147   1.825   2.692   0.156
10068TIP3    H230148   1.715   2.793   0.179
10069TIP3   OH230149   0.163   7.583   1.834
10069TIP3    H130150   0.159   7.560   1.742
10069TIP3    H230151   0.186   7.676   1.835
10070TIP3   OH230152   1.158   3.054   6.350
10070TIP3    H130153   1.188   3.012   6.269
10070TIP3    H230154   1.180   2.992   6.419
10071TIP3   OH230155   2.117   5.320   2.030
10071TIP3    H130156   2.063   5.356   2.101
10071TIP3    H230157   2.144   5.234   2.062
10072TIP3   OH230158   0.297   5.172   2.418
10072TIP3    H130159   0.356   5.245   2.398
10072TIP3    H230160   0.355   5.098   2.435
10073TIP3   OH230161   3.248   5.507   3.709
10073TIP3    H130162   3.284   5.468   3.788
10073TIP3    H230163   3.189   5.576   3.740
10074TIP3   OH230164   3.515   6.406   6.087
10074TIP3    H130165   3.508   6.311   6.094
10074TIP3    H230166   3.607   6.422   6.065
10075TIP3   OH230167   2.129   1.557   5.060
10075TIP3    H130168   2.169   1.574   4.975
10075TIP3    H230169   2.202   1.533   5.117
10076TIP3   OH230170   0.174   3.198   4.222
10076TIP3    H130171   0.269   3.206   4.209
10076TIP3    H230172   0.148   3.128   4.162
10077TIP3   OH230173   6.325   0.762   4.103
10077TIP3    H130174   6.240   0.758   4.059
10077TIP3    H230175   6.323   0.845   4.152
10078TIP3   OH230176   7.406   4.313   2.186
10078TIP3    H130177   7.329   4.369   2.198
10078TIP3    H230178   7.452   4.318   2.269
10079TIP3   OH230179   2.662   5.688   4.656
10079TIP3    H130180   2.653   5.618   4.591
10079TIP3    H230181   2.573   5.708   4.684
10080TIP3   OH230182   2.877   5.280   4.923
10080TIP3    H130183   2.838   5.273   5.010
10080TIP3    H230184   2.802   5.291   4.864
10081TIP3   OH230185   3.929   4.289   1.409
10081TIP3    H130186   3.907   4.377   1.378
10081TIP3    H230187   3.896   4.231   1.340
10082TIP3   OH230188   4.917   0.286   1.672
10082TIP3    H130189   4.826   0.272   1.647
10082TIP3    H230190   4.926   0.239   1.755
10083TIP3   OH230191   1.952   2.464   4.760
10083TIP3    H130192   2.023   2.491   4.702
10083TIP3    H230193   1.877   2.517   4.732
10084TIP3   OH230194   4.977   3.562   0.261
10084TIP3    H130195   4.937   3.597   0.182
10084TIP3    H230196   5.069   3.589   0.255
10085TIP3   OH230197   4.287   6.161   1.546
10085TIP3    H130198   4.312   6.237   1.495
10085TIP3    H230199   4.284   6.192   1.637
10086TIP3   OH230200   8.198   0.557   5.936
10086TIP3    H130201   8.254   0.486   5.967
10086TIP3    H230202   8.159   0.523   5.855
10087TIP3   OH230203   5.255   5.142   0.821
10087TIP3    H130204   5.261   5.234   0.849
10087TIP3    H230205   5.341   5.123   0.784
10088TIP3   OH230206   4.198   1.978   5.945
10088TIP3    H130207   4.199   2.030   5.865
10088TIP3    H230208   4.269   2.015   5.998
10089TIP3   OH230209   2.901   3.543   6.031
10089TIP3    H130210   2.890   3.455   6.068
10089TIP3    H230211   2.954   3.530   5.953
10090TIP3   OH230212   6.865   1.700   1.766
10090TIP3    H130213   6.942   1.649   1.793
10090TIP3    H230214   6.893   1.744   1.686
10091TIP3   OH230215   4.145   5.159   3.300
10091TIP3    H130216   4.146   5.090   3.233
10091TIP3    H230217   4.080   5.129   3.363
10092TIP3   OH230218   5.354   4.712   2.855
10092TIP3    H130219   5.330   4.735   2.766
10092TIP3    H230220   5.309   4.776   2.910
10093TIP3   OH230221   0.418   7.066   6.734
10093TIP3    H130222   0.323   7.052   6.733
10093TIP3    H230223   0.455   6.983   6.705
10094TIP3   OH230224   2.973   4.340   0.772
10094TIP3    H130225   2.961   4.406   0.703
10094TIP3    H230226   2.888   4.296   0.778
10095TIP3   OH230227   1.436   3.807   6.557
10095TIP3    H130228   1.531   3.817   6.563
10095TIP3    H230229   1.407   3.797   6.648
10096TIP3   OH230230   4.149   1.519   4.589
10096TIP3    H130231   4.129   1.611   4.575
10096TIP3    H230232   4.162   1.511   4.683
10097TIP3   OH230233   7.777   1.065   3.947
10097TIP3    H130234   7.840   1.000   3.980
10097TIP3    H230235   7.809   1.148   3.982
10098TIP3   OH230236   3.221   7.363   2.098
10098TIP3    H130237   3.256   7.341   2.184
10098TIP3    H230238   3.267   7.443   2.072
10099TIP3   OH230239   3.737   2.595   0.409
10099TIP3    H130240   3.766   2.534   0.340
10099TIP3    H230241   3.681   2.543   0.465
10100TIP3   OH230242   4.979   1.279   3.029
10100TIP3    H130243   4.967   1.185   3.044
10100TIP3    H230244   4.986   1.317   3.116
10101TIP3   OH230245   8.249   0.465   1.405
10101TIP3    H130246   8.267   0.469   1.498
10101TIP3    H230247   8.167   0.514   1.394
10102TIP3   OH230248   2.731   1.068   6.628
10102TIP3    H130249   2.780   1.150   6.616
10102TIP3    H230250   2.703   1.071   6.720
10103TIP3   OH230251   7.127   3.380   4.214
10103TIP3    H130252   7.213   3.372   4.254
10103TIP3    H230253   7.132   3.327   4.134
10104TIP3   OH230254   6.594   0.645   6.745
10104TIP3    H130255   6.620   0.556   6.721
10104TIP3    H230256   6.609   0.696   6.665
10105TIP3   OH230257   1.131   0.589   5.193
10105TIP3    H130258   1.178   0.615   5.272
10105TIP3    H230259   1.056   0.539   5.224
10106TIP3   OH230260   3.408   3.217   6.543
10106TIP3    H130261   3.356   3.149   6.586
10106TIP3    H230262   3.420   3.284   6.611
10107TIP3   OH230263   2.449   4.577   6.235
10107TIP3    H130264   2.426   4.556   6.325
10107TIP3    H230265   2.369   4.560   6.185
10108TIP3   OH230266   0.267   5.110   4.673
10108TIP3    H130267   0.198   5.134   4.612
10108TIP3    H230268   0.264   5.014   4.677
10109TIP3   OH230269   4.744   5.028   3.838
10109TIP3    H130270   4.742   5.078   3.756
10109TIP3    H230271   4.653   5.000   3.851
10110TIP3   OH230272   4.726   0.066   0.315
10110TIP3    H130273   4.730   0.161   0.320
10110TIP3    H230274   4.808   0.040   0.272
10111TIP3   OH230275   6.076   7.680   3.534
10111TIP3    H130276   6.135   7.749   3.504
10111TIP3    H230277   6.098   7.668   3.626
10112TIP3   OH230278   8.184   3.610   1.855
10112TIP3    H130279   8.273   3.573   1.857
10112TIP3    H230280   8.180   3.667   1.932
10113TIP3   OH230281   5.801   4.576   2.336
10113TIP3    H130282   5.827   4.657   2.292
10113TIP3    H230283   5.719   4.551   2.295
10114TIP3   OH230284   7.413   7.644   2.274
10114TIP3    H130285   7.494   7.648   2.325
10114TIP3    H230286   7.430   7.701   2.198
10115TIP3   OH230287   3.033   0.669   2.846
10115TIP3    H130288   3.016   0.574   2.849
10115TIP3    H230289   3.073   0.683   2.760
10116TIP3   OH230290   2.590   2.441   1.514
10116TIP3    H130291   2.517   2.422   1.455
10116TIP3    H230292   2.667   2.408   1.467
10117TIP3   OH230293   0.318   0.276   1.856
10117TIP3    H130294   0.309   0.353   1.801
10117TIP3    H230295   0.374   0.216   1.806
10118TIP3   OH230296   7.226   0.115   0.959
10118TIP3    H130297   7.227   0.025   0.991
10118TIP3    H230298   7.140   0.148   0.983
10119TIP3   OH230299   2.301   1.153   6.099
10119TIP3    H130300   2.384   1.192   6.069
10119TIP3    H230301   2.273   1.099   6.025
10120TIP3   OH230302   5.315   5.910   2.312
10120TIP3    H130303   5.289   5.932   2.223
10120TIP3    H230304   5.242   5.860   2.347
10121TIP3   OH230305   7.040   5.921   4.415
10121TIP3    H130306   7.127   5.893   4.389
10121TIP3    H230307   6.981   5.864   4.366
10122TIP3   OH230308   2.345   3.881   2.286
10122TIP3    H130309   2.417   3.943   2.274
10122TIP3    H230310   2.324   3.851   2.197
10123TIP3   OH230311   5.691   5.892   3.076
10123TIP3    H130312   5.637   5.880   2.997
10123TIP3    H230313   5.629   5.919   3.143
10124TIP3   OH230314   7.642   0.954   3.741
10124TIP3    H130315   7.675   0.864   3.735
10124TIP3    H230316   7.700   0.996   3.804
10125TIP3   OH230317   4.418   4.814   0.183
10125TIP3    H130318   4.417   4.871   0.106
10125TIP3    H230319   4.330   4.825   0.221
10126TIP3   OH230320   0.375   0.193   4.634
10126TIP3    H130321   0.459   0.150   4.650
10126TIP3    H230322   0.349   0.163   4.546
10127TIP3   OH230323   2.033   7.453   3.012
10127TIP3    H130324   1.971   7.522   2.985
10127TIP3    H230325   2.079   7.490   3.087
10128TIP3   OH230326   6.313   6.660   2.084
10128TIP3    H130327   6.218   6.645   2.083
10128TIP3    H230328   6.330   6.717   2.010
10129TIP3   OH230329   0.180   6.697   5.544
10129TIP3    H130330   0.159   6.699   5.638
10129TIP3    H230331   0.099   6.668   5.503
10130TIP3   OH230332   0.680   2.617   1.918
10130TIP3    H130333   0.616   2.688   1.909
10130TIP3    H230334   0.690   2.605   2.012
10131TIP3   OH230335   2.645   6.879   4.188
10131TIP3    H130336   2.583   6.862   4.259
10131TIP3    H230337   2.632   6.806   4.127
10132TIP3   OH230338   7.891   3.392   5.822
10132TIP3    H130339   7.902   3.400   5.917
10132TIP3    H230340   7.975   3.360   5.790
10133TIP3   OH230341   8.220   2.535   3.864
10133TIP3    H130342   8.235   2.493   3.779
10133TIP3    H230343   8.307   2.561   3.894
10134TIP3   OH230344   7.631   2.459   6.770
10134TIP3    H130345   7.612   2.437   6.679
10134TIP3    H230346   7.696   2.529   6.766
10135TIP3   OH230347   7.679   4.569   6.297
10135TIP3    H130348   7.676   4.647   6.241
10135TIP3    H230349   7.679   4.604   6.386
10136TIP3   OH230350   1.256   4.731   6.098
10136TIP3    H130351   1.206   4.651   6.114
10136TIP3    H230352   1.224   4.793   6.163
10137TIP3   OH230353   1.547   3.773   3.484
10137TIP3    H130354   1.625   3.732   3.445
10137TIP3    H230355   1.535   3.854   3.435
10138TIP3   OH230356   2.905   4.535   4.426
10138TIP3    H130357   2.915   4.625   4.458
10138TIP3    H230358   2.820   4.507   4.461
10139TIP3   OH230359   1.906   3.634   4.015
10139TIP3    H130360   1.811   3.631   3.998
10139TIP3    H230361   1.912   3.648   4.109
10140TIP3   OH230362   7.034   2.396   3.868
10140TIP3    H130363   7.023   2.374   3.961
10140TIP3    H230364   7.022   2.491   3.865
10141TIP3   OH230365   4.615   6.223   3.772
10141TIP3    H130366   4.617   6.239   3.678
10141TIP3    H230367   4.591   6.130   3.780
10142TIP3   OH230368   4.548   1.873   0.628
10142TIP3    H130369   4.606   1.812   0.583
10142TIP3    H230370   4.594   1.895   0.709
10143TIP3   OH230371   4.993   7.487   3.094
10143TIP3    H130372   4.902   7.505   3.071
10143TIP3    H230373   5.034   7.574   3.101
10144TIP3   OH230374   8.133   2.037   3.001
10144TIP3    H130375   8.203   1.987   2.960
10144TIP3    H230376   8.121   1.995   3.087
10145TIP3   OH230377   5.926   0.468   6.355
10145TIP3    H130378   6.020   0.450   6.348
10145TIP3    H230379   5.884   0.383   6.341
10146TIP3   OH230380  -0.022   6.967   1.197
10146TIP3    H130381  -0.083   7.012   1.256
10146TIP3    H230382   0.020   7.037   1.147
10147TIP3   OH230383   4.300   3.405   3.168
10147TIP3    H130384   4.272   3.475   3.226
10147TIP3    H230385   4.253   3.328   3.199
10148TIP3   OH230386   2.099   2.714   2.853
10148TIP3    H130387   2.020   2.662   2.861
10148TIP3    H230388   2.075   2.785   2.793
10149TIP3   OH230389   8.221   5.913   6.695
10149TIP3    H130390   8.280   5.958   6.635
10149TIP3    H230391   8.278   5.876   6.762
10150TIP3   OH230392   7.374   3.528   0.874
10150TIP3    H130393   7.461   3.549   0.840
10150TIP3    H230394   7.317   3.528   0.796
10151TIP3   OH230395   6.926   0.520   1.102
10151TIP3    H130396   6.866   0.591   1.077
10151TIP3    H230397   7.011   0.548   1.069
10152TIP3   OH230398   3.477   4.448   3.328
10152TIP3    H130399   3.545   4.390   3.294
10152TIP3    H230400   3.471   4.425   3.421
10153TIP3   OH230401   7.135   7.273   6.020
10153TIP3    H130402   7.147   7.267   5.926
10153TIP3    H230403   7.046   7.306   6.032
10154TIP3   OH230404   4.730   1.118   6.232
10154TIP3    H130405   4.644   1.081   6.254
10154TIP3    H230406   4.713   1.174   6.156
10155TIP3   OH230407   6.442   5.228   2.701
10155TIP3    H130408   6.410   5.215   2.612
10155TIP3    H230409   6.460   5.140   2.733
10156TIP3   OH230410   6.182   5.298   4.315
10156TIP3    H130411   6.089   5.316   4.297
10156TIP3    H230412   6.181   5.250   4.398
10157TIP3   OH230413   3.541   6.623   2.771
10157TIP3    H130414   3.572   6.620   2.681
10157TIP3    H230415   3.446   6.634   2.763
10158TIP3   OH230416   7.257   6.487   2.469
10158TIP3    H130417   7.345   6.497   2.506
10158TIP3    H230418   7.265   6.521   2.380
10159TIP3   OH230419   3.684   5.968   2.912
10159TIP3    H130420   3.628   5.907   2.863
10159TIP3    H230421   3.686   5.932   3.000
10160TIP3   OH230422   3.546   6.876   5.343
10160TIP3    H130423   3.508   6.936   5.407
10160TIP3    H230424   3.527   6.915   5.258
10161TIP3   OH230425   4.807   0.442   5.703
10161TIP3    H130426   4.761   0.365   5.670
10161TIP3    H230427   4.754   0.516   5.674
10162TIP3   OH230428   7.650   0.837   4.272
10162TIP3    H130429   7.745   0.841   4.283
10162TIP3    H230430   7.637   0.818   4.179
10163TIP3   OH230431   7.880   0.462   0.278
10163TIP3    H130432   7.975   0.448   0.272
10163TIP3    H230433   7.851   0.461   0.187
10164TIP3   OH230434   3.738   5.939   1.951
10164TIP3    H130435   3.699   6.024   1.931
10164TIP3    H230436   3.691   5.877   1.895
10165TIP3   OH230437   6.689   2.084   1.932
10165TIP3    H130438   6.679   2.114   2.022
10165TIP3    H230439   6.778   2.110   1.908
10166TIP3   OH230440   3.713   4.099   3.035
10166TIP3    H130441   3.722   4.017   3.083
10166TIP3    H230442   3.675   4.160   3.098
10167TIP3   OH230443   0.465   4.180   2.996
10167TIP3    H130444   0.539   4.177   2.935
10167TIP3    H230445   0.488   4.249   3.059
10168TIP3   OH230446   3.768   5.845   0.321
10168TIP3    H130447   3.673   5.844   0.304
10168TIP3    H230448   3.798   5.760   0.288
10169TIP3   OH230449   1.873   0.533   0.794
10169TIP3    H130450   1.806   0.465   0.805
10169TIP3    H230451   1.925   0.503   0.719
10170TIP3   OH230452   3.335   0.626   2.781
10170TIP3    H130453   3.355   0.685   2.854
10170TIP3    H230454   3.280   0.678   2.723
10171TIP3   OH230455   3.669   1.765   2.160
10171TIP3    H130456   3.694   1.674   2.145
10171TIP3    H230457   3.708   1.814   2.088
10172TIP3   OH230458   8.257   6.748   5.227
10172TIP3    H130459   8.277   6.702   5.308
10172TIP3    H230460   8.342   6.764   5.187
10173TIP3   OH230461   6.601   0.307   1.562
10173TIP3    H130462   6.520   0.298   1.512
10173TIP3    H230463   6.594   0.393   1.603
10174TIP3   OH230464   5.876   7.327   3.653
10174TIP3    H130465   5.848   7.410   3.690
10174TIP3    H230466   5.864   7.337   3.558
10175TIP3   OH230467   3.753   6.151   6.468
10175TIP3    H130468   3.741   6.243   6.444
10175TIP3    H230469   3.845   6.133   6.451
10176TIP3   OH230470   1.426   1.322   5.844
10176TIP3    H130471   1.461   1.410   5.825
10176TIP3    H230472   1.502   1.272   5.873
10177TIP3   OH230473   3.462   1.546   4.080
10177TIP3    H130474   3.417   1.562   4.163
10177TIP3    H230475   3.555   1.552   4.101
10178TIP3   OH230476   2.673   1.199   4.419
10178TIP3    H130477   2.583   1.226   4.437
10178TIP3    H230478   2.682   1.114   4.462
10179TIP3   OH230479   5.411   7.830   4.623
10179TIP3    H130480   5.359   7.750   4.615
10179TIP3    H230481   5.419   7.843   4.718
10180TIP3   OH230482   5.967   7.333   2.635
10180TIP3    H130483   5.883   7.318   2.679
10180TIP3    H230484   6.023   7.262   2.665
10181TIP3   OH230485   4.832   7.656   3.441
10181TIP3    H130486   4.806   7.705   3.363
10181TIP3    H230487   4.794   7.704   3.514
10182TIP3   OH230488   6.746   5.619   1.324
10182TIP3    H130489   6.753   5.524   1.320
10182TIP3    H230490   6.757   5.648   1.233
10183TIP3   OH230491   5.061   7.774   0.731
10183TIP3    H130492   5.037   7.682   0.742
10183TIP3    H230493   5.129   7.789   0.797
10184TIP3   OH230494   7.563   5.900   1.466
10184TIP3    H130495   7.568   5.838   1.538
10184TIP3    H230496   7.612   5.976   1.497
10185TIP3   OH230497   1.303   7.807   4.747
10185TIP3    H130498   1.259   7.723   4.732
10185TIP3    H230499   1.268   7.865   4.680
10186TIP3   OH230500   8.169   5.173   1.080
10186TIP3    H130501   8.084   5.215   1.063
10186TIP3    H230502   8.193   5.204   1.167
10187TIP3   OH230503   8.167   5.916   4.679
10187TIP3    H130504   8.198   5.869   4.757
10187TIP3    H230505   8.236   5.980   4.661
10188TIP3   OH230506   7.305   0.880   6.092
10188TIP3    H130507   7.365   0.954   6.084
10188TIP3    H230508   7.313   0.853   6.184
10189TIP3   OH230509   0.946   4.341   3.162
10189TIP3    H130510   0.968   4.334   3.255
10189TIP3    H230511   0.994   4.269   3.121
10190TIP3   OH230512   1.550   4.542   2.619
10190TIP3    H130513   1.533   4.483   2.693
10190TIP3    H230514   1.588   4.620   2.659
10191TIP3   OH230515   7.703   1.148   5.957
10191TIP3    H130516   7.794   1.118   5.964
10191TIP3    H230517   7.655   1.093   6.019
10192TIP3   OH230518   3.256   5.769   3.514
10192TIP3    H130519   3.219   5.757   3.601
10192TIP3    H230520   3.351   5.769   3.528
10193TIP3   OH230521   2.202   6.865   6.757
10193TIP3    H130522   2.289   6.903   6.774
10193TIP3    H230523   2.142   6.939   6.765
10194TIP3   OH230524   5.090   2.406   3.275
10194TIP3    H130525   5.038   2.479   3.241
10194TIP3    H230526   5.025   2.347   3.314
10195TIP3   OH230527   0.858   6.431   4.607
10195TIP3    H130528   0.884   6.476   4.687
10195TIP3    H230529   0.909   6.350   4.607
10196TIP3   OH230530   2.389   6.839   0.895
10196TIP3    H130531   2.350   6.864   0.978
10196TIP3    H230532   2.413   6.747   0.906
10197TIP3   OH230533   4.930   6.642   6.643
10197TIP3    H130534   5.007   6.694   6.666
10197TIP3    H230535   4.965   6.558   6.614
10198TIP3   OH230536   2.705   0.944   1.488
10198TIP3    H130537   2.627   0.985   1.450
10198TIP3    H230538   2.728   0.875   1.427
10199TIP3   OH230539   2.700   4.398   5.563
10199TIP3    H130540   2.663   4.486   5.562
10199TIP3    H230541   2.697   4.371   5.654
10200TIP3   OH230542   3.151   7.702   1.408
10200TIP3    H130543   3.120   7.654   1.484
10200TIP3    H230544   3.190   7.782   1.443
10201TIP3   OH230545   4.652   3.204   0.597
10201TIP3    H130546   4.630   3.273   0.534
10201TIP3    H230547   4.572   3.194   0.650
10202TIP3   OH230548   3.016   4.773   1.744
10202TIP3    H130549   3.036   4.861   1.711
10202TIP3    H230550   2.920   4.770   1.746
10203TIP3   OH230551   0.705   3.792   3.214
10203TIP3    H130552   0.758   3.748   3.280
10203TIP3    H230553   0.641   3.843   3.265
10204TIP3   OH230554   6.776   2.432   5.423
10204TIP3    H130555   6.733   2.489   5.486
10204TIP3    H230556   6.869   2.456   5.428
10205TIP3   OH230557   6.130   7.704   4.881
10205TIP3    H130558   6.210   7.746   4.913
10205TIP3    H230559   6.059   7.763   4.909
10206TIP3   OH230560   3.234   2.601   4.955
10206TIP3    H130561   3.324   2.606   4.987
10206TIP3    H230562   3.241   2.620   4.861
10207TIP3   OH230563   3.102   2.829   5.003
10207TIP3    H130564   3.154   2.749   5.011
10207TIP3    H230565   3.021   2.801   4.961
10208TIP3   OH230566   5.763   0.431   5.898
10208TIP3    H130567   5.812   0.453   5.819
10208TIP3    H230568   5.680   0.397   5.865
10209TIP3   OH230569   0.028   6.869   0.352
10209TIP3    H130570   0.044   6.819   0.432
10209TIP3    H230571  -0.066   6.858   0.335
10210TIP3   OH230572   7.436   3.869   2.012
10210TIP3    H130573   7.383   3.944   2.037
10210TIP3    H230574   7.373   3.798   2.000
10211TIP3   OH230575   1.621   1.475   2.112
10211TIP3    H130576   1.606   1.537   2.183
10211TIP3    H230577   1.624   1.530   2.033
10212TIP3   OH230578   1.827   1.200   2.093
10212TIP3    H130579   1.767   1.268   2.124
10212TIP3    H230580   1.792   1.173   2.008
10213TIP3   OH230581   0.078   7.520   2.228
10213TIP3    H130582  -0.007   7.478   2.235
10213TIP3    H230583   0.059   7.609   2.199
10214TIP3   OH230584   3.713   2.284   2.112
10214TIP3    H130585   3.796   2.292   2.158
10214TIP3    H230586   3.647   2.311   2.176
10215TIP3   OH230587   6.306   2.899   5.456
10215TIP3    H130588   6.290   2.964   5.524
10215TIP3    H230589   6.379   2.934   5.405
10216TIP3   OH230590   7.851   1.563   0.177
10216TIP3    H130591   7.847   1.649   0.219
10216TIP3    H230592   7.766   1.524   0.195
10217TIP3   OH230593   0.555   5.903   5.811
10217TIP3    H130594   0.473   5.875   5.772
10217TIP3    H230595   0.570   5.990   5.774
10218TIP3   OH230596   7.106   2.764   2.774
10218TIP3    H130597   7.102   2.857   2.794
10218TIP3    H230598   7.097   2.720   2.858
10219TIP3   OH230599   1.452   7.527   2.281
10219TIP3    H130600   1.468   7.594   2.214
10219TIP3    H230601   1.396   7.462   2.238
10220TIP3   OH230602   7.977   1.930   6.672
10220TIP3    H130603   7.895   1.880   6.678
10220TIP3    H230604   8.044   1.871   6.707
10221TIP3   OH230605   1.002   0.048   3.573
10221TIP3    H130606   1.069   0.115   3.581
10221TIP3    H230607   0.997   0.030   3.479
10222TIP3   OH230608   1.932   2.755   5.518
10222TIP3    H130609   1.866   2.693   5.550
10222TIP3    H230610   2.004   2.748   5.580
10223TIP3   OH230611   2.548   6.578   5.600
10223TIP3    H130612   2.466   6.528   5.593
10223TIP3    H230613   2.557   6.596   5.694
10224TIP3   OH230614   7.840   6.877   5.680
10224TIP3    H130615   7.907   6.809   5.673
10224TIP3    H230616   7.829   6.892   5.774
10225TIP3   OH230617   3.589   3.687   6.196
10225TIP3    H130618   3.682   3.667   6.193
10225TIP3    H230619   3.546   3.602   6.185
10226TIP3   OH230620   3.840   5.446   4.393
10226TIP3    H130621   3.845   5.537   4.362
10226TIP3    H230622   3.856   5.452   4.487
10227TIP3   OH230623   7.913   6.350   1.471
10227TIP3    H130624   7.852   6.412   1.509
10227TIP3    H230625   7.884   6.342   1.380
10228TIP3   OH230626   1.124   0.280   6.174
10228TIP3    H130627   1.175   0.361   6.170
10228TIP3    H230628   1.160   0.232   6.248
10229TIP3   OH230629   7.149   2.314   5.057
10229TIP3    H130630   7.087   2.333   5.127
10229TIP3    H230631   7.183   2.227   5.079
10230TIP3   OH230632   3.965   1.308   4.500
10230TIP3    H130633   4.038   1.346   4.549
10230TIP3    H230634   3.902   1.284   4.568
10231TIP3   OH230635   0.368   5.571   3.743
10231TIP3    H130636   0.450   5.539   3.705
10231TIP3    H230637   0.373   5.546   3.835
10232TIP3   OH230638   0.594   6.948   3.546
10232TIP3    H130639   0.681   6.939   3.585
10232TIP3    H230640   0.609   6.988   3.461
10233TIP3   OH230641   0.088   0.058   0.933
10233TIP3    H130642   0.028  -0.016   0.939
10233TIP3    H230643   0.101   0.070   0.838
10234TIP3   OH230644   7.552   7.213   3.975
10234TIP3    H130645   7.492   7.285   3.992
10234TIP3    H230646   7.612   7.247   3.908
10235TIP3   OH230647   3.944   5.084   2.797
10235TIP3    H130648   3.972   5.154   2.856
10235TIP3    H230649   4.020   5.026   2.791
10236TIP3   OH230650   0.975   1.889   0.427
10236TIP3    H130651   0.901   1.830   0.406
10236TIP3    H230652   1.015   1.907   0.342
10237TIP3   OH230653   3.505   4.504   2.367
10237TIP3    H130654   3.421   4.468   2.397
10237TIP3    H230655   3.540   4.437   2.308
10238TIP3   OH230656   4.244   1.598   2.445
10238TIP3    H130657   4.303   1.534   2.484
10238TIP3    H230658   4.271   1.681   2.482
10239TIP3   OH230659   2.611   6.482   4.256
10239TIP3    H130660   2.626   6.511   4.166
10239TIP3    H230661   2.533   6.427   4.250
10240TIP3   OH230662   7.789   7.132   5.846
10240TIP3    H130663   7.861   7.158   5.789
10240TIP3    H230664   7.831   7.087   5.920
10241TIP3   OH230665   5.059   3.993   3.722
10241TIP3    H130666   5.116   3.916   3.723
10241TIP3    H230667   5.026   3.998   3.632
10242TIP3   OH230668   7.843   3.993   1.775
10242TIP3    H130669   7.817   3.901   1.775
10242TIP3    H230670   7.831   4.022   1.684
10243TIP3   OH230671   3.420   0.058   0.686
10243TIP3    H130672   3.370   0.060   0.605
10243TIP3    H230673   3.390   0.134   0.735
10244TIP3   OH230674   1.575   6.440   5.198
10244TIP3    H130675   1.527   6.360   5.178
10244TIP3    H230676   1.573   6.491   5.117
10245TIP3   OH230677   5.084   5.481   1.792
10245TIP3    H130678   5.049   5.505   1.706
10245TIP3    H230679   5.014   5.430   1.833
10246TIP3   OH230680   4.021   7.640   2.867
10246TIP3    H130681   4.079   7.577   2.910
10246TIP3    H230682   4.062   7.725   2.882
10247TIP3   OH230683   4.065   3.310   4.453
10247TIP3    H130684   4.144   3.266   4.481
10247TIP3    H230685   3.994   3.262   4.495
10248TIP3   OH230686   4.242   6.045   2.338
10248TIP3    H130687   4.195   6.099   2.401
10248TIP3    H230688   4.189   5.966   2.329
10249TIP3   OH230689   5.401   0.836   2.628
10249TIP3    H130690   5.392   0.741   2.631
10249TIP3    H230691   5.402   0.858   2.535
10250TIP3   OH230692   4.490   1.285   1.021
10250TIP3    H130693   4.467   1.339   1.096
10250TIP3    H230694   4.411   1.234   1.003
10251TIP3   OH230695   2.773   3.913   5.183
10251TIP3    H130696   2.721   3.968   5.124
10251TIP3    H230697   2.811   3.975   5.245
10252TIP3   OH230698   1.951   6.604   2.299
10252TIP3    H130699   1.949   6.623   2.205
10252TIP3    H230700   1.953   6.690   2.340
10253TIP3   OH230701   3.721   6.571   1.031
10253TIP3    H130702   3.648   6.566   0.969
10253TIP3    H230703   3.757   6.659   1.018
10254TIP3   OH230704   0.170   0.237   6.577
10254TIP3    H130705   0.179   0.324   6.616
10254TIP3    H230706   0.075   0.221   6.578
10255TIP3   OH230707   6.229   5.708   3.528
10255TIP3    H130708   6.224   5.790   3.577
10255TIP3    H230709   6.149   5.707   3.476
10256TIP3   OH230710   7.675   1.110   1.043
10256TIP3    H130711   7.681   1.108   0.948
10256TIP3    H230712   7.658   1.019   1.068
10257TIP3   OH230713   1.851   7.213   1.077
10257TIP3    H130714   1.890   7.127   1.060
10257TIP3    H230715   1.796   7.229   1.000
10258TIP3   OH230716   1.389   6.304   6.032
10258TIP3    H130717   1.437   6.229   6.067
10258TIP3    H230718   1.443   6.380   6.056
10259TIP3   OH230719   7.648   7.329   4.452
10259TIP3    H130720   7.686   7.292   4.531
10259TIP3    H230721   7.713   7.391   4.420
10260TIP3   OH230722   2.794   2.545   4.112
10260TIP3    H130723   2.787   2.451   4.097
10260TIP3    H230724   2.737   2.584   4.046
10261TIP3   OH230725   1.360   4.420   0.018
10261TIP3    H130726   1.275   4.384  -0.004
10261TIP3    H230727   1.422   4.376  -0.040
10262TIP3   OH230728   6.965   6.843   2.143
10262TIP3    H130729   6.881   6.798   2.134
10262TIP3    H230730   6.946   6.935   2.122
10263TIP3   OH230731   3.290   1.349   0.307
10263TIP3    H130732   3.218   1.320   0.363
10263TIP3    H230733   3.250   1.411   0.247
10264TIP3   OH230734   0.374   3.030   1.922
10264TIP3    H130735   0.345   3.074   2.001
10264TIP3    H230736   0.310   3.055   1.855
10265TIP3   OH230737   1.493   1.845   1.774
10265TIP3    H130738   1.506   1.809   1.686
10265TIP3    H230739   1.412   1.895   1.767
10266TIP3   OH230740   5.738   5.446   0.982
10266TIP3    H130741   5.731   5.400   0.898
10266TIP3    H230742   5.684   5.525   0.970
10267TIP3   OH230743   4.968   6.143   6.398
10267TIP3    H130744   4.913   6.146   6.320
10267TIP3    H230745   4.932   6.071   6.450
10268TIP3   OH230746   3.806   7.688   4.120
10268TIP3    H130747   3.809   7.597   4.148
10268TIP3    H230748   3.862   7.691   4.042
10269TIP3   OH230749   4.238   7.463   3.319
10269TIP3    H130750   4.146   7.473   3.297
10269TIP3    H230751   4.285   7.495   3.241
10270TIP3   OH230752   4.365   7.131   4.698
10270TIP3    H130753   4.357   7.069   4.626
10270TIP3    H230754   4.326   7.087   4.773
10271TIP3   OH230755   0.022   6.824   2.935
10271TIP3    H130756   0.037   6.909   2.894
10271TIP3    H230757  -0.060   6.834   2.983
10272TIP3   OH230758   3.973   6.950   4.607
10272TIP3    H130759   3.970   7.042   4.635
10272TIP3    H230760   3.899   6.909   4.651
10273TIP3   OH230761   4.361   4.894   1.496
10273TIP3    H130762   4.449   4.904   1.460
10273TIP3    H230763   4.375   4.846   1.578
10274TIP3   OH230764   2.150   4.566   5.358
10274TIP3    H130765   2.170   4.548   5.266
10274TIP3    H230766   2.231   4.546   5.405
10275TIP3   OH230767   7.983   5.141   6.225
10275TIP3    H130768   8.035   5.131   6.145
10275TIP3    H230769   7.972   5.236   6.235
10276TIP3   OH230770   1.339   4.456   5.994
10276TIP3    H130771   1.271   4.402   5.953
10276TIP3    H230772   1.325   4.543   5.958
10277TIP3   OH230773   2.851   3.684   4.739
10277TIP3    H130774   2.874   3.734   4.817
10277TIP3    H230775   2.928   3.630   4.721
10278TIP3   OH230776   7.213   6.412   1.247
10278TIP3    H130777   7.289   6.433   1.300
10278TIP3    H230778   7.162   6.350   1.299
10279TIP3   OH230779   1.947   7.666   0.996
10279TIP3    H130780   1.987   7.582   0.975
10279TIP3    H230781   1.947   7.714   0.914
10280TIP3   OH230782   4.064   1.200   6.384
10280TIP3    H130783   4.020   1.205   6.299
10280TIP3    H230784   4.144   1.252   6.373
10281TIP3   OH230785   1.416   1.636   3.316
10281TIP3    H130786   1.388   1.629   3.407
10281TIP3    H230787   1.342   1.675   3.271
10282TIP3   OH230788   3.217   0.456   5.130
10282TIP3    H130789   3.279   0.444   5.202
10282TIP3    H230790   3.168   0.535   5.153
10283TIP3   OH230791   7.091   2.944   2.495
10283TIP3    H130792   7.130   3.015   2.547
10283TIP3    H230793   7.154   2.929   2.425
10284TIP3   OH230794   5.461   3.152   6.083
10284TIP3    H130795   5.426   3.226   6.132
10284TIP3    H230796   5.517   3.106   6.145
10285TIP3   OH230797   4.870   5.644   2.176
10285TIP3    H130798   4.793   5.701   2.170
10285TIP3    H230799   4.865   5.588   2.099
10286TIP3   OH230800   7.579   2.709   5.951
10286TIP3    H130801   7.536   2.757   6.021
10286TIP3    H230802   7.673   2.718   5.970
10287TIP3   OH230803   2.241   1.817   0.923
10287TIP3    H130804   2.334   1.795   0.932
10287TIP3    H230805   2.196   1.753   0.978
10288TIP3   OH230806   6.940   5.025   6.541
10288TIP3    H130807   7.026   5.065   6.557
10288TIP3    H230808   6.908   5.068   6.463
10289TIP3   OH230809   5.335   5.534   6.138
10289TIP3    H130810   5.289   5.574   6.064
10289TIP3    H230811   5.379   5.607   6.181
10290TIP3   OH230812   6.727   6.167   0.510
10290TIP3    H130813   6.707   6.078   0.540
10290TIP3    H230814   6.668   6.223   0.559
10291TIP3   OH230815   3.279   5.396   2.243
10291TIP3    H130816   3.351   5.423   2.186
10291TIP3    H230817   3.205   5.381   2.184
10292TIP3   OH230818   7.004   2.644   3.975
10292TIP3    H130819   7.013   2.642   4.070
10292TIP3    H230820   6.912   2.662   3.959
10293TIP3   OH230821   5.731   3.643   4.784
10293TIP3    H130822   5.649   3.671   4.744
10293TIP3    H230823   5.706   3.572   4.843
10294TIP3   OH230824   1.757   6.996   3.739
10294TIP3    H130825   1.769   7.016   3.646
10294TIP3    H230826   1.663   6.995   3.751
10295TIP3   OH230827   5.039   3.030   2.358
10295TIP3    H130828   4.994   2.958   2.314
10295TIP3    H230829   5.114   2.989   2.401
10296TIP3   OH230830   0.330   1.399   0.504
10296TIP3    H130831   0.383   1.479   0.507
10296TIP3    H230832   0.356   1.355   0.423
10297TIP3   OH230833   1.364   0.683   2.183
10297TIP3    H130834   1.395   0.599   2.217
10297TIP3    H230835   1.378   0.677   2.088
10298TIP3   OH230836   0.845   4.824   1.756
10298TIP3    H130837   0.840   4.872   1.673
10298TIP3    H230838   0.914   4.869   1.805
10299TIP3   OH230839   0.513   1.001   1.533
10299TIP3    H130840   0.599   0.959   1.543
10299TIP3    H230841   0.530   1.076   1.477
10300TIP3   OH230842   4.237   3.406   3.850
10300TIP3    H130843   4.300   3.470   3.817
10300TIP3    H230844   4.279   3.366   3.925
10301TIP3   OH230845   6.582   1.553   1.728
10301TIP3    H130846   6.630   1.473   1.708
10301TIP3    H230847   6.649   1.620   1.738
10302TIP3   OH230848   6.048   2.946   4.341
10302TIP3    H130849   6.125   2.964   4.394
10302TIP3    H230850   5.975   2.982   4.391
10303TIP3   OH230851   0.585   1.606   6.369
10303TIP3    H130852   0.626   1.559   6.441
10303TIP3    H230853   0.493   1.612   6.394
10304TIP3   OH230854   1.666   3.421   3.092
10304TIP3    H130855   1.721   3.427   3.171
10304TIP3    H230856   1.681   3.332   3.060
10305TIP3   OH230857   5.747   1.020   5.162
10305TIP3    H130858   5.787   1.074   5.229
10305TIP3    H230859   5.816   0.958   5.136
10306TIP3   OH230860   1.734   6.045   2.071
10306TIP3    H130861   1.787   6.120   2.096
10306TIP3    H230862   1.737   5.987   2.147
10307TIP3   OH230863   6.802   2.103   1.069
10307TIP3    H130864   6.740   2.123   1.139
10307TIP3    H230865   6.845   2.022   1.097
10308TIP3   OH230866   5.561   7.597   0.866
10308TIP3    H130867   5.593   7.603   0.956
10308TIP3    H230868   5.618   7.533   0.824
10309TIP3   OH230869   1.922   4.069   5.422
10309TIP3    H130870   1.951   4.159   5.438
10309TIP3    H230871   1.951   4.050   5.333
10310TIP3   OH230872   7.939   5.816   5.141
10310TIP3    H130873   7.880   5.891   5.131
10310TIP3    H230874   7.885   5.749   5.184
10311TIP3   OH230875   7.418   1.210   2.221
10311TIP3    H130876   7.335   1.168   2.196
10311TIP3    H230877   7.409   1.224   2.316
10312TIP3   OH230878   6.322   5.413   5.720
10312TIP3    H130879   6.340   5.502   5.690
10312TIP3    H230880   6.272   5.373   5.649
10313TIP3   OH230881   5.898   3.739   2.271
10313TIP3    H130882   5.850   3.656   2.270
10313TIP3    H230883   5.978   3.720   2.223
10314TIP3   OH230884   3.935   0.431   2.238
10314TIP3    H130885   3.890   0.347   2.234
10314TIP3    H230886   4.003   0.425   2.171
10315TIP3   OH230887   1.407   4.001   5.200
10315TIP3    H130888   1.487   4.035   5.241
10315TIP3    H230889   1.388   4.064   5.131
10316TIP3   OH230890   2.884   1.481   1.411
10316TIP3    H130891   2.865   1.561   1.459
10316TIP3    H230892   2.959   1.443   1.457
10317TIP3   OH230893   3.259   3.120   4.382
10317TIP3    H130894   3.291   3.110   4.292
10317TIP3    H230895   3.167   3.144   4.371
10318TIP3   OH230896   3.604   6.740   3.027
10318TIP3    H130897   3.575   6.735   2.936
10318TIP3    H230898   3.524   6.754   3.077
10319TIP3   OH230899   5.697   7.502   5.880
10319TIP3    H130900   5.741   7.579   5.843
10319TIP3    H230901   5.764   7.434   5.879
10320TIP3   OH230902   7.578   1.806   3.874
10320TIP3    H130903   7.645   1.841   3.933
10320TIP3    H230904   7.628   1.769   3.800
10321TIP3   OH230905   1.526   7.223   3.787
10321TIP3    H130906   1.496   7.182   3.706
10321TIP3    H230907   1.462   7.197   3.853
10322TIP3   OH230908   2.838   3.864   6.351
10322TIP3    H130909   2.852   3.959   6.342
10322TIP3    H230910   2.914   3.825   6.309
10323TIP3   OH230911   2.554   5.191   0.617
10323TIP3    H130912   2.506   5.108   0.622
10323TIP3    H230913   2.514   5.238   0.544
10324TIP3   OH230914   8.052   1.499   4.892
10324TIP3    H130915   8.085   1.588   4.882
10324TIP3    H230916   7.962   1.511   4.922
10325TIP3   OH230917   2.778   0.351   3.910
10325TIP3    H130918   2.685   0.349   3.885
10325TIP3    H230919   2.801   0.444   3.906
10326TIP3   OH230920   4.360   1.884   1.660
10326TIP3    H130921   4.446   1.870   1.620
10326TIP3    H230922   4.343   1.803   1.709
10327TIP3   OH230923   6.461   4.094   5.339
10327TIP3    H130924   6.536   4.051   5.297
10327TIP3    H230925   6.495   4.178   5.369
10328TIP3   OH230926   1.318   7.647   4.116
10328TIP3    H130927   1.290   7.560   4.147
10328TIP3    H230928   1.374   7.681   4.185
10329TIP3   OH230929   2.712   0.404   4.683
10329TIP3    H130930   2.675   0.429   4.768
10329TIP3    H230931   2.638   0.410   4.622
10330TIP3   OH230932   0.778   2.225   6.092
10330TIP3    H130933   0.865   2.193   6.117
10330TIP3    H230934   0.788   2.320   6.087
10331TIP3   OH230935   4.076   6.368   6.044
10331TIP3    H130936   4.014   6.314   6.094
10331TIP3    H230937   4.157   6.318   6.044
10332TIP3   OH230938   2.099   0.121   2.127
10332TIP3    H130939   2.096   0.119   2.223
10332TIP3    H230940   2.183   0.082   2.105
10333TIP3   OH230941   1.962   5.165   0.682
10333TIP3    H130942   1.883   5.215   0.661
10333TIP3    H230943   2.032   5.211   0.635
10334TIP3   OH230944   5.831   7.347   4.699
10334TIP3    H130945   5.810   7.323   4.790
10334TIP3    H230946   5.797   7.436   4.689
10335TIP3   OH230947   0.676   5.004   1.121
10335TIP3    H130948   0.686   4.985   1.214
10335TIP3    H230949   0.762   4.987   1.084
10336TIP3   OH230950   1.921   2.017   3.964
10336TIP3    H130951   1.952   1.998   3.876
10336TIP3    H230952   1.952   1.943   4.017
10337TIP3   OH230953   3.568   3.914   2.175
10337TIP3    H130954   3.635   3.847   2.191
10337TIP3    H230955   3.550   3.908   2.081
10338TIP3   OH230956   7.791   6.697   5.346
10338TIP3    H130957   7.833   6.651   5.418
10338TIP3    H230958   7.700   6.668   5.348
10339TIP3   OH230959   2.384   2.117   1.043
10339TIP3    H130960   2.349   2.206   1.051
10339TIP3    H230961   2.317   2.062   1.082
10340TIP3   OH230962   0.810   0.632   0.028
10340TIP3    H130963   0.792   0.631   0.122
10340TIP3    H230964   0.759   0.705  -0.006
10341TIP3   OH230965   5.157   3.909   5.398
10341TIP3    H130966   5.141   3.816   5.384
10341TIP3    H230967   5.195   3.914   5.486
10342TIP3   OH230968   2.692   0.875   3.209
10342TIP3    H130969   2.768   0.833   3.249
10342TIP3    H230970   2.715   0.967   3.203
10343TIP3   OH230971   3.374   4.139   2.888
10343TIP3    H130972   3.430   4.115   2.962
10343TIP3    H230973   3.409   4.088   2.815
10344TIP3   OH230974   1.863   7.767   6.444
10344TIP3    H130975   1.890   7.853   6.411
10344TIP3    H230976   1.945   7.720   6.458
10345TIP3   OH230977   0.684   7.793   4.274
10345TIP3    H130978   0.759   7.743   4.240
10345TIP3    H230979   0.690   7.784   4.369
10346TIP3   OH230980   2.466   5.551   4.217
10346TIP3    H130981   2.448   5.553   4.123
10346TIP3    H230982   2.384   5.577   4.258
10347TIP3   OH230983   6.702   0.391   2.155
10347TIP3    H130984   6.704   0.402   2.060
10347TIP3    H230985   6.784   0.429   2.186
10348TIP3   OH230986   5.182   5.193   1.861
10348TIP3    H130987   5.170   5.206   1.955
10348TIP3    H230988   5.163   5.278   1.822
10349TIP3   OH230989   5.590   7.135   6.408
10349TIP3    H130990   5.516   7.079   6.429
10349TIP3    H230991   5.550   7.215   6.373
10350TIP3   OH230992   3.725   4.946   0.490
10350TIP3    H130993   3.787   4.886   0.531
10350TIP3    H230994   3.713   4.911   0.402
10351TIP3   OH230995   8.015   4.661   3.637
10351TIP3    H130996   7.921   4.658   3.653
10351TIP3    H230997   8.053   4.609   3.709
10352TIP3   OH230998   8.071   3.779   4.824
10352TIP3    H130999   8.079   3.863   4.780
10352TIP3    H231000   8.023   3.724   4.763
10353TIP3   OH231001   3.618   2.512   1.700
10353TIP3    H131002   3.548   2.447   1.702
10353TIP3    H231003   3.685   2.476   1.757
10354TIP3   OH231004   4.861   3.356   0.904
10354TIP3    H131005   4.851   3.364   0.809
10354TIP3    H231006   4.940   3.407   0.924
10355TIP3   OH231007   5.627   3.018   6.271
10355TIP3    H131008   5.679   3.006   6.350
10355TIP3    H231009   5.602   2.930   6.244
10356TIP3   OH231010   1.299   5.330   4.788
10356TIP3    H131011   1.334   5.313   4.875
10356TIP3    H231012   1.332   5.258   4.734
10357TIP3   OH231013   2.946   1.248   5.502
10357TIP3    H131014   2.932   1.320   5.564
10357TIP3    H231015   3.039   1.252   5.482
10358TIP3   OH231016   5.422   3.268   0.926
10358TIP3    H131017   5.432   3.330   0.999
10358TIP3    H231018   5.505   3.274   0.879
10359TIP3   OH231019   0.245   3.633   2.314
10359TIP3    H131020   0.192   3.713   2.323
10359TIP3    H231021   0.242   3.592   2.400
10360TIP3   OH231022   3.721   0.042   1.377
10360TIP3    H131023   3.731  -0.053   1.378
10360TIP3    H231024   3.667   0.060   1.300
10361TIP3   OH231025   0.306   1.546   4.439
10361TIP3    H131026   0.303   1.620   4.499
10361TIP3    H231027   0.399   1.526   4.430
10362TIP3   OH231028   5.295   2.124   0.623
10362TIP3    H131029   5.316   2.106   0.714
10362TIP3    H231030   5.378   2.155   0.585
10363TIP3   OH231031   3.045   5.404   6.726
10363TIP3    H131032   2.993   5.484   6.734
10363TIP3    H231033   3.135   5.433   6.744
10364TIP3   OH231034   3.745   0.268   6.066
10364TIP3    H131035   3.721   0.240   6.155
10364TIP3    H231036   3.775   0.358   6.077
10365TIP3   OH231037   7.230   5.190   2.212
10365TIP3    H131038   7.202   5.200   2.120
10365TIP3    H231039   7.166   5.241   2.261
10366TIP3   OH231040   1.302   2.092   3.855
10366TIP3    H131041   1.361   2.165   3.836
10366TIP3    H231042   1.259   2.116   3.937
10367TIP3   OH231043   2.984   3.509   5.773
10367TIP3    H131044   2.945   3.480   5.691
10367TIP3    H231045   3.075   3.529   5.751
10368TIP3   OH231046   4.791   5.463   4.570
10368TIP3    H131047   4.777   5.556   4.588
10368TIP3    H231048   4.708   5.432   4.533
10369TIP3   OH231049   4.575   5.751   3.514
10369TIP3    H131050   4.523   5.718   3.440
10369TIP3    H231051   4.608   5.672   3.557
10370TIP3   OH231052   2.491   3.005   6.333
10370TIP3    H131053   2.532   2.928   6.373
10370TIP3    H231054   2.398   2.983   6.328
10371TIP3   OH231055   4.049   5.881   4.807
10371TIP3    H131056   4.015   5.954   4.756
10371TIP3    H231057   4.144   5.890   4.801
10372TIP3   OH231058   3.977   5.678   2.613
10372TIP3    H131059   3.918   5.669   2.539
10372TIP3    H231060   3.945   5.756   2.660
10373TIP3   OH231061   0.389   1.024   3.519
10373TIP3    H131062   0.348   1.022   3.433
10373TIP3    H231063   0.435   1.108   3.522
10374TIP3   OH231064   8.247   2.879   6.429
10374TIP3    H131065   8.237   2.820   6.504
10374TIP3    H231066   8.157   2.900   6.403
10375TIP3   OH231067   5.781   7.621   4.714
10375TIP3    H131068   5.741   7.703   4.687
10375TIP3    H231069   5.774   7.620   4.809
10376TIP3   OH231070   7.021   3.141   3.788
10376TIP3    H131071   6.999   3.159   3.697
10376TIP3    H231072   7.113   3.117   3.787
10377TIP3   OH231073   3.046   3.926   0.652
10377TIP3    H131074   3.082   3.837   0.642
10377TIP3    H231075   3.082   3.956   0.736
10378TIP3   OH231076   7.914   4.101   4.864
10378TIP3    H131077   7.876   4.016   4.842
10378TIP3    H231078   7.839   4.161   4.866
10379TIP3   OH231079   4.673   5.449   4.967
10379TIP3    H131080   4.658   5.493   5.051
10379TIP3    H231081   4.638   5.509   4.902
10380TIP3   OH231082   4.054   2.318   1.844
10380TIP3    H131083   4.082   2.276   1.925
10380TIP3    H231084   4.135   2.336   1.797
10381TIP3   OH231085   5.090   6.582   0.830
10381TIP3    H131086   4.994   6.585   0.826
10381TIP3    H231087   5.112   6.644   0.900
10382TIP3   OH231088   1.140   6.226   0.730
10382TIP3    H131089   1.079   6.293   0.700
10382TIP3    H231090   1.120   6.215   0.823
10383TIP3   OH231091   4.584   5.749   4.950
10383TIP3    H131092   4.554   5.766   5.039
10383TIP3    H231093   4.505   5.721   4.903
10384TIP3   OH231094   5.177   4.713   6.738
10384TIP3    H131095   5.224   4.796   6.728
10384TIP3    H231096   5.239   4.647   6.709
10385TIP3   OH231097   7.609   0.500   3.827
10385TIP3    H131098   7.612   0.419   3.878
10385TIP3    H231099   7.640   0.568   3.888
10386TIP3   OH231100   8.027   7.113   0.975
10386TIP3    H131101   8.110   7.124   1.022
10386TIP3    H231102   8.041   7.034   0.922
10387TIP3   OH231103   1.723   0.576   3.314
10387TIP3    H131104   1.737   0.482   3.310
10387TIP3    H231105   1.634   0.585   3.351
10388TIP3   OH231106   3.777   7.563   2.823
10388TIP3    H131107   3.859   7.600   2.855
10388TIP3    H231108   3.731   7.637   2.785
10389TIP3   OH231109   1.439   2.309   5.449
10389TIP3    H131110   1.373   2.350   5.504
10389TIP3    H231111   1.475   2.239   5.504
10390TIP3   OH231112   2.849   6.338   6.367
10390TIP3    H131113   2.831   6.419   6.319
10390TIP3    H231114   2.911   6.364   6.435
10391TIP3   OH231115   1.274   6.210   2.793
10391TIP3    H131116   1.365   6.198   2.765
10391TIP3    H231117   1.265   6.304   2.805
10392TIP3   OH231118   7.055   4.295   0.945
10392TIP3    H131119   6.996   4.363   0.913
10392TIP3    H231120   7.119   4.284   0.874
10393TIP3   OH231121   6.665   6.531   3.670
10393TIP3    H131122   6.582   6.576   3.681
10393TIP3    H231123   6.698   6.562   3.586
10394TIP3   OH231124   1.479   4.658   4.674
10394TIP3    H131125   1.553   4.719   4.675
10394TIP3    H231126   1.413   4.699   4.730
10395TIP3   OH231127   4.548   3.790   3.458
10395TIP3    H131128   4.529   3.833   3.541
10395TIP3    H231129   4.479   3.821   3.399
10396TIP3   OH231130   5.468   3.701   5.876
10396TIP3    H131131   5.521   3.660   5.808
10396TIP3    H231132   5.398   3.638   5.893
10397TIP3   OH231133   1.041   7.563   3.679
10397TIP3    H131134   1.077   7.488   3.633
10397TIP3    H231135   1.006   7.526   3.760
10398TIP3   OH231136   0.476   2.796   1.857
10398TIP3    H131137   0.482   2.815   1.764
10398TIP3    H231138   0.442   2.877   1.896
10399TIP3   OH231139   3.574   2.305   4.100
10399TIP3    H131140   3.499   2.290   4.157
10399TIP3    H231141   3.615   2.384   4.135
10400TIP3   OH231142   2.200   3.239   0.356
10400TIP3    H131143   2.282   3.285   0.374
10400TIP3    H231144   2.222   3.146   0.364
10401TIP3   OH231145   2.405   2.390   3.254
10401TIP3    H131146   2.478   2.332   3.275
10401TIP3    H231147   2.445   2.464   3.208
10402TIP3   OH231148   1.646   1.112   2.903
10402TIP3    H131149   1.559   1.151   2.916
10402TIP3    H231150   1.685   1.112   2.990
10403TIP3   OH231151   0.972   7.609   3.012
10403TIP3    H131152   0.962   7.568   2.926
10403TIP3    H231153   1.066   7.606   3.030
10404TIP3   OH231154   4.357   0.284   1.054
10404TIP3    H131155   4.400   0.273   1.139
10404TIP3    H231156   4.332   0.196   1.028
10405TIP3   OH231157   3.671   4.216   2.516
10405TIP3    H131158   3.661   4.214   2.421
10405TIP3    H231159   3.748   4.271   2.531
10406TIP3   OH231160   0.223   3.100   1.687
10406TIP3    H131161   0.267   3.113   1.602
10406TIP3    H231162   0.175   3.018   1.676
10407TIP3   OH231163   0.446   7.332   6.456
10407TIP3    H131164   0.467   7.382   6.377
10407TIP3    H231165   0.404   7.396   6.514
10408TIP3   OH231166   5.035   6.001   1.846
10408TIP3    H131167   5.083   6.058   1.786
10408TIP3    H231168   4.964   5.964   1.792
10409TIP3   OH231169   5.416   7.421   4.691
10409TIP3    H131170   5.331   7.421   4.735
10409TIP3    H231171   5.405   7.481   4.617
10410TIP3   OH231172   5.059   7.236   3.014
10410TIP3    H131173   5.045   7.330   3.023
10410TIP3    H231174   5.096   7.209   3.099
10411TIP3   OH231175   1.681   1.463   0.478
10411TIP3    H131176   1.653   1.374   0.457
10411TIP3    H231177   1.774   1.465   0.455
10412TIP3   OH231178   1.735   7.687   4.927
10412TIP3    H131179   1.827   7.679   4.900
10412TIP3    H231180   1.736   7.753   4.996
10413TIP3   OH231181   4.348   3.731   5.592
10413TIP3    H131182   4.426   3.784   5.573
10413TIP3    H231183   4.279   3.794   5.611
10414TIP3   OH231184   7.502   5.024   4.085
10414TIP3    H131185   7.454   5.086   4.031
10414TIP3    H231186   7.499   4.942   4.036
10415TIP3   OH231187   7.617   4.824   0.834
10415TIP3    H131188   7.675   4.840   0.909
10415TIP3    H231189   7.676   4.823   0.758
10416TIP3   OH231190   2.113   3.346   2.472
10416TIP3    H131191   2.166   3.424   2.491
10416TIP3    H231192   2.124   3.291   2.550
10417TIP3   OH231193   2.515   5.256   0.319
10417TIP3    H131194   2.482   5.346   0.314
10417TIP3    H231195   2.576   5.249   0.245
10418TIP3   OH231196   6.026   3.719   1.632
10418TIP3    H131197   6.094   3.736   1.698
10418TIP3    H231198   6.047   3.632   1.599
10419TIP3   OH231199   6.278   2.306   1.677
10419TIP3    H131200   6.336   2.244   1.721
10419TIP3    H231201   6.336   2.371   1.638
10420TIP3   OH231202   7.022   3.258   2.538
10420TIP3    H131203   7.070   3.234   2.459
10420TIP3    H231204   6.931   3.235   2.519
10421TIP3   OH231205   7.899   7.377   0.329
10421TIP3    H131206   7.838   7.377   0.403
10421TIP3    H231207   7.960   7.306   0.349
10422TIP3   OH231208   5.341   0.694   3.062
10422TIP3    H131209   5.305   0.751   3.129
10422TIP3    H231210   5.435   0.690   3.082
10423TIP3   OH231211   4.769   4.204   5.518
10423TIP3    H131212   4.851   4.175   5.557
10423TIP3    H231213   4.763   4.297   5.540
10424TIP3   OH231214   2.329   5.778   0.173
10424TIP3    H131215   2.298   5.743   0.256
10424TIP3    H231216   2.303   5.712   0.108
10425TIP3   OH231217   4.887   6.703   5.367
10425TIP3    H131218   4.926   6.782   5.328
10425TIP3    H231219   4.944   6.683   5.441
10426TIP3   OH231220   2.472   5.709   0.641
10426TIP3    H131221   2.552   5.662   0.662
10426TIP3    H231222   2.412   5.689   0.713
10427TIP3   OH231223   7.224   3.760   4.299
10427TIP3    H131224   7.162   3.814   4.349
10427TIP3    H231225   7.169   3.699   4.250
10428TIP3   OH231226   7.232   0.619   3.195
10428TIP3    H131227   7.325   0.615   3.172
10428TIP3    H231228   7.213   0.713   3.200
10429TIP3   OH231229   7.813   0.744   2.180
10429TIP3    H131230   7.884   0.685   2.154
10429TIP3    H231231   7.800   0.726   2.273
10430TIP3   OH231232   2.999   5.563   2.627
10430TIP3    H131233   3.064   5.541   2.694
10430TIP3    H231234   3.051   5.582   2.549
10431TIP3   OH231235   1.122   5.663   3.400
10431TIP3    H131236   1.185   5.621   3.459
10431TIP3    H231237   1.120   5.605   3.323
10432TIP3   OH231238   4.674   1.460   2.926
10432TIP3    H131239   4.758   1.483   2.965
10432TIP3    H231240   4.690   1.460   2.832
10433TIP3   OH231241   5.610   7.762   5.578
10433TIP3    H131242   5.518   7.780   5.560
10433TIP3    H231243   5.634   7.824   5.647
10434TIP3   OH231244   6.413   2.080   3.021
10434TIP3    H131245   6.334   2.037   2.987
10434TIP3    H231246   6.430   2.152   2.960
10435TIP3   OH231247   2.633   5.980   0.059
10435TIP3    H131248   2.626   6.066   0.100
10435TIP3    H231249   2.566   5.981  -0.009
10436TIP3   OH231250   6.124   6.525   5.784
10436TIP3    H131251   6.065   6.465   5.830
10436TIP3    H231252   6.082   6.541   5.700
10437TIP3   OH231253   2.423   1.210   4.129
10437TIP3    H131254   2.463   1.263   4.059
10437TIP3    H231255   2.353   1.265   4.163
10438TIP3   OH231256   6.200   3.990   4.350
10438TIP3    H131257   6.119   3.947   4.319
10438TIP3    H231258   6.196   4.077   4.311
10439TIP3   OH231259   8.010   6.117   5.145
10439TIP3    H131260   8.064   6.195   5.129
10439TIP3    H231261   7.950   6.114   5.071
10440TIP3   OH231262   4.663   2.389   1.466
10440TIP3    H131263   4.605   2.386   1.390
10440TIP3    H231264   4.627   2.459   1.521
10441TIP3   OH231265   5.771   1.991   1.012
10441TIP3    H131266   5.841   1.979   0.948
10441TIP3    H231267   5.713   2.057   0.972
10442TIP3   OH231268   1.149   2.467   3.931
10442TIP3    H131269   1.165   2.527   4.004
10442TIP3    H231270   1.064   2.429   3.950
10443TIP3   OH231271   0.728   2.415   2.654
10443TIP3    H131272   0.784   2.338   2.667
10443TIP3    H231273   0.778   2.487   2.692
10444TIP3   OH231274   6.158   0.841   0.194
10444TIP3    H131275   6.086   0.777   0.189
10444TIP3    H231276   6.198   0.826   0.279
10445TIP3   OH231277   4.393   2.858   2.329
10445TIP3    H131278   4.315   2.807   2.310
10445TIP3    H231279   4.450   2.798   2.377
10446TIP3   OH231280   1.781   6.438   3.746
10446TIP3    H131281   1.860   6.456   3.797
10446TIP3    H231282   1.747   6.356   3.782
10447TIP3   OH231283   7.310   2.752   0.509
10447TIP3    H131284   7.257   2.796   0.576
10447TIP3    H231285   7.346   2.675   0.553
10448TIP3   OH231286   8.122   7.208   0.355
10448TIP3    H131287   8.183   7.183   0.286
10448TIP3    H231288   8.174   7.263   0.414
10449TIP3   OH231289   6.613   4.500   4.098
10449TIP3    H131290   6.638   4.564   4.165
10449TIP3    H231291   6.558   4.549   4.037
10450TIP3   OH231292   3.568   6.067   0.399
10450TIP3    H131293   3.535   6.157   0.409
10450TIP3    H231294   3.522   6.034   0.322
10451TIP3   OH231295   0.241   1.686   2.040
10451TIP3    H131296   0.167   1.663   1.983
10451TIP3    H231297   0.267   1.774   2.011
10452TIP3   OH231298   3.417   6.877   6.483
10452TIP3    H131299   3.352   6.816   6.519
10452TIP3    H231300   3.498   6.826   6.479
10453TIP3   OH231301   5.451   0.988   3.553
10453TIP3    H131302   5.537   0.975   3.591
10453TIP3    H231303   5.468   1.027   3.467
10454TIP3   OH231304   3.438   7.716   6.659
10454TIP3    H131305   3.393   7.799   6.645
10454TIP3    H231306   3.398   7.679   6.738
10455TIP3   OH231307   3.664   6.681   1.296
10455TIP3    H131308   3.694   6.658   1.384
10455TIP3    H231309   3.634   6.597   1.259
10456TIP3   OH231310   3.730   4.033   3.365
10456TIP3    H131311   3.703   3.953   3.319
10456TIP3    H231312   3.812   4.059   3.322
10457TIP3   OH231313   3.674   2.050   4.132
10457TIP3    H131314   3.737   2.061   4.203
10457TIP3    H231315   3.665   2.137   4.094
10458TIP3   OH231316   1.627   1.738   3.668
10458TIP3    H131317   1.624   1.833   3.680
10458TIP3    H231318   1.573   1.703   3.739
10459TIP3   OH231319   4.076   5.980   4.528
10459TIP3    H131320   4.073   6.059   4.582
10459TIP3    H231321   4.108   6.011   4.444
10460TIP3   OH231322   0.643   0.066   2.499
10460TIP3    H131323   0.718   0.066   2.558
10460TIP3    H231324   0.680   0.090   2.413
10461TIP3   OH231325   5.382   4.456   2.493
10461TIP3    H131326   5.456   4.422   2.544
10461TIP3    H231327   5.417   4.534   2.450
10462TIP3   OH231328   0.309   0.000   3.590
10462TIP3    H131329   0.317   0.064   3.661
10462TIP3    H231330   0.389  -0.052   3.595
10463TIP3   OH231331   0.363   1.023   5.740
10463TIP3    H131332   0.298   0.992   5.678
10463TIP3    H231333   0.339   1.114   5.757
10464TIP3   OH231334   4.606   3.415   0.412
10464TIP3    H131335   4.657   3.447   0.487
10464TIP3    H231336   4.526   3.467   0.413
10465TIP3   OH231337   0.449   2.950   2.376
10465TIP3    H131338   0.519   3.001   2.418
10465TIP3    H231339   0.377   2.953   2.439
10466TIP3   OH231340   3.214   3.749   2.615
10466TIP3    H131341   3.299   3.764   2.574
10466TIP3    H231342   3.210   3.654   2.630
10467TIP3   OH231343   3.480   4.799   6.680
10467TIP3    H131344   3.549   4.866   6.676
10467TIP3    H231345   3.420   4.831   6.747
10468TIP3   OH231346   5.296   2.145   2.124
10468TIP3    H131347   5.281   2.151   2.030
10468TIP3    H231348   5.386   2.113   2.132
10469TIP3   OH231349   2.523   1.688   0.994
10469TIP3    H131350   2.614   1.711   1.011
10469TIP3    H231351   2.479   1.703   1.078
10470TIP3   OH231352   1.114   0.917   6.115
10470TIP3    H131353   1.100   0.898   6.022
10470TIP3    H231354   1.063   0.997   6.131
10471TIP3   OH231355   4.968   3.722   1.039
10471TIP3    H131356   4.883   3.705   1.000
10471TIP3    H231357   4.961   3.812   1.073
10472TIP3   OH231358   1.658   4.807   0.791
10472TIP3    H131359   1.746   4.819   0.756
10472TIP3    H231360   1.605   4.783   0.715
10473TIP3   OH231361   1.134   3.923   3.841
10473TIP3    H131362   1.216   3.958   3.876
10473TIP3    H231363   1.089   3.999   3.803
10474TIP3   OH231364   7.838   4.452   6.083
10474TIP3    H131365   7.798   4.382   6.032
10474TIP3    H231366   7.764   4.502   6.118
10475TIP3   OH231367   3.130   0.573   0.529
10475TIP3    H131368   3.108   0.631   0.456
10475TIP3    H231369   3.095   0.619   0.606
10476TIP3   OH231370   7.042   5.160   0.599
10476TIP3    H131371   7.096   5.091   0.560
10476TIP3    H231372   6.952   5.128   0.588
10477TIP3   OH231373   3.077   3.116   1.539
10477TIP3    H131374   3.139   3.082   1.474
10477TIP3    H231375   3.115   3.091   1.623
10478TIP3   OH231376   6.690   2.613   3.230
10478TIP3    H131377   6.754   2.558   3.185
10478TIP3    H231378   6.737   2.695   3.247
10479TIP3   OH231379   6.986   1.501   5.802
10479TIP3    H131380   6.974   1.478   5.710
10479TIP3    H231381   7.022   1.422   5.842
10480TIP3   OH231382   3.504   5.980   3.353
10480TIP3    H131383   3.532   6.066   3.386
10480TIP3    H231384   3.562   5.918   3.398
10481TIP3   OH231385   0.588   4.982   2.869
10481TIP3    H131386   0.636   4.994   2.787
10481TIP3    H231387   0.655   4.991   2.938
10482TIP3   OH231388   1.494   6.740   6.163
10482TIP3    H131389   1.526   6.774   6.246
10482TIP3    H231390   1.402   6.719   6.179
10483TIP3   OH231391   5.567   1.253   1.140
10483TIP3    H131392   5.472   1.262   1.133
10483TIP3    H231393   5.580   1.199   1.218
10484TIP3   OH231394   2.374   1.486   0.297
10484TIP3    H131395   2.311   1.547   0.258
10484TIP3    H231396   2.323   1.407   0.313
10485TIP3   OH231397   1.193   7.553   0.118
10485TIP3    H131398   1.273   7.597   0.147
10485TIP3    H231399   1.122   7.603   0.157
10486TIP3   OH231400   4.737   2.326   0.615
10486TIP3    H131401   4.701   2.337   0.527
10486TIP3    H231402   4.694   2.248   0.650
10487TIP3   OH231403   6.203   0.341   6.528
10487TIP3    H131404   6.244   0.422   6.559
10487TIP3    H231405   6.203   0.349   6.432
10488TIP3   OH231406   4.503   6.859   5.172
10488TIP3    H131407   4.591   6.829   5.149
10488TIP3    H231408   4.484   6.928   5.108
10489TIP3   OH231409   8.196   1.377   5.682
10489TIP3    H131410   8.276   1.361   5.732
10489TIP3    H231411   8.215   1.342   5.595
10490TIP3   OH231412   4.951   3.590   1.991
10490TIP3    H131413   4.874   3.534   1.982
10490TIP3    H231414   4.917   3.673   2.024
10491TIP3   OH231415   6.737   2.675   0.241
10491TIP3    H131416   6.690   2.593   0.227
10491TIP3    H231417   6.818   2.649   0.286
10492TIP3   OH231418   2.095   1.795   2.073
10492TIP3    H131419   2.021   1.852   2.093
10492TIP3    H231420   2.121   1.759   2.158
10493TIP3   OH231421   1.385   7.006   0.830
10493TIP3    H131422   1.370   6.953   0.909
10493TIP3    H231423   1.343   6.956   0.760
10494TIP3   OH231424   2.764   0.503   2.996
10494TIP3    H131425   2.802   0.574   3.048
10494TIP3    H231426   2.819   0.427   3.017
10495TIP3   OH231427   7.778   7.285   4.935
10495TIP3    H131428   7.760   7.363   4.988
10495TIP3    H231429   7.780   7.213   4.998
10496TIP3   OH231430   3.421   7.048   5.587
10496TIP3    H131431   3.357   6.977   5.591
10496TIP3    H231432   3.444   7.065   5.678
10497TIP3   OH231433   5.655   1.795   0.808
10497TIP3    H131434   5.695   1.816   0.893
10497TIP3    H231435   5.711   1.838   0.744
10498TIP3   OH231436   5.938   5.539   5.423
10498TIP3    H131437   5.853   5.497   5.434
10498TIP3    H231438   5.928   5.624   5.466
10499TIP3   OH231439   3.700   6.899   0.693
10499TIP3    H131440   3.636   6.861   0.633
10499TIP3    H231441   3.667   6.878   0.780
10500TIP3   OH231442   7.899   5.039   3.007
10500TIP3    H131443   7.884   5.098   3.081
10500TIP3    H231444   7.938   4.961   3.047
10501TIP3   OH231445   4.951   2.490   3.008
10501TIP3    H131446   4.986   2.531   2.929
10501TIP3    H231447   4.866   2.531   3.021
10502TIP3   OH231448   8.250   0.825   5.808
10502TIP3    H131449   8.163   0.836   5.770
10502TIP3    H231450   8.238   0.760   5.878
10503TIP3   OH231451   4.504   6.649   5.879
10503TIP3    H131452   4.474   6.705   5.951
10503TIP3    H231453   4.424   6.625   5.833
10504TIP3   OH231454   1.966   0.388   4.371
10504TIP3    H131455   1.973   0.437   4.454
10504TIP3    H231456   2.047   0.409   4.325
10505TIP3   OH231457   7.183   6.782   3.650
10505TIP3    H131458   7.231   6.705   3.620
10505TIP3    H231459   7.212   6.795   3.740
10506TIP3   OH231460   8.040   5.072   5.097
10506TIP3    H131461   8.032   4.979   5.118
10506TIP3    H231462   7.958   5.110   5.128
10507TIP3   OH231463   4.400   0.066   1.813
10507TIP3    H131464   4.477   0.010   1.820
10507TIP3    H231465   4.392   0.106   1.900
10508TIP3   OH231466   6.017   6.312   1.531
10508TIP3    H131467   6.038   6.372   1.459
10508TIP3    H231468   6.057   6.351   1.608
10509TIP3   OH231469   0.580   6.383   2.439
10509TIP3    H131470   0.661   6.418   2.478
10509TIP3    H231471   0.550   6.318   2.502
10510TIP3   OH231472   0.944   7.096   3.713
10510TIP3    H131473   0.860   7.103   3.760
10510TIP3    H231474   0.921   7.055   3.630
10511TIP3   OH231475   0.300   1.904   6.523
10511TIP3    H131476   0.241   1.880   6.594
10511TIP3    H231477   0.324   1.821   6.483
10512TIP3   OH231478   7.231   0.081   4.045
10512TIP3    H131479   7.251  -0.012   4.036
10512TIP3    H231480   7.135   0.083   4.053
10513TIP3   OH231481   4.709   2.602   6.054
10513TIP3    H131482   4.736   2.686   6.093
10513TIP3    H231483   4.733   2.610   5.962
10514TIP3   OH231484   4.483   2.876   3.234
10514TIP3    H131485   4.519   2.818   3.167
10514TIP3    H231486   4.388   2.866   3.226
10515TIP3   OH231487   5.502   7.436   3.952
10515TIP3    H131488   5.469   7.497   4.018
10515TIP3    H231489   5.534   7.361   4.002
10516TIP3   OH231490   2.154   6.149   4.287
10516TIP3    H131491   2.067   6.150   4.249
10516TIP3    H231492   2.141   6.121   4.378
10517TIP3   OH231493   7.198   6.975   5.802
10517TIP3    H131494   7.188   6.999   5.894
10517TIP3    H231495   7.291   6.958   5.791
10518TIP3   OH231496   1.477   4.256   1.329
10518TIP3    H131497   1.539   4.247   1.256
10518TIP3    H231498   1.414   4.321   1.298
10519TIP3   OH231499   0.257   7.120   3.476
10519TIP3    H131500   0.328   7.163   3.523
10519TIP3    H231501   0.242   7.175   3.399
10520TIP3   OH231502   0.733   1.557   3.293
10520TIP3    H131503   0.795   1.622   3.324
10520TIP3    H231504   0.787   1.493   3.247
10521TIP3   OH231505   7.025   5.816   3.558
10521TIP3    H131506   6.982   5.865   3.487
10521TIP3    H231507   6.961   5.750   3.583
10522TIP3   OH231508   7.509   7.090   4.274
10522TIP3    H131509   7.559   7.105   4.194
10522TIP3    H231510   7.554   7.144   4.340
10523TIP3   OH231511   2.273   0.980   3.291
10523TIP3    H131512   2.222   0.904   3.263
10523TIP3    H231513   2.352   0.942   3.331
10524TIP3   OH231514   2.728   5.643   5.142
10524TIP3    H131515   2.663   5.696   5.187
10524TIP3    H231516   2.809   5.694   5.149
10525TIP3   OH231517   7.060   3.443   4.909
10525TIP3    H131518   7.109   3.492   4.842
10525TIP3    H231519   6.984   3.497   4.928
10526TIP3   OH231520   4.051   1.399   0.156
10526TIP3    H131521   4.090   1.440   0.233
10526TIP3    H231522   4.016   1.316   0.188
10527TIP3   OH231523   6.121   6.959   0.501
10527TIP3    H131524   6.178   7.028   0.468
10527TIP3    H231525   6.035   7.001   0.510
10528TIP3   OH231526   2.384   7.427   0.572
10528TIP3    H131527   2.411   7.422   0.481
10528TIP3    H231528   2.332   7.348   0.587
10529TIP3   OH231529   7.572   1.233   2.567
10529TIP3    H131530   7.652   1.213   2.616
10529TIP3    H231531   7.503   1.232   2.633
10530TIP3   OH231532   1.660   4.379   4.299
10530TIP3    H131533   1.628   4.291   4.314
10530TIP3    H231534   1.627   4.403   4.212
10531TIP3   OH231535   3.588   7.536  -0.004
10531TIP3    H131536   3.519   7.601   0.009
10531TIP3    H231537   3.600   7.497   0.083
10532TIP3   OH231538   6.753   6.678   5.072
10532TIP3    H131539   6.658   6.674   5.056
10532TIP3    H231540   6.784   6.589   5.054
10533TIP3   OH231541   7.772   0.273   2.209
10533TIP3    H131542   7.777   0.179   2.228
10533TIP3    H231543   7.713   0.308   2.275
10534TIP3   OH231544   0.334   5.485   4.005
10534TIP3    H131545   0.339   5.504   4.099
10534TIP3    H231546   0.318   5.391   4.001
10535TIP3   OH231547   7.364   6.348   0.647
10535TIP3    H131548   7.425   6.381   0.713
10535TIP3    H231549   7.301   6.418   0.635
10536TIP3   OH231550   6.037   1.414   6.291
10536TIP3    H131551   6.058   1.501   6.257
10536TIP3    H231552   5.942   1.406   6.281
10537TIP3   OH231553   3.235   3.837   6.432
10537TIP3    H131554   3.181   3.815   6.356
10537TIP3    H231555   3.237   3.932   6.433
10538TIP3   OH231556   5.236   0.664   1.456
10538TIP3    H131557   5.280   0.713   1.525
10538TIP3    H231558   5.184   0.599   1.503
10539TIP3   OH231559   0.040   4.645   0.656
10539TIP3    H131560   0.015   4.675   0.743
10539TIP3    H231561  -0.017   4.694   0.596
10540TIP3   OH231562   7.463   6.546   2.204
10540TIP3    H131563   7.556   6.560   2.187
10540TIP3    H231564   7.455   6.451   2.212
10541TIP3   OH231565   5.124   7.219   4.068
10541TIP3    H131566   5.037   7.254   4.045
10541TIP3    H231567   5.105   7.148   4.130
10542TIP3   OH231568   3.826   4.850   0.047
10542TIP3    H131569   3.776   4.929   0.027
10542TIP3    H231570   3.907   4.882   0.085
10543TIP3   OH231571   4.519   7.224   0.381
10543TIP3    H131572   4.448   7.183   0.331
10543TIP3    H231573   4.583   7.251   0.315
10544TIP3   OH231574   5.343   4.518   5.073
10544TIP3    H131575   5.422   4.468   5.092
10544TIP3    H231576   5.277   4.451   5.053
10545TIP3   OH231577   0.885   6.196   1.799
10545TIP3    H131578   0.851   6.172   1.885
10545TIP3    H231579   0.810   6.189   1.741
10546TIP3   OH231580   2.721   3.152   0.062
10546TIP3    H131581   2.743   3.219   0.126
10546TIP3    H231582   2.705   3.200  -0.019
10547TIP3   OH231583   5.270   2.107   0.935
10547TIP3    H131584   5.357   2.112   0.974
10547TIP3    H231585   5.257   2.192   0.892
10548TIP3   OH231586   2.765   3.267   1.515
10548TIP3    H131587   2.693   3.306   1.466
10548TIP3    H231588   2.844   3.297   1.469
10549TIP3   OH231589   0.418   7.109   6.207
10549TIP3    H131590   0.376   7.122   6.292
10549TIP3    H231591   0.430   7.015   6.201
10550TIP3   OH231592   2.485   0.475   3.921
10550TIP3    H131593   2.492   0.461   3.827
10550TIP3    H231594   2.404   0.431   3.947
10551TIP3   OH231595   0.718   7.431   6.284
10551TIP3    H131596   0.776   7.506   6.267
10551TIP3    H231597   0.632   7.471   6.299
10552TIP3   OH231598   4.719   3.940   1.533
10552TIP3    H131599   4.772   3.903   1.604
10552TIP3    H231600   4.769   4.017   1.505
10553TIP3   OH231601   2.602   3.964   0.271
10553TIP3    H131602   2.536   3.968   0.201
10553TIP3    H231603   2.587   3.879   0.313
10554TIP3   OH231604   3.790   2.404   0.212
10554TIP3    H131605   3.878   2.420   0.180
10554TIP3    H231606   3.766   2.319   0.174
10555TIP3   OH231607   6.013   6.535   5.532
10555TIP3    H131608   5.976   6.459   5.486
10555TIP3    H231609   6.011   6.605   5.467
10556TIP3   OH231610   0.991   6.004   2.221
10556TIP3    H131611   1.052   6.051   2.278
10556TIP3    H231612   1.013   6.033   2.133
10557TIP3   OH231613   7.798   7.193   3.248
10557TIP3    H131614   7.852   7.118   3.223
10557TIP3    H231615   7.860   7.262   3.269
10558TIP3   OH231616   6.481   6.291   6.090
10558TIP3    H131617   6.431   6.217   6.055
10558TIP3    H231618   6.428   6.368   6.070
10559TIP3   OH231619   7.522   5.430   2.845
10559TIP3    H131620   7.587   5.464   2.783
10559TIP3    H231621   7.438   5.458   2.809
10560TIP3   OH231622   5.680   5.860  -0.011
10560TIP3    H131623   5.636   5.930   0.036
10560TIP3    H231624   5.731   5.814   0.056
10561TIP3   OH231625   3.601   4.419   4.661
10561TIP3    H131626   3.598   4.515   4.653
10561TIP3    H231627   3.626   4.389   4.574
10562TIP3   OH231628   0.445   0.045   5.356
10562TIP3    H131629   0.444  -0.024   5.290
10562TIP3    H231630   0.535   0.079   5.354
10563TIP3   OH231631   1.517   0.594   4.131
10563TIP3    H131632   1.456   0.542   4.079
10563TIP3    H231633   1.463   0.631   4.201
10564TIP3   OH231634   7.514   4.040   5.588
10564TIP3    H131635   7.464   4.050   5.669
10564TIP3    H231636   7.559   4.124   5.577
10565TIP3   OH231637   7.163   3.586   3.738
10565TIP3    H131638   7.210   3.649   3.682
10565TIP3    H231639   7.233   3.533   3.777
10566TIP3   OH231640   7.500   5.994   3.189
10566TIP3    H131641   7.405   5.993   3.198
10566TIP3    H231642   7.531   6.036   3.269
10567TIP3   OH231643   1.571   4.511   6.290
10567TIP3    H131644   1.525   4.433   6.259
10567TIP3    H231645   1.660   4.502   6.255
10568TIP3   OH231646   7.796   6.768   4.294
10568TIP3    H131647   7.826   6.682   4.263
10568TIP3    H231648   7.799   6.761   4.390
10569TIP3   OH231649   2.088   5.984   5.534
10569TIP3    H131650   2.183   5.985   5.545
10569TIP3    H231651   2.073   5.924   5.461
10570TIP3   OH231652   8.345   2.929   3.954
10570TIP3    H131653   8.332   3.018   3.987
10570TIP3    H231654   8.261   2.885   3.968
10571TIP3   OH231655   7.092   0.252   3.382
10571TIP3    H131656   7.090   0.264   3.477
10571TIP3    H231657   7.003   0.273   3.353
10572TIP3   OH231658   7.288   5.843   4.315
10572TIP3    H131659   7.315   5.783   4.384
10572TIP3    H231660   7.370   5.866   4.270
10573TIP3   OH231661   1.607   0.079   4.005
10573TIP3    H131662   1.652   0.099   4.086
10573TIP3    H231663   1.647  -0.002   3.974
10574TIP3   OH231664   2.885   2.720   1.473
10574TIP3    H131665   2.793   2.703   1.496
10574TIP3    H231666   2.882   2.801   1.422
10575TIP3   OH231667   2.101   3.627   3.811
10575TIP3    H131668   2.024   3.614   3.866
10575TIP3    H231669   2.173   3.590   3.862
10576TIP3   OH231670   6.171   6.425   1.716
10576TIP3    H131671   6.263   6.433   1.741
10576TIP3    H231672   6.143   6.515   1.699
10577TIP3   OH231673   4.642   0.534   5.470
10577TIP3    H131674   4.560   0.504   5.508
10577TIP3    H231675   4.659   0.473   5.398
10578TIP3   OH231676   7.029   3.919   1.283
10578TIP3    H131677   7.065   3.864   1.213
10578TIP3    H231678   7.085   3.997   1.283
10579TIP3   OH231679   1.218   5.483   2.918
10579TIP3    H131680   1.279   5.477   2.845
10579TIP3    H231681   1.139   5.438   2.886
10580TIP3   OH231682   5.278   3.026   4.571
10580TIP3    H131683   5.357   3.006   4.520
10580TIP3    H231684   5.284   2.969   4.648
10581TIP3   OH231685   1.953   1.806   4.983
10581TIP3    H131686   1.958   1.753   5.063
10581TIP3    H231687   2.044   1.827   4.963
10582TIP3   OH231688   2.827   6.940   2.014
10582TIP3    H131689   2.743   6.916   2.053
10582TIP3    H231690   2.840   6.877   1.943
10583TIP3   OH231691   1.317   3.900   3.089
10583TIP3    H131692   1.239   3.865   3.047
10583TIP3    H231693   1.287   3.936   3.172
10584TIP3   OH231694   6.779   7.260   4.054
10584TIP3    H131695   6.694   7.292   4.084
10584TIP3    H231696   6.837   7.272   4.130
10585TIP3   OH231697   6.333   5.568   3.760
10585TIP3    H131698   6.317   5.610   3.675
10585TIP3    H231699   6.298   5.480   3.750
10586TIP3   OH231700   3.761   6.506   0.034
10586TIP3    H131701   3.690   6.448   0.007
10586TIP3    H231702   3.747   6.519   0.127
10587TIP3   OH231703   2.790   5.618   1.331
10587TIP3    H131704   2.814   5.546   1.273
10587TIP3    H231705   2.842   5.604   1.410
10588TIP3   OH231706  -0.039   1.792   1.030
10588TIP3    H131707   0.038   1.850   1.025
10588TIP3    H231708  -0.002   1.704   1.033
10589TIP3   OH231709   7.342   0.481   6.728
10589TIP3    H131710   7.326   0.493   6.822
10589TIP3    H231711   7.387   0.560   6.701
10590TIP3   OH231712   4.144   4.329   5.152
10590TIP3    H131713   4.053   4.301   5.143
10590TIP3    H231714   4.139   4.422   5.173
10591TIP3   OH231715   1.396   5.849   2.666
10591TIP3    H131716   1.400   5.813   2.577
10591TIP3    H231717   1.307   5.831   2.696
10592TIP3   OH231718   2.419   2.345   6.354
10592TIP3    H131719   2.351   2.279   6.337
10592TIP3    H231720   2.500   2.304   6.323
10593TIP3   OH231721   0.858   7.284   3.173
10593TIP3    H131722   0.893   7.195   3.162
10593TIP3    H231723   0.778   7.285   3.120
10594TIP3   OH231724   1.107   6.525   6.250
10594TIP3    H131725   1.162   6.491   6.321
10594TIP3    H231726   1.139   6.482   6.171
10595TIP3   OH231727   7.689   2.190   3.345
10595TIP3    H131728   7.677   2.201   3.440
10595TIP3    H231729   7.600   2.195   3.309
10596TIP3   OH231730   5.665   6.489   6.385
10596TIP3    H131731   5.752   6.499   6.347
10596TIP3    H231732   5.616   6.565   6.353
10597TIP3   OH231733   2.375   5.836   2.618
10597TIP3    H131734   2.343   5.760   2.667
10597TIP3    H231735   2.461   5.855   2.656
10598TIP3   OH231736   5.154   0.201   3.296
10598TIP3    H131737   5.157   0.113   3.334
10598TIP3    H231738   5.104   0.191   3.215
10599TIP3   OH231739   3.265   1.661   2.752
10599TIP3    H131740   3.228   1.583   2.793
10599TIP3    H231741   3.240   1.733   2.811
10600TIP3   OH231742   5.600   2.320   2.636
10600TIP3    H131743   5.629   2.275   2.716
10600TIP3    H231744   5.644   2.273   2.565
10601TIP3   OH231745   2.344   0.944   4.214
10601TIP3    H131746   2.386   1.024   4.182
10601TIP3    H231747   2.415   0.896   4.257
10602TIP3   OH231748   6.670   1.655   0.038
10602TIP3    H131749   6.704   1.664   0.127
10602TIP3    H231750   6.697   1.568   0.011
10603TIP3   OH231751   6.463   2.248   3.416
10603TIP3    H131752   6.512   2.187   3.360
10603TIP3    H231753   6.412   2.300   3.354
10604TIP3   OH231754   7.103   4.631   5.338
10604TIP3    H131755   7.172   4.564   5.331
10604TIP3    H231756   7.049   4.601   5.411
10605TIP3   OH231757   8.165   5.824   5.324
10605TIP3    H131758   8.144   5.873   5.404
10605TIP3    H231759   8.096   5.849   5.263
10606TIP3   OH231760   2.571   5.372   3.197
10606TIP3    H131761   2.546   5.432   3.267
10606TIP3    H231762   2.609   5.428   3.129
10607TIP3   OH231763   2.888   7.284   0.485
10607TIP3    H131764   2.908   7.307   0.576
10607TIP3    H231765   2.795   7.260   0.487
10608TIP3   OH231766   1.672   3.582   0.779
10608TIP3    H131767   1.640   3.505   0.731
10608TIP3    H231768   1.757   3.600   0.740
10609TIP3   OH231769   5.011   3.022   5.776
10609TIP3    H131770   4.916   3.032   5.772
10609TIP3    H231771   5.025   2.943   5.828
10610TIP3   OH231772   1.810   3.067   1.923
10610TIP3    H131773   1.755   3.141   1.949
10610TIP3    H231774   1.853   3.096   1.842
10611TIP3   OH231775   8.060   2.220   5.231
10611TIP3    H131776   8.041   2.312   5.212
10611TIP3    H231777   7.991   2.172   5.185
10612TIP3   OH231778   0.721   7.541   4.036
10612TIP3    H131779   0.796   7.599   4.041
10612TIP3    H231780   0.676   7.566   3.955
10613TIP3   OH231781   5.826   6.734   0.835
10613TIP3    H131782   5.778   6.730   0.753
10613TIP3    H231783   5.791   6.662   0.888
10614TIP3   OH231784   4.080   4.412   4.562
10614TIP3    H131785   3.998   4.382   4.522
10614TIP3    H231786   4.117   4.334   4.603
10615TIP3   OH231787   4.214   7.206   3.502
10615TIP3    H131788   4.246   7.277   3.557
10615TIP3    H231789   4.293   7.169   3.463
10616TIP3   OH231790   6.027   4.092   5.029
10616TIP3    H131791   6.105   4.060   5.074
10616TIP3    H231792   5.999   4.168   5.081
10617TIP3   OH231793   6.959   6.140   4.543
10617TIP3    H131794   6.989   6.053   4.517
10617TIP3    H231795   7.004   6.158   4.626
10618TIP3   OH231796   1.400   3.548   1.621
10618TIP3    H131797   1.412   3.643   1.612
10618TIP3    H231798   1.419   3.530   1.713
10619TIP3   OH231799   2.492   3.055   4.379
10619TIP3    H131800   2.480   2.991   4.309
10619TIP3    H231801   2.411   3.051   4.430
10620TIP3   OH231802   0.233   4.048   4.474
10620TIP3    H131803   0.310   4.052   4.417
10620TIP3    H231804   0.264   4.076   4.560
10621TIP3   OH231805   2.160   1.706   1.482
10621TIP3    H131806   2.230   1.672   1.537
10621TIP3    H231807   2.199   1.714   1.395
10622TIP3   OH231808   7.849   1.339   6.363
10622TIP3    H131809   7.844   1.291   6.446
10622TIP3    H231810   7.941   1.333   6.337
10623TIP3   OH231811   4.994   6.043   3.189
10623TIP3    H131812   5.087   6.063   3.197
10623TIP3    H231813   4.965   6.096   3.115
10624TIP3   OH231814   6.232   1.280   3.685
10624TIP3    H131815   6.269   1.209   3.632
10624TIP3    H231816   6.243   1.249   3.776
10625TIP3   OH231817   2.482   0.287   1.888
10625TIP3    H131818   2.475   0.276   1.793
10625TIP3    H231819   2.485   0.381   1.902
10626TIP3   OH231820   0.450   2.578   3.724
10626TIP3    H131821   0.356   2.582   3.706
10626TIP3    H231822   0.465   2.490   3.758
10627TIP3   OH231823   4.152   4.614   2.536
10627TIP3    H131824   4.077   4.609   2.597
10627TIP3    H231825   4.112   4.628   2.450
10628TIP3   OH231826   7.462   0.994   5.012
10628TIP3    H131827   7.380   1.037   4.987
10628TIP3    H231828   7.530   1.057   4.990
10629TIP3   OH231829   8.033   6.624   3.627
10629TIP3    H131830   7.958   6.682   3.639
10629TIP3    H231831   8.091   6.672   3.569
10630TIP3   OH231832   3.755   1.557   0.505
10630TIP3    H131833   3.805   1.588   0.430
10630TIP3    H231834   3.668   1.537   0.471
10631TIP3   OH231835   0.124   6.334   0.255
10631TIP3    H131836   0.163   6.261   0.207
10631TIP3    H231837   0.178   6.409   0.231
10632TIP3   OH231838   3.816   5.881   2.661
10632TIP3    H131839   3.801   5.936   2.584
10632TIP3    H231840   3.740   5.896   2.717
10633TIP3   OH231841   3.608   4.671   4.735
10633TIP3    H131842   3.626   4.636   4.822
10633TIP3    H231843   3.694   4.699   4.702
10634TIP3   OH231844   2.490   6.161   6.133
10634TIP3    H131845   2.473   6.073   6.099
10634TIP3    H231846   2.467   6.156   6.225
10635TIP3   OH231847   0.803   0.613   4.308
10635TIP3    H131848   0.803   0.702   4.273
10635TIP3    H231849   0.866   0.565   4.254
10636TIP3   OH231850   8.065   3.183   6.715
10636TIP3    H131851   8.011   3.261   6.730
10636TIP3    H231852   8.049   3.160   6.624
10637TIP3   OH231853   5.431   0.439   2.229
10637TIP3    H131854   5.362   0.372   2.231
10637TIP3    H231855   5.394   0.510   2.177
10638TIP3   OH231856   0.885   2.169   6.595
10638TIP3    H131857   0.947   2.203   6.659
10638TIP3    H231858   0.802   2.211   6.617
10639TIP3   OH231859   2.893   2.247   3.397
10639TIP3    H131860   2.927   2.158   3.391
10639TIP3    H231861   2.798   2.238   3.385
10640TIP3   OH231862   7.423   0.738   6.670
10640TIP3    H131863   7.508   0.745   6.625
10640TIP3    H231864   7.420   0.814   6.727
10641TIP3   OH231865   6.271   0.820   0.431
10641TIP3    H131866   6.288   0.824   0.525
10641TIP3    H231867   6.303   0.903   0.397
10642TIP3   OH231868   5.140   5.703   6.797
10642TIP3    H131869   5.119   5.659   6.715
10642TIP3    H231870   5.060   5.750   6.821
10643TIP3   OH231871   8.260   3.443   1.248
10643TIP3    H131872   8.291   3.367   1.197
10643TIP3    H231873   8.239   3.407   1.334
10644TIP3   OH231874   3.653   2.225   0.923
10644TIP3    H131875   3.613   2.299   0.969
10644TIP3    H231876   3.710   2.265   0.858
10645TIP3   OH231877   0.943   1.587   6.385
10645TIP3    H131878   1.024   1.637   6.390
10645TIP3    H231879   0.903   1.614   6.302
10646TIP3   OH231880   3.910   4.374   3.363
10646TIP3    H131881   3.929   4.425   3.442
10646TIP3    H231882   3.952   4.289   3.379
10647TIP3   OH231883   3.760   1.433   3.342
10647TIP3    H131884   3.785   1.364   3.280
10647TIP3    H231885   3.830   1.430   3.409
10648TIP3   OH231886   5.283   2.789   3.728
10648TIP3    H131887   5.335   2.724   3.680
10648TIP3    H231888   5.345   2.860   3.746
10649TIP3   OH231889   1.341   3.362   3.678
10649TIP3    H131890   1.361   3.424   3.608
10649TIP3    H231891   1.288   3.412   3.740
10650TIP3   OH231892   1.329   1.199   1.461
10650TIP3    H131893   1.245   1.158   1.479
10650TIP3    H231894   1.307   1.291   1.442
10651TIP3   OH231895   7.012   7.832   3.053
10651TIP3    H131896   7.010   7.749   3.100
10651TIP3    H231897   7.105   7.853   3.044
10652TIP3   OH231898   4.889   1.340   2.778
10652TIP3    H131899   4.894   1.257   2.731
10652TIP3    H231900   4.936   1.324   2.860
10653TIP3   OH231901   0.931   1.709   1.450
10653TIP3    H131902   0.948   1.714   1.356
10653TIP3    H231903   1.018   1.702   1.490
10654TIP3   OH231904   4.973   3.288   2.284
10654TIP3    H131905   4.995   3.202   2.318
10654TIP3    H231906   4.934   3.271   2.199
10655TIP3   OH231907   1.601   0.463   5.238
10655TIP3    H131908   1.540   0.535   5.228
10655TIP3    H231909   1.598   0.416   5.155
10656TIP3   OH231910   5.860   4.196   2.506
10656TIP3    H131911   5.843   4.171   2.596
10656TIP3    H231912   5.919   4.128   2.473
10657TIP3   OH231913   0.181   5.934   5.649
10657TIP3    H131914   0.222   5.955   5.732
10657TIP3    H231915   0.124   6.009   5.630
10658TIP3   OH231916   0.598   3.789   6.084
10658TIP3    H131917   0.633   3.841   6.011
10658TIP3    H231918   0.624   3.699   6.065
10659TIP3   OH231919   7.767   2.225   3.889
10659TIP3    H131920   7.746   2.314   3.860
10659TIP3    H231921   7.816   2.237   3.970
10660TIP3   OH231922   3.517   2.719   5.281
10660TIP3    H131923   3.593   2.764   5.316
10660TIP3    H231924   3.446   2.741   5.341
10661TIP3   OH231925   6.000   3.958   2.033
10661TIP3    H131926   6.077   3.915   2.072
10661TIP3    H231927   5.969   3.896   1.967
10662TIP3   OH231928   3.178   4.237   3.850
10662TIP3    H131929   3.177   4.155   3.801
10662TIP3    H231930   3.086   4.260   3.860
10663TIP3   OH231931   4.092   1.601   4.880
10663TIP3    H131932   4.091   1.639   4.968
10663TIP3    H231933   4.019   1.644   4.834
10664TIP3   OH231934   3.422   6.429   6.438
10664TIP3    H131935   3.460   6.514   6.419
10664TIP3    H231936   3.463   6.402   6.521
10665TIP3   OH231937   7.243   5.713   5.803
10665TIP3    H131938   7.182   5.747   5.737
10665TIP3    H231939   7.310   5.666   5.751
10666TIP3   OH231940   8.106   1.332   6.315
10666TIP3    H131941   8.158   1.290   6.384
10666TIP3    H231942   8.163   1.401   6.281
10667TIP3   OH231943   2.468   1.275   1.938
10667TIP3    H131944   2.508   1.268   1.851
10667TIP3    H231945   2.375   1.260   1.923
10668TIP3   OH231946   6.212   0.079   1.674
10668TIP3    H131947   6.143   0.088   1.608
10668TIP3    H231948   6.289   0.049   1.625
10669TIP3   OH231949   7.722   1.374   3.940
10669TIP3    H131950   7.702   1.365   3.847
10669TIP3    H231951   7.641   1.408   3.979
10670TIP3   OH231952   4.124   5.328   5.227
10670TIP3    H131953   4.102   5.264   5.295
10670TIP3    H231954   4.171   5.278   5.160
10671TIP3   OH231955   6.112   6.182   0.249
10671TIP3    H131956   6.021   6.155   0.239
10671TIP3    H231957   6.162   6.101   0.241
10672TIP3   OH231958   7.433   3.938   3.326
10672TIP3    H131959   7.356   3.995   3.323
10672TIP3    H231960   7.407   3.861   3.275
10673TIP3   OH231961   1.423   1.170   1.189
10673TIP3    H131962   1.478   1.100   1.153
10673TIP3    H231963   1.345   1.125   1.222
10674TIP3   OH231964   0.283   4.864   0.075
10674TIP3    H131965   0.189   4.847   0.066
10674TIP3    H231966   0.309   4.898  -0.011
10675TIP3   OH231967   1.174   5.507   3.194
10675TIP3    H131968   1.164   5.418   3.226
10675TIP3    H231969   1.188   5.497   3.099
10676TIP3   OH231970   5.148   3.194   3.619
10676TIP3    H131971   5.218   3.252   3.648
10676TIP3    H231972   5.130   3.222   3.529
10677TIP3   OH231973   0.513   2.399   0.331
10677TIP3    H131974   0.428   2.370   0.298
10677TIP3    H231975   0.494   2.437   0.416
10678TIP3   OH231976   1.610   7.629   2.845
10678TIP3    H131977   1.544   7.662   2.906
10678TIP3    H231978   1.615   7.536   2.863
10679TIP3   OH231979   6.492   6.666   1.259
10679TIP3    H131980   6.569   6.661   1.315
10679TIP3    H231981   6.465   6.576   1.246
10680TIP3   OH231982   6.734   2.741   3.988
10680TIP3    H131983   6.715   2.684   3.914
10680TIP3    H231984   6.651   2.785   4.006
10681TIP3   OH231985   6.331   3.954   6.160
10681TIP3    H131986   6.288   4.037   6.140
10681TIP3    H231987   6.334   3.908   6.076
10682TIP3   OH231988   5.191   3.468   2.208
10682TIP3    H131989   5.260   3.413   2.171
10682TIP3    H231990   5.134   3.407   2.256
10683TIP3   OH231991   8.187   1.914   6.163
10683TIP3    H131992   8.257   1.928   6.227
10683TIP3    H231993   8.200   1.983   6.098
10684TIP3   OH231994   7.207   4.233   0.727
10684TIP3    H131995   7.180   4.147   0.759
10684TIP3    H231996   7.286   4.216   0.676
10685TIP3   OH231997   8.300   2.193   0.785
10685TIP3    H131998   8.239   2.136   0.737
10685TIP3    H231999   8.348   2.133   0.842
10686TIP3   OH232000   2.890   0.350   1.691
10686TIP3    H132001   2.866   0.440   1.712
10686TIP3    H232002   2.909   0.352   1.597
10687TIP3   OH232003   3.109   0.878   3.017
10687TIP3    H132004   3.103   0.789   2.983
10687TIP3    H232005   3.160   0.926   2.951
10688TIP3   OH232006   0.968   7.488   4.191
10688TIP3    H132007   1.013   7.570   4.171
10688TIP3    H232008   1.003   7.461   4.276
10689TIP3   OH232009   0.261   0.675   3.952
10689TIP3    H132010   0.218   0.695   3.868
10689TIP3    H232011   0.344   0.723   3.948
10690TIP3   OH232012   2.545   4.942   6.455
10690TIP3    H132013   2.466   4.941   6.509
10690TIP3    H232014   2.576   4.852   6.457
10691TIP3   OH232015   0.954   4.142   5.774
10691TIP3    H132016   0.863   4.167   5.792
10691TIP3    H232017   0.960   4.140   5.678
10692TIP3   OH232018   3.342   1.380   5.092
10692TIP3    H132019   3.253   1.414   5.092
10692TIP3    H232020   3.377   1.405   5.006
10693TIP3   OH232021   8.142   4.487   6.696
10693TIP3    H132022   8.054   4.499   6.660
10693TIP3    H232023   8.160   4.393   6.687
10694TIP3   OH232024   8.126   4.058   5.048
10694TIP3    H132025   8.145   4.148   5.022
10694TIP3    H232026   8.085   4.019   4.971
10695TIP3   OH232027   7.234   5.675   0.238
10695TIP3    H132028   7.271   5.713   0.317
10695TIP3    H232029   7.304   5.681   0.173
10696TIP3   OH232030   5.190   5.794   4.328
10696TIP3    H132031   5.119   5.731   4.327
10696TIP3    H232032   5.270   5.741   4.326
10697TIP3   OH232033   6.991   6.373   3.575
10697TIP3    H132034   7.061   6.360   3.639
10697TIP3    H232035   7.007   6.461   3.539
10698TIP3   OH232036   2.677   4.996   6.742
10698TIP3    H132037   2.590   4.978   6.707
10698TIP3    H232038   2.692   5.089   6.725
10699TIP3   OH232039   6.576   5.432   5.171
10699TIP3    H132040   6.646   5.476   5.122
10699TIP3    H232041   6.547   5.497   5.235
10700TIP3   OH232042   5.453   1.901   1.624
10700TIP3    H132043   5.370   1.856   1.615
10700TIP3    H232044   5.519   1.833   1.614
10701TIP3   OH232045   3.782   7.400   4.190
10701TIP3    H132046   3.711   7.356   4.144
10701TIP3    H232047   3.861   7.354   4.163
10702TIP3   OH232048   1.854   7.208   0.001
10702TIP3    H132049   1.883   7.117   0.009
10702TIP3    H232050   1.829   7.234   0.090
10703TIP3   OH232051   6.100   5.592   1.470
10703TIP3    H132052   6.091   5.504   1.435
10703TIP3    H232053   6.143   5.581   1.554
10704TIP3   OH232054   1.470   5.181   3.001
10704TIP3    H132055   1.393   5.174   3.057
10704TIP3    H232056   1.487   5.276   2.996
10705TIP3   OH232057   7.166   5.051   3.703
10705TIP3    H132058   7.170   5.024   3.612
10705TIP3    H232059   7.229   5.123   3.710
10706TIP3   OH232060   6.952   2.984   1.492
10706TIP3    H132061   6.931   3.075   1.475
10706TIP3    H232062   7.044   2.975   1.466
10707TIP3   OH232063   2.472   5.526   6.520
10707TIP3    H132064   2.432   5.458   6.574
10707TIP3    H232065   2.468   5.493   6.431
10708TIP3   OH232066   7.601   4.072   4.398
10708TIP3    H132067   7.609   3.983   4.434
10708TIP3    H232068   7.566   4.059   4.310
10709TIP3   OH232069   2.083   3.188   4.716
10709TIP3    H132070   2.071   3.274   4.756
10709TIP3    H232071   2.020   3.185   4.644
10710TIP3   OH232072   4.675   4.456   3.283
10710TIP3    H132073   4.597   4.468   3.337
10710TIP3    H232074   4.735   4.525   3.314
10711TIP3   OH232075   3.349   2.104   3.169
10711TIP3    H132076   3.317   2.051   3.243
10711TIP3    H232077   3.428   2.059   3.141
10712TIP3   OH232078   7.545   0.051   3.239
10712TIP3    H132079   7.567   0.099   3.159
10712TIP3    H232080   7.581   0.105   3.310
10713TIP3   OH232081   4.053   1.437   1.589
10713TIP3    H132082   4.138   1.470   1.559
10713TIP3    H232083   4.014   1.511   1.635
10714TIP3   OH232084   5.879   7.564   1.789
10714TIP3    H132085   5.825   7.485   1.788
10714TIP3    H232086   5.863   7.602   1.875
10715TIP3   OH232087   2.830   1.971   6.515
10715TIP3    H132088   2.858   1.901   6.455
10715TIP3    H232089   2.891   1.966   6.588
10716TIP3   OH232090   3.323   0.445   5.410
10716TIP3    H132091   3.374   0.502   5.352
10716TIP3    H232092   3.341   0.477   5.498
10717TIP3   OH232093   0.236   6.462   5.168
10717TIP3    H132094   0.204   6.406   5.239
10717TIP3    H232095   0.322   6.425   5.146
10718TIP3   OH232096   0.466   0.973   0.034
10718TIP3    H132097   0.388   1.027   0.037
10718TIP3    H232098   0.532   1.022   0.084
10719TIP3   OH232099   0.246   4.542   4.279
10719TIP3    H132100   0.225   4.631   4.251
10719TIP3    H232101   0.292   4.553   4.363
10720TIP3   OH232102   4.017   7.037   1.755
10720TIP3    H132103   3.976   6.955   1.729
10720TIP3    H232104   4.099   7.011   1.797
10721TIP3   OH232105   6.425   0.064   0.657
10721TIP3    H132106   6.408  -0.030   0.662
10721TIP3    H232107   6.462   0.078   0.570
10722TIP3   OH232108   5.475   5.745   5.036
10722TIP3    H132109   5.433   5.829   5.013
10722TIP3    H232110   5.547   5.737   4.974
10723TIP3   OH232111   0.234   3.878   3.410
10723TIP3    H132112   0.275   3.897   3.326
10723TIP3    H232113   0.208   3.786   3.405
10724TIP3   OH232114   4.602   1.650   2.187
10724TIP3    H132115   4.507   1.663   2.183
10724TIP3    H232116   4.632   1.712   2.253
10725TIP3   OH232117   7.341   4.520   0.890
10725TIP3    H132118   7.281   4.520   0.965
10725TIP3    H232119   7.408   4.456   0.913
10726TIP3   OH232120   1.141   4.536   4.567
10726TIP3    H132121   1.218   4.558   4.515
10726TIP3    H232122   1.176   4.488   4.643
10727TIP3   OH232123   5.862   2.433   2.434
10727TIP3    H132124   5.843   2.457   2.525
10727TIP3    H232125   5.778   2.443   2.389
10728TIP3   OH232126   7.230   3.760   0.541
10728TIP3    H132127   7.256   3.739   0.452
10728TIP3    H232128   7.250   3.681   0.591
10729TIP3   OH232129   2.490   2.870   5.341
10729TIP3    H132130   2.441   2.871   5.423
10729TIP3    H232131   2.537   2.787   5.343
10730TIP3   OH232132   0.116   0.626   5.699
10730TIP3    H132133   0.051   0.559   5.678
10730TIP3    H232134   0.065   0.703   5.721
10731TIP3   OH232135   1.134   1.649   3.832
10731TIP3    H132136   1.068   1.691   3.887
10731TIP3    H232137   1.208   1.709   3.833
10732TIP3   OH232138   1.071   4.908   1.262
10732TIP3    H132139   1.018   4.940   1.189
10732TIP3    H232140   1.125   4.839   1.223
10733TIP3   OH232141   6.931   1.044   5.142
10733TIP3    H132142   6.985   1.075   5.070
10733TIP3    H232143   6.881   0.971   5.105
10734TIP3   OH232144   1.722   4.753   5.515
10734TIP3    H132145   1.804   4.782   5.476
10734TIP3    H232146   1.748   4.711   5.597
10735TIP3   OH232147   6.484   4.040   2.247
10735TIP3    H132148   6.404   4.088   2.228
10735TIP3    H232149   6.536   4.100   2.301
10736TIP3   OH232150   7.763   0.917   6.688
10736TIP3    H132151   7.733   0.887   6.603
10736TIP3    H232152   7.785   0.837   6.736
10737TIP3   OH232153   4.265   6.911   1.119
10737TIP3    H132154   4.333   6.868   1.067
10737TIP3    H232155   4.223   6.971   1.058
10738TIP3   OH232156   6.200   7.045   1.458
10738TIP3    H132157   6.252   7.003   1.527
10738TIP3    H232158   6.203   6.983   1.385
10739TIP3   OH232159   7.131   3.993   2.678
10739TIP3    H132160   7.078   3.932   2.729
10739TIP3    H232161   7.075   4.069   2.665
10740TIP3   OH232162   0.310   5.905   3.867
10740TIP3    H132163   0.267   5.855   3.937
10740TIP3    H232164   0.400   5.872   3.866
10741TIP3   OH232165   3.450   3.182   0.427
10741TIP3    H132166   3.417   3.239   0.358
10741TIP3    H232167   3.529   3.226   0.459
10742TIP3   OH232168   3.553   6.878   1.646
10742TIP3    H132169   3.578   6.945   1.582
10742TIP3    H232170   3.466   6.904   1.675
10743TIP3   OH232171   3.292   7.748   2.813
10743TIP3    H132172   3.216   7.732   2.869
10743TIP3    H232173   3.350   7.803   2.866
10744TIP3   OH232174   3.172   4.083   3.244
10744TIP3    H132175   3.139   4.048   3.326
10744TIP3    H232176   3.156   4.177   3.250
10745TIP3   OH232177   4.722   2.953   3.922
10745TIP3    H132178   4.661   2.956   3.849
10745TIP3    H232179   4.797   3.005   3.894
10746TIP3   OH232180   6.567   6.916   2.838
10746TIP3    H132181   6.652   6.943   2.875
10746TIP3    H232182   6.562   6.961   2.754
10747TIP3   OH232183   7.230   1.268   6.500
10747TIP3    H132184   7.190   1.239   6.582
10747TIP3    H232185   7.184   1.219   6.432
10748TIP3   OH232186   0.866   1.998   3.994
10748TIP3    H132187   0.815   2.034   4.066
10748TIP3    H232188   0.957   2.003   4.024
10749TIP3   OH232189   1.712   4.699   3.809
10749TIP3    H132190   1.657   4.718   3.734
10749TIP3    H232191   1.662   4.636   3.860
10750TIP3   OH232192   3.689   0.295   0.803
10750TIP3    H132193   3.712   0.362   0.739
10750TIP3    H232194   3.594   0.284   0.794
10751TIP3   OH232195   2.651   6.846   0.818
10751TIP3    H132196   2.657   6.752   0.798
10751TIP3    H232197   2.558   6.861   0.836
10752TIP3   OH232198   6.424   0.627   1.157
10752TIP3    H132199   6.464   0.541   1.144
10752TIP3    H232200   6.487   0.675   1.211
10753TIP3   OH232201   7.668   4.266   5.594
10753TIP3    H132202   7.748   4.319   5.590
10753TIP3    H232203   7.598   4.330   5.609
10754TIP3   OH232204   5.287   2.768   2.919
10754TIP3    H132205   5.211   2.715   2.894
10754TIP3    H232206   5.314   2.811   2.839
10755TIP3   OH232207   4.216   6.007   4.269
10755TIP3    H132208   4.231   6.097   4.238
10755TIP3    H232209   4.235   5.953   4.193
10756TIP3   OH232210   1.789   0.010   5.373
10756TIP3    H132211   1.772   0.094   5.415
10756TIP3    H232212   1.703  -0.034   5.372
10757TIP3   OH232213   3.978   0.766   3.941
10757TIP3    H132214   3.935   0.833   3.888
10757TIP3    H232215   3.963   0.685   3.894
10758TIP3   OH232216   8.061   4.374   6.205
10758TIP3    H132217   8.062   4.301   6.143
10758TIP3    H232218   7.998   4.436   6.168
10759TIP3   OH232219   5.426   1.849   2.360
10759TIP3    H132220   5.377   1.768   2.348
10759TIP3    H232221   5.385   1.891   2.436
10760TIP3   OH232222   6.146   4.638   2.159
10760TIP3    H132223   6.231   4.672   2.185
10760TIP3    H232224   6.084   4.681   2.217
10761TIP3   OH232225   2.707   1.955   4.401
10761TIP3    H132226   2.691   1.940   4.307
10761TIP3    H232227   2.743   2.044   4.405
10762TIP3   OH232228   2.866   1.050   1.678
10762TIP3    H132229   2.932   1.063   1.610
10762TIP3    H232230   2.800   0.994   1.637
10763TIP3   OH232231   4.452   2.261   6.622
10763TIP3    H132232   4.454   2.165   6.629
10763TIP3    H232233   4.409   2.290   6.702
10764TIP3   OH232234   0.168   5.418   3.606
10764TIP3    H132235   0.235   5.485   3.620
10764TIP3    H232236   0.197   5.344   3.658
10765TIP3   OH232237   1.563   6.929   6.697
10765TIP3    H132238   1.477   6.970   6.695
10765TIP3    H232239   1.623   7.000   6.718
10766TIP3   OH232240   1.855   7.024   1.408
10766TIP3    H132241   1.792   6.990   1.344
10766TIP3    H232242   1.851   7.119   1.397
10767TIP3   OH232243   6.517   0.802   5.005
10767TIP3    H132244   6.453   0.814   4.935
10767TIP3    H232245   6.596   0.770   4.960
10768TIP3   OH232246   2.047   3.385  -0.015
10768TIP3    H132247   2.036   3.345   0.071
10768TIP3    H232248   2.099   3.321  -0.064
10769TIP3   OH232249   1.062   5.005   4.138
10769TIP3    H132250   1.046   4.921   4.181
10769TIP3    H232251   1.079   5.065   4.210
10770TIP3   OH232252   1.511   6.747   0.137
10770TIP3    H132253   1.556   6.689   0.199
10770TIP3    H232254   1.485   6.823   0.190
10771TIP3   OH232255   2.756   4.181   1.398
10771TIP3    H132256   2.836   4.145   1.360
10771TIP3    H232257   2.755   4.148   1.488
10772TIP3   OH232258   2.480   4.550   0.450
10772TIP3    H132259   2.449   4.492   0.381
10772TIP3    H232260   2.465   4.638   0.416
10773TIP3   OH232261   1.241   6.513   1.557
10773TIP3    H132262   1.168   6.494   1.617
10773TIP3    H232263   1.313   6.539   1.614
10774TIP3   OH232264   1.807   3.885   5.211
10774TIP3    H132265   1.886   3.936   5.191
10774TIP3    H232266   1.745   3.950   5.244
10775TIP3   OH232267   0.461   4.144   0.239
10775TIP3    H132268   0.418   4.064   0.271
10775TIP3    H232269   0.461   4.134   0.143
10776TIP3   OH232270   1.846   3.157   0.980
10776TIP3    H132271   1.884   3.088   0.926
10776TIP3    H232272   1.764   3.121   1.012
10777TIP3   OH232273   3.090   5.625   5.279
10777TIP3    H132274   3.049   5.600   5.196
10777TIP3    H232275   3.116   5.542   5.318
10778TIP3   OH232276   2.516   4.250   3.951
10778TIP3    H132277   2.544   4.221   4.038
10778TIP3    H232278   2.580   4.213   3.891
10779TIP3   OH232279   6.996   2.722   6.663
10779TIP3    H132280   7.036   2.739   6.748
10779TIP3    H232281   7.059   2.755   6.600
10780TIP3   OH232282   7.835   0.429   5.590
10780TIP3    H132283   7.773   0.372   5.635
10780TIP3    H232284   7.853   0.385   5.507
10781TIP3   OH232285   2.478   5.366   6.272
10781TIP3    H132286   2.489   5.398   6.183
10781TIP3    H232287   2.548   5.301   6.284
10782TIP3   OH232288   7.062   3.594   1.834
10782TIP3    H132289   7.102   3.625   1.752
10782TIP3    H232290   6.968   3.588   1.814
10783TIP3   OH232291   1.227   5.803   1.871
10783TIP3    H132292   1.135   5.778   1.868
10783TIP3    H232293   1.248   5.806   1.965
10784TIP3   OH232294   3.552   6.173   4.900
10784TIP3    H132295   3.603   6.213   4.970
10784TIP3    H232296   3.504   6.102   4.942
10785TIP3   OH232297   6.871   0.940   5.660
10785TIP3    H132298   6.803   0.978   5.605
10785TIP3    H232299   6.894   0.858   5.616
10786TIP3   OH232300   1.385   0.727   4.348
10786TIP3    H132301   1.294   0.715   4.377
10786TIP3    H232302   1.435   0.737   4.429
10787TIP3   OH232303   6.499   1.390   2.413
10787TIP3    H132304   6.512   1.436   2.496
10787TIP3    H232305   6.568   1.423   2.356
10788TIP3   OH232306   2.477   4.306   2.866
10788TIP3    H132307   2.412   4.259   2.814
10788TIP3    H232308   2.560   4.288   2.821
10789TIP3   OH232309   7.921   1.505   0.933
10789TIP3    H132310   7.885   1.574   0.877
10789TIP3    H232311   7.846   1.449   0.953
10790TIP3   OH232312   6.715   2.110   3.986
10790TIP3    H132313   6.755   2.195   4.003
10790TIP3    H232314   6.679   2.117   3.898
10791TIP3   OH232315   0.254   0.824   3.219
10791TIP3    H132316   0.264   0.911   3.256
10791TIP3    H232317   0.165   0.822   3.185
10792TIP3   OH232318   7.227   4.570   2.294
10792TIP3    H132319   7.288   4.565   2.368
10792TIP3    H232320   7.188   4.657   2.301
10793TIP3   OH232321   7.621   1.957   5.261
10793TIP3    H132322   7.569   1.938   5.339
10793TIP3    H232323   7.570   2.023   5.213
10794TIP3   OH232324   6.732   3.378   4.620
10794TIP3    H132325   6.721   3.458   4.671
10794TIP3    H232326   6.775   3.317   4.680
10795TIP3   OH232327   6.806   5.043   2.914
10795TIP3    H132328   6.899   5.062   2.901
10795TIP3    H232329   6.805   4.978   2.984
10796TIP3   OH232330   4.675   6.292   5.930
10796TIP3    H132331   4.657   6.382   5.956
10796TIP3    H232332   4.709   6.250   6.009
10797TIP3   OH232333   4.546   2.319   3.614
10797TIP3    H132334   4.631   2.291   3.648
10797TIP3    H232335   4.515   2.246   3.561
10798TIP3   OH232336   4.861   3.642   5.178
10798TIP3    H132337   4.791   3.680   5.125
10798TIP3    H232338   4.838   3.549   5.185
10799TIP3   OH232339   0.697   1.152   3.196
10799TIP3    H132340   0.774   1.208   3.190
10799TIP3    H232341   0.625   1.211   3.217
10800TIP3   OH232342   2.136   1.440   5.452
10800TIP3    H132343   2.077   1.498   5.405
10800TIP3    H232344   2.082   1.401   5.521
10801TIP3   OH232345   2.159   0.736   3.252
10801TIP3    H132346   2.094   0.705   3.314
10801TIP3    H232347   2.115   0.735   3.167
10802TIP3   OH232348   0.394   6.032   5.233
10802TIP3    H132349   0.360   5.965   5.174
10802TIP3    H232350   0.478   5.996   5.262
10803TIP3   OH232351   5.122   6.032   1.431
10803TIP3    H132352   5.109   5.999   1.342
10803TIP3    H232353   5.214   6.014   1.450
10804TIP3   OH232354   7.662   3.778   2.773
10804TIP3    H132355   7.647   3.775   2.679
10804TIP3    H232356   7.592   3.832   2.808
10805TIP3   OH232357   4.546   5.347   5.649
10805TIP3    H132358   4.466   5.295   5.653
10805TIP3    H232359   4.536   5.402   5.571
10806TIP3   OH232360   6.915   0.776   4.253
10806TIP3    H132361   6.976   0.776   4.179
10806TIP3    H232362   6.966   0.739   4.325
10807TIP3   OH232363   3.561   1.853   0.237
10807TIP3    H132364   3.610   1.856   0.155
10807TIP3    H232365   3.568   1.941   0.273
10808TIP3   OH232366   6.432   2.412   2.377
10808TIP3    H132367   6.341   2.427   2.352
10808TIP3    H232368   6.429   2.330   2.428
10809TIP3   OH232369   6.494   7.263   3.397
10809TIP3    H132370   6.423   7.294   3.453
10809TIP3    H232371   6.535   7.192   3.447
10810TIP3   OH232372   3.859   4.969   2.560
10810TIP3    H132373   3.790   5.016   2.515
10810TIP3    H232374   3.881   5.024   2.635
10811TIP3   OH232375   6.866   2.045   6.549
10811TIP3    H132376   6.790   2.030   6.604
10811TIP3    H232377   6.895   1.958   6.523
10812TIP3   OH232378   7.659   4.852   3.315
10812TIP3    H132379   7.753   4.839   3.314
10812TIP3    H232380   7.624   4.777   3.362
10813TIP3   OH232381   4.173   2.687   2.329
10813TIP3    H132382   4.193   2.614   2.270
10813TIP3    H232383   4.118   2.649   2.397
10814TIP3   OH232384   4.206   4.960   3.528
10814TIP3    H132385   4.205   4.985   3.436
10814TIP3    H232386   4.288   4.995   3.562
10815TIP3   OH232387   2.036   2.094   2.679
10815TIP3    H132388   2.082   2.156   2.734
10815TIP3    H232389   1.972   2.052   2.737
10816TIP3   OH232390   7.447   6.766   2.565
10816TIP3    H132391   7.474   6.674   2.571
10816TIP3    H232392   7.458   6.800   2.654
10817TIP3   OH232393   5.340   7.141   3.898
10817TIP3    H132394   5.343   7.224   3.850
10817TIP3    H232395   5.298   7.163   3.981
10818TIP3   OH232396   4.243   5.445   4.568
10818TIP3    H132397   4.176   5.510   4.590
10818TIP3    H232398   4.308   5.494   4.516
10819TIP3   OH232399   6.118   5.958   4.269
10819TIP3    H132400   6.205   5.998   4.274
10819TIP3    H232401   6.057   6.032   4.271
10820TIP3   OH232402   4.013   5.866   0.515
10820TIP3    H132403   3.979   5.891   0.601
10820TIP3    H232404   3.936   5.840   0.465
10821TIP3   OH232405   0.287   4.068   3.158
10821TIP3    H132406   0.229   4.137   3.190
10821TIP3    H232407   0.338   4.110   3.089
10822TIP3   OH232408   2.961   3.998   1.323
10822TIP3    H132409   3.012   4.005   1.404
10822TIP3    H232410   2.958   3.905   1.303
10823TIP3   OH232411   8.112   1.962   5.001
10823TIP3    H132412   8.127   2.039   4.946
10823TIP3    H232413   8.043   1.988   5.061
10824TIP3   OH232414   0.738   5.015   1.977
10824TIP3    H132415   0.829   4.997   1.955
10824TIP3    H232416   0.723   5.105   1.949
10825TIP3   OH232417   0.019   0.397   2.978
10825TIP3    H132418  -0.019   0.394   2.890
10825TIP3    H232419  -0.057   0.386   3.036
10826TIP3   OH232420   7.284   3.259   1.284
10826TIP3    H132421   7.379   3.270   1.279
10826TIP3    H232422   7.260   3.222   1.199
10827TIP3   OH232423   5.148   3.997   6.043
10827TIP3    H132424   5.237   3.965   6.035
10827TIP3    H232425   5.157   4.088   6.070
10828TIP3   OH232426   2.901   0.626   4.836
10828TIP3    H132427   2.995   0.639   4.824
10828TIP3    H232428   2.893   0.537   4.870
10829TIP3   OH232429   1.912   3.594   2.275
10829TIP3    H132430   1.841   3.571   2.335
10829TIP3    H232431   1.948   3.675   2.310
10830TIP3   OH232432   1.401   6.926   0.318
10830TIP3    H132433   1.366   7.015   0.311
10830TIP3    H232434   1.472   6.933   0.381
10831TIP3   OH232435   4.901   2.218   3.356
10831TIP3    H132436   4.821   2.182   3.317
10831TIP3    H232437   4.877   2.238   3.446
10832TIP3   OH232438   5.096   6.997   1.997
10832TIP3    H132439   5.026   6.936   1.971
10832TIP3    H232440   5.167   6.980   1.936
10833TIP3   OH232441   4.215   6.293   6.750
10833TIP3    H132442   4.179   6.317   6.664
10833TIP3    H232443   4.145   6.245   6.793
10834TIP3   OH232444   3.604   1.644   1.405
10834TIP3    H132445   3.550   1.719   1.431
10834TIP3    H232446   3.691   1.665   1.439
10835TIP3   OH232447   0.426   5.114   3.456
10835TIP3    H132448   0.414   5.029   3.499
10835TIP3    H232449   0.393   5.100   3.367
10836TIP3   OH232450   6.248   0.406   2.953
10836TIP3    H132451   6.334   0.380   2.920
10836TIP3    H232452   6.252   0.390   3.047
10837TIP3   OH232453   5.495   2.315   0.546
10837TIP3    H132454   5.585   2.287   0.535
10837TIP3    H232455   5.466   2.336   0.457
10838TIP3   OH232456   2.385   4.726   2.963
10838TIP3    H132457   2.324   4.771   3.021
10838TIP3    H232458   2.472   4.759   2.988
10839TIP3   OH232459   1.225   3.091   0.025
10839TIP3    H132460   1.169   3.137   0.088
10839TIP3    H232461   1.297   3.152   0.009
10840TIP3   OH232462   3.442  -0.013   0.303
10840TIP3    H132463   3.520   0.041   0.319
10840TIP3    H232464   3.374   0.027   0.356
10841TIP3   OH232465   4.117   7.364   2.672
10841TIP3    H132466   4.094   7.412   2.751
10841TIP3    H232467   4.210   7.382   2.659
10842TIP3   OH232468   1.929   2.828   2.077
10842TIP3    H132469   2.018   2.850   2.052
10842TIP3    H232470   1.875   2.899   2.042
10843TIP3   OH232471   8.026   6.964   4.406
10843TIP3    H132472   7.993   6.915   4.482
10843TIP3    H232473   7.962   7.035   4.394
10844TIP3   OH232474   0.536   1.086   6.208
10844TIP3    H132475   0.526   1.179   6.190
10844TIP3    H232476   0.628   1.067   6.188
10845TIP3   OH232477   1.318   1.983   6.318
10845TIP3    H132478   1.272   2.053   6.364
10845TIP3    H232479   1.411   2.001   6.334
10846TIP3   OH232480   5.737   0.603   2.125
10846TIP3    H132481   5.691   0.598   2.209
10846TIP3    H232482   5.731   0.695   2.100
10847TIP3   OH232483   3.730   3.196   0.079
10847TIP3    H132484   3.704   3.260   0.013
10847TIP3    H232485   3.670   3.122   0.067
10848TIP3   OH232486   7.966   2.842   1.774
10848TIP3    H132487   7.984   2.881   1.859
10848TIP3    H232488   7.930   2.914   1.721
10849TIP3   OH232489   8.094   0.047   2.998
10849TIP3    H132490   8.132   0.119   2.948
10849TIP3    H232491   8.125   0.062   3.088
10850TIP3   OH232492   1.601   4.517   2.325
10850TIP3    H132493   1.679   4.513   2.380
10850TIP3    H232494   1.531   4.481   2.381
10851TIP3   OH232495   5.495   1.418   0.616
10851TIP3    H132496   5.459   1.347   0.562
10851TIP3    H232497   5.471   1.498   0.568
10852TIP3   OH232498   6.313   2.002   1.663
10852TIP3    H132499   6.352   2.033   1.745
10852TIP3    H232500   6.229   1.965   1.688
10853TIP3   OH232501   2.148   2.265   3.282
10853TIP3    H132502   2.093   2.264   3.204
10853TIP3    H232503   2.232   2.300   3.252
10854TIP3   OH232504   0.986   5.953   0.179
10854TIP3    H132505   0.956   6.037   0.143
10854TIP3    H232506   1.049   5.921   0.115
10855TIP3   OH232507   3.492   3.313   3.248
10855TIP3    H132508   3.457   3.402   3.245
10855TIP3    H232509   3.449   3.266   3.177
10856TIP3   OH232510   3.736   6.036   1.200
10856TIP3    H132511   3.690   6.118   1.183
10856TIP3    H232512   3.711   5.978   1.127
10857TIP3   OH232513   5.830   1.239   0.603
10857TIP3    H132514   5.860   1.240   0.513
10857TIP3    H232515   5.773   1.161   0.608
10858TIP3   OH232516   2.869   5.397   1.111
10858TIP3    H132517   2.909   5.333   1.169
10858TIP3    H232518   2.943   5.451   1.081
10859TIP3   OH232519   0.682   0.426   2.360
10859TIP3    H132520   0.680   0.410   2.266
10859TIP3    H232521   0.689   0.521   2.369
10860TIP3   OH232522   0.213   0.347   3.924
10860TIP3    H132523   0.159   0.367   3.847
10860TIP3    H232524   0.200   0.423   3.981
10861TIP3   OH232525   0.321   0.511   4.173
10861TIP3    H132526   0.415   0.497   4.167
10861TIP3    H232527   0.298   0.555   4.091
10862TIP3   OH232528   3.474   7.832   3.327
10862TIP3    H132529   3.441   7.769   3.390
10862TIP3    H232530   3.513   7.901   3.381
10863TIP3   OH232531   6.737   2.371   4.152
10863TIP3    H132532   6.711   2.383   4.061
10863TIP3    H232533   6.664   2.406   4.203
10864TIP3   OH232534   5.728   0.474   4.620
10864TIP3    H132535   5.741   0.438   4.708
10864TIP3    H232536   5.790   0.547   4.615
10865TIP3   OH232537   5.780   2.909   0.647
10865TIP3    H132538   5.865   2.945   0.671
10865TIP3    H232539   5.719   2.950   0.708
10866TIP3   OH232540   0.556   1.131   0.515
10866TIP3    H132541   0.587   1.217   0.486
10866TIP3    H232542   0.636   1.083   0.536
10867TIP3   OH232543   6.557   6.886   4.396
10867TIP3    H132544   6.588   6.946   4.327
10867TIP3    H232545   6.503   6.941   4.453
10868TIP3   OH232546   8.067   1.845   0.082
10868TIP3    H132547   8.016   1.821   0.159
10868TIP3    H232548   8.147   1.792   0.089
10869TIP3   OH232549   3.868   0.846   1.660
10869TIP3    H132550   3.921   0.809   1.731
10869TIP3    H232551   3.799   0.781   1.646
10870TIP3   OH232552   5.890   3.977   3.456
10870TIP3    H132553   5.938   3.948   3.534
10870TIP3    H232554   5.913   3.913   3.389
10871TIP3   OH232555   8.302   6.961   4.444
10871TIP3    H132556   8.207   6.970   4.438
10871TIP3    H232557   8.334   6.995   4.361
10872TIP3   OH232558   5.514   0.969   4.269
10872TIP3    H132559   5.602   0.935   4.257
10872TIP3    H232560   5.476   0.968   4.181
10873TIP3   OH232561   2.097   3.150   2.677
10873TIP3    H132562   2.063   3.179   2.762
10873TIP3    H232563   2.191   3.139   2.692
10874TIP3   OH232564   5.988   5.432   6.291
10874TIP3    H132565   5.980   5.441   6.386
10874TIP3    H232566   5.961   5.342   6.272
10875TIP3   OH232567   6.466   4.373   4.333
10875TIP3    H132568   6.520   4.446   4.304
10875TIP3    H232569   6.409   4.353   4.258
10876TIP3   OH232570   4.366   6.159   4.661
10876TIP3    H132571   4.395   6.126   4.746
10876TIP3    H232572   4.270   6.156   4.666
10877TIP3   OH232573   5.247   7.357   6.062
10877TIP3    H132574   5.251   7.345   6.157
10877TIP3    H232575   5.203   7.441   6.050
10878TIP3   OH232576   7.297   7.808   2.726
10878TIP3    H132577   7.307   7.902   2.714
10878TIP3    H232578   7.205   7.791   2.705
10879TIP3   OH232579   7.411   1.316   4.603
10879TIP3    H132580   7.318   1.334   4.586
10879TIP3    H232581   7.456   1.354   4.527
10880TIP3   OH232582   8.066   2.009   1.701
10880TIP3    H132583   7.988   1.959   1.723
10880TIP3    H232584   8.034   2.081   1.647
10881TIP3   OH232585   7.995   3.335   2.755
10881TIP3    H132586   8.028   3.424   2.747
10881TIP3    H232587   7.900   3.344   2.742
10882TIP3   OH232588   4.691   0.743   1.460
10882TIP3    H132589   4.782   0.772   1.466
10882TIP3    H232590   4.694   0.651   1.486
10883TIP3   OH232591   5.590   1.013   5.610
10883TIP3    H132592   5.569   0.942   5.671
10883TIP3    H232593   5.631   1.080   5.664
10884TIP3   OH232594   5.993   6.579   3.294
10884TIP3    H132595   5.928   6.637   3.334
10884TIP3    H232596   5.972   6.581   3.201
10885TIP3   OH232597   4.617   7.466   3.747
10885TIP3    H132598   4.558   7.436   3.678
10885TIP3    H232599   4.584   7.553   3.771
10886TIP3   OH232600   1.047   6.188   5.187
10886TIP3    H132601   1.035   6.179   5.281
10886TIP3    H232602   1.023   6.102   5.152
10887TIP3   OH232603   5.143   3.309   6.565
10887TIP3    H132604   5.109   3.384   6.518
10887TIP3    H232605   5.065   3.262   6.594
10888TIP3   OH232606   6.869   3.902   4.875
10888TIP3    H132607   6.799   3.946   4.924
10888TIP3    H232608   6.948   3.950   4.897
10889TIP3   OH232609   7.817   6.185   3.786
10889TIP3    H132610   7.804   6.123   3.714
10889TIP3    H232611   7.866   6.257   3.746
10890TIP3   OH232612   3.756   4.499   3.970
10890TIP3    H132613   3.747   4.583   3.926
10890TIP3    H232614   3.727   4.435   3.905
10891TIP3   OH232615   0.146   4.938   3.805
10891TIP3    H132616   0.093   4.867   3.769
10891TIP3    H232617   0.236   4.910   3.791
10892TIP3   OH232618   7.412   3.261   0.618
10892TIP3    H132619   7.477   3.288   0.683
10892TIP3    H232620   7.337   3.230   0.669
10893TIP3   OH232621   1.387   6.991   4.521
10893TIP3    H132622   1.361   7.014   4.610
10893TIP3    H232623   1.480   6.969   4.528
10894TIP3   OH232624   4.717   5.316   2.298
10894TIP3    H132625   4.745   5.298   2.387
10894TIP3    H232626   4.720   5.231   2.254
10895TIP3   OH232627   3.522   6.704   0.573
10895TIP3    H132628   3.452   6.656   0.529
10895TIP3    H232629   3.600   6.652   0.559
10896TIP3   OH232630   0.063   1.094   1.740
10896TIP3    H132631   0.124   1.065   1.672
10896TIP3    H232632   0.102   1.065   1.822
10897TIP3   OH232633   1.280   4.948   3.933
10897TIP3    H132634   1.270   4.856   3.909
10897TIP3    H232635   1.255   4.951   4.026
10898TIP3   OH232636   2.432   1.861   6.486
10898TIP3    H132637   2.399   1.794   6.426
10898TIP3    H232638   2.507   1.899   6.440
10899TIP3   OH232639   7.504   1.155   0.105
10899TIP3    H132640   7.579   1.102   0.135
10899TIP3    H232641   7.461   1.099   0.040
10900TIP3   OH232642   2.723   6.675   6.473
10900TIP3    H132643   2.673   6.754   6.496
10900TIP3    H232644   2.667   6.602   6.499
10901TIP3   OH232645   2.817   0.153   0.424
10901TIP3    H132646   2.895   0.108   0.392
10901TIP3    H232647   2.800   0.221   0.358
10902TIP3   OH232648   4.086   7.770   3.294
10902TIP3    H132649   4.080   7.681   3.260
10902TIP3    H232650   4.022   7.819   3.242
10903TIP3   OH232651   7.889   6.782   0.221
10903TIP3    H132652   7.836   6.705   0.198
10903TIP3    H232653   7.966   6.745   0.265
10904TIP3   OH232654   4.532   7.124   4.269
10904TIP3    H132655   4.565   7.159   4.186
10904TIP3    H232656   4.570   7.037   4.276
10905TIP3   OH232657   2.572   0.425   3.634
10905TIP3    H132658   2.650   0.457   3.590
10905TIP3    H232659   2.508   0.495   3.623
10906TIP3   OH232660   5.909   1.845   6.190
10906TIP3    H132661   5.867   1.759   6.198
10906TIP3    H232662   5.905   1.882   6.277
10907TIP3   OH232663   2.730   4.199   0.145
10907TIP3    H132664   2.704   4.149   0.223
10907TIP3    H232665   2.779   4.137   0.092
10908TIP3   OH232666   0.709   4.575   3.252
10908TIP3    H132667   0.670   4.526   3.324
10908TIP3    H232668   0.696   4.520   3.175
10909TIP3   OH232669   1.972   4.460   1.372
10909TIP3    H132670   1.953   4.554   1.367
10909TIP3    H232671   2.060   4.455   1.408
10910TIP3   OH232672   1.866   4.485   2.426
10910TIP3    H132673   1.941   4.525   2.380
10910TIP3    H232674   1.877   4.391   2.412
10911TIP3   OH232675   5.530   0.022   5.899
10911TIP3    H132676   5.517  -0.005   5.808
10911TIP3    H232677   5.442   0.019   5.937
10912TIP3   OH232678   0.272   7.317   5.021
10912TIP3    H132679   0.256   7.246   5.084
10912TIP3    H232680   0.345   7.366   5.059
10913TIP3   OH232681   7.432   4.246   1.635
10913TIP3    H132682   7.375   4.267   1.709
10913TIP3    H232683   7.409   4.309   1.568
10914TIP3   OH232684   2.537   4.911   3.716
10914TIP3    H132685   2.464   4.889   3.657
10914TIP3    H232686   2.607   4.938   3.657
10915TIP3   OH232687   4.326   3.614   0.535
10915TIP3    H132688   4.238   3.619   0.573
10915TIP3    H232689   4.377   3.680   0.581
10916TIP3   OH232690   5.854   5.209   0.548
10916TIP3    H132691   5.807   5.140   0.501
10916TIP3    H232692   5.865   5.279   0.484
10917TIP3   OH232693   5.501   5.721   6.287
10917TIP3    H132694   5.550   5.802   6.279
10917TIP3    H232695   5.566   5.652   6.275
10918TIP3   OH232696   0.312   7.543   6.607
10918TIP3    H132697   0.219   7.538   6.630
10918TIP3    H232698   0.352   7.591   6.680
10919TIP3   OH232699   3.931   6.440   2.805
10919TIP3    H132700   3.940   6.345   2.815
10919TIP3    H232701   4.020   6.474   2.810
10920TIP3   OH232702   1.751   5.599   3.095
10920TIP3    H132703   1.809   5.657   3.045
10920TIP3    H232704   1.730   5.649   3.174
10921TIP3   OH232705   1.017   1.412   4.755
10921TIP3    H132706   1.059   1.491   4.790
10921TIP3    H232707   1.047   1.408   4.664
10922TIP3   OH232708   8.134   1.808   2.451
10922TIP3    H132709   8.211   1.752   2.465
10922TIP3    H232710   8.060   1.749   2.463
10923TIP3   OH232711   8.034   7.076   6.595
10923TIP3    H132712   7.943   7.055   6.576
10923TIP3    H232713   8.044   7.057   6.689
10924TIP3   OH232714   6.814   2.120   4.396
10924TIP3    H132715   6.797   2.195   4.339
10924TIP3    H232716   6.908   2.105   4.389
10925TIP3   OH232717   5.655   0.222   6.453
10925TIP3    H132718   5.597   0.166   6.401
10925TIP3    H232719   5.731   0.237   6.397
10926TIP3   OH232720   2.287   6.574   4.299
10926TIP3    H132721   2.308   6.480   4.296
10926TIP3    H232722   2.196   6.577   4.329
10927TIP3   OH232723   3.274   6.761   0.403
10927TIP3    H132724   3.229   6.676   0.401
10927TIP3    H232725   3.208   6.823   0.371
10928TIP3   OH232726   7.578   4.923   4.673
10928TIP3    H132727   7.532   4.889   4.596
10928TIP3    H232728   7.670   4.902   4.658
10929TIP3   OH232729   7.740   3.362   6.399
10929TIP3    H132730   7.688   3.434   6.434
10929TIP3    H232731   7.676   3.292   6.382
10930TIP3   OH232732   0.682   6.774   2.494
10930TIP3    H132733   0.731   6.856   2.488
10930TIP3    H232734   0.734   6.711   2.444
10931TIP3   OH232735   2.340   4.817   5.294
10931TIP3    H132736   2.360   4.727   5.319
10931TIP3    H232737   2.273   4.808   5.225
10932TIP3   OH232738   4.645   6.664   2.743
10932TIP3    H132739   4.619   6.684   2.833
10932TIP3    H232740   4.669   6.749   2.706
10933TIP3   OH232741   1.003   6.547   5.736
10933TIP3    H132742   1.069   6.537   5.805
10933TIP3    H232743   1.049   6.522   5.656
10934TIP3   OH232744   6.646   6.489   4.609
10934TIP3    H132745   6.635   6.584   4.607
10934TIP3    H232746   6.739   6.475   4.592
10935TIP3   OH232747   2.046   0.096   5.226
10935TIP3    H132748   2.022   0.048   5.147
10935TIP3    H232749   1.980   0.071   5.290
10936TIP3   OH232750   6.966   4.703   3.453
10936TIP3    H132751   7.056   4.672   3.465
10936TIP3    H232752   6.968   4.749   3.369
10937TIP3   OH232753   7.663   5.872   3.847
10937TIP3    H132754   7.686   5.903   3.759
10937TIP3    H232755   7.678   5.778   3.844
10938TIP3   OH232756   6.124   2.407   6.300
10938TIP3    H132757   6.159   2.320   6.320
10938TIP3    H232758   6.055   2.420   6.366
10939TIP3   OH232759   3.919   6.834   3.968
10939TIP3    H132760   3.955   6.757   3.923
10939TIP3    H232761   3.849   6.865   3.910
10940TIP3   OH232762   7.414   5.206   0.729
10940TIP3    H132763   7.396   5.148   0.803
10940TIP3    H232764   7.493   5.170   0.689
10941TIP3   OH232765   0.518   6.386   4.257
10941TIP3    H132766   0.455   6.318   4.232
10941TIP3    H232767   0.539   6.431   4.175
10942TIP3   OH232768   7.548   0.675   3.348
10942TIP3    H132769   7.557   0.590   3.306
10942TIP3    H232770   7.493   0.659   3.425
10943TIP3   OH232771   4.973   2.715   6.774
10943TIP3    H132772   4.948   2.761   6.694
10943TIP3    H232773   4.936   2.627   6.764
10944TIP3   OH232774   6.750   3.668   4.444
10944TIP3    H132775   6.832   3.718   4.445
10944TIP3    H232776   6.774   3.583   4.407
10945TIP3   OH232777   0.219   1.820   0.793
10945TIP3    H132778   0.162   1.751   0.760
10945TIP3    H232779   0.236   1.797   0.884
10946TIP3   OH232780   8.241   1.305   6.574
10946TIP3    H132781   8.333   1.306   6.550
10946TIP3    H232782   8.215   1.213   6.571
10947TIP3   OH232783   7.837   4.865   1.013
10947TIP3    H132784   7.895   4.791   0.994
10947TIP3    H232785   7.827   4.864   1.108
10948TIP3   OH232786   1.715   4.313   3.796
10948TIP3    H132787   1.678   4.225   3.800
10948TIP3    H232788   1.781   4.308   3.726
10949TIP3   OH232789   5.408   1.062   4.942
10949TIP3    H132790   5.401   0.975   4.903
10949TIP3    H232791   5.318   1.085   4.965
10950TIP3   OH232792   6.432   2.137   1.853
10950TIP3    H132793   6.527   2.139   1.842
10950TIP3    H232794   6.418   2.140   1.948
10951TIP3   OH232795   6.077   4.502   1.021
10951TIP3    H132796   6.038   4.511   0.934
10951TIP3    H232797   6.172   4.506   1.005
10952TIP3   OH232798   7.960   4.271   2.137
10952TIP3    H132799   7.934   4.232   2.053
10952TIP3    H232800   7.905   4.228   2.202
10953TIP3   OH232801   3.899   1.125   6.594
10953TIP3    H132802   3.940   1.186   6.533
10953TIP3    H232803   3.965   1.112   6.663
10954TIP3   OH232804   1.470   1.032   0.702
10954TIP3    H132805   1.533   1.104   0.708
10954TIP3    H232806   1.524   0.953   0.707
10955TIP3   OH232807   5.592   7.097   3.121
10955TIP3    H132808   5.615   7.149   3.044
10955TIP3    H232809   5.531   7.031   3.089
10956TIP3   OH232810   3.784   6.083   6.748
10956TIP3    H132811   3.736   6.103   6.668
10956TIP3    H232812   3.751   5.998   6.776
10957TIP3   OH232813   0.548   7.680   3.729
10957TIP3    H132814   0.549   7.729   3.811
10957TIP3    H232815   0.566   7.746   3.662
10958TIP3   OH232816   6.385   2.202   4.776
10958TIP3    H132817   6.348   2.170   4.858
10958TIP3    H232818   6.464   2.248   4.802
10959TIP3   OH232819   6.091   7.596   5.567
10959TIP3    H132820   6.173   7.639   5.544
10959TIP3    H232821   6.093   7.589   5.662
10960TIP3   OH232822   0.917   5.094   3.460
10960TIP3    H132823   0.907   5.011   3.413
10960TIP3    H232824   0.835   5.140   3.445
10961TIP3   OH232825   6.820   6.201   3.729
10961TIP3    H132826   6.880   6.171   3.797
10961TIP3    H232827   6.872   6.260   3.675
10962TIP3   OH232828   5.113   2.756   0.121
10962TIP3    H132829   5.121   2.783   0.212
10962TIP3    H232830   5.093   2.663   0.125
10963TIP3   OH232831   0.546   2.614   6.418
10963TIP3    H132832   0.623   2.595   6.472
10963TIP3    H232833   0.562   2.702   6.385
10964TIP3   OH232834   5.436   2.483   2.828
10964TIP3    H132835   5.446   2.393   2.799
10964TIP3    H232836   5.403   2.476   2.918
10965TIP3   OH232837   3.390   5.145   3.673
10965TIP3    H132838   3.369   5.177   3.761
10965TIP3    H232839   3.464   5.198   3.644
10966TIP3   OH232840   0.808   5.668   6.643
10966TIP3    H132841   0.863   5.659   6.565
10966TIP3    H232842   0.832   5.754   6.679
10967TIP3   OH232843   0.147   6.969   2.522
10967TIP3    H132844   0.205   6.909   2.568
10967TIP3    H232845   0.059   6.932   2.535
10968TIP3   OH232846   7.529   6.523   6.089
10968TIP3    H132847   7.456   6.461   6.085
10968TIP3    H232848   7.607   6.469   6.087
10969TIP3   OH232849   7.477   2.268   5.443
10969TIP3    H132850   7.428   2.349   5.431
10969TIP3    H232851   7.418   2.200   5.411
10970TIP3   OH232852   3.973   3.623   2.710
10970TIP3    H132853   3.986   3.694   2.773
10970TIP3    H232854   4.057   3.615   2.665
10971TIP3   OH232855   3.507   0.617   4.860
10971TIP3    H132856   3.453   0.560   4.915
10971TIP3    H232857   3.508   0.575   4.774
10972TIP3   OH232858   7.393   2.394   1.678
10972TIP3    H132859   7.452   2.465   1.651
10972TIP3    H232860   7.411   2.323   1.616
10973TIP3   OH232861   1.132   6.076   1.983
10973TIP3    H132862   1.091   6.112   1.905
10973TIP3    H232863   1.200   6.017   1.949
10974TIP3   OH232864   0.395   2.726   0.982
10974TIP3    H132865   0.303   2.744   0.959
10974TIP3    H232866   0.410   2.637   0.950
10975TIP3   OH232867   6.912   1.901   4.053
10975TIP3    H132868   6.828   1.934   4.022
10975TIP3    H232869   6.892   1.817   4.094
10976TIP3   OH232870   1.276   4.456   0.345
10976TIP3    H132871   1.183   4.452   0.324
10976TIP3    H232872   1.320   4.447   0.260
10977TIP3   OH232873   2.874   0.757   1.263
10977TIP3    H132874   2.899   0.831   1.207
10977TIP3    H232875   2.864   0.683   1.203
10978TIP3   OH232876   3.034   5.192   5.918
10978TIP3    H132877   2.978   5.188   5.995
10978TIP3    H232878   3.116   5.151   5.946
10979TIP3   OH232879   0.616   7.592   0.108
10979TIP3    H132880   0.691   7.599   0.050
10979TIP3    H232881   0.636   7.652   0.180
10980TIP3   OH232882   0.836   6.624   1.566
10980TIP3    H132883   0.827   6.626   1.471
10980TIP3    H232884   0.856   6.714   1.591
10981TIP3   OH232885   5.515   1.139   2.116
10981TIP3    H132886   5.500   1.085   2.194
10981TIP3    H232887   5.546   1.223   2.150
10982TIP3   OH232888   5.983   1.404   2.634
10982TIP3    H132889   6.058   1.427   2.689
10982TIP3    H232890   5.915   1.377   2.696
10983TIP3   OH232891   6.662   4.712   5.850
10983TIP3    H132892   6.622   4.634   5.889
10983TIP3    H232893   6.622   4.718   5.763
10984TIP3   OH232894   5.602   6.149   4.770
10984TIP3    H132895   5.567   6.062   4.754
10984TIP3    H232896   5.587   6.197   4.688
10985TIP3   OH232897   4.200   6.325   4.035
10985TIP3    H132898   4.272   6.380   4.066
10985TIP3    H232899   4.146   6.309   4.112
10986TIP3   OH232900   6.366   5.417   1.279
10986TIP3    H132901   6.328   5.419   1.367
10986TIP3    H232902   6.349   5.504   1.244
10987TIP3   OH232903   4.114   4.591   5.206
10987TIP3    H132904   4.077   4.610   5.120
10987TIP3    H232905   4.131   4.677   5.244
10988TIP3   OH232906   7.033   5.211   2.648
10988TIP3    H132907   7.083   5.141   2.607
10988TIP3    H232908   6.942   5.187   2.634
10989TIP3   OH232909   0.097   5.921   2.904
10989TIP3    H132910   0.038   5.857   2.866
10989TIP3    H232911   0.118   5.887   2.991
10990TIP3   OH232912   6.964   2.685   0.486
10990TIP3    H132913   6.871   2.702   0.502
10990TIP3    H232914   7.005   2.772   0.486
10991TIP3   OH232915   2.643   4.136   0.498
10991TIP3    H132916   2.730   4.169   0.473
10991TIP3    H232917   2.613   4.087   0.422
10992TIP3   OH232918   2.743   3.301   3.195
10992TIP3    H132919   2.799   3.264   3.128
10992TIP3    H232920   2.673   3.237   3.206
10993TIP3   OH232921   7.965   0.638   6.469
10993TIP3    H132922   7.960   0.597   6.382
10993TIP3    H232923   7.913   0.581   6.526
10994TIP3   OH232924   6.512   2.586   3.443
10994TIP3    H132925   6.420   2.596   3.470
10994TIP3    H232926   6.509   2.594   3.347
10995TIP3   OH232927   5.156   1.593   1.415
10995TIP3    H132928   5.152   1.678   1.370
10995TIP3    H232929   5.135   1.613   1.506
10996TIP3   OH232930   6.287   2.944   3.464
10996TIP3    H132931   6.273   2.966   3.372
10996TIP3    H232932   6.214   2.986   3.509
10997TIP3   OH232933   1.599   7.734   6.035
10997TIP3    H132934   1.619   7.749   5.942
10997TIP3    H232935   1.544   7.655   6.035
10998TIP3   OH232936   7.259   7.508   2.505
10998TIP3    H132937   7.292   7.420   2.484
10998TIP3    H232938   7.292   7.563   2.433
10999TIP3   OH232939   7.692   5.033   5.010
10999TIP3    H132940   7.733   5.056   5.094
10999TIP3    H232941   7.607   5.077   5.013
11000TIP3   OH232942   7.538   3.064   5.073
11000TIP3    H132943   7.502   3.017   4.998
11000TIP3    H232944   7.620   3.102   5.041
11001TIP3   OH232945   8.207   6.662   1.815
11001TIP3    H132946   8.211   6.726   1.886
11001TIP3    H232947   8.273   6.692   1.752
11002TIP3   OH232948   3.941   4.499   1.254
11002TIP3    H132949   3.953   4.589   1.225
11002TIP3    H232950   3.997   4.447   1.196
11003TIP3   OH232951   5.695   2.216   0.818
11003TIP3    H132952   5.718   2.177   0.734
11003TIP3    H232953   5.711   2.309   0.807
11004TIP3   OH232954   0.347   4.603   6.028
11004TIP3    H132955   0.435   4.631   6.056
11004TIP3    H232956   0.294   4.612   6.107
11005TIP3   OH232957   2.607   5.289   4.762
11005TIP3    H132958   2.546   5.216   4.754
11005TIP3    H232959   2.551   5.365   4.779
11006TIP3   OH232960   3.545   7.146   0.688
11006TIP3    H132961   3.454   7.121   0.704
11006TIP3    H232962   3.591   7.063   0.679
11007TIP3   OH232963   2.028   4.171   6.733
11007TIP3    H132964   1.971   4.138   6.802
11007TIP3    H232965   1.976   4.163   6.653
11008TIP3   OH232966   0.822   2.325   1.521
11008TIP3    H132967   0.787   2.397   1.574
11008TIP3    H232968   0.910   2.310   1.555
11009TIP3   OH232969   4.677   2.865   6.596
11009TIP3    H132970   4.637   2.838   6.513
11009TIP3    H232971   4.771   2.855   6.582
11010TIP3   OH232972   4.796   4.626   0.584
11010TIP3    H132973   4.845   4.700   0.547
11010TIP3    H232974   4.839   4.549   0.548
11011TIP3   OH232975   2.550   4.480   1.766
11011TIP3    H132976   2.478   4.472   1.828
11011TIP3    H232977   2.544   4.569   1.732
11012TIP3   OH232978   0.433   3.903   4.702
11012TIP3    H132979   0.417   3.840   4.773
11012TIP3    H232980   0.380   3.979   4.725
11013TIP3   OH232981   0.930   5.435   0.052
11013TIP3    H132982   0.915   5.511   0.108
11013TIP3    H232983   0.967   5.472  -0.028
11014TIP3   OH232984   8.072   5.374   3.496
11014TIP3    H132985   8.099   5.300   3.550
11014TIP3    H232986   8.101   5.451   3.546
11015TIP3   OH232987   6.477   2.886   6.325
11015TIP3    H132988   6.444   2.964   6.370
11015TIP3    H232989   6.413   2.818   6.345
11016TIP3   OH232990   7.112   0.622   0.514
11016TIP3    H132991   7.117   0.558   0.585
11016TIP3    H232992   7.202   0.653   0.502
11017TIP3   OH232993   2.242   0.861   4.802
11017TIP3    H132994   2.262   0.768   4.815
11017TIP3    H232995   2.210   0.866   4.712
11018TIP3   OH232996   3.036   2.645   6.189
11018TIP3    H132997   3.129   2.664   6.177
11018TIP3    H232998   3.034   2.561   6.234
11019TIP3   OH232999   5.664   4.054   3.308
11019TIP3    H133000   5.749   4.024   3.340
11019TIP3    H233001   5.658   4.145   3.339
11020TIP3   OH233002   4.085   5.634   4.694
11020TIP3    H133003   4.066   5.722   4.728
11020TIP3    H233004   4.003   5.586   4.704
11021TIP3   OH233005   1.480   5.103   0.592
11021TIP3    H133006   1.495   5.076   0.501
11021TIP3    H233007   1.565   5.134   0.622
11022TIP3   OH233008   3.164   0.715   4.895
11022TIP3    H133009   3.145   0.806   4.917
11022TIP3    H233010   3.223   0.685   4.964
11023TIP3   OH233011   2.478   2.835   1.912
11023TIP3    H133012   2.413   2.827   1.843
11023TIP3    H233013   2.471   2.753   1.962
11024TIP3   OH233014   2.712   6.884   2.383
11024TIP3    H133015   2.806   6.898   2.368
11024TIP3    H233016   2.681   6.842   2.303
11025TIP3   OH233017   3.518   0.799   3.552
11025TIP3    H133018   3.445   0.830   3.606
11025TIP3    H233019   3.482   0.722   3.507
11026TIP3   OH233020   1.039   6.800   0.525
11026TIP3    H133021   1.079   6.725   0.481
11026TIP3    H233022   0.969   6.828   0.465
11027TIP3   OH233023   2.528   5.903   1.468
11027TIP3    H133024   2.503   5.958   1.394
11027TIP3    H233025   2.508   5.814   1.440
11028TIP3   OH233026   5.929   0.867   2.277
11028TIP3    H133027   5.987   0.810   2.228
11028TIP3    H233028   5.915   0.943   2.220
11029TIP3   OH233029   1.720   5.479   4.141
11029TIP3    H133030   1.735   5.550   4.202
11029TIP3    H233031   1.625   5.463   4.145
11030TIP3   OH233032   0.130   6.203   5.312
11030TIP3    H133033   0.110   6.158   5.230
11030TIP3    H233034   0.191   6.143   5.356
11031TIP3   OH233035   5.192   6.319   4.747
11031TIP3    H133036   5.212   6.412   4.738
11031TIP3    H233037   5.250   6.276   4.684
11032TIP3   OH233038   4.893   3.434   3.830
11032TIP3    H133039   4.862   3.525   3.825
11032TIP3    H233040   4.928   3.426   3.919
11033TIP3   OH233041   3.611   0.879   5.491
11033TIP3    H133042   3.524   0.908   5.463
11033TIP3    H233043   3.655   0.856   5.409
11034TIP3   OH233044   3.145   1.554   1.826
11034TIP3    H133045   3.116   1.470   1.791
11034TIP3    H233046   3.064   1.597   1.854
11035TIP3   OH233047   4.954   5.036   4.630
11035TIP3    H133048   5.034   5.032   4.577
11035TIP3    H233049   4.942   5.129   4.648
11036TIP3   OH233050   0.238   5.065   5.173
11036TIP3    H133051   0.222   4.994   5.111
11036TIP3    H233052   0.318   5.108   5.142
11037TIP3   OH233053   4.302   4.700   3.021
11037TIP3    H133054   4.319   4.680   2.929
11037TIP3    H233055   4.346   4.630   3.069
11038TIP3   OH233056   3.369   1.621   6.378
11038TIP3    H133057   3.458   1.631   6.413
11038TIP3    H233058   3.374   1.654   6.289
11039TIP3   OH233059   4.228   2.577   1.358
11039TIP3    H133060   4.196   2.487   1.368
11039TIP3    H233061   4.174   2.615   1.289
11040TIP3   OH233062   3.630   7.132   2.609
11040TIP3    H133063   3.560   7.197   2.616
11040TIP3    H233064   3.615   7.072   2.682
11041TIP3   OH233065   0.459   3.206   2.712
11041TIP3    H133066   0.538   3.153   2.719
11041TIP3    H233067   0.484   3.290   2.751
11042TIP3   OH233068   6.903   7.054   4.274
11042TIP3    H133069   6.894   7.049   4.369
11042TIP3    H233070   6.815   7.075   4.243
11043TIP3   OH233071   8.046   7.270   4.887
11043TIP3    H133072   7.951   7.276   4.878
11043TIP3    H233073   8.078   7.257   4.798
11044TIP3   OH233074   7.873   1.198   6.609
11044TIP3    H133075   7.817   1.228   6.681
11044TIP3    H233076   7.848   1.107   6.596
11045TIP3   OH233077   6.995   4.932   4.446
11045TIP3    H133078   6.974   4.887   4.527
11045TIP3    H233079   7.090   4.923   4.437
11046TIP3   OH233080   7.432   5.492   0.461
11046TIP3    H133081   7.342   5.464   0.440
11046TIP3    H233082   7.485   5.413   0.447
11047TIP3   OH233083   4.991   4.476   6.243
11047TIP3    H133084   4.982   4.443   6.332
11047TIP3    H233085   4.901   4.495   6.216
11048TIP3   OH233086   5.338   2.619   3.161
11048TIP3    H133087   5.323   2.642   3.069
11048TIP3    H233088   5.255   2.639   3.205
11049TIP3   OH233089   2.145   6.556   5.208
11049TIP3    H133090   2.095   6.583   5.131
11049TIP3    H233091   2.237   6.561   5.180
11050TIP3   OH233092   5.817   3.897   1.624
11050TIP3    H133093   5.867   3.819   1.600
11050TIP3    H233094   5.856   3.968   1.573
11051TIP3   OH233095   3.763   7.538   5.120
11051TIP3    H133096   3.854   7.536   5.149
11051TIP3    H233097   3.762   7.601   5.048
11052TIP3   OH233098   3.772   3.394   6.630
11052TIP3    H133099   3.722   3.338   6.570
11052TIP3    H233100   3.800   3.468   6.576
11053TIP3   OH233101   2.727   3.716   2.064
11053TIP3    H133102   2.656   3.775   2.039
11053TIP3    H233103   2.683   3.641   2.103
11054TIP3   OH233104   2.703   7.411   6.660
11054TIP3    H133105   2.784   7.388   6.706
11054TIP3    H233106   2.727   7.487   6.606
11055TIP3   OH233107   2.557   1.195   0.676
11055TIP3    H133108   2.582   1.140   0.750
11055TIP3    H233109   2.468   1.167   0.654
11056TIP3   OH233110   3.752   4.811   1.932
11056TIP3    H133111   3.676   4.820   1.875
11056TIP3    H233112   3.826   4.837   1.878
11057TIP3   OH233113   6.962   6.861   2.782
11057TIP3    H133114   6.938   6.769   2.769
11057TIP3    H233115   7.033   6.876   2.719
11058TIP3   OH233116   6.310   4.831   5.760
11058TIP3    H133117   6.386   4.884   5.782
11058TIP3    H233118   6.237   4.894   5.757
11059TIP3   OH233119   3.393   5.790   1.877
11059TIP3    H133120   3.485   5.763   1.878
11059TIP3    H233121   3.389   5.867   1.933
11060TIP3   OH233122   7.766   1.331   0.474
11060TIP3    H133123   7.845   1.383   0.461
11060TIP3    H233124   7.699   1.374   0.421
11061TIP3   OH233125   7.454   4.346   2.496
11061TIP3    H133126   7.441   4.440   2.484
11061TIP3    H233127   7.548   4.334   2.483
11062TIP3   OH233128   7.516   6.047   1.856
11062TIP3    H133129   7.431   6.068   1.819
11062TIP3    H233130   7.521   5.952   1.856
11063TIP3   OH233131   3.908   3.512   3.293
11063TIP3    H133132   3.836   3.532   3.234
11063TIP3    H233133   3.882   3.549   3.377
11064TIP3   OH233134   1.697   7.157   2.578
11064TIP3    H133135   1.649   7.200   2.649
11064TIP3    H233136   1.646   7.176   2.499
11065TIP3   OH233137   4.963   2.231   2.926
11065TIP3    H133138   4.876   2.192   2.938
11065TIP3    H233139   4.954   2.320   2.959
11066TIP3   OH233140   5.802   7.784   4.033
11066TIP3    H133141   5.710   7.810   4.033
11066TIP3    H233142   5.850   7.866   4.046
11067TIP3   OH233143   3.396   5.176   5.689
11067TIP3    H133144   3.431   5.213   5.608
11067TIP3    H233145   3.302   5.190   5.683
11068TIP3   OH233146   2.889   4.849   5.924
11068TIP3    H133147   2.812   4.905   5.933
11068TIP3    H233148   2.917   4.832   6.015
11069TIP3   OH233149   0.632   5.555   3.200
11069TIP3    H133150   0.629   5.613   3.124
11069TIP3    H233151   0.725   5.547   3.219
11070TIP3   OH233152   6.197   4.512   1.445
11070TIP3    H133153   6.208   4.551   1.358
11070TIP3    H233154   6.244   4.429   1.440
11071TIP3   OH233155   5.032   6.858   4.434
11071TIP3    H133156   5.023   6.799   4.360
11071TIP3    H233157   4.976   6.821   4.502
11072TIP3   OH233158   4.066   1.007   4.706
11072TIP3    H133159   3.973   1.022   4.687
11072TIP3    H233160   4.085   0.922   4.667
11073TIP3   OH233161   1.787   3.705   1.389
11073TIP3    H133162   1.831   3.790   1.388
11073TIP3    H233163   1.708   3.718   1.336
11074TIP3   OH233164   2.676   0.569   3.264
11074TIP3    H133165   2.664   0.488   3.214
11074TIP3    H233166   2.591   0.582   3.308
11075TIP3   OH233167   3.885   0.175   0.957
11075TIP3    H133168   3.823   0.217   0.897
11075TIP3    H233169   3.855   0.084   0.962
11076TIP3   OH233170   6.200   4.049   3.273
11076TIP3    H133171   6.237   3.964   3.298
11076TIP3    H233172   6.275   4.102   3.248
11077TIP3   OH233173   0.746   7.302   4.465
11077TIP3    H133174   0.657   7.316   4.498
11077TIP3    H233175   0.800   7.295   4.544
11078TIP3   OH233176   6.198   6.950   4.974
11078TIP3    H133177   6.247   6.919   4.898
11078TIP3    H233178   6.119   6.896   4.975
11079TIP3   OH233179   7.762   1.629   6.294
11079TIP3    H133180   7.690   1.582   6.335
11079TIP3    H233181   7.804   1.563   6.239
11080TIP3   OH233182   1.451   3.562   3.175
11080TIP3    H133183   1.509   3.619   3.226
11080TIP3    H233184   1.509   3.501   3.130
11081TIP3   OH233185   7.494   4.333   6.659
11081TIP3    H133186   7.504   4.425   6.682
11081TIP3    H233187   7.517   4.286   6.739
11082TIP3   OH233188   3.579   5.472   6.380
11082TIP3    H133189   3.642   5.424   6.434
11082TIP3    H233190   3.630   5.543   6.342
11083TIP3   OH233191   7.785   3.730   6.326
11083TIP3    H133192   7.781   3.730   6.422
11083TIP3    H233193   7.839   3.654   6.305
11084TIP3   OH233194   2.130   3.281   5.924
11084TIP3    H133195   2.219   3.310   5.946
11084TIP3    H233196   2.127   3.189   5.952
11085TIP3   OH233197   2.403   2.438   5.532
11085TIP3    H133198   2.438   2.351   5.513
11085TIP3    H233199   2.475   2.498   5.512
11086TIP3   OH233200   1.601   7.575   2.494
11086TIP3    H133201   1.534   7.571   2.425
11086TIP3    H233202   1.569   7.515   2.561
11087TIP3   OH233203   5.562   3.475   2.722
11087TIP3    H133204   5.472   3.458   2.695
11087TIP3    H233205   5.578   3.566   2.695
11088TIP3   OH233206   7.343   5.267   3.755
11088TIP3    H133207   7.361   5.300   3.843
11088TIP3    H233208   7.345   5.345   3.699
11089TIP3   OH233209   1.451   4.529   3.609
11089TIP3    H133210   1.481   4.600   3.553
11089TIP3    H233211   1.499   4.452   3.579
11090TIP3   OH233212   4.298   2.482   6.758
11090TIP3    H133213   4.326   2.505   6.847
11090TIP3    H233214   4.273   2.566   6.719
11091TIP3   OH233215   3.700   0.405   1.091
11091TIP3    H133216   3.738   0.345   1.027
11091TIP3    H233217   3.605   0.396   1.078
11092TIP3   OH233218   5.114   4.854   0.188
11092TIP3    H133219   5.104   4.948   0.207
11092TIP3    H233220   5.109   4.812   0.273
11093TIP3   OH233221   2.252   0.092   3.414
11093TIP3    H133222   2.336   0.048   3.399
11093TIP3    H233223   2.253   0.166   3.353
11094TIP3   OH233224   1.117   5.178   1.056
11094TIP3    H133225   1.186   5.147   1.114
11094TIP3    H233226   1.075   5.249   1.104
11095TIP3   OH233227   4.785   7.042   4.066
11095TIP3    H133228   4.728   7.074   3.996
11095TIP3    H233229   4.847   6.984   4.021
11096TIP3   OH233230   7.496   7.764   6.285
11096TIP3    H133231   7.413   7.793   6.246
11096TIP3    H233232   7.528   7.842   6.332
11097TIP3   OH233233   6.924   1.257   2.910
11097TIP3    H133234   6.891   1.338   2.950
11097TIP3    H233235   6.905   1.189   2.973
11098TIP3   OH233236   2.653   6.635   2.620
11098TIP3    H133237   2.618   6.652   2.533
11098TIP3    H233238   2.748   6.628   2.607
11099TIP3   OH233239   7.018   4.614   4.273
11099TIP3    H133240   6.985   4.530   4.307
11099TIP3    H233241   7.055   4.657   4.350
11100TIP3   OH233242   4.393   3.969   3.320
11100TIP3    H133243   4.465   4.018   3.281
11100TIP3    H233244   4.329   3.958   3.250
11101TIP3   OH233245   5.229   0.530   2.031
11101TIP3    H133246   5.185   0.558   2.111
11101TIP3    H233247   5.276   0.607   2.001
11102TIP3   OH233248   4.431   2.728   4.972
11102TIP3    H133249   4.447   2.774   5.054
11102TIP3    H233250   4.505   2.753   4.916
11103TIP3   OH233251   2.916   2.012   0.697
11103TIP3    H133252   2.853   1.955   0.652
11103TIP3    H233253   2.873   2.097   0.701
11104TIP3   OH233254   1.579   6.757   4.640
11104TIP3    H133255   1.492   6.720   4.628
11104TIP3    H233256   1.571   6.814   4.716
11105TIP3   OH233257   6.289   3.628   3.832
11105TIP3    H133258   6.353   3.673   3.777
11105TIP3    H233259   6.303   3.664   3.920
11106TIP3   OH233260   3.518   1.383   4.874
11106TIP3    H133261   3.552   1.473   4.871
11106TIP3    H233262   3.481   1.368   4.787
11107TIP3   OH233263   2.053   0.679   5.452
11107TIP3    H133264   2.084   0.695   5.363
11107TIP3    H233265   2.091   0.594   5.474
11108TIP3   OH233266   0.203   6.494   1.512
11108TIP3    H133267   0.126   6.503   1.457
11108TIP3    H233268   0.191   6.559   1.582
11109TIP3   OH233269   4.073   6.137   1.389
11109TIP3    H133270   4.129   6.115   1.464
11109TIP3    H233271   4.087   6.230   1.376
11110TIP3   OH233272   1.158   3.553   6.617
11110TIP3    H133273   1.076   3.507   6.598
11110TIP3    H233274   1.132   3.622   6.679
11111TIP3   OH233275   4.089   3.790   5.848
11111TIP3    H133276   4.005   3.833   5.865
11111TIP3    H233277   4.133   3.848   5.786
11112TIP3   OH233278   7.017   6.059   2.046
11112TIP3    H133279   6.926   6.052   2.074
11112TIP3    H233280   7.065   6.001   2.106
11113TIP3   OH233281   7.882   1.653   4.178
11113TIP3    H133282   7.949   1.587   4.196
11113TIP3    H233283   7.915   1.733   4.217
11114TIP3   OH233284   3.633   0.822   4.297
11114TIP3    H133285   3.668   0.832   4.209
11114TIP3    H233286   3.538   0.822   4.286
11115TIP3   OH233287   1.622   7.798   0.628
11115TIP3    H133288   1.537   7.784   0.670
11115TIP3    H233289   1.627   7.893   0.616
11116TIP3   OH233290   6.838   1.174   6.446
11116TIP3    H133291   6.830   1.147   6.355
11116TIP3    H233292   6.794   1.104   6.496
11117TIP3   OH233293   0.850   0.211   6.134
11117TIP3    H133294   0.833   0.301   6.161
11117TIP3    H233295   0.943   0.197   6.155
11118TIP3   OH233296   3.046   2.000   3.361
11118TIP3    H133297   3.081   1.945   3.290
11118TIP3    H233298   3.038   1.941   3.436
11119TIP3   OH233299   6.211   6.009   5.399
11119TIP3    H133300   6.166   5.948   5.341
11119TIP3    H233301   6.212   6.092   5.350
11120TIP3   OH233302   2.671   1.797   2.582
11120TIP3    H133303   2.723   1.812   2.661
11120TIP3    H233304   2.665   1.702   2.575
11121TIP3   OH233305   6.094   6.646   1.037
11121TIP3    H133306   6.012   6.603   1.012
11121TIP3    H233307   6.066   6.725   1.083
11122TIP3   OH233308   2.010   2.204   3.064
11122TIP3    H133309   1.991   2.132   3.004
11122TIP3    H233310   1.978   2.282   3.019
11123TIP3   OH233311   4.380   1.462   1.985
11123TIP3    H133312   4.399   1.394   2.051
11123TIP3    H233313   4.377   1.543   2.035
11124TIP3   OH233314   6.292   2.959   0.710
11124TIP3    H133315   6.338   2.886   0.751
11124TIP3    H233316   6.332   3.037   0.749
11125TIP3   OH233317   3.246   5.330   1.979
11125TIP3    H133318   3.324   5.306   1.930
11125TIP3    H233319   3.236   5.424   1.965
11126TIP3   OH233320   5.903   5.467   6.558
11126TIP3    H133321   5.946   5.547   6.589
11126TIP3    H233322   5.811   5.477   6.583
11127TIP3   OH233323   0.886   0.539   2.849
11127TIP3    H133324   0.901   0.609   2.786
11127TIP3    H233325   0.903   0.458   2.801
11128TIP3   OH233326   0.562   2.392   0.049
11128TIP3    H133327   0.562   2.390   0.145
11128TIP3    H233328   0.481   2.438   0.026
11129TIP3   OH233329   3.929   0.824   4.916
11129TIP3    H133330   3.915   0.899   4.974
11129TIP3    H233331   3.853   0.824   4.858
11130TIP3   OH233332   2.185   0.588   1.926
11130TIP3    H133333   2.210   0.521   1.862
11130TIP3    H233334   2.132   0.542   1.990
11131TIP3   OH233335   5.110   7.282   1.232
11131TIP3    H133336   5.064   7.353   1.278
11131TIP3    H233337   5.059   7.268   1.153
11132TIP3   OH233338   1.395   2.314   2.150
11132TIP3    H133339   1.348   2.396   2.168
11132TIP3    H233340   1.482   2.328   2.189
11133TIP3   OH233341   7.738   0.984   2.494
11133TIP3    H133342   7.712   1.041   2.422
11133TIP3    H233343   7.827   1.012   2.516
11134TIP3   OH233344   4.667   1.162   1.316
11134TIP3    H133345   4.610   1.152   1.392
11134TIP3    H233346   4.673   1.073   1.279
11135TIP3   OH233347   4.338   6.504   4.530
11135TIP3    H133348   4.269   6.557   4.490
11135TIP3    H233349   4.291   6.440   4.584
11136TIP3   OH233350   2.085   5.896   2.481
11136TIP3    H133351   2.086   5.801   2.468
11136TIP3    H233352   2.093   5.907   2.576
11137TIP3   OH233353   2.110   5.612   4.783
11137TIP3    H133354   2.054   5.620   4.861
11137TIP3    H233355   2.048   5.593   4.712
11138TIP3   OH233356   5.744   4.126   2.748
11138TIP3    H133357   5.744   4.095   2.839
11138TIP3    H233358   5.686   4.065   2.702
11139TIP3   OH233359   6.469   7.138   3.162
11139TIP3    H133360   6.476   7.195   3.238
11139TIP3    H233361   6.455   7.051   3.198
11140TIP3   OH233362   4.410   7.645   1.379
11140TIP3    H133363   4.469   7.572   1.398
11140TIP3    H233364   4.325   7.604   1.361
11141TIP3   OH233365   1.533   4.715   4.032
11141TIP3    H133366   1.455   4.684   4.077
11141TIP3    H233367   1.591   4.744   4.101
11142TIP3   OH233368   0.493   6.040   0.191
11142TIP3    H133369   0.569   6.098   0.182
11142TIP3    H233370   0.531   5.952   0.193
11143TIP3   OH233371   5.835   3.544   1.007
11143TIP3    H133372   5.774   3.580   0.944
11143TIP3    H233373   5.783   3.486   1.062
11144TIP3   OH233374   1.056   0.095   2.217
11144TIP3    H133375   1.052   0.000   2.201
11144TIP3    H233376   1.143   0.120   2.188
11145TIP3   OH233377   7.430   3.362   3.392
11145TIP3    H133378   7.360   3.297   3.392
11145TIP3    H233379   7.449   3.376   3.485
11146TIP3   OH233380   3.935   7.164   5.002
11146TIP3    H133381   3.853   7.207   4.978
11146TIP3    H233382   3.999   7.197   4.940
11147TIP3   OH233383   4.454   3.721   4.132
11147TIP3    H133384   4.532   3.744   4.182
11147TIP3    H233385   4.390   3.788   4.156
11148TIP3   OH233386   1.661   2.415   1.754
11148TIP3    H133387   1.588   2.474   1.770
11148TIP3    H233388   1.727   2.469   1.712
11149TIP3   OH233389   0.716   2.344   4.146
11149TIP3    H133390   0.681   2.257   4.166
11149TIP3    H233391   0.641   2.403   4.158
11150TIP3   OH233392   7.715   2.980   0.838
11150TIP3    H133393   7.779   3.014   0.775
11150TIP3    H233394   7.748   3.007   0.924
11151TIP3   OH233395   6.055   7.445   3.062
11151TIP3    H133396   6.004   7.524   3.046
11151TIP3    H233397   6.088   7.456   3.151
11152TIP3   OH233398   8.074   0.017   5.497
11152TIP3    H133399   8.128   0.058   5.430
11152TIP3    H233400   7.990   0.062   5.491
11153TIP3   OH233401   7.461   0.686   3.692
11153TIP3    H133402   7.496   0.616   3.747
11153TIP3    H233403   7.393   0.643   3.640
11154TIP3   OH233404   8.214   5.806   2.719
11154TIP3    H133405   8.243   5.880   2.664
11154TIP3    H233406   8.119   5.802   2.704
11155TIP3   OH233407   6.643   4.340   3.092
11155TIP3    H133408   6.564   4.371   3.048
11155TIP3    H233409   6.628   4.247   3.107
11156TIP3   OH233410   4.085   3.709   0.290
11156TIP3    H133411   4.071   3.680   0.200
11156TIP3    H233412   4.180   3.718   0.297
11157TIP3   OH233413   5.161   1.131   0.203
11157TIP3    H133414   5.113   1.195   0.150
11157TIP3    H233415   5.244   1.119   0.157
11158TIP3   OH233416   1.350   5.050   1.393
11158TIP3    H133417   1.405   5.119   1.429
11158TIP3    H233418   1.380   5.039   1.303
11159TIP3   OH233419   3.037   5.964   4.025
11159TIP3    H133420   2.972   5.899   4.052
11159TIP3    H233421   3.107   5.956   4.090
11160TIP3   OH233422   0.332   1.805   3.178
11160TIP3    H133423   0.408   1.789   3.235
11160TIP3    H233424   0.257   1.774   3.229
11161TIP3   OH233425   1.680   3.620   6.072
11161TIP3    H133426   1.754   3.611   6.132
11161TIP3    H233427   1.605   3.586   6.122
11162TIP3   OH233428   7.130   5.367   1.732
11162TIP3    H133429   7.215   5.387   1.693
11162TIP3    H233430   7.106   5.446   1.780
11163TIP3   OH233431   0.063   1.710   2.575
11163TIP3    H133432   0.078   1.672   2.661
11163TIP3    H233433   0.145   1.698   2.528
11164TIP3   OH233434   3.735   5.026   2.321
11164TIP3    H133435   3.655   5.046   2.273
11164TIP3    H233436   3.753   4.934   2.302
11165TIP3   OH233437   8.112   2.587   6.185
11165TIP3    H133438   8.164   2.525   6.134
11165TIP3    H233439   8.143   2.673   6.157
11166TIP3   OH233440   2.731   3.823   4.542
11166TIP3    H133441   2.803   3.836   4.479
11166TIP3    H233442   2.773   3.784   4.618
11167TIP3   OH233443   2.948   2.763   0.773
11167TIP3    H133444   2.859   2.798   0.776
11167TIP3    H233445   2.939   2.679   0.729
11168TIP3   OH233446   7.681   6.696   5.917
11168TIP3    H133447   7.633   6.653   5.988
11168TIP3    H233448   7.617   6.704   5.846
11169TIP3   OH233449   0.116   7.230   5.664
11169TIP3    H133450   0.111   7.139   5.690
11169TIP3    H233451   0.042   7.242   5.604
11170TIP3   OH233452   6.065   5.874   3.850
11170TIP3    H133453   6.033   5.787   3.826
11170TIP3    H233454   6.139   5.889   3.792
11171TIP3   OH233455   5.315   0.505   1.180
11171TIP3    H133456   5.295   0.548   1.263
11171TIP3    H233457   5.330   0.577   1.118
11172TIP3   OH233458   5.298   6.984   4.369
11172TIP3    H133459   5.228   6.936   4.413
11172TIP3    H233460   5.311   6.938   4.287
11173TIP3   OH233461   5.848   0.167   4.196
11173TIP3    H133462   5.787   0.196   4.264
11173TIP3    H233463   5.796   0.109   4.140
11174TIP3   OH233464   0.141   0.598   4.382
11174TIP3    H133465   0.177   0.593   4.293
11174TIP3    H233466   0.105   0.687   4.388
11175TIP3   OH233467   2.196   4.562   6.130
11175TIP3    H133468   2.150   4.482   6.156
11175TIP3    H233469   2.133   4.632   6.147
11176TIP3   OH233470   7.716   4.063   0.698
11176TIP3    H133471   7.792   4.042   0.643
11176TIP3    H233472   7.657   3.989   0.687
11177TIP3   OH233473   3.390   3.270   1.079
11177TIP3    H133474   3.397   3.250   0.985
11177TIP3    H233475   3.468   3.233   1.118
11178TIP3   OH233476   4.248   4.074   3.516
11178TIP3    H133477   4.284   4.072   3.427
11178TIP3    H233478   4.310   4.023   3.568
11179TIP3   OH233479   1.753   3.933   2.057
11179TIP3    H133480   1.747   3.847   2.015
11179TIP3    H233481   1.676   3.938   2.114
11180TIP3   OH233482   0.384   4.409   1.008
11180TIP3    H133483   0.347   4.406   0.920
11180TIP3    H233484   0.417   4.321   1.024
11181TIP3   OH233485   2.173   4.918   5.100
11181TIP3    H133486   2.119   4.990   5.134
11181TIP3    H233487   2.111   4.862   5.053
11182TIP3   OH233488   4.094   6.266   5.762
11182TIP3    H133489   4.096   6.175   5.793
11182TIP3    H233490   4.021   6.306   5.808
11183TIP3   OH233491   1.986   1.169   5.412
11183TIP3    H133492   1.897   1.144   5.437
11183TIP3    H233493   1.975   1.238   5.347
11184TIP3   OH233494   2.434   7.737   0.335
11184TIP3    H133495   2.527   7.718   0.336
11184TIP3    H233496   2.428   7.829   0.307
11185TIP3   OH233497   2.846   4.184   4.283
11185TIP3    H133498   2.932   4.222   4.266
11185TIP3    H233499   2.832   4.196   4.377
11186TIP3   OH233500   4.501   4.424   4.308
11186TIP3    H133501   4.495   4.373   4.227
11186TIP3    H233502   4.473   4.512   4.283
11187TIP3   OH233503   3.584   1.314   2.876
11187TIP3    H133504   3.552   1.281   2.960
11187TIP3    H233505   3.558   1.406   2.876
11188TIP3   OH233506   4.169   5.596   2.419
11188TIP3    H133507   4.108   5.589   2.493
11188TIP3    H233508   4.127   5.658   2.360
11189TIP3   OH233509   6.255   7.063   5.226
11189TIP3    H133510   6.343   7.026   5.231
11189TIP3    H233511   6.219   7.028   5.144
11190TIP3   OH233512   1.298   3.445   5.977
11190TIP3    H133513   1.217   3.400   6.003
11190TIP3    H233514   1.350   3.449   6.057
11191TIP3   OH233515   2.939   4.174   2.482
11191TIP3    H133516   3.021   4.138   2.515
11191TIP3    H233517   2.958   4.196   2.391
11192TIP3   OH233518   1.940   3.470   6.375
11192TIP3    H133519   1.964   3.393   6.323
11192TIP3    H233520   2.024   3.513   6.395
11193TIP3   OH233521   2.333   7.753   1.696
11193TIP3    H133522   2.371   7.694   1.761
11193TIP3    H233523   2.241   7.727   1.691
11194TIP3   OH233524   0.976   4.057   2.910
11194TIP3    H133525   1.050   4.115   2.928
11194TIP3    H233526   0.995   4.019   2.824
11195TIP3   OH233527   0.857   4.759   1.465
11195TIP3    H133528   0.886   4.834   1.414
11195TIP3    H233529   0.864   4.685   1.404
11196TIP3   OH233530   6.702   5.894   3.352
11196TIP3    H133531   6.612   5.882   3.384
11196TIP3    H233532   6.692   5.906   3.257
11197TIP3   OH233533   6.634   3.527   3.401
11197TIP3    H133534   6.586   3.458   3.356
11197TIP3    H233535   6.608   3.518   3.493
11198TIP3   OH233536   6.312   3.280   1.867
11198TIP3    H133537   6.237   3.224   1.847
11198TIP3    H233538   6.317   3.340   1.793
11199TIP3   OH233539   0.699   1.029   5.307
11199TIP3    H133540   0.661   0.952   5.265
11199TIP3    H233541   0.793   1.014   5.304
11200TIP3   OH233542   4.149   0.182   0.029
11200TIP3    H133543   4.095   0.142   0.097
11200TIP3    H233544   4.228   0.128   0.027
11201TIP3   OH233545   2.274   4.070   5.589
11201TIP3    H133546   2.342   4.109   5.645
11201TIP3    H233547   2.193   4.112   5.617
11202TIP3   OH233548   2.342   6.746   4.107
11202TIP3    H133549   2.314   6.668   4.154
11202TIP3    H233550   2.326   6.818   4.168
11203TIP3   OH233551   5.893   3.273   0.679
11203TIP3    H133552   5.898   3.234   0.591
11203TIP3    H233553   5.966   3.234   0.726
11204TIP3   OH233554   0.534   7.055   5.947
11204TIP3    H133555   0.591   6.992   5.991
11204TIP3    H233556   0.491   7.102   6.019
11205TIP3   OH233557   3.929   1.963   0.913
11205TIP3    H133558   3.919   1.879   0.957
11205TIP3    H233559   3.863   2.020   0.954
11206TIP3   OH233560   5.151   0.341   3.585
11206TIP3    H133561   5.186   0.308   3.667
11206TIP3    H233562   5.093   0.271   3.554
11207TIP3   OH233563   0.318   4.915   6.325
11207TIP3    H133564   0.265   4.855   6.377
11207TIP3    H233565   0.352   4.979   6.387
11208TIP3   OH233566   5.003   1.142   6.167
11208TIP3    H133567   4.925   1.147   6.223
11208TIP3    H233568   4.971   1.168   6.081
11209TIP3   OH233569   3.322   3.327   4.562
11209TIP3    H133570   3.354   3.380   4.489
11209TIP3    H233571   3.302   3.242   4.523
11210TIP3   OH233572   4.331   2.819   1.743
11210TIP3    H133573   4.369   2.803   1.657
11210TIP3    H233574   4.239   2.797   1.734
11211TIP3   OH233575   0.718   4.815   0.615
11211TIP3    H133576   0.683   4.877   0.678
11211TIP3    H233577   0.642   4.763   0.589
11212TIP3   OH233578   4.668   6.261   1.507
11212TIP3    H133579   4.696   6.199   1.439
11212TIP3    H233580   4.684   6.216   1.589
11213TIP3   OH233581   2.176   6.307   5.014
11213TIP3    H133582   2.239   6.239   5.039
11213TIP3    H233583   2.147   6.344   5.098
11214TIP3   OH233584   5.539   7.561   5.372
11214TIP3    H133585   5.513   7.484   5.423
11214TIP3    H233586   5.611   7.599   5.421
11215TIP3   OH233587   1.044   0.527   1.827
11215TIP3    H133588   1.026   0.612   1.866
11215TIP3    H233589   1.029   0.464   1.897
11216TIP3   OH233590   4.045   7.065   2.923
11216TIP3    H133591   4.006   7.081   2.838
11216TIP3    H233592   3.971   7.059   2.983
11217TIP3   OH233593   5.499   1.883   4.795
11217TIP3    H133594   5.561   1.857   4.728
11217TIP3    H233595   5.522   1.830   4.872
11218TIP3   OH233596   7.318   7.532   3.272
11218TIP3    H133597   7.256   7.520   3.345
11218TIP3    H233598   7.278   7.486   3.199
11219TIP3   OH233599   4.092   2.845   6.281
11219TIP3    H133600   4.079   2.929   6.238
11219TIP3    H233601   4.048   2.781   6.224
11220TIP3   OH233602   4.907   4.450   6.505
11220TIP3    H133603   4.896   4.527   6.561
11220TIP3    H233604   4.830   4.396   6.524
11221TIP3   OH233605   3.272   3.639   6.053
11221TIP3    H133606   3.215   3.716   6.051
11221TIP3    H233607   3.340   3.659   5.988
11222TIP3   OH233608   2.003   3.187   5.492
11222TIP3    H133609   1.958   3.124   5.437
11222TIP3    H233610   2.021   3.140   5.573
11223TIP3   OH233611   3.080   6.874   0.779
11223TIP3    H133612   3.143   6.927   0.731
11223TIP3    H233613   2.996   6.919   0.766
11224TIP3   OH233614   6.794   1.040   6.791
11224TIP3    H133615   6.828   0.961   6.832
11224TIP3    H233616   6.746   1.009   6.714
11225TIP3   OH233617   6.360   6.894   0.859
11225TIP3    H133618   6.428   6.877   0.794
11225TIP3    H233619   6.401   6.877   0.943
11226TIP3   OH233620   1.259   7.795   2.845
11226TIP3    H133621   1.332   7.779   2.785
11226TIP3    H233622   1.297   7.848   2.915
11227TIP3   OH233623   4.467   5.466   3.549
11227TIP3    H133624   4.397   5.530   3.559
11227TIP3    H233625   4.440   5.412   3.475
11228TIP3   OH233626   7.804   2.856   2.328
11228TIP3    H133627   7.792   2.910   2.250
11228TIP3    H233628   7.898   2.855   2.343
11229TIP3   OH233629   5.788   1.183   4.184
11229TIP3    H133630   5.805   1.097   4.144
11229TIP3    H233631   5.693   1.194   4.178
11230TIP3   OH233632   4.960   6.589   3.229
11230TIP3    H133633   4.935   6.681   3.222
11230TIP3    H233634   4.918   6.547   3.153
11231TIP3   OH233635   5.697   6.081   1.995
11231TIP3    H133636   5.645   6.097   2.074
11231TIP3    H233637   5.728   5.990   2.005
11232TIP3   OH233638   5.539   2.372   0.078
11232TIP3    H133639   5.496   2.409   0.155
11232TIP3    H233640   5.467   2.344   0.022
11233TIP3   OH233641   2.378   2.016   4.351
11233TIP3    H133642   2.444   1.995   4.417
11233TIP3    H233643   2.355   1.931   4.313
11234TIP3   OH233644   7.651   7.257   1.520
11234TIP3    H133645   7.736   7.282   1.556
11234TIP3    H233646   7.589   7.314   1.564
11235TIP3   OH233647   1.289   6.814   4.311
11235TIP3    H133648   1.339   6.862   4.377
11235TIP3    H233649   1.338   6.733   4.298
11236TIP3   OH233650   2.306   3.579   3.317
11236TIP3    H133651   2.320   3.546   3.406
11236TIP3    H233652   2.387   3.557   3.271
11237TIP3   OH233653   3.291   7.278   3.635
11237TIP3    H133654   3.237   7.321   3.569
11237TIP3    H233655   3.359   7.232   3.585
11238TIP3   OH233656   0.298   7.470   2.084
11238TIP3    H133657   0.284   7.515   2.001
11238TIP3    H233658   0.213   7.472   2.128
11239TIP3   OH233659   3.877   7.181   0.712
11239TIP3    H133660   3.819   7.106   0.727
11239TIP3    H233661   3.856   7.210   0.624
11240TIP3   OH233662   3.836   0.313   0.490
11240TIP3    H133663   3.909   0.287   0.547
11240TIP3    H233664   3.800   0.391   0.532
11241TIP3   OH233665   7.172   1.132   1.455
11241TIP3    H133666   7.198   1.155   1.366
11241TIP3    H233667   7.092   1.082   1.445
11242TIP3   OH233668   7.560   7.326   0.450
11242TIP3    H133669   7.613   7.258   0.410
11242TIP3    H233670   7.566   7.310   0.544
11243TIP3   OH233671   1.887   2.557   5.271
11243TIP3    H133672   1.914   2.627   5.331
11243TIP3    H233673   1.969   2.512   5.249
11244TIP3   OH233674   7.713   6.492   1.562
11244TIP3    H133675   7.677   6.559   1.620
11244TIP3    H233676   7.661   6.414   1.581
11245TIP3   OH233677   0.173   0.139   5.742
11245TIP3    H133678   0.231   0.180   5.678
11245TIP3    H233679   0.125   0.212   5.781
11246TIP3   OH233680   6.166   3.043   3.226
11246TIP3    H133681   6.196   3.130   3.199
11246TIP3    H233682   6.160   2.994   3.144
11247TIP3   OH233683   2.841   7.236   1.986
11247TIP3    H133684   2.788   7.162   1.957
11247TIP3    H233685   2.917   7.235   1.928
11248TIP3   OH233686   1.878   6.024   5.147
11248TIP3    H133687   1.807   6.080   5.116
11248TIP3    H233688   1.947   6.084   5.175
11249TIP3   OH233689   4.186   3.766   4.277
11249TIP3    H133690   4.125   3.787   4.206
11249TIP3    H233691   4.212   3.851   4.313
11250TIP3   OH233692   2.727   7.037   5.392
11250TIP3    H133693   2.664   7.090   5.344
11250TIP3    H233694   2.682   6.956   5.412
11251TIP3   OH233695   3.120   6.177   4.813
11251TIP3    H133696   3.204   6.219   4.829
11251TIP3    H233697   3.071   6.188   4.894
11252TIP3   OH233698   7.542   7.503   6.378
11252TIP3    H133699   7.505   7.473   6.461
11252TIP3    H233700   7.497   7.586   6.360
11253TIP3   OH233701   5.313   2.407   0.771
11253TIP3    H133702   5.378   2.373   0.710
11253TIP3    H233703   5.234   2.356   0.754
11254TIP3   OH233704   3.026   3.486   2.416
11254TIP3    H133705   2.959   3.479   2.484
11254TIP3    H233706   3.013   3.573   2.378
11255TIP3   OH233707   6.627   7.098   4.609
11255TIP3    H133708   6.685   7.096   4.532
11255TIP3    H233709   6.611   7.191   4.624
11256TIP3   OH233710   3.839   2.709   3.782
11256TIP3    H133711   3.903   2.740   3.719
11256TIP3    H233712   3.854   2.615   3.787
11257TIP3   OH233713   0.871   7.511   1.657
11257TIP3    H133714   0.858   7.524   1.563
11257TIP3    H233715   0.862   7.598   1.695
11258TIP3   OH233716   2.670   3.988   0.823
11258TIP3    H133717   2.680   4.055   0.755
11258TIP3    H233718   2.577   3.967   0.822
11259TIP3   OH233719   1.124   3.260   2.695
11259TIP3    H133720   1.096   3.269   2.604
11259TIP3    H233721   1.188   3.190   2.694
11260TIP3   OH233722   7.156   4.086   5.651
11260TIP3    H133723   7.130   4.173   5.682
11260TIP3    H233724   7.139   4.089   5.557
11261TIP3   OH233725   0.039   7.384   4.377
11261TIP3    H133726   0.135   7.387   4.381
11261TIP3    H233727   0.011   7.463   4.423
11262TIP3   OH233728   0.834   2.453   5.602
11262TIP3    H133729   0.880   2.524   5.557
11262TIP3    H233730   0.751   2.491   5.629
11263TIP3   OH233731   7.963   7.626   6.749
11263TIP3    H133732   8.045   7.629   6.700
11263TIP3    H233733   7.895   7.630   6.681
11264TIP3   OH233734   5.886   2.518   2.028
11264TIP3    H133735   5.958   2.495   1.969
11264TIP3    H233736   5.807   2.493   1.981
11265TIP3   OH233737   5.345   6.164   2.431
11265TIP3    H133738   5.363   6.071   2.419
11265TIP3    H233739   5.321   6.196   2.344
11266TIP3   OH233740   0.233   0.308   2.222
11266TIP3    H133741   0.245   0.214   2.210
11266TIP3    H233742   0.307   0.348   2.176
11267TIP3   OH233743   6.096   0.360   0.265
11267TIP3    H133744   6.187   0.330   0.265
11267TIP3    H233745   6.062   0.331   0.180
11268TIP3   OH233746   7.198   2.765   5.424
11268TIP3    H133747   7.218   2.805   5.508
11268TIP3    H233748   7.221   2.832   5.359
11269TIP3   OH233749   7.437   4.849   5.143
11269TIP3    H133750   7.513   4.808   5.104
11269TIP3    H233751   7.364   4.825   5.086
11270TIP3   OH233752   7.932   4.520   0.732
11270TIP3    H133753   7.935   4.564   0.817
11270TIP3    H233754   8.013   4.469   0.729
11271TIP3   OH233755   6.066   2.372   5.401
11271TIP3    H133756   6.077   2.399   5.493
11271TIP3    H233757   5.980   2.405   5.376
11272TIP3   OH233758   1.629   4.807   6.503
11272TIP3    H133759   1.533   4.808   6.504
11272TIP3    H233760   1.654   4.810   6.595
11273TIP3   OH233761   7.772   1.537   2.568
11273TIP3    H133762   7.827   1.470   2.526
11273TIP3    H233763   7.800   1.619   2.528
11274TIP3   OH233764   6.744   3.542   4.087
11274TIP3    H133765   6.793   3.519   4.166
11274TIP3    H233766   6.780   3.627   4.061
11275TIP3   OH233767   6.661   7.672   4.847
11275TIP3    H133768   6.631   7.602   4.905
11275TIP3    H233769   6.639   7.642   4.759
11276TIP3   OH233770   1.869   5.486   0.566
11276TIP3    H133771   1.899   5.451   0.650
11276TIP3    H233772   1.810   5.558   0.590
11277TIP3   OH233773   0.915   0.299   1.061
11277TIP3    H133774   0.836   0.350   1.043
11277TIP3    H233775   0.885   0.208   1.058
11278TIP3   OH233776   8.284   1.612   1.597
11278TIP3    H133777   8.247   1.564   1.523
11278TIP3    H233778   8.278   1.704   1.573
11279TIP3   OH233779   4.211   6.915   3.085
11279TIP3    H133780   4.162   6.945   3.162
11279TIP3    H233781   4.163   6.951   3.010
11280TIP3   OH233782   2.031   4.775   3.543
11280TIP3    H133783   2.122   4.746   3.543
11280TIP3    H233784   2.030   4.848   3.606
11281TIP3   OH233785   1.279   2.792   2.794
11281TIP3    H133786   1.335   2.838   2.857
11281TIP3    H233787   1.190   2.809   2.824
11282TIP3   OH233788   1.275   7.124   5.244
11282TIP3    H133789   1.208   7.174   5.291
11282TIP3    H233790   1.358   7.160   5.277
11283TIP3   OH233791   7.360   3.985   5.816
11283TIP3    H133792   7.287   4.022   5.767
11283TIP3    H233793   7.321   3.910   5.861
11284TIP3   OH233794   2.915   6.948   4.649
11284TIP3    H133795   2.945   6.869   4.693
11284TIP3    H233796   2.825   6.930   4.625
11285TIP3   OH233797   1.721   1.175   0.697
11285TIP3    H133798   1.670   1.250   0.726
11285TIP3    H233799   1.771   1.148   0.774
11286TIP3   OH233800   3.988   6.156   1.083
11286TIP3    H133801   3.931   6.151   1.160
11286TIP3    H233802   3.929   6.147   1.009
11287TIP3   OH233803   6.691   3.100   3.527
11287TIP3    H133804   6.630   3.172   3.514
11287TIP3    H233805   6.636   3.021   3.523
11288TIP3   OH233806   0.994   3.646   3.380
11288TIP3    H133807   1.053   3.711   3.417
11288TIP3    H233808   1.052   3.578   3.345
11289TIP3   OH233809   0.196   5.325   6.629
11289TIP3    H133810   0.260   5.322   6.558
11289TIP3    H233811   0.226   5.397   6.684
11290TIP3   OH233812   5.201   7.819   0.961
11290TIP3    H133813   5.113   7.813   0.999
11290TIP3    H233814   5.259   7.825   1.037
11291TIP3   OH233815   6.113   3.598   5.491
11291TIP3    H133816   6.034   3.622   5.541
11291TIP3    H233817   6.107   3.651   5.411
11292TIP3   OH233818   1.174   1.255   4.897
11292TIP3    H133819   1.100   1.311   4.872
11292TIP3    H233820   1.133   1.171   4.920
11293TIP3   OH233821   4.393   0.959   1.579
11293TIP3    H133822   4.440   0.888   1.622
11293TIP3    H233823   4.322   0.981   1.640
11294TIP3   OH233824   4.358   5.606   1.623
11294TIP3    H133825   4.453   5.619   1.632
11294TIP3    H233826   4.331   5.674   1.562
11295TIP3   OH233827   4.683   7.581   1.870
11295TIP3    H133828   4.693   7.672   1.897
11295TIP3    H233829   4.675   7.532   1.952
11296TIP3   OH233830   5.559   1.983   3.944
11296TIP3    H133831   5.488   1.918   3.949
11296TIP3    H233832   5.545   2.039   4.020
11297TIP3   OH233833   3.548   5.872   0.617
11297TIP3    H133834   3.559   5.920   0.535
11297TIP3    H233835   3.469   5.820   0.604
11298TIP3   OH233836   3.025   0.179   1.080
11298TIP3    H133837   3.104   0.199   1.131
11298TIP3    H233838   3.048   0.205   0.990
11299TIP3   OH233839   2.537   3.391   0.066
11299TIP3    H133840   2.592   3.356   0.136
11299TIP3    H233841   2.448   3.372   0.093
11300TIP3   OH233842   6.416   7.418   6.120
11300TIP3    H133843   6.397   7.402   6.028
11300TIP3    H233844   6.349   7.480   6.148
11301TIP3   OH233845   7.211   7.617   2.915
11301TIP3    H133846   7.229   7.693   2.970
11301TIP3    H233847   7.261   7.633   2.835
11302TIP3   OH233848   2.608   7.287   0.463
11302TIP3    H133849   2.605   7.244   0.378
11302TIP3    H233850   2.639   7.375   0.445
11303TIP3   OH233851   2.181   7.811   0.176
11303TIP3    H133852   2.239   7.835   0.103
11303TIP3    H233853   2.167   7.717   0.166
11304TIP3   OH233854   3.181   3.718   3.529
11304TIP3    H133855   3.162   3.806   3.562
11304TIP3    H233856   3.095   3.676   3.525
11305TIP3   OH233857   6.067   2.553   3.529
11305TIP3    H133858   6.083   2.632   3.477
11305TIP3    H233859   5.976   2.531   3.511
11306TIP3   OH233860   2.670   3.341   2.625
11306TIP3    H133861   2.641   3.286   2.698
11306TIP3    H233862   2.592   3.388   2.598
11307TIP3   OH233863   3.994   6.913   2.577
11307TIP3    H133864   4.058   6.949   2.516
11307TIP3    H233865   3.978   6.984   2.639
11308TIP3   OH233866   0.551   3.571   5.880
11308TIP3    H133867   0.506   3.492   5.850
11308TIP3    H233868   0.610   3.593   5.807
11309TIP3   OH233869   7.839   6.159   2.797
11309TIP3    H133870   7.760   6.170   2.850
11309TIP3    H233871   7.906   6.210   2.843
11310TIP3   OH233872   6.222   2.902   1.779
11310TIP3    H133873   6.187   2.893   1.867
11310TIP3    H233874   6.213   2.814   1.741
11311TIP3   OH233875   4.369   5.690   3.320
11311TIP3    H133876   4.386   5.694   3.226
11311TIP3    H233877   4.276   5.670   3.327
11312TIP3   OH233878   6.281   5.922   6.329
11312TIP3    H133879   6.278   5.828   6.345
11312TIP3    H233880   6.241   5.932   6.243
11313TIP3   OH233881   3.685   1.784   0.726
11313TIP3    H133882   3.668   1.719   0.658
11313TIP3    H233883   3.776   1.768   0.753
11314TIP3   OH233884   2.061   0.764   6.110
11314TIP3    H133885   1.980   0.748   6.158
11314TIP3    H233886   2.066   0.694   6.045
11315TIP3   OH233887   6.791   3.654   6.284
11315TIP3    H133888   6.804   3.653   6.379
11315TIP3    H233889   6.764   3.743   6.264
11316TIP3   OH233890   8.261   5.009   1.515
11316TIP3    H133891   8.340   5.015   1.568
11316TIP3    H233892   8.229   5.099   1.509
11317TIP3   OH233893   5.006   2.931   3.381
11317TIP3    H133894   4.984   2.931   3.474
11317TIP3    H233895   4.965   3.011   3.347
11318TIP3   OH233896   5.200   3.623   2.501
11318TIP3    H133897   5.242   3.657   2.422
11318TIP3    H233898   5.118   3.584   2.470
11319TIP3   OH233899   4.605   4.723   2.937
11319TIP3    H133900   4.541   4.701   2.869
11319TIP3    H233901   4.681   4.669   2.916
11320TIP3   OH233902   1.978   0.466   1.498
11320TIP3    H133903   1.979   0.562   1.493
11320TIP3    H233904   2.070   0.441   1.493
11321TIP3   OH233905   5.395   4.204   6.010
11321TIP3    H133906   5.450   4.132   5.981
11321TIP3    H233907   5.368   4.248   5.929
11322TIP3   OH233908   5.376   2.786   0.492
11322TIP3    H133909   5.403   2.873   0.520
11322TIP3    H233910   5.286   2.797   0.460
11323TIP3   OH233911   5.983   7.094   4.059
11323TIP3    H133912   5.990   7.049   4.143
11323TIP3    H233913   5.892   7.080   4.032
11324TIP3   OH233914   0.827   3.076   0.223
11324TIP3    H133915   0.850   2.987   0.248
11324TIP3    H233916   0.778   3.110   0.297
11325TIP3   OH233917   6.455   6.238   0.598
11325TIP3    H133918   6.438   6.202   0.511
11325TIP3    H233919   6.392   6.310   0.607
11326TIP3   OH233920   4.828   0.115   2.571
11326TIP3    H133921   4.746   0.149   2.607
11326TIP3    H233922   4.838   0.029   2.611
11327TIP3   OH233923   0.274   2.748   6.224
11327TIP3    H133924   0.331   2.773   6.297
11327TIP3    H233925   0.220   2.677   6.258
11328TIP3   OH233926   2.131   6.523   1.116
11328TIP3    H133927   2.225   6.533   1.105
11328TIP3    H233928   2.121   6.482   1.202
11329TIP3   OH233929   6.515   1.395   3.751
11329TIP3    H133930   6.515   1.480   3.795
11329TIP3    H233931   6.460   1.340   3.806
11330TIP3   OH233932   4.832   7.014   1.229
11330TIP3    H133933   4.780   7.035   1.308
11330TIP3    H233934   4.842   7.098   1.185
11331TIP3   OH233935   2.381   0.143   3.008
11331TIP3    H133936   2.472   0.119   3.024
11331TIP3    H233937   2.337   0.060   2.988
11332TIP3   OH233938   3.432   6.121   0.701
11332TIP3    H133939   3.503   6.184   0.688
11332TIP3    H233940   3.452   6.050   0.640
11333TIP3   OH233941   6.086   1.307   2.175
11333TIP3    H133942   6.113   1.331   2.264
11333TIP3    H233943   6.167   1.281   2.132
11334TIP3   OH233944   3.413   2.110   5.091
11334TIP3    H133945   3.338   2.051   5.080
11334TIP3    H233946   3.437   2.102   5.183
11335TIP3   OH233947   7.979   6.526   4.818
11335TIP3    H133948   7.954   6.444   4.860
11335TIP3    H233949   8.029   6.574   4.884
11336TIP3   OH233950   0.015   1.594   2.890
11336TIP3    H133951   0.075   1.538   2.940
11336TIP3    H233952  -0.052   1.619   2.954
11337TIP3   OH233953   2.428   6.791   4.421
11337TIP3    H133954   2.400   6.709   4.380
11337TIP3    H233955   2.419   6.775   4.515
11338TIP3   OH233956   3.117   3.244   6.626
11338TIP3    H133957   3.168   3.325   6.623
11338TIP3    H233958   3.121   3.215   6.717
11339TIP3   OH233959   8.287   3.759   0.076
11339TIP3    H133960   8.369   3.775   0.029
11339TIP3    H233961   8.232   3.712   0.013
11340TIP3   OH233962   0.616   3.617   0.077
11340TIP3    H133963   0.522   3.615   0.058
11340TIP3    H233964   0.644   3.526   0.068
11341TIP3   OH233965   5.056   1.621   2.772
11341TIP3    H133966   5.141   1.640   2.734
11341TIP3    H233967   4.997   1.613   2.696
11342TIP3   OH233968   4.279   4.623   1.200
11342TIP3    H133969   4.275   4.591   1.290
11342TIP3    H233970   4.202   4.680   1.192
11343TIP3   OH233971   0.783   5.024   1.404
11343TIP3    H133972   0.821   5.111   1.406
11343TIP3    H233973   0.722   5.022   1.478
11344TIP3   OH233974   7.431   2.582   3.859
11344TIP3    H133975   7.399   2.619   3.777
11344TIP3    H233976   7.374   2.619   3.926
11345TIP3   OH233977   5.339   3.398   6.164
11345TIP3    H133978   5.259   3.450   6.153
11345TIP3    H233979   5.402   3.459   6.204
11346TIP3   OH233980   5.724   6.072   0.570
11346TIP3    H133981   5.750   6.053   0.660
11346TIP3    H233982   5.806   6.087   0.523
11347TIP3   OH233983   6.279   5.868   0.764
11347TIP3    H133984   6.320   5.952   0.784
11347TIP3    H233985   6.249   5.836   0.849
11348TIP3   OH233986   0.335   5.482   2.676
11348TIP3    H133987   0.385   5.404   2.701
11348TIP3    H233988   0.303   5.517   2.759
11349TIP3   OH233989   2.864   4.369   1.896
11349TIP3    H133990   2.852   4.361   1.802
11349TIP3    H233991   2.919   4.447   1.907
11350TIP3   OH233992   2.611   5.720   6.287
11350TIP3    H133993   2.687   5.672   6.320
11350TIP3    H233994   2.645   5.805   6.262
11351TIP3   OH233995   5.616   6.222   6.351
11351TIP3    H133996   5.621   6.318   6.352
11351TIP3    H233997   5.635   6.197   6.260
11352TIP3   OH233998   5.616   4.827   5.295
11352TIP3    H133999   5.586   4.847   5.206
11352TIP3    H234000   5.624   4.732   5.296
11353TIP3   OH234001   1.445   4.964   1.150
11353TIP3    H134002   1.445   4.872   1.124
11353TIP3    H234003   1.431   5.012   1.068
11354TIP3   OH234004   2.002   2.880   2.664
11354TIP3    H134005   1.940   2.880   2.592
11354TIP3    H234006   2.030   2.971   2.672
11355TIP3   OH234007   4.544   3.202   1.263
11355TIP3    H134008   4.628   3.160   1.283
11355TIP3    H234009   4.531   3.187   1.169
11356TIP3   OH234010   8.152   0.010   1.175
11356TIP3    H134011   8.170   0.097   1.210
11356TIP3    H234012   8.232  -0.041   1.192
11357TIP3   OH234013   2.173   0.469   6.409
11357TIP3    H134014   2.233   0.426   6.349
11357TIP3    H234015   2.178   0.562   6.386
11358TIP3   OH234016   6.355   5.734   0.159
11358TIP3    H134017   6.301   5.707   0.084
11358TIP3    H234018   6.439   5.691   0.145
11359TIP3   OH234019   4.511   1.317   1.696
11359TIP3    H134020   4.571   1.275   1.757
11359TIP3    H234021   4.488   1.400   1.737
11360TIP3   OH234022   7.311   4.181   5.212
11360TIP3    H134023   7.357   4.209   5.132
11360TIP3    H234024   7.374   4.127   5.258
11361TIP3   OH234025   2.259   4.061   0.331
11361TIP3    H134026   2.272   3.987   0.390
11361TIP3    H234027   2.169   4.088   0.346
11362TIP3   OH234028   7.073   4.542   2.705
11362TIP3    H134029   7.148   4.599   2.722
11362TIP3    H234030   7.109   4.453   2.707
11363TIP3   OH234031   2.080   0.921   0.684
11363TIP3    H134032   2.075   0.907   0.779
11363TIP3    H234033   2.017   0.991   0.667
11364TIP3   OH234034   3.390   7.802   2.190
11364TIP3    H134035   3.392   7.726   2.248
11364TIP3    H234036   3.385   7.764   2.102
11365TIP3   OH234037   7.562   7.125   5.275
11365TIP3    H134038   7.572   7.055   5.339
11365TIP3    H234039   7.629   7.189   5.298
11366TIP3   OH234040   2.182   2.960   1.379
11366TIP3    H134041   2.234   3.022   1.429
11366TIP3    H234042   2.091   2.989   1.393
11367TIP3   OH234043   0.392   6.603   4.377
11367TIP3    H134044   0.391   6.515   4.340
11367TIP3    H234045   0.302   6.619   4.404
11368TIP3   OH234046   5.845   4.598   1.303
11368TIP3    H134047   5.920   4.642   1.264
11368TIP3    H234048   5.770   4.654   1.281
11369TIP3   OH234049   7.742   6.481   5.139
11369TIP3    H134050   7.690   6.557   5.166
11369TIP3    H234051   7.757   6.433   5.220
11370TIP3   OH234052   5.353   2.701   5.996
11370TIP3    H134053   5.334   2.614   6.031
11370TIP3    H234054   5.324   2.697   5.905
11371TIP3   OH234055   6.804   5.222   5.970
11371TIP3    H134056   6.817   5.185   5.883
11371TIP3    H234057   6.887   5.264   5.991
11372TIP3   OH234058   0.816   0.922   1.671
11372TIP3    H134059   0.793   0.954   1.758
11372TIP3    H234060   0.785   0.831   1.669
11373TIP3   OH234061   7.779   3.667   5.982
11373TIP3    H134062   7.800   3.734   5.917
11373TIP3    H234063   7.819   3.698   6.063
11374TIP3   OH234064   7.834   1.598   3.811
11374TIP3    H134065   7.815   1.525   3.870
11374TIP3    H234066   7.782   1.579   3.732
11375TIP3   OH234067   7.980   6.281   6.278
11375TIP3    H134068   8.067   6.244   6.291
11375TIP3    H234069   7.952   6.308   6.366
11376TIP3   OH234070   0.919   1.945   6.429
11376TIP3    H134071   0.839   1.926   6.379
11376TIP3    H234072   0.896   2.021   6.482
11377TIP3   OH234073   6.133   5.281   0.982
11377TIP3    H134074   6.075   5.262   1.056
11377TIP3    H234075   6.117   5.210   0.921
11378TIP3   OH234076   0.961   0.476   6.695
11378TIP3    H134077   0.892   0.511   6.751
11378TIP3    H234078   1.015   0.423   6.753
11379TIP3   OH234079   7.078   3.497   2.247
11379TIP3    H134080   7.104   3.414   2.288
11379TIP3    H234081   7.068   3.476   2.154
11380TIP3   OH234082   3.669   4.658   2.764
11380TIP3    H134083   3.688   4.732   2.822
11380TIP3    H234084   3.754   4.631   2.730
11381TIP3   OH234085   4.356   4.442   2.059
11381TIP3    H134086   4.341   4.536   2.061
11381TIP3    H234087   4.309   4.408   2.136
11382TIP3   OH234088   6.721   7.324   6.711
11382TIP3    H134089   6.757   7.401   6.756
11382TIP3    H234090   6.629   7.345   6.697
11383TIP3   OH234091   5.030   2.455   4.261
11383TIP3    H134092   5.111   2.411   4.289
11383TIP3    H234093   5.059   2.515   4.193
11384TIP3   OH234094   4.705   6.272   0.600
11384TIP3    H134095   4.732   6.202   0.541
11384TIP3    H234096   4.682   6.345   0.542
11385TIP3   OH234097   1.197   2.323   4.402
11385TIP3    H134098   1.118   2.335   4.454
11385TIP3    H234099   1.247   2.403   4.415
11386TIP3   OH234100   5.486   5.931   2.856
11386TIP3    H134101   5.485   6.007   2.798
11386TIP3    H234102   5.475   5.856   2.797
11387TIP3   OH234103   6.435   2.772   4.237
11387TIP3    H134104   6.500   2.837   4.212
11387TIP3    H234105   6.383   2.813   4.306
11388TIP3   OH234106   1.478   7.725   2.118
11388TIP3    H134107   1.493   7.798   2.178
11388TIP3    H234108   1.401   7.750   2.068
11389TIP3   OH234109   7.020   4.534   6.465
11389TIP3    H134110   6.966   4.608   6.493
11389TIP3    H234111   7.020   4.474   6.540
11390TIP3   OH234112   1.429   6.495   3.451
11390TIP3    H134113   1.438   6.567   3.514
11390TIP3    H234114   1.372   6.431   3.495
11391TIP3   OH234115   5.962   6.155   6.213
11391TIP3    H134116   5.940   6.135   6.304
11391TIP3    H234117   5.963   6.251   6.209
11392TIP3   OH234118   3.901   5.387   5.009
11392TIP3    H134119   3.947   5.310   5.041
11392TIP3    H234120   3.835   5.406   5.075
11393TIP3   OH234121   1.718   1.741   1.287
11393TIP3    H134122   1.789   1.771   1.344
11393TIP3    H234123   1.683   1.822   1.249
11394TIP3   OH234124   3.553   7.060   3.600
11394TIP3    H134125   3.616   7.131   3.588
11394TIP3    H234126   3.598   6.996   3.655
11395TIP3   OH234127   6.421   4.891   2.309
11395TIP3    H134128   6.424   4.803   2.347
11395TIP3    H234129   6.415   4.877   2.215
11396TIP3   OH234130   6.678   3.275   5.357
11396TIP3    H134131   6.694   3.356   5.406
11396TIP3    H234132   6.746   3.274   5.290
11397TIP3   OH234133   2.292   0.034   4.172
11397TIP3    H134134   2.270   0.121   4.139
11397TIP3    H234135   2.249  -0.027   4.112
11398TIP3   OH234136   2.970   6.597   0.409
11398TIP3    H134137   2.912   6.672   0.421
11398TIP3    H234138   2.988   6.596   0.315
11399TIP3   OH234139   6.124   1.216   6.467
11399TIP3    H134140   6.103   1.238   6.557
11399TIP3    H234141   6.101   1.294   6.417
11400TIP3   OH234142   3.009   0.153   3.294
11400TIP3    H134143   2.988   0.239   3.258
11400TIP3    H234144   3.103   0.156   3.310
11401TIP3   OH234145   3.034   3.753   1.250
11401TIP3    H134146   3.061   3.745   1.158
11401TIP3    H234147   3.116   3.769   1.297
11402TIP3   OH234148   7.999   7.361   3.340
11402TIP3    H134149   8.083   7.335   3.377
11402TIP3    H234150   8.014   7.449   3.306
11403TIP3   OH234151   1.604   4.549   0.498
11403TIP3    H134152   1.533   4.596   0.543
11403TIP3    H234153   1.665   4.618   0.471
11404TIP3   OH234154   1.341   0.714   1.272
11404TIP3    H134155   1.367   0.646   1.209
11404TIP3    H234156   1.329   0.793   1.218
11405TIP3   OH234157   1.104   0.841   3.220
11405TIP3    H134158   1.071   0.806   3.137
11405TIP3    H234159   1.063   0.928   3.226
11406TIP3   OH234160   2.850   0.441   4.224
11406TIP3    H134161   2.903   0.378   4.274
11406TIP3    H234162   2.764   0.399   4.217
11407TIP3   OH234163   0.956   2.181   3.222
11407TIP3    H134164   0.910   2.171   3.306
11407TIP3    H234165   1.036   2.229   3.245
11408TIP3   OH234166   1.462   0.924   0.264
11408TIP3    H134167   1.427   1.002   0.220
11408TIP3    H234168   1.447   0.941   0.357
11409TIP3   OH234169   7.831   0.892   5.976
11409TIP3    H134170   7.790   0.861   6.057
11409TIP3    H234171   7.758   0.917   5.919
11410TIP3   OH234172   2.197   7.575   2.002
11410TIP3    H134173   2.198   7.498   2.059
11410TIP3    H234174   2.239   7.546   1.921
11411TIP3   OH234175   7.949   4.992   0.500
11411TIP3    H134176   7.951   4.957   0.589
11411TIP3    H234177   7.870   4.955   0.461
11412TIP3   OH234178   4.980   0.018   5.485
11412TIP3    H134179   4.985   0.106   5.447
11412TIP3    H234180   4.970   0.033   5.579
11413TIP3   OH234181   0.537   6.166   5.658
11413TIP3    H134182   0.488   6.214   5.725
11413TIP3    H234183   0.543   6.227   5.585
11414TIP3   OH234184   1.292   6.742   2.387
11414TIP3    H134185   1.257   6.689   2.315
11414TIP3    H234186   1.225   6.736   2.455
11415TIP3   OH234187   2.337   5.104   5.160
11415TIP3    H134188   2.256   5.154   5.169
11415TIP3    H234189   2.311   5.019   5.125
11416TIP3   OH234190   2.567   0.520   0.358
11416TIP3    H134191   2.647   0.498   0.405
11416TIP3    H234192   2.591   0.594   0.303
11417TIP3   OH234193   2.185   1.962   1.314
11417TIP3    H134194   2.169   1.879   1.357
11417TIP3    H234195   2.263   1.998   1.357
11418TIP3   OH234196   5.556   0.720   0.060
11418TIP3    H134197   5.535   0.658   0.130
11418TIP3    H234198   5.529   0.676  -0.020
11419TIP3   OH234199   3.114   3.861   6.044
11419TIP3    H134200   3.103   3.928   6.111
11419TIP3    H234201   3.026   3.846   6.011
11420TIP3   OH234202   4.230   0.913   3.930
11420TIP3    H134203   4.145   0.951   3.953
11420TIP3    H234204   4.209   0.825   3.897
11421TIP3   OH234205   3.277   4.381   5.670
11421TIP3    H134206   3.209   4.324   5.706
11421TIP3    H234207   3.346   4.320   5.641
11422TIP3   OH234208   4.904   2.496   0.752
11422TIP3    H134209   4.954   2.417   0.769
11422TIP3    H234210   4.837   2.469   0.690
11423TIP3   OH234211   0.919   7.774   3.559
11423TIP3    H134212   0.996   7.803   3.511
11423TIP3    H234213   0.948   7.695   3.605
11424TIP3   OH234214   0.853   2.986   1.612
11424TIP3    H134215   0.830   3.069   1.569
11424TIP3    H234216   0.887   3.012   1.697
11425TIP3   OH234217   4.153   4.829   5.371
11425TIP3    H134218   4.060   4.835   5.351
11425TIP3    H234219   4.178   4.919   5.393
11426TIP3   OH234220   1.207   1.806   1.141
11426TIP3    H134221   1.146   1.868   1.102
11426TIP3    H234222   1.200   1.822   1.235
11427TIP3   OH234223   2.953   7.777   1.735
11427TIP3    H134224   2.902   7.822   1.668
11427TIP3    H234225   3.027   7.835   1.752
11428TIP3   OH234226   5.902   5.502   1.197
11428TIP3    H134227   5.891   5.595   1.216
11428TIP3    H234228   5.917   5.498   1.102
11429TIP3   OH234229   5.929   7.776   1.470
11429TIP3    H134230   5.974   7.799   1.389
11429TIP3    H234231   5.956   7.685   1.487
11430TIP3   OH234232   0.589   4.547   4.278
11430TIP3    H134233   0.577   4.498   4.197
11430TIP3    H234234   0.615   4.635   4.249
11431TIP3   OH234235   0.179   3.794   5.534
11431TIP3    H134236   0.247   3.738   5.574
11431TIP3    H234237   0.137   3.836   5.609
11432TIP3   OH234238   4.640   6.428   2.906
11432TIP3    H134239   4.635   6.340   2.943
11432TIP3    H234240   4.551   6.448   2.878
11433TIP3   OH234241   2.755   0.221   2.659
11433TIP3    H134242   2.792   0.284   2.597
11433TIP3    H234243   2.742   0.141   2.609
11434TIP3   OH234244   6.359   4.056   3.003
11434TIP3    H134245   6.324   4.112   2.933
11434TIP3    H234246   6.436   4.104   3.035
11435TIP3   OH234247   4.782   3.140   6.234
11435TIP3    H134248   4.742   3.166   6.317
11435TIP3    H234249   4.875   3.156   6.245
11436TIP3   OH234250   6.556   2.087   3.748
11436TIP3    H134251   6.581   2.160   3.692
11436TIP3    H234252   6.461   2.092   3.754
11437TIP3   OH234253   1.012   0.494   4.170
11437TIP3    H134254   1.102   0.528   4.169
11437TIP3    H234255   1.021   0.401   4.150
11438TIP3   OH234256   5.607   3.934   0.653
11438TIP3    H134257   5.538   3.868   0.648
11438TIP3    H234258   5.672   3.906   0.589
11439TIP3   OH234259   4.779   3.404   6.175
11439TIP3    H134260   4.804   3.317   6.145
11439TIP3    H234261   4.828   3.464   6.118
11440TIP3   OH234262   6.791   7.452   1.124
11440TIP3    H134263   6.849   7.525   1.102
11440TIP3    H234264   6.708   7.493   1.147
11441TIP3   OH234265   1.877   2.000   2.896
11441TIP3    H134266   1.791   2.038   2.882
11441TIP3    H234267   1.859   1.912   2.931
11442TIP3   OH234268   2.538   4.861   5.785
11442TIP3    H134269   2.555   4.810   5.864
11442TIP3    H234270   2.489   4.938   5.815
11443TIP3   OH234271   5.151   0.702   5.846
11443TIP3    H134272   5.082   0.649   5.884
11443TIP3    H234273   5.221   0.701   5.911
11444TIP3   OH234274   2.583   1.963   3.614
11444TIP3    H134275   2.630   1.912   3.547
11444TIP3    H234276   2.549   1.897   3.674
11445TIP3   OH234277   6.747   2.649   2.422
11445TIP3    H134278   6.723   2.738   2.396
11445TIP3    H234279   6.778   2.659   2.512
11446TIP3   OH234280   3.867   2.480   5.850
11446TIP3    H134281   3.775   2.472   5.876
11446TIP3    H234282   3.875   2.424   5.773
11447TIP3   OH234283   0.635   0.039   1.305
11447TIP3    H134284   0.628   0.114   1.246
11447TIP3    H234285   0.679   0.074   1.383
11448TIP3   OH234286   1.070   4.084   2.349
11448TIP3    H134287   1.009   4.010   2.342
11448TIP3    H234288   1.049   4.124   2.433
11449TIP3   OH234289   0.312   1.760   3.784
11449TIP3    H134290   0.350   1.846   3.796
11449TIP3    H234291   0.218   1.773   3.796
11450TIP3   OH234292   8.081   6.848   6.132
11450TIP3    H134293   8.124   6.932   6.115
11450TIP3    H234294   8.004   6.848   6.075
11451TIP3   OH234295   4.437   6.998   3.395
11451TIP3    H134296   4.418   6.977   3.304
11451TIP3    H234297   4.527   7.031   3.394
11452TIP3   OH234298   2.332   3.312   2.717
11452TIP3    H134299   2.352   3.394   2.672
11452TIP3    H234300   2.362   3.243   2.658
11453TIP3   OH234301   8.061   0.189   3.546
11453TIP3    H134302   8.113   0.171   3.624
11453TIP3    H234303   8.107   0.261   3.502
11454TIP3   OH234304   5.041   4.750   5.004
11454TIP3    H134305   4.959   4.800   5.007
11454TIP3    H234306   5.061   4.741   4.911
11455TIP3   OH234307   8.229   3.752   6.562
11455TIP3    H134308   8.255   3.765   6.471
11455TIP3    H234309   8.231   3.657   6.575
11456TIP3   OH234310   4.161   0.986   3.031
11456TIP3    H134311   4.132   0.918   2.969
11456TIP3    H234312   4.158   1.067   2.981
11457TIP3   OH234313   1.317   6.057   0.954
11457TIP3    H134314   1.362   6.120   0.899
11457TIP3    H234315   1.249   6.107   0.999
11458TIP3   OH234316   1.260   4.066   3.565
11458TIP3    H134317   1.348   4.090   3.597
11458TIP3    H234318   1.201   4.123   3.614
11459TIP3   OH234319   0.938   5.144   0.129
11459TIP3    H134320   0.912   5.236   0.127
11459TIP3    H234321   0.958   5.123   0.038
11460TIP3   OH234322   0.411   7.309   0.863
11460TIP3    H134323   0.415   7.312   0.959
11460TIP3    H234324   0.427   7.400   0.836
11461TIP3   OH234325   4.682   1.108   0.935
11461TIP3    H134326   4.689   1.030   0.990
11461TIP3    H234327   4.605   1.154   0.968
11462TIP3   OH234328   5.685   2.701   2.860
11462TIP3    H134329   5.728   2.690   2.775
11462TIP3    H234330   5.592   2.698   2.840
11463TIP3   OH234331  -0.003   2.913   1.965
11463TIP3    H134332  -0.007   2.926   1.871
11463TIP3    H234333   0.086   2.880   1.981
11464TIP3   OH234334   0.199   6.422   2.503
11464TIP3    H134335   0.151   6.340   2.512
11464TIP3    H234336   0.228   6.423   2.412
11465TIP3   OH234337   4.967   4.133   1.941
11465TIP3    H134338   4.979   4.215   1.988
11465TIP3    H234339   5.026   4.139   1.866
11466TIP3   OH234340   3.958   5.679   5.627
11466TIP3    H134341   3.936   5.600   5.676
11466TIP3    H234342   4.030   5.718   5.676
11467TIP3   OH234343   6.780   4.804   1.868
11467TIP3    H134344   6.741   4.717   1.875
11467TIP3    H234345   6.713   4.858   1.827
11468TIP3   OH234346   0.753   2.001   5.324
11468TIP3    H134347   0.785   2.061   5.256
11468TIP3    H234348   0.699   1.938   5.277
11469TIP3   OH234349   6.526   4.620   6.111
11469TIP3    H134350   6.579   4.661   6.180
11469TIP3    H234351   6.468   4.690   6.081
11470TIP3   OH234352   5.424   2.059   5.053
11470TIP3    H134353   5.411   1.994   5.122
11470TIP3    H234354   5.436   2.007   4.973
11471TIP3   OH234355   4.417   5.806   6.711
11471TIP3    H134356   4.448   5.742   6.647
11471TIP3    H234357   4.322   5.791   6.716
11472TIP3   OH234358   7.640   2.080   0.351
11472TIP3    H134359   7.587   2.158   0.340
11472TIP3    H234360   7.717   2.109   0.399
11473TIP3   OH234361   4.843   1.337   0.321
11473TIP3    H134362   4.786   1.315   0.248
11473TIP3    H234363   4.787   1.385   0.382
11474TIP3   OH234364   3.350   7.097   3.410
11474TIP3    H134365   3.406   7.069   3.483
11474TIP3    H234366   3.276   7.036   3.412
11475TIP3   OH234367   4.172   2.425   6.304
11475TIP3    H134368   4.264   2.452   6.312
11475TIP3    H234369   4.157   2.420   6.210
11476TIP3   OH234370   5.348   0.483   6.066
11476TIP3    H134371   5.283   0.552   6.077
11476TIP3    H234372   5.306   0.404   6.099
11477TIP3   OH234373   7.530   1.909   1.080
11477TIP3    H134374   7.589   1.921   1.005
11477TIP3    H234375   7.501   1.997   1.103
11478TIP3   OH234376   2.798   5.101   2.816
11478TIP3    H134377   2.806   5.191   2.846
11478TIP3    H234378   2.731   5.105   2.746
11479TIP3   OH234379   4.544   4.856   6.429
11479TIP3    H134380   4.523   4.762   6.430
11479TIP3    H234381   4.621   4.864   6.485
11480TIP3   OH234382   0.312   4.444   5.314
11480TIP3    H134383   0.340   4.363   5.357
11480TIP3    H234384   0.320   4.511   5.382
11481TIP3   OH234385   1.116   0.963   1.145
11481TIP3    H134386   1.147   0.898   1.082
11481TIP3    H234387   1.069   0.912   1.211
11482TIP3   OH234388   8.205   6.620   4.404
11482TIP3    H134389   8.173   6.680   4.471
11482TIP3    H234390   8.223   6.539   4.450
11483TIP3   OH234391   7.195   1.319   3.833
11483TIP3    H134392   7.142   1.288   3.760
11483TIP3    H234393   7.282   1.283   3.817
11484TIP3   OH234394   0.138   2.672   3.968
11484TIP3    H134395   0.230   2.670   3.995
11484TIP3    H234396   0.114   2.765   3.976
11485TIP3   OH234397   6.665   1.729   5.196
11485TIP3    H134398   6.617   1.808   5.174
11485TIP3    H234399   6.640   1.666   5.128
11486TIP3   OH234400   4.521   6.918   1.665
11486TIP3    H134401   4.453   6.927   1.598
11486TIP3    H234402   4.487   6.850   1.724
11487TIP3   OH234403   3.934   1.880   2.713
11487TIP3    H134404   3.841   1.870   2.736
11487TIP3    H234405   3.941   1.969   2.681
11488TIP3   OH234406   6.543   1.981   6.095
11488TIP3    H134407   6.522   1.993   6.003
11488TIP3    H234408   6.562   2.069   6.127
11489TIP3   OH234409   1.814   4.720   6.309
11489TIP3    H134410   1.739   4.721   6.369
11489TIP3    H234411   1.816   4.631   6.275
11490TIP3   OH234412   3.223   7.312   0.818
11490TIP3    H134413   3.162   7.265   0.875
11490TIP3    H234414   3.232   7.255   0.742
11491TIP3   OH234415   5.357   3.014   5.439
11491TIP3    H134416   5.435   2.999   5.386
11491TIP3    H234417   5.310   2.930   5.438
11492TIP3   OH234418   1.080   4.348   2.827
11492TIP3    H134419   1.116   4.436   2.835
11492TIP3    H234420   1.122   4.298   2.898
11493TIP3   OH234421   7.539   3.897   0.944
11493TIP3    H134422   7.527   3.878   0.851
11493TIP3    H234423   7.497   3.982   0.957
11494TIP3   OH234424   2.893   3.602   1.502
11494TIP3    H134425   2.909   3.670   1.437
11494TIP3    H234426   2.925   3.521   1.461
11495TIP3   OH234427   4.230   3.061   5.085
11495TIP3    H134428   4.321   3.073   5.057
11495TIP3    H234429   4.200   2.984   5.037
11496TIP3   OH234430   5.165   4.203   1.780
11496TIP3    H134431   5.168   4.298   1.781
11496TIP3    H234432   5.257   4.176   1.775
11497TIP3   OH234433   7.084   3.482   2.644
11497TIP3    H134434   7.120   3.416   2.702
11497TIP3    H234435   7.015   3.437   2.595
11498TIP3   OH234436   8.296   7.753   1.117
11498TIP3    H134437   8.322   7.827   1.061
11498TIP3    H234438   8.212   7.724   1.081
11499TIP3   OH234439   7.520   1.126   1.803
11499TIP3    H134440   7.477   1.053   1.759
11499TIP3    H234441   7.577   1.164   1.737
11500TIP3   OH234442   0.530   7.373   3.470
11500TIP3    H134443   0.621   7.394   3.489
11500TIP3    H234444   0.484   7.388   3.553
11501TIP3   OH234445   3.492   7.051   4.650
11501TIP3    H134446   3.421   7.057   4.587
11501TIP3    H234447   3.559   7.111   4.616
11502TIP3   OH234448   2.251   6.880   5.856
11502TIP3    H134449   2.315   6.951   5.862
11502TIP3    H234450   2.166   6.925   5.857
11503TIP3   OH234451   1.920   7.173   2.761
11503TIP3    H134452   1.842   7.169   2.706
11503TIP3    H234453   1.986   7.122   2.713
11504TIP3   OH234454   7.060   5.512   0.073
11504TIP3    H134455   7.102   5.569   0.138
11504TIP3    H234456   6.982   5.479   0.117
11505TIP3   OH234457   6.627   4.931   4.141
11505TIP3    H134458   6.589   4.873   4.207
11505TIP3    H234459   6.673   4.872   4.081
11506TIP3   OH234460   4.540   3.257   3.066
11506TIP3    H134461   4.481   3.312   3.117
11506TIP3    H234462   4.603   3.318   3.028
11507TIP3   OH234463   7.324   0.501   3.920
11507TIP3    H134464   7.289   0.519   3.832
11507TIP3    H234465   7.246   0.499   3.976
11508TIP3   OH234466   0.691   6.905   5.415
11508TIP3    H134467   0.640   6.969   5.367
11508TIP3    H234468   0.687   6.826   5.361
11509TIP3   OH234469   2.558   5.091   3.233
11509TIP3    H134470   2.632   5.084   3.294
11509TIP3    H234471   2.563   5.181   3.200
11510TIP3   OH234472   3.388   0.124   6.496
11510TIP3    H134473   3.473   0.155   6.527
11510TIP3    H234474   3.400   0.030   6.483
11511TIP3   OH234475   7.138   3.439   5.166
11511TIP3    H134476   7.232   3.428   5.179
11511TIP3    H234477   7.128   3.452   5.071
11512TIP3   OH234478   3.074   2.991   2.485
11512TIP3    H134479   3.110   2.906   2.507
11512TIP3    H234480   3.150   3.049   2.476
11513TIP3   OH234481  -0.029   0.935   4.800
11513TIP3    H134482  -0.021   0.861   4.861
11513TIP3    H234483   0.035   0.917   4.732
11514TIP3   OH234484   1.169   0.624   0.431
11514TIP3    H134485   1.247   0.569   0.424
11514TIP3    H234486   1.202   0.708   0.462
11515TIP3   OH234487   1.520   6.855   3.582
11515TIP3    H134488   1.587   6.838   3.516
11515TIP3    H234489   1.531   6.784   3.646
11516TIP3   OH234490   3.811   7.170   3.591
11516TIP3    H134491   3.903   7.148   3.605
11516TIP3    H234492   3.791   7.234   3.659
11517TIP3   OH234493   2.931   6.744   3.254
11517TIP3    H134494   2.841   6.750   3.287
11517TIP3    H234495   2.922   6.738   3.159
11518TIP3   OH234496   7.686   7.028   2.521
11518TIP3    H134497   7.714   7.102   2.468
11518TIP3    H234498   7.594   7.015   2.497
11519TIP3   OH234499   4.879   5.307   1.882
11519TIP3    H134500   4.803   5.328   1.936
11519TIP3    H234501   4.844   5.298   1.794
11520TIP3   OH234502   0.908   7.227   5.811
11520TIP3    H134503   0.982   7.166   5.817
11520TIP3    H234504   0.859   7.197   5.735
11521TIP3   OH234505   2.519   6.206   5.374
11521TIP3    H134506   2.531   6.167   5.460
11521TIP3    H234507   2.424   6.220   5.367
11522TIP3   OH234508   6.804   4.252   4.808
11522TIP3    H134509   6.771   4.179   4.756
11522TIP3    H234510   6.729   4.309   4.820
11523TIP3   OH234511   4.379   0.787   0.168
11523TIP3    H134512   4.326   0.720   0.213
11523TIP3    H234513   4.411   0.742   0.089
11524TIP3   OH234514   6.397   1.038   0.336
11524TIP3    H134515   6.474   1.084   0.304
11524TIP3    H234516   6.323   1.089   0.304
11525TIP3   OH234517   0.112   6.651   5.807
11525TIP3    H134518   0.039   6.679   5.863
11525TIP3    H234519   0.122   6.558   5.826
11526TIP3   OH234520   0.481   6.854   0.758
11526TIP3    H134521   0.527   6.926   0.715
11526TIP3    H234522   0.523   6.847   0.844
11527TIP3   OH234523   4.799   1.702   5.743
11527TIP3    H134524   4.764   1.702   5.654
11527TIP3    H234525   4.891   1.725   5.732
11528TIP3   OH234526   7.831   2.165   1.618
11528TIP3    H134527   7.824   2.256   1.646
11528TIP3    H234528   7.817   2.168   1.523
11529TIP3   OH234529   4.562   7.669   3.974
11529TIP3    H134530   4.655   7.666   3.951
11529TIP3    H234531   4.556   7.618   4.055
11530TIP3   OH234532   3.102   6.654   3.781
11530TIP3    H134533   3.163   6.695   3.842
11530TIP3    H234534   3.018   6.654   3.827
11531TIP3   OH234535   3.230   7.405   4.399
11531TIP3    H134536   3.136   7.389   4.387
11531TIP3    H234537   3.246   7.488   4.355
11532TIP3   OH234538   3.097   5.980   1.765
11532TIP3    H134539   3.090   5.900   1.817
11532TIP3    H234540   3.019   6.030   1.787
11533TIP3   OH234541   6.197   2.116   4.950
11533TIP3    H134542   6.172   2.165   5.028
11533TIP3    H234543   6.187   2.024   4.975
11534TIP3   OH234544   1.962   3.128   1.668
11534TIP3    H134545   1.949   3.086   1.582
11534TIP3    H234546   1.985   3.218   1.647
11535TIP3   OH234547   5.954   6.403   6.088
11535TIP3    H134548   6.021   6.469   6.105
11535TIP3    H234549   5.978   6.365   6.003
11536TIP3   OH234550   1.071   6.687   6.480
11536TIP3    H134551   1.090   6.643   6.398
11536TIP3    H234552   1.156   6.694   6.524
11537TIP3   OH234553   1.497   4.384   5.143
11537TIP3    H134554   1.411   4.367   5.181
11537TIP3    H234555   1.548   4.422   5.215
11538TIP3   OH234556   1.013   2.211   1.182
11538TIP3    H134557   1.083   2.262   1.223
11538TIP3    H234558   0.933   2.243   1.224
11539TIP3   OH234559   6.265   0.185   5.929
11539TIP3    H134560   6.246   0.206   5.837
11539TIP3    H234561   6.186   0.141   5.960
11540TIP3   OH234562   1.892   0.145   4.858
11540TIP3    H134563   1.802   0.131   4.830
11540TIP3    H234564   1.916   0.066   4.906
11541TIP3   OH234565   7.518   0.481   3.115
11541TIP3    H134566   7.531   0.390   3.086
11541TIP3    H234567   7.482   0.526   3.039
11542TIP3   OH234568   1.323   2.250   0.627
11542TIP3    H134569   1.285   2.177   0.577
11542TIP3    H234570   1.340   2.318   0.562
11543TIP3   OH234571   5.780   2.777   5.395
11543TIP3    H134572   5.876   2.774   5.389
11543TIP3    H234573   5.749   2.761   5.306
11544TIP3   OH234574   1.671   5.869   3.851
11544TIP3    H134575   1.634   5.901   3.769
11544TIP3    H234576   1.688   5.776   3.835
11545TIP3   OH234577   4.492   1.311   2.183
11545TIP3    H134578   4.472   1.299   2.276
11545TIP3    H234579   4.557   1.244   2.164
11546TIP3   OH234580   7.249   3.264   0.939
11546TIP3    H134581   7.339   3.232   0.951
11546TIP3    H234582   7.260   3.356   0.914
11547TIP3   OH234583   4.982   5.937   5.153
11547TIP3    H134584   5.046   5.989   5.104
11547TIP3    H234585   4.902   5.991   5.151
11548TIP3   OH234586   7.728   0.295   1.156
11548TIP3    H134587   7.724   0.208   1.116
11548TIP3    H234588   7.702   0.355   1.086
11549TIP3   OH234589   7.514   7.288   3.223
11549TIP3    H134590   7.475   7.203   3.203
11549TIP3    H234591   7.606   7.268   3.241
11550TIP3   OH234592   4.995   3.362   0.025
11550TIP3    H134593   5.083   3.383   0.057
11550TIP3    H234594   4.981   3.423  -0.048
11551TIP3   OH234595   1.411   5.244   5.745
11551TIP3    H134596   1.504   5.259   5.761
11551TIP3    H234597   1.408   5.173   5.681
11552TIP3   OH234598   6.849   6.417   3.078
11552TIP3    H134599   6.754   6.420   3.065
11552TIP3    H234600   6.862   6.348   3.143
11553TIP3   OH234601   6.344   7.476   0.696
11553TIP3    H134602   6.364   7.391   0.658
11553TIP3    H234603   6.248   7.483   0.690
11554TIP3   OH234604   0.784   5.813   4.491
11554TIP3    H134605   0.826   5.840   4.572
11554TIP3    H234606   0.745   5.894   4.456
11555TIP3   OH234607   3.193   2.185   1.692
11555TIP3    H134608   3.201   2.123   1.764
11555TIP3    H234609   3.153   2.134   1.621
11556TIP3   OH234610   4.913   6.799   2.201
11556TIP3    H134611   4.819   6.792   2.181
11556TIP3    H234612   4.946   6.710   2.191
11557TIP3   OH234613   5.811   2.439   5.309
11557TIP3    H134614   5.832   2.503   5.240
11557TIP3    H234615   5.753   2.376   5.266
11558TIP3   OH234616   2.813  -0.035   3.890
11558TIP3    H134617   2.891  -0.066   3.937
11558TIP3    H234618   2.848   0.001   3.808
11559TIP3   OH234619   5.531   1.258   4.126
11559TIP3    H134620   5.453   1.280   4.179
11559TIP3    H234621   5.505   1.279   4.036
11560TIP3   OH234622   4.537   3.823   2.561
11560TIP3    H134623   4.620   3.777   2.569
11560TIP3    H234624   4.527   3.836   2.467
11561TIP3   OH234625   7.337   1.758   2.551
11561TIP3    H134626   7.346   1.675   2.598
11561TIP3    H234627   7.422   1.772   2.510
11562TIP3   OH234628   6.378   4.863   2.025
11562TIP3    H134629   6.328   4.890   1.949
11562TIP3    H234630   6.393   4.769   2.013
11563TIP3   OH234631   0.120   4.304   2.283
11563TIP3    H134632   0.092   4.311   2.191
11563TIP3    H234633   0.039   4.312   2.333
11564TIP3   OH234634   3.936   5.072   6.260
11564TIP3    H134635   3.879   5.012   6.308
11564TIP3    H234636   3.879   5.143   6.232
11565TIP3   OH234637   6.586   1.289   6.616
11565TIP3    H134638   6.566   1.382   6.626
11565TIP3    H234639   6.658   1.286   6.553
11566TIP3   OH234640   3.402   6.718   6.106
11566TIP3    H134641   3.494   6.742   6.120
11566TIP3    H234642   3.405   6.623   6.091
11567TIP3   OH234643   3.954   6.625   4.956
11567TIP3    H134644   3.924   6.694   5.015
11567TIP3    H234645   3.987   6.671   4.880
11568TIP3   OH234646   5.846   5.708   0.145
11568TIP3    H134647   5.938   5.735   0.138
11568TIP3    H234648   5.839   5.668   0.232
11569TIP3   OH234649   5.315   7.468   2.982
11569TIP3    H134650   5.254   7.466   3.056
11569TIP3    H234651   5.386   7.526   3.012
11570TIP3   OH234652   4.096   3.013   5.332
11570TIP3    H134653   4.187   3.041   5.320
11570TIP3    H234654   4.065   2.993   5.244
11571TIP3   OH234655   2.953   1.851   5.776
11571TIP3    H134656   3.047   1.867   5.771
11571TIP3    H234657   2.913   1.932   5.746
11572TIP3   OH234658   1.311   2.572   2.154
11572TIP3    H134659   1.350   2.659   2.150
11572TIP3    H234660   1.327   2.542   2.243
11573TIP3   OH234661   2.846   4.306   3.489
11573TIP3    H134662   2.901   4.242   3.534
11573TIP3    H234663   2.796   4.254   3.425
11574TIP3   OH234664   4.057   4.795   6.198
11574TIP3    H134665   3.973   4.834   6.223
11574TIP3    H234666   4.067   4.720   6.257
11575TIP3   OH234667   8.072   6.277   5.917
11575TIP3    H134668   8.127   6.287   5.995
11575TIP3    H234669   8.105   6.199   5.873
11576TIP3   OH234670   1.215   3.904   0.945
11576TIP3    H134671   1.147   3.903   0.878
11576TIP3    H234672   1.174   3.862   1.021
11577TIP3   OH234673   0.115   0.132   1.953
11577TIP3    H134674   0.173   0.201   1.923
11577TIP3    H234675   0.093   0.083   1.874
11578TIP3   OH234676   1.051   6.753   4.206
11578TIP3    H134677   1.038   6.775   4.113
11578TIP3    H234678   1.136   6.791   4.228
11579TIP3   OH234679   6.603   3.512   3.653
11579TIP3    H134680   6.551   3.470   3.722
11579TIP3    H234681   6.662   3.571   3.700
11580TIP3   OH234682   2.277   5.344   2.344
11580TIP3    H134683   2.189   5.375   2.323
11580TIP3    H234684   2.332   5.377   2.272
11581TIP3   OH234685   2.146   1.770   4.642
11581TIP3    H134686   2.163   1.858   4.608
11581TIP3    H234687   2.113   1.721   4.566
11582TIP3   OH234688   5.674   4.191   0.575
11582TIP3    H134689   5.646   4.101   0.592
11582TIP3    H234690   5.688   4.195   0.481
11583TIP3   OH234691   2.339   1.826   5.138
11583TIP3    H134692   2.430   1.845   5.119
11583TIP3    H234693   2.294   1.836   5.053
11584TIP3   OH234694   7.294   3.607   2.041
11584TIP3    H134695   7.212   3.625   1.996
11584TIP3    H234696   7.306   3.512   2.032
11585TIP3   OH234697   0.464   7.639   0.688
11585TIP3    H134698   0.536   7.695   0.717
11585TIP3    H234699   0.507   7.565   0.647
11586TIP3   OH234700   3.272   0.774   0.053
11586TIP3    H134701   3.314   0.719  -0.013
11586TIP3    H234702   3.335   0.777   0.126
11587TIP3   OH234703   4.436   2.156   3.114
11587TIP3    H134704   4.398   2.236   3.150
11587TIP3    H234705   4.480   2.184   3.034
11588TIP3   OH234706   5.413   6.409   4.548
11588TIP3    H134707   5.456   6.455   4.620
11588TIP3    H234708   5.483   6.356   4.509
11589TIP3   OH234709   3.918   2.110   1.719
11589TIP3    H134710   3.888   2.168   1.650
11589TIP3    H234711   3.959   2.168   1.784
11590TIP3   OH234712   3.193   0.257   2.628
11590TIP3    H134713   3.280   0.224   2.648
11590TIP3    H234714   3.207   0.328   2.566
11591TIP3   OH234715   0.463   6.935   2.327
11591TIP3    H134716   0.536   6.954   2.268
11591TIP3    H234717   0.494   6.964   2.413
11592TIP3   OH234718   5.333   7.250   4.448
11592TIP3    H134719   5.326   7.155   4.440
11592TIP3    H234720   5.348   7.265   4.542
11593TIP3   OH234721   1.254   6.605   0.992
11593TIP3    H134722   1.295   6.527   1.030
11593TIP3    H234723   1.295   6.613   0.906
11594TIP3   OH234724   7.415   4.625   2.485
11594TIP3    H134725   7.479   4.678   2.437
11594TIP3    H234726   7.411   4.665   2.572
11595TIP3   OH234727   1.278   6.844   2.701
11595TIP3    H134728   1.215   6.783   2.741
11595TIP3    H234729   1.285   6.916   2.763
11596TIP3   OH234730   4.965   3.954   0.300
11596TIP3    H134731   4.962   3.999   0.384
11596TIP3    H234732   4.925   3.869   0.317
11597TIP3   OH234733   5.287   6.130   6.173
11597TIP3    H134734   5.372   6.170   6.156
11597TIP3    H234735   5.269   6.150   6.265
11598TIP3   OH234736   0.016   2.266   1.892
11598TIP3    H134737   0.032   2.328   1.821
11598TIP3    H234738  -0.072   2.233   1.875
11599TIP3   OH234739   6.697   7.250   3.014
11599TIP3    H134740   6.620   7.228   3.067
11599TIP3    H234741   6.748   7.169   3.012
11600TIP3   OH234742   6.590   6.790   5.709
11600TIP3    H134743   6.581   6.883   5.732
11600TIP3    H234744   6.508   6.769   5.663
11601TIP3   OH234745   7.427   3.339   6.198
11601TIP3    H134746   7.493   3.282   6.237
11601TIP3    H234747   7.477   3.398   6.141
11602TIP3   OH234748   4.807   0.353   4.762
11602TIP3    H134749   4.729   0.322   4.718
11602TIP3    H234750   4.856   0.401   4.695
11603TIP3   OH234751   0.618   2.019   3.553
11603TIP3    H134752   0.529   2.019   3.518
11603TIP3    H234753   0.662   1.947   3.508
11604TIP3   OH234754   4.090   0.297   0.629
11604TIP3    H134755   4.184   0.308   0.616
11604TIP3    H234756   4.067   0.362   0.695
11605TIP3   OH234757   6.687   1.050   5.500
11605TIP3    H134758   6.624   1.105   5.547
11605TIP3    H234759   6.632   0.985   5.455
11606TIP3   OH234760   2.124   4.690   6.667
11606TIP3    H134761   2.100   4.598   6.655
11606TIP3    H234762   2.220   4.688   6.673
11607TIP3   OH234763   3.155   1.438   3.960
11607TIP3    H134764   3.206   1.519   3.956
11607TIP3    H234765   3.101   1.448   4.039
11608TIP3   OH234766   1.690   1.234   5.803
11608TIP3    H134767   1.698   1.222   5.708
11608TIP3    H234768   1.781   1.237   5.834
11609TIP3   OH234769   7.193   6.482   0.210
11609TIP3    H134770   7.268   6.446   0.257
11609TIP3    H234771   7.126   6.493   0.278
11610TIP3   OH234772   0.114   2.528   6.334
11610TIP3    H134773   0.186   2.478   6.371
11610TIP3    H234774   0.097   2.487   6.249
11611TIP3   OH234775   2.047   2.921   5.868
11611TIP3    H134776   2.050   2.968   5.951
11611TIP3    H234777   1.977   2.963   5.819
11612TIP3   OH234778   2.264   0.174   5.591
11612TIP3    H134779   2.217   0.101   5.632
11612TIP3    H234780   2.232   0.252   5.637
11613TIP3   OH234781   0.056   5.602   5.095
11613TIP3    H134782   0.089   5.512   5.088
11613TIP3    H234783  -0.037   5.592   5.116
11614TIP3   OH234784   1.131   6.886   1.740
11614TIP3    H134785   1.047   6.930   1.751
11614TIP3    H234786   1.112   6.793   1.757
11615TIP3   OH234787   4.451   5.441   0.473
11615TIP3    H134788   4.421   5.449   0.563
11615TIP3    H234789   4.419   5.521   0.430
11616TIP3   OH234790   2.123   4.791   4.784
11616TIP3    H134791   2.218   4.788   4.791
11616TIP3    H234792   2.101   4.723   4.720
11617TIP3   OH234793   7.628   1.770   4.561
11617TIP3    H134794   7.633   1.828   4.637
11617TIP3    H234795   7.581   1.821   4.495
11618TIP3   OH234796   2.210   0.231   6.604
11618TIP3    H134797   2.228   0.175   6.679
11618TIP3    H234798   2.207   0.172   6.529
11619TIP3   OH234799   0.926   1.910   5.064
11619TIP3    H134800   0.914   2.004   5.050
11619TIP3    H234801   1.013   1.903   5.103
11620TIP3   OH234802   8.198   5.237   1.762
11620TIP3    H134803   8.260   5.201   1.825
11620TIP3    H234804   8.216   5.331   1.762
11621TIP3   OH234805   5.873   7.398   6.573
11621TIP3    H134806   5.782   7.425   6.557
11621TIP3    H234807   5.924   7.479   6.568
11622TIP3   OH234808   0.930   4.345   1.082
11622TIP3    H134809   0.999   4.279   1.072
11622TIP3    H234810   0.849   4.300   1.056
11623TIP3   OH234811   3.570   6.652   6.494
11623TIP3    H134812   3.646   6.679   6.443
11623TIP3    H234813   3.592   6.675   6.584
11624TIP3   OH234814   7.686   1.965   0.827
11624TIP3    H134815   7.634   1.977   0.748
11624TIP3    H234816   7.774   1.993   0.802
11625TIP3   OH234817   0.516   7.255   4.608
11625TIP3    H134818   0.586   7.239   4.671
11625TIP3    H234819   0.436   7.257   4.660
11626TIP3   OH234820   3.455   4.891   6.034
11626TIP3    H134821   3.481   4.799   6.036
11626TIP3    H234822   3.464   4.921   6.124
11627TIP3   OH234823   1.606   5.317   6.264
11627TIP3    H134824   1.563   5.338   6.181
11627TIP3    H234825   1.535   5.287   6.321
11628TIP3   OH234826   8.135   0.128   5.745
11628TIP3    H134827   8.100   0.098   5.661
11628TIP3    H234828   8.169   0.049   5.787
11629TIP3   OH234829   7.553   5.602   2.474
11629TIP3    H134830   7.630   5.565   2.518
11629TIP3    H234831   7.512   5.658   2.539
11630TIP3   OH234832   4.436   0.543   2.984
11630TIP3    H134833   4.433   0.604   2.911
11630TIP3    H234834   4.344   0.521   3.001
11631TIP3   OH234835   7.106   5.172   1.115
11631TIP3    H134836   7.136   5.107   1.052
11631TIP3    H234837   7.054   5.122   1.179
11632TIP3   OH234838   6.158   7.002   0.001
11632TIP3    H134839   6.211   7.051   0.065
11632TIP3    H234840   6.074   6.989   0.045
11633TIP3   OH234841   0.125   5.951   1.617
11633TIP3    H134842   0.102   6.016   1.550
11633TIP3    H234843   0.181   5.888   1.572
11634TIP3   OH234844   0.252   1.455   1.113
11634TIP3    H134845   0.309   1.532   1.118
11634TIP3    H234846   0.258   1.426   1.023
11635TIP3   OH234847   1.393   0.801   0.002
11635TIP3    H134848   1.318   0.809   0.061
11635TIP3    H234849   1.469   0.799   0.061
11636TIP3   OH234850   2.643   1.715   2.095
11636TIP3    H134851   2.580   1.776   2.134
11636TIP3    H234852   2.598   1.682   2.017
11637TIP3   OH234853   7.390   3.723   5.978
11637TIP3    H134854   7.435   3.757   6.055
11637TIP3    H234855   7.426   3.635   5.965
11638TIP3   OH234856   4.752   1.471   2.030
11638TIP3    H134857   4.676   1.498   2.081
11638TIP3    H234858   4.717   1.410   1.965
11639TIP3   OH234859   2.066   5.927   2.762
11639TIP3    H134860   2.036   6.016   2.780
11639TIP3    H234861   2.151   5.921   2.806
11640TIP3   OH234862   5.156   0.197   1.786
11640TIP3    H134863   5.126   0.119   1.740
11640TIP3    H234864   5.250   0.201   1.767
11641TIP3   OH234865   6.195   2.722   0.160
11641TIP3    H134866   6.202   2.630   0.188
11641TIP3    H234867   6.217   2.772   0.239
11642TIP3   OH234868   3.822   4.315   5.127
11642TIP3    H134869   3.795   4.287   5.214
11642TIP3    H234870   3.803   4.409   5.124
11643TIP3   OH234871   0.939   5.376   0.475
11643TIP3    H134872   0.943   5.317   0.551
11643TIP3    H234873   0.847   5.375   0.449
11644TIP3   OH234874   0.311   7.697   1.020
11644TIP3    H134875   0.268   7.777   1.048
11644TIP3    H234876   0.304   7.638   1.095
11645TIP3   OH234877   0.111   2.154   1.555
11645TIP3    H134878   0.144   2.241   1.533
11645TIP3    H234879   0.190   2.102   1.571
11646TIP3   OH234880   2.948   6.240   1.684
11646TIP3    H134881   3.012   6.288   1.736
11646TIP3    H234882   2.871   6.298   1.681
11647TIP3   OH234883   6.425   3.723   4.050
11647TIP3    H134884   6.419   3.818   4.040
11647TIP3    H234885   6.511   3.708   4.090
11648TIP3   OH234886   4.065   3.166   2.814
11648TIP3    H134887   4.095   3.241   2.864
11648TIP3    H234888   4.100   3.180   2.726
11649TIP3   OH234889   1.181   1.750   4.329
11649TIP3    H134890   1.231   1.733   4.409
11649TIP3    H234891   1.090   1.734   4.354
11650TIP3   OH234892   3.326   2.819   1.251
11650TIP3    H134893   3.262   2.757   1.217
11650TIP3    H234894   3.406   2.801   1.201
11651TIP3   OH234895   0.218   4.758   5.440
11651TIP3    H134896   0.183   4.752   5.529
11651TIP3    H234897   0.155   4.814   5.394
11652TIP3   OH234898   0.808   5.260   5.047
11652TIP3    H134899   0.758   5.211   5.112
11652TIP3    H234900   0.879   5.200   5.021
11653TIP3   OH234901   1.932   6.675   3.596
11653TIP3    H134902   2.005   6.624   3.562
11653TIP3    H234903   1.873   6.610   3.634
11654TIP3   OH234904   1.230   0.391   2.727
11654TIP3    H134905   1.286   0.329   2.680
11654TIP3    H234906   1.145   0.347   2.733
11655TIP3   OH234907   1.057   5.117   0.763
11655TIP3    H134908   1.094   5.165   0.837
11655TIP3    H234909   1.073   5.025   0.784
11656TIP3   OH234910   7.356   5.765   2.668
11656TIP3    H134911   7.389   5.784   2.755
11656TIP3    H234912   7.375   5.845   2.617
11657TIP3   OH234913   1.977   7.536   2.528
11657TIP3    H134914   1.911   7.560   2.592
11657TIP3    H234915   2.013   7.454   2.560
11658TIP3   OH234916   4.365   6.376   3.112
11658TIP3    H134917   4.370   6.312   3.042
11658TIP3    H234918   4.277   6.366   3.148
11659TIP3   OH234919   2.309   3.260   3.239
11659TIP3    H134920   2.331   3.313   3.163
11659TIP3    H234921   2.213   3.254   3.238
11660TIP3   OH234922   4.890   0.997   5.003
11660TIP3    H134923   4.958   0.958   4.947
11660TIP3    H234924   4.826   0.927   5.015
11661TIP3   OH234925   0.349   0.758   1.016
11661TIP3    H134926   0.388   0.808   1.088
11661TIP3    H234927   0.288   0.698   1.058
11662TIP3   OH234928   7.869   7.172   6.195
11662TIP3    H134929   7.962   7.176   6.215
11662TIP3    H234930   7.832   7.114   6.262
11663TIP3   OH234931   2.467   6.150   0.494
11663TIP3    H134932   2.465   6.093   0.416
11663TIP3    H234933   2.378   6.186   0.499
11664TIP3   OH234934   8.201   7.674   1.532
11664TIP3    H134935   8.244   7.760   1.532
11664TIP3    H234936   8.268   7.613   1.563
11665TIP3   OH234937   4.620   6.346   0.091
11665TIP3    H134938   4.636   6.255   0.115
11665TIP3    H234939   4.554   6.376   0.153
11666TIP3   OH234940   3.334   6.027   2.046
11666TIP3    H134941   3.253   6.059   2.085
11666TIP3    H234942   3.387   6.106   2.032
11667TIP3   OH234943   6.992   2.478   4.627
11667TIP3    H134944   6.944   2.501   4.547
11667TIP3    H234945   6.943   2.405   4.665
11668TIP3   OH234946   1.400   1.423   0.160
11668TIP3    H134947   1.359   1.413   0.246
11668TIP3    H234948   1.332   1.464   0.106
11669TIP3   OH234949   7.258   4.328   1.832
11669TIP3    H134950   7.164   4.329   1.818
11669TIP3    H234951   7.278   4.413   1.871
11670TIP3   OH234952   2.736   0.731   0.749
11670TIP3    H134953   2.816   0.783   0.743
11670TIP3    H234954   2.676   0.773   0.687
11671TIP3   OH234955   0.570   0.264   6.414
11671TIP3    H134956   0.552   0.291   6.504
11671TIP3    H234957   0.664   0.274   6.404
11672TIP3   OH234958   3.609   5.407   2.430
11672TIP3    H134959   3.642   5.325   2.393
11672TIP3    H234960   3.597   5.464   2.354
11673TIP3   OH234961   1.684   4.712   1.054
11673TIP3    H134962   1.722   4.793   1.088
11673TIP3    H234963   1.663   4.731   0.963
11674TIP3   OH234964   3.989   0.707   2.197
11674TIP3    H134965   3.959   0.618   2.213
11674TIP3    H234966   3.966   0.755   2.277
11675TIP3   OH234967   1.493   0.602   2.744
11675TIP3    H134968   1.409   0.593   2.700
11675TIP3    H234969   1.479   0.669   2.810
11676TIP3   OH234970   1.522   0.948   1.049
11676TIP3    H134971   1.612   0.972   1.027
11676TIP3    H234972   1.509   0.862   1.011
11677TIP3   OH234973   5.666   4.170   4.634
11677TIP3    H134974   5.670   4.132   4.722
11677TIP3    H234975   5.723   4.115   4.581
11678TIP3   OH234976   7.784   1.864   6.413
11678TIP3    H134977   7.762   1.848   6.505
11678TIP3    H234978   7.788   1.777   6.374
11679TIP3   OH234979   7.369   2.425   4.748
11679TIP3    H134980   7.310   2.373   4.801
11679TIP3    H234981   7.316   2.456   4.675
11680TIP3   OH234982   5.503   7.592   5.098
11680TIP3    H134983   5.486   7.540   5.177
11680TIP3    H234984   5.436   7.661   5.100
11681TIP3   OH234985   0.605   2.051   2.893
11681TIP3    H134986   0.664   2.097   2.951
11681TIP3    H234987   0.518   2.084   2.914
11682TIP3   OH234988   6.690   1.337   4.933
11682TIP3    H134989   6.771   1.319   4.887
11682TIP3    H234990   6.670   1.256   4.980
11683TIP3   OH234991   5.139   4.284   2.989
11683TIP3    H134992   5.090   4.274   2.907
11683TIP3    H234993   5.125   4.201   3.035
11684TIP3   OH234994   2.430   7.075   2.278
11684TIP3    H134995   2.433   7.160   2.234
11684TIP3    H234996   2.503   7.077   2.340
11685TIP3   OH234997   7.275   3.093   3.154
11685TIP3    H134998   7.357   3.138   3.134
11685TIP3    H234999   7.229   3.152   3.213
11686TIP3   OH235000   2.037   2.872   4.071
11686TIP3    H135001   1.973   2.857   4.140
11686TIP3    H235002   1.986   2.900   3.995
11687TIP3   OH235003   6.581   2.928   2.881
11687TIP3    H135004   6.554   2.894   2.966
11687TIP3    H235005   6.582   3.023   2.892
11688TIP3   OH235006   7.657   5.869   2.699
11688TIP3    H135007   7.740   5.831   2.726
11688TIP3    H235008   7.609   5.883   2.781
11689TIP3   OH235009   6.875   5.064   6.203
11689TIP3    H135010   6.887   4.978   6.163
11689TIP3    H235011   6.787   5.090   6.179
11690TIP3   OH235012   2.731   4.246   2.652
11690TIP3    H135013   2.798   4.279   2.712
11690TIP3    H235014   2.779   4.200   2.584
11691TIP3   OH235015   5.582   5.221   1.060
11691TIP3    H135016   5.645   5.293   1.059
11691TIP3    H235017   5.610   5.166   1.133
11692TIP3   OH235018   1.579   5.913   4.939
11692TIP3    H135019   1.535   5.876   5.015
11692TIP3    H235020   1.509   5.949   4.885
11693TIP3   OH235021   7.980   2.544   2.420
11693TIP3    H135022   8.028   2.599   2.358
11693TIP3    H235023   7.969   2.460   2.376
11694TIP3   OH235024   6.685   1.902   6.758
11694TIP3    H135025   6.639   1.874   6.679
11694TIP3    H235026   6.725   1.822   6.793
11695TIP3   OH235027   1.503   0.636   6.287
11695TIP3    H135028   1.538   0.578   6.355
11695TIP3    H235029   1.471   0.712   6.336
11696TIP3   OH235030   1.599   7.632   5.189
11696TIP3    H135031   1.536   7.673   5.130
11696TIP3    H235032   1.555   7.553   5.221
11697TIP3   OH235033   3.472   2.922   0.357
11697TIP3    H135034   3.417   2.914   0.279
11697TIP3    H235035   3.472   3.015   0.378
11698TIP3   OH235036   3.045   1.259   2.511
11698TIP3    H135037   3.068   1.314   2.437
11698TIP3    H235038   3.045   1.319   2.586
11699TIP3   OH235039   8.172   7.387   1.067
11699TIP3    H135040   8.149   7.372   1.159
11699TIP3    H235041   8.115   7.460   1.041
11700TIP3   OH235042   7.758   6.125   5.695
11700TIP3    H135043   7.682   6.149   5.641
11700TIP3    H235044   7.768   6.198   5.756
11701TIP3   OH235045   7.871   6.870   3.588
11701TIP3    H135046   7.784   6.908   3.596
11701TIP3    H235047   7.928   6.944   3.570
11702TIP3   OH235048   3.794   5.237   1.822
11702TIP3    H135049   3.883   5.212   1.794
11702TIP3    H235050   3.736   5.194   1.760
11703TIP3   OH235051   7.364   0.290   3.390
11703TIP3    H135052   7.278   0.249   3.385
11703TIP3    H235053   7.396   0.269   3.477
11704TIP3   OH235054   5.231   0.681   0.558
11704TIP3    H135055   5.280   0.602   0.532
11704TIP3    H235056   5.176   0.652   0.630
11705TIP3   OH235057   6.571   7.056   5.850
11705TIP3    H135058   6.634   7.120   5.883
11705TIP3    H235059   6.533   7.017   5.929
11706TIP3   OH235060   8.091   6.872   0.832
11706TIP3    H135061   8.177   6.847   0.866
11706TIP3    H235062   8.106   6.885   0.738
11707TIP3   OH235063   5.417   2.151   1.544
11707TIP3    H135064   5.439   2.063   1.573
11707TIP3    H235065   5.416   2.146   1.448
11708TIP3   OH235066   0.921   1.536   4.268
11708TIP3    H135067   0.856   1.601   4.241
11708TIP3    H235068   0.936   1.555   4.360
11709TIP3   OH235069   3.224   1.216   5.794
11709TIP3    H135070   3.243   1.226   5.701
11709TIP3    H235071   3.161   1.144   5.799
11710TIP3   OH235072   7.330   5.064   5.349
11710TIP3    H135073   7.289   5.035   5.431
11710TIP3    H235074   7.369   4.984   5.313
11711TIP3   OH235075   4.001   1.575   6.495
11711TIP3    H135076   4.024   1.657   6.540
11711TIP3    H235077   4.035   1.586   6.407
11712TIP3   OH235078   4.403   5.515   5.108
11712TIP3    H135079   4.354   5.596   5.094
11712TIP3    H235080   4.367   5.454   5.044
11713TIP3   OH235081   0.572   5.614   4.070
11713TIP3    H135082   0.526   5.546   4.022
11713TIP3    H235083   0.555   5.694   4.021
11714TIP3   OH235084   8.082   2.367   4.201
11714TIP3    H135085   8.043   2.368   4.114
11714TIP3    H235086   8.165   2.413   4.191
11715TIP3   OH235087   5.126   1.510   1.690
11715TIP3    H135088   5.134   1.467   1.774
11715TIP3    H235089   5.172   1.452   1.628
11716TIP3   OH235090   1.283   4.728   5.438
11716TIP3    H135091   1.356   4.782   5.468
11716TIP3    H235092   1.287   4.651   5.494
11717TIP3   OH235093   0.378   5.319   5.642
11717TIP3    H135094   0.370   5.253   5.573
11717TIP3    H235095   0.424   5.273   5.713
11718TIP3   OH235096   4.892   3.915   5.989
11718TIP3    H135097   4.843   3.969   6.052
11718TIP3    H235098   4.983   3.924   6.017
11719TIP3   OH235099   3.417   3.906   2.392
11719TIP3    H135100   3.433   3.814   2.413
11719TIP3    H235101   3.478   3.926   2.322
11720TIP3   OH235102   4.359   4.294   4.961
11720TIP3    H135103   4.289   4.299   5.026
11720TIP3    H235104   4.394   4.206   4.971
11721TIP3   OH235105   1.764   5.931   6.537
11721TIP3    H135106   1.814   5.855   6.567
11721TIP3    H235107   1.693   5.894   6.485
11722TIP3   OH235108   5.561   6.232   6.756
11722TIP3    H135109   5.572   6.320   6.722
11722TIP3    H235110   5.650   6.197   6.763
11723TIP3   OH235111   4.802   4.053   6.231
11723TIP3    H135112   4.837   4.008   6.308
11723TIP3    H235113   4.712   4.076   6.255
11724TIP3   OH235114   4.843   0.511   4.000
11724TIP3    H135115   4.815   0.602   4.003
11724TIP3    H235116   4.882   0.495   4.086
11725TIP3   OH235117   1.585   5.154   1.563
11725TIP3    H135118   1.604   5.248   1.574
11725TIP3    H235119   1.668   5.116   1.534
11726TIP3   OH235120   3.779   1.472   0.075
11726TIP3    H135121   3.706   1.479   0.137
11726TIP3    H235122   3.857   1.468   0.131
11727TIP3   OH235123   5.796   0.720   3.965
11727TIP3    H135124   5.739   0.708   3.889
11727TIP3    H235125   5.806   0.632   4.002
11728TIP3   OH235126   2.112   0.600   3.788
11728TIP3    H135127   2.107   0.504   3.789
11728TIP3    H235128   2.021   0.629   3.777
11729TIP3   OH235129   8.124   5.045   6.779
11729TIP3    H135130   8.056   5.024   6.715
11729TIP3    H235131   8.177   5.112   6.736
11730TIP3   OH235132   3.203   6.526   5.525
11730TIP3    H135133   3.213   6.504   5.617
11730TIP3    H235134   3.247   6.455   5.478
11731TIP3   OH235135   5.161   4.881   4.498
11731TIP3    H135136   5.190   4.797   4.532
11731TIP3    H235137   5.084   4.860   4.444
11732TIP3   OH235138   7.551   1.785   2.364
11732TIP3    H135139   7.637   1.800   2.403
11732TIP3    H235140   7.536   1.862   2.309
11733TIP3   OH235141   5.165   4.322   2.375
11733TIP3    H135142   5.093   4.321   2.438
11733TIP3    H235143   5.236   4.366   2.420
11734TIP3   OH235144   2.355   7.065   0.264
11734TIP3    H135145   2.321   7.140   0.314
11734TIP3    H235146   2.328   7.082   0.174
11735TIP3   OH235147   2.411   4.535   5.423
11735TIP3    H135148   2.455   4.553   5.506
11735TIP3    H235149   2.458   4.461   5.386
11736TIP3   OH235150   3.905   1.291   5.485
11736TIP3    H135151   3.940   1.375   5.514
11736TIP3    H235152   3.966   1.226   5.521
11737TIP3   OH235153   3.408   1.338   6.435
11737TIP3    H135154   3.472   1.296   6.377
11737TIP3    H235155   3.392   1.423   6.394
11738TIP3   OH235156   4.310   4.550   4.483
11738TIP3    H135157   4.385   4.492   4.491
11738TIP3    H235158   4.235   4.496   4.507
11739TIP3   OH235159   7.945   0.452   2.895
11739TIP3    H135160   7.881   0.449   2.824
11739TIP3    H235161   8.001   0.527   2.874
11740TIP3   OH235162   2.078   4.057   3.226
11740TIP3    H135163   2.133   4.088   3.154
11740TIP3    H235164   2.084   4.126   3.292
11741TIP3   OH235165   7.420   4.597   1.845
11741TIP3    H135166   7.453   4.649   1.772
11741TIP3    H235167   7.498   4.568   1.891
11742TIP3   OH235168   6.270   4.820   1.552
11742TIP3    H135169   6.242   4.740   1.508
11742TIP3    H235170   6.328   4.789   1.622
11743TIP3   OH235171   5.040   4.531   2.919
11743TIP3    H135172   5.108   4.526   2.853
11743TIP3    H235173   5.049   4.450   2.969
11744TIP3   OH235174   7.289   2.796   0.768
11744TIP3    H135175   7.379   2.785   0.737
11744TIP3    H235176   7.293   2.774   0.861
11745TIP3   OH235177   5.005   4.151   5.667
11745TIP3    H135178   5.070   4.175   5.600
11745TIP3    H235179   5.027   4.061   5.689
11746TIP3   OH235180   4.175   3.389   0.843
11746TIP3    H135181   4.109   3.403   0.911
11746TIP3    H235182   4.235   3.325   0.881
11747TIP3   OH235183   1.840   6.779   5.729
11747TIP3    H135184   1.788   6.700   5.715
11747TIP3    H235185   1.785   6.835   5.783
11748TIP3   OH235186   1.406   0.475   1.095
11748TIP3    H135187   1.465   0.406   1.063
11748TIP3    H235188   1.319   0.436   1.088
11749TIP3   OH235189   5.962   3.200   3.990
11749TIP3    H135190   5.884   3.146   3.994
11749TIP3    H235191   5.966   3.245   4.074
11750TIP3   OH235192   3.887   0.834   6.693
11750TIP3    H135193   3.970   0.860   6.733
11750TIP3    H235194   3.870   0.902   6.628
11751TIP3   OH235195   6.104   7.170   3.665
11751TIP3    H135196   6.076   7.107   3.599
11751TIP3    H235197   6.027   7.224   3.681
11752TIP3   OH235198   3.175   7.510   6.329
11752TIP3    H135199   3.084   7.535   6.312
11752TIP3    H235200   3.220   7.593   6.346
11753TIP3   OH235201   4.605   2.797   2.169
11753TIP3    H135202   4.557   2.779   2.088
11753TIP3    H235203   4.538   2.826   2.231
11754TIP3   OH235204   1.213   0.671   2.655
11754TIP3    H135205   1.205   0.581   2.685
11754TIP3    H235206   1.163   0.674   2.574
11755TIP3   OH235207   1.146   1.519   4.107
11755TIP3    H135208   1.070   1.547   4.159
11755TIP3    H235209   1.128   1.554   4.019
11756TIP3   OH235210   0.543   7.138   5.296
11756TIP3    H135211   0.566   7.221   5.255
11756TIP3    H235212   0.520   7.161   5.386
11757TIP3   OH235213   0.855   0.286   4.380
11757TIP3    H135214   0.927   0.347   4.401
11757TIP3    H235215   0.879   0.250   4.295
11758TIP3   OH235216   7.700   5.792   5.277
11758TIP3    H135217   7.621   5.791   5.330
11758TIP3    H235218   7.688   5.866   5.217
11759TIP3   OH235219   1.068   3.962   2.081
11759TIP3    H135220   1.028   3.957   2.168
11759TIP3    H235221   1.059   3.873   2.046
11760TIP3   OH235222   4.528   0.202   3.521
11760TIP3    H135223   4.464   0.268   3.495
11760TIP3    H235224   4.580   0.244   3.590
11761TIP3   OH235225   4.136   0.361   1.371
11761TIP3    H135226   4.125   0.354   1.276
11761TIP3    H235227   4.067   0.305   1.407
11762TIP3   OH235228   3.473   3.680   6.441
11762TIP3    H135229   3.500   3.704   6.352
11762TIP3    H235230   3.405   3.744   6.463
11763TIP3   OH235231   5.765   2.242   4.407
11763TIP3    H135232   5.735   2.312   4.464
11763TIP3    H235233   5.736   2.267   4.320
11764TIP3   OH235234   6.132   7.273   1.597
11764TIP3    H135235   6.221   7.300   1.620
11764TIP3    H235236   6.144   7.203   1.533
11765TIP3   OH235237   4.875   7.843   4.151
11765TIP3    H135238   4.904   7.789   4.224
11765TIP3    H235239   4.790   7.878   4.178
11766TIP3   OH235240   5.606   0.083   6.680
11766TIP3    H135241   5.688   0.040   6.704
11766TIP3    H235242   5.628   0.132   6.600
11767TIP3   OH235243   1.005   6.870   2.449
11767TIP3    H135244   1.018   6.810   2.523
11767TIP3    H235245   0.920   6.910   2.465
11768TIP3   OH235246   2.596   4.762   5.009
11768TIP3    H135247   2.641   4.806   5.081
11768TIP3    H235248   2.605   4.669   5.029
11769TIP3   OH235249   0.707   3.558   1.519
11769TIP3    H135250   0.790   3.597   1.545
11769TIP3    H235251   0.731   3.489   1.457
11770TIP3   OH235252   3.297   0.558   2.144
11770TIP3    H135253   3.292   0.644   2.102
11770TIP3    H235254   3.380   0.522   2.116
11771TIP3   OH235255   7.334   0.724   0.195
11771TIP3    H135256   7.343   0.672   0.275
11771TIP3    H235257   7.385   0.676   0.129
11772TIP3   OH235258   3.726   6.938   5.021
11772TIP3    H135259   3.748   6.868   5.083
11772TIP3    H235260   3.809   6.980   5.001
11773TIP3   OH235261   1.952   1.190   0.237
11773TIP3    H135262   1.879   1.192   0.299
11773TIP3    H235263   1.921   1.135   0.165
11774TIP3   OH235264   3.639   6.175   3.919
11774TIP3    H135265   3.610   6.254   3.872
11774TIP3    H235266   3.615   6.192   4.011
11775TIP3   OH235267   2.171   7.639   2.336
11775TIP3    H135268   2.102   7.609   2.396
11775TIP3    H235269   2.168   7.734   2.342
11776TIP3   OH235270   0.622   0.089   0.686
11776TIP3    H135271   0.665   0.038   0.618
11776TIP3    H235272   0.633   0.180   0.659
11777TIP3   OH235273   4.753   5.971   6.531
11777TIP3    H135274   4.701   6.034   6.481
11777TIP3    H235275   4.694   5.940   6.600
11778TIP3   OH235276   0.053   1.962   6.362
11778TIP3    H135277  -0.015   1.990   6.424
11778TIP3    H235278   0.135   1.977   6.408
11779TIP3   OH235279   1.839   3.145   4.041
11779TIP3    H135280   1.900   3.188   4.100
11779TIP3    H235281   1.829   3.206   3.968
11780TIP3   OH235282   7.806   3.404   3.103
11780TIP3    H135283   7.891   3.379   3.068
11780TIP3    H235284   7.750   3.414   3.026
11781TIP3   OH235285   5.950   6.876   1.122
11781TIP3    H135286   5.855   6.877   1.113
11781TIP3    H235287   5.974   6.969   1.121
11782TIP3   OH235288   6.022   3.069   5.731
11782TIP3    H135289   6.039   2.977   5.751
11782TIP3    H235290   6.082   3.118   5.788
11783TIP3   OH235291   2.792   1.110   3.349
11783TIP3    H135292   2.852   1.058   3.403
11783TIP3    H235293   2.847   1.145   3.279
11784TIP3   OH235294   7.000   6.576   6.515
11784TIP3    H135295   7.027   6.658   6.556
11784TIP3    H235296   6.910   6.591   6.487
11785TIP3   OH235297   6.480   5.040   5.839
11785TIP3    H135298   6.391   5.074   5.846
11785TIP3    H235299   6.529   5.108   5.792
11786TIP3   OH235300   0.842   4.534   6.361
11786TIP3    H135301   0.793   4.610   6.393
11786TIP3    H235302   0.844   4.474   6.435
11787TIP3   OH235303   2.621   1.831   4.712
11787TIP3    H135304   2.560   1.819   4.639
11787TIP3    H235305   2.702   1.861   4.671
11788TIP3   OH235306   1.564   4.076   5.784
11788TIP3    H135307   1.605   4.139   5.844
11788TIP3    H235308   1.554   3.997   5.836
11789TIP3   OH235309   6.811   1.338   1.731
11789TIP3    H135310   6.872   1.273   1.766
11789TIP3    H235311   6.857   1.377   1.657
11790TIP3   OH235312   8.152   6.477   1.115
11790TIP3    H135313   8.149   6.404   1.053
11790TIP3    H235314   8.060   6.495   1.134
11791TIP3   OH235315   2.572   5.953   1.740
11791TIP3    H135316   2.559   5.953   1.645
11791TIP3    H235317   2.484   5.946   1.777
11792TIP3   OH235318   7.703   4.720   6.533
11792TIP3    H135319   7.702   4.812   6.507
11792TIP3    H235320   7.781   4.711   6.588
11793TIP3   OH235321   1.875   3.921   4.696
11793TIP3    H135322   1.921   3.985   4.751
11793TIP3    H235323   1.833   3.862   4.758
11794TIP3   OH235324   2.211   2.787   0.201
11794TIP3    H135325   2.214   2.692   0.216
11794TIP3    H235326   2.125   2.813   0.234
11795TIP3   OH235327   1.604   2.543   5.267
11795TIP3    H135328   1.557   2.596   5.202
11795TIP3    H235329   1.696   2.561   5.251
11796TIP3   OH235330   1.521   6.202   6.589
11796TIP3    H135331   1.582   6.239   6.652
11796TIP3    H235332   1.541   6.247   6.507
11797TIP3   OH235333   3.579   4.504   5.391
11797TIP3    H135334   3.516   4.472   5.326
11797TIP3    H235335   3.631   4.427   5.414
11798TIP3   OH235336   1.368   3.016   5.325
11798TIP3    H135337   1.410   2.945   5.374
11798TIP3    H235338   1.440   3.059   5.280
11799TIP3   OH235339   8.115   3.502   3.388
11799TIP3    H135340   8.107   3.583   3.338
11799TIP3    H235341   8.029   3.490   3.428
11800TIP3   OH235342   2.236   2.937   6.326
11800TIP3    H135343   2.231   2.842   6.318
11800TIP3    H235344   2.162   2.960   6.382
11801TIP3   OH235345   7.372   5.300   1.073
11801TIP3    H135346   7.386   5.393   1.091
11801TIP3    H235347   7.278   5.287   1.086
11802TIP3   OH235348   1.552   5.325   0.001
11802TIP3    H135349   1.488   5.254  -0.002
11802TIP3    H235350   1.501   5.403   0.024
11803TIP3   OH235351   2.833   6.005   1.796
11803TIP3    H135352   2.758   5.975   1.745
11803TIP3    H235353   2.856   6.090   1.758
11804TIP3   OH235354   3.973   5.392   0.321
11804TIP3    H135355   4.028   5.377   0.398
11804TIP3    H235356   3.884   5.395   0.356
11805TIP3   OH235357   6.971   0.052   4.671
11805TIP3    H135358   7.011  -0.022   4.716
11805TIP3    H235359   6.931   0.104   4.740
11806TIP3   OH235360   6.870   3.822   1.851
11806TIP3    H135361   6.929   3.806   1.778
11806TIP3    H235362   6.908   3.772   1.924
11807TIP3   OH235363   5.777   6.157   3.209
11807TIP3    H135364   5.857   6.193   3.248
11807TIP3    H235365   5.806   6.076   3.165
11808TIP3   OH235366   1.741   5.264   0.194
11808TIP3    H135367   1.664   5.275   0.140
11808TIP3    H235368   1.755   5.169   0.199
11809TIP3   OH235369   4.089   0.212   3.166
11809TIP3    H135370   4.126   0.128   3.135
11809TIP3    H235371   3.995   0.197   3.169
11810TIP3   OH235372   7.028   1.801   6.605
11810TIP3    H135373   7.095   1.744   6.568
11810TIP3    H235374   6.946   1.768   6.568
11811TIP3   OH235375   4.801   6.590   1.171
11811TIP3    H135376   4.870   6.550   1.224
11811TIP3    H235377   4.738   6.520   1.156
11812TIP3   OH235378   0.589   5.992   3.613
11812TIP3    H135379   0.629   5.927   3.672
11812TIP3    H235380   0.658   6.012   3.550
11813TIP3   OH235381   7.280   6.543   2.788
11813TIP3    H135382   7.263   6.618   2.732
11813TIP3    H235383   7.368   6.514   2.763
11814TIP3   OH235384   7.620   6.957   3.601
11814TIP3    H135385   7.554   6.969   3.669
11814TIP3    H235386   7.570   6.941   3.521
11815TIP3   OH235387   4.200   5.660   5.742
11815TIP3    H135388   4.219   5.602   5.668
11815TIP3    H235389   4.284   5.672   5.785
11816TIP3   OH235390   0.808   5.682   1.648
11816TIP3    H135391   0.847   5.657   1.564
11816TIP3    H235392   0.782   5.773   1.636
11817TIP3   OH235393   1.779   7.742   2.385
11817TIP3    H135394   1.865   7.700   2.381
11817TIP3    H235395   1.724   7.681   2.435
11818TIP3   OH235396   0.415   2.160   4.125
11818TIP3    H135397   0.366   2.154   4.207
11818TIP3    H235398   0.446   2.250   4.122
11819TIP3   OH235399   3.467   5.550   2.086
11819TIP3    H135400   3.487   5.564   1.993
11819TIP3    H235401   3.449   5.638   2.119
11820TIP3   OH235402   7.911   7.015   5.403
11820TIP3    H135403   7.935   7.005   5.495
11820TIP3    H235404   7.856   6.939   5.384
11821TIP3   OH235405   8.128   4.834   2.278
11821TIP3    H135406   8.130   4.828   2.183
11821TIP3    H235407   8.147   4.926   2.297
11822TIP3   OH235408   3.382   2.334   0.239
11822TIP3    H135409   3.451   2.267   0.244
11822TIP3    H235410   3.301   2.287   0.259
11823TIP3   OH235411   5.641   7.657   1.159
11823TIP3    H135412   5.692   7.735   1.184
11823TIP3    H235413   5.667   7.591   1.223
11824TIP3   OH235414   4.779   2.716   5.134
11824TIP3    H135415   4.733   2.632   5.136
11824TIP3    H235416   4.743   2.761   5.058
11825TIP3   OH235417   7.083   7.534   1.471
11825TIP3    H135418   7.047   7.613   1.432
11825TIP3    H235419   7.100   7.476   1.396
11826TIP3   OH235420   1.642   2.483   3.069
11826TIP3    H135421   1.560   2.510   3.112
11826TIP3    H235422   1.693   2.442   3.138
11827TIP3   OH235423   5.687   5.346   6.100
11827TIP3    H135424   5.750   5.281   6.131
11827TIP3    H235425   5.719   5.429   6.135
11828TIP3   OH235426   3.797   0.167   5.835
11828TIP3    H135427   3.771   0.212   5.916
11828TIP3    H235428   3.892   0.163   5.838
11829TIP3   OH235429   3.049   4.580   0.620
11829TIP3    H135430   3.023   4.652   0.562
11829TIP3    H235431   3.112   4.619   0.681
11830TIP3   OH235432   5.841   7.126   6.527
11830TIP3    H135433   5.758   7.131   6.481
11830TIP3    H235434   5.854   7.214   6.562
11831TIP3   OH235435   2.253   2.295   0.115
11831TIP3    H135436   2.233   2.297   0.022
11831TIP3    H235437   2.310   2.218   0.126
11832TIP3   OH235438   5.228   2.740   1.187
11832TIP3    H135439   5.301   2.747   1.249
11832TIP3    H235440   5.194   2.829   1.180
11833TIP3   OH235441   8.031   5.326   0.759
11833TIP3    H135442   8.021   5.264   0.830
11833TIP3    H235443   8.099   5.386   0.789
11834TIP3   OH235444   7.141   3.616   4.074
11834TIP3    H135445   7.156   3.607   3.980
11834TIP3    H235446   7.156   3.528   4.110
11835TIP3   OH235447   1.496   2.097   2.413
11835TIP3    H135448   1.579   2.135   2.387
11835TIP3    H235449   1.510   2.067   2.503
11836TIP3   OH235450   6.160   7.401   2.398
11836TIP3    H135451   6.203   7.487   2.394
11836TIP3    H235452   6.068   7.419   2.383
11837TIP3   OH235453   5.897   0.736   3.474
11837TIP3    H135454   5.816   0.689   3.457
11837TIP3    H235455   5.883   0.823   3.436
11838TIP3   OH235456   4.918   5.853   0.808
11838TIP3    H135457   4.828   5.884   0.811
11838TIP3    H235458   4.938   5.847   0.715
11839TIP3   OH235459   3.924   5.696   1.483
11839TIP3    H135460   3.831   5.672   1.485
11839TIP3    H235461   3.966   5.637   1.545
11840TIP3   OH235462   6.992   0.567   6.065
11840TIP3    H135463   6.910   0.606   6.095
11840TIP3    H235464   7.037   0.638   6.019
11841TIP3   OH235465   1.690   2.156   3.905
11841TIP3    H135466   1.775   2.115   3.920
11841TIP3    H235467   1.659   2.118   3.823
11842TIP3   OH235468   0.938   6.698   1.836
11842TIP3    H135469   0.891   6.777   1.864
11842TIP3    H235470   0.882   6.625   1.865
11843TIP3   OH235471   1.345   6.618   4.709
11843TIP3    H135472   1.276   6.649   4.650
11843TIP3    H235473   1.303   6.614   4.795
11844TIP3   OH235474   3.055   5.428   3.936
11844TIP3    H135475   2.991   5.444   4.006
11844TIP3    H235476   3.064   5.514   3.894
11845TIP3   OH235477   3.310   3.076   2.758
11845TIP3    H135478   3.392   3.032   2.779
11845TIP3    H235479   3.319   3.104   2.667
11846TIP3   OH235480   7.525   6.373   2.913
11846TIP3    H135481   7.434   6.399   2.929
11846TIP3    H235482   7.536   6.291   2.961
11847TIP3   OH235483   0.612   3.711   0.338
11847TIP3    H135484   0.613   3.693   0.244
11847TIP3    H235485   0.535   3.665   0.371
11848TIP3   OH235486   6.514   3.757   2.862
11848TIP3    H135487   6.598   3.731   2.824
11848TIP3    H235488   6.467   3.798   2.789
11849TIP3   OH235489   4.987   0.438   0.514
11849TIP3    H135490   5.017   0.355   0.551
11849TIP3    H235491   4.947   0.484   0.587
11850TIP3   OH235492   7.933   5.998   0.973
11850TIP3    H135493   7.967   5.961   0.892
11850TIP3    H235494   7.839   5.978   0.972
11851TIP3   OH235495   1.650   2.178   6.531
11851TIP3    H135496   1.600   2.169   6.612
11851TIP3    H235497   1.615   2.110   6.474
11852TIP3   OH235498   1.798   6.163   3.825
11852TIP3    H135499   1.776   6.183   3.916
11852TIP3    H235500   1.739   6.091   3.802
11853TIP3   OH235501   8.320   3.291   4.694
11853TIP3    H135502   8.304   3.384   4.709
11853TIP3    H235503   8.251   3.246   4.743
11854TIP3   OH235504   7.064   7.714   2.541
11854TIP3    H135505   7.107   7.786   2.495
11854TIP3    H235506   7.130   7.645   2.546
11855TIP3   OH235507   7.681   5.112   1.027
11855TIP3    H135508   7.606   5.079   1.075
11855TIP3    H235509   7.744   5.041   1.028
11856TIP3   OH235510   4.640   5.258   3.360
11856TIP3    H135511   4.616   5.308   3.282
11856TIP3    H235512   4.556   5.229   3.396
11857TIP3   OH235513   1.968   4.143   0.326
11857TIP3    H135514   1.981   4.203   0.399
11857TIP3    H235515   1.877   4.157   0.299
11858TIP3   OH235516   2.580   3.281   0.486
11858TIP3    H135517   2.660   3.333   0.474
11858TIP3    H235518   2.516   3.323   0.429
11859TIP3   OH235519   5.658   7.642   3.600
11859TIP3    H135520   5.718   7.715   3.588
11859TIP3    H235521   5.595   7.674   3.665
11860TIP3   OH235522   6.671   3.833   0.047
11860TIP3    H135523   6.615   3.891   0.098
11860TIP3    H235524   6.672   3.872  -0.041
11861TIP3   OH235525   4.276   5.514   1.936
11861TIP3    H135526   4.350   5.575   1.935
11861TIP3    H235527   4.307   5.438   1.984
11862TIP3   OH235528   8.305   4.932   3.196
11862TIP3    H135529   8.230   4.945   3.253
11862TIP3    H235530   8.362   5.007   3.213
11863TIP3   OH235531   6.601   7.545   1.601
11863TIP3    H135532   6.670   7.489   1.637
11863TIP3    H235533   6.582   7.607   1.672
11864TIP3   OH235534   1.846   7.164   5.159
11864TIP3    H135535   1.909   7.098   5.187
11864TIP3    H235536   1.867   7.241   5.212
11865TIP3   OH235537   6.645   4.161   3.506
11865TIP3    H135538   6.650   4.177   3.600
11865TIP3    H235539   6.722   4.109   3.486
11866TIP3   OH235540   3.093   7.012   1.986
11866TIP3    H135541   3.095   7.098   1.943
11866TIP3    H235542   3.001   6.997   2.006
11867TIP3   OH235543   7.071   0.273   3.705
11867TIP3    H135544   7.014   0.197   3.713
11867TIP3    H235545   7.070   0.314   3.792
11868TIP3   OH235546   7.452   7.426   2.876
11868TIP3    H135547   7.485   7.515   2.863
11868TIP3    H235548   7.531   7.372   2.877
11869TIP3   OH235549   0.466   7.313   3.226
11869TIP3    H135550   0.515   7.369   3.166
11869TIP3    H235551   0.481   7.351   3.313
11870TIP3   OH235552   5.188   4.333   1.350
11870TIP3    H135553   5.261   4.318   1.409
11870TIP3    H235554   5.141   4.249   1.349
11871TIP3   OH235555   4.588   5.805   3.907
11871TIP3    H135556   4.570   5.880   3.964
11871TIP3    H235557   4.538   5.733   3.946
11872TIP3   OH235558   7.458   4.551   4.697
11872TIP3    H135559   7.541   4.570   4.653
11872TIP3    H235560   7.482   4.539   4.789
11873TIP3   OH235561   2.166   7.009   2.743
11873TIP3    H135562   2.184   7.007   2.649
11873TIP3    H235563   2.253   7.017   2.784
11874TIP3   OH235564   4.862   3.232   3.663
11874TIP3    H135565   4.955   3.214   3.677
11874TIP3    H235566   4.839   3.295   3.732
11875TIP3   OH235567   1.832   2.269   3.503
11875TIP3    H135568   1.918   2.307   3.516
11875TIP3    H235569   1.846   2.198   3.440
11876TIP3   OH235570   6.870   7.236   6.474
11876TIP3    H135571   6.837   7.317   6.433
11876TIP3    H235572   6.965   7.248   6.476
11877TIP3   OH235573   2.774   2.060   6.086
11877TIP3    H135574   2.865   2.074   6.061
11877TIP3    H235575   2.758   1.968   6.065
11878TIP3   OH235576   5.989   4.319   5.208
11878TIP3    H135577   5.901   4.293   5.236
11878TIP3    H235578   6.045   4.299   5.282
11879TIP3   OH235579   5.790   2.965   3.917
11879TIP3    H135580   5.697   2.972   3.897
11879TIP3    H235581   5.810   2.872   3.905
11880TIP3   OH235582   0.142   5.789   5.410
11880TIP3    H135583   0.080   5.833   5.351
11880TIP3    H235584   0.159   5.852   5.479
11881TIP3   OH235585   5.392   4.053   3.345
11881TIP3    H135586   5.488   4.050   3.350
11881TIP3    H235587   5.373   4.117   3.277
11882TIP3   OH235588   7.485   2.179   1.171
11882TIP3    H135589   7.446   2.238   1.236
11882TIP3    H235590   7.513   2.237   1.100
11883TIP3   OH235591   5.256   5.238   0.472
11883TIP3    H135592   5.249   5.301   0.401
11883TIP3    H235593   5.348   5.212   0.473
11884TIP3   OH235594   7.168   3.017   6.447
11884TIP3    H135595   7.146   3.077   6.519
11884TIP3    H235596   7.129   3.057   6.370
11885TIP3   OH235597   3.096   7.591   3.821
11885TIP3    H135598   3.047   7.551   3.748
11885TIP3    H235599   3.140   7.666   3.782
11886TIP3   OH235600   8.050   3.139   3.821
11886TIP3    H135601   8.135   3.148   3.865
11886TIP3    H235602   7.990   3.113   3.891
11887TIP3   OH235603   1.832   2.214   0.501
11887TIP3    H135604   1.890   2.161   0.446
11887TIP3    H235605   1.828   2.298   0.456
11888TIP3   OH235606   2.105   7.132   3.631
11888TIP3    H135607   2.040   7.134   3.702
11888TIP3    H235608   2.053   7.117   3.552
11889TIP3   OH235609   0.243   4.236   5.957
11889TIP3    H135610   0.196   4.153   5.968
11889TIP3    H235611   0.176   4.303   5.970
11890TIP3   OH235612   5.273   3.442   3.816
11890TIP3    H135613   5.254   3.517   3.873
11890TIP3    H235614   5.275   3.480   3.728
11891TIP3   OH235615   7.472   6.925   5.801
11891TIP3    H135616   7.528   6.865   5.751
11891TIP3    H235617   7.448   6.876   5.879
11892TIP3   OH235618   5.961   6.447   4.128
11892TIP3    H135619   5.976   6.394   4.051
11892TIP3    H235620   5.954   6.384   4.200
11893TIP3   OH235621   2.645   6.583   4.496
11893TIP3    H135622   2.633   6.542   4.410
11893TIP3    H235623   2.579   6.541   4.551
11894TIP3   OH235624   2.247   7.190   5.312
11894TIP3    H135625   2.164   7.144   5.322
11894TIP3    H235626   2.222   7.282   5.298
11895TIP3   OH235627   2.663   2.516   3.333
11895TIP3    H135628   2.667   2.424   3.305
11895TIP3    H235629   2.753   2.538   3.356
11896TIP3   OH235630   4.428   2.840   3.508
11896TIP3    H135631   4.497   2.836   3.442
11896TIP3    H235632   4.353   2.878   3.463
11897TIP3   OH235633   1.122   1.119   6.579
11897TIP3    H135634   1.126   1.168   6.497
11897TIP3    H235635   1.041   1.147   6.620
11898TIP3   OH235636   5.507   3.062   5.122
11898TIP3    H135637   5.478   3.153   5.128
11898TIP3    H235638   5.563   3.050   5.199
11899TIP3   OH235639   5.533   3.934   2.606
11899TIP3    H135640   5.464   3.950   2.542
11899TIP3    H235641   5.567   3.848   2.584
11900TIP3   OH235642   1.585   4.935   5.762
11900TIP3    H135643   1.568   4.891   5.678
11900TIP3    H235644   1.679   4.955   5.759
11901TIP3   OH235645   7.974   7.425   4.015
11901TIP3    H135646   7.985   7.335   4.046
11901TIP3    H235647   8.048   7.438   3.954
11902TIP3   OH235648   4.658   0.812   5.322
11902TIP3    H135649   4.748   0.843   5.329
11902TIP3    H235650   4.647   0.753   5.396
11903TIP3   OH235651   0.442   3.697   2.645
11903TIP3    H135652   0.388   3.767   2.681
11903TIP3    H235653   0.485   3.737   2.570
11904TIP3   OH235654   0.607   1.002   2.973
11904TIP3    H135655   0.653   1.002   2.889
11904TIP3    H235656   0.661   1.057   3.029
11905TIP3   OH235657   2.403   6.636   0.552
11905TIP3    H135658   2.370   6.555   0.592
11905TIP3    H235659   2.496   6.619   0.536
11906TIP3   OH235660   2.041   6.279   1.049
11906TIP3    H135661   2.045   6.373   1.067
11906TIP3    H235662   2.132   6.253   1.038
11907TIP3   OH235663   7.325   1.637   2.235
11907TIP3    H135664   7.362   1.576   2.299
11907TIP3    H235665   7.357   1.723   2.262
11908TIP3   OH235666   7.300   1.616   1.510
11908TIP3    H135667   7.389   1.617   1.475
11908TIP3    H235668   7.282   1.524   1.526
11909TIP3   OH235669   3.730   7.765   5.495
11909TIP3    H135670   3.768   7.682   5.467
11909TIP3    H235671   3.637   7.746   5.508
11910TIP3   OH235672   4.001   1.541   5.616
11910TIP3    H135673   4.026   1.630   5.641
11910TIP3    H235674   4.064   1.517   5.548
11911TIP3   OH235675   3.661   3.379   1.931
11911TIP3    H135676   3.681   3.465   1.968
11911TIP3    H235677   3.582   3.393   1.879
11912TIP3   OH235678   8.140   7.641   6.537
11912TIP3    H135679   8.148   7.724   6.490
11912TIP3    H235680   8.111   7.579   6.470
11913TIP3   OH235681   6.837   7.111   3.847
11913TIP3    H135682   6.803   7.026   3.873
11913TIP3    H235683   6.833   7.164   3.926
11914TIP3   OH235684   1.236   3.636   3.759
11914TIP3    H135685   1.201   3.686   3.685
11914TIP3    H235686   1.197   3.676   3.836
11915TIP3   OH235687   3.862   5.440   0.885
11915TIP3    H135688   3.852   5.441   0.790
11915TIP3    H235689   3.806   5.511   0.916
11916TIP3   OH235690   0.545   0.824   2.024
11916TIP3    H135691   0.461   0.780   2.012
11916TIP3    H235692   0.558   0.826   2.118
11917TIP3   OH235693   5.114   2.376   1.712
11917TIP3    H135694   5.058   2.429   1.768
11917TIP3    H235695   5.056   2.349   1.640
11918TIP3   OH235696   0.921   1.151   6.231
11918TIP3    H135697   0.854   1.214   6.206
11918TIP3    H235698   0.882   1.066   6.214
11919TIP3   OH235699   1.987   7.012   6.791
11919TIP3    H135700   1.952   7.081   6.734
11919TIP3    H235701   1.946   6.932   6.761
11920TIP3   OH235702   1.537   0.088   1.832
11920TIP3    H135703   1.577   0.092   1.920
11920TIP3    H235704   1.608   0.056   1.776
11921TIP3   OH235705   3.435   4.076   3.187
11921TIP3    H135706   3.341   4.084   3.206
11921TIP3    H235707   3.478   4.129   3.254
11922TIP3   OH235708   1.709   1.595   6.602
11922TIP3    H135709   1.696   1.672   6.659
11922TIP3    H235710   1.632   1.595   6.545
11923TIP3   OH235711   0.954   3.691   5.450
11923TIP3    H135712   0.923   3.600   5.454
11923TIP3    H235713   0.899   3.731   5.382
11924TIP3   OH235714   0.910   1.157   0.492
11924TIP3    H135715   0.985   1.215   0.506
11924TIP3    H235716   0.837   1.217   0.477
11925TIP3   OH235717   5.592   3.875   5.086
11925TIP3    H135718   5.591   3.794   5.137
11925TIP3    H235719   5.664   3.926   5.123
11926TIP3   OH235720   5.323   0.929   0.721
11926TIP3    H135721   5.272   0.948   0.642
11926TIP3    H235722   5.361   0.843   0.705
11927TIP3   OH235723   8.184   1.495   0.867
11927TIP3    H135724   8.219   1.417   0.911
11927TIP3    H235725   8.089   1.482   0.868
11928TIP3   OH235726   0.685   3.299   4.817
11928TIP3    H135727   0.599   3.258   4.820
11928TIP3    H235728   0.676   3.377   4.872
11929TIP3   OH235729   4.564   3.468   4.062
11929TIP3    H135730   4.565   3.439   3.970
11929TIP3    H235731   4.502   3.541   4.062
11930TIP3   OH235732   6.491   0.479   3.424
11930TIP3    H135733   6.559   0.438   3.478
11930TIP3    H235734   6.534   0.501   3.342
11931TIP3   OH235735   7.216   2.199   3.484
11931TIP3    H135736   7.168   2.267   3.531
11931TIP3    H235737   7.307   2.228   3.486
11932TIP3   OH235738   3.560   4.200   3.504
11932TIP3    H135739   3.537   4.190   3.597
11932TIP3    H235740   3.611   4.122   3.484
11933TIP3   OH235741   7.210   5.025   6.043
11933TIP3    H135742   7.174   5.095   5.988
11933TIP3    H235743   7.139   4.962   6.051
11934TIP3   OH235744   5.596   6.768   5.289
11934TIP3    H135745   5.617   6.684   5.247
11934TIP3    H235746   5.550   6.743   5.370
11935TIP3   OH235747   7.309   2.699   1.014
11935TIP3    H135748   7.289   2.609   0.989
11935TIP3    H235749   7.393   2.693   1.060
11936TIP3   OH235750   4.729   5.592   1.944
11936TIP3    H135751   4.713   5.514   1.998
11936TIP3    H235752   4.646   5.639   1.943
11937TIP3   OH235753   1.566   1.210   3.822
11937TIP3    H135754   1.534   1.264   3.895
11937TIP3    H235755   1.644   1.168   3.856
11938TIP3   OH235756   2.481   1.215   2.948
11938TIP3    H135757   2.482   1.126   2.913
11938TIP3    H235758   2.435   1.207   3.031
11939TIP3   OH235759   2.510   2.839   4.161
11939TIP3    H135760   2.496   2.752   4.124
11939TIP3    H235761   2.602   2.858   4.143
11940TIP3   OH235762   0.504   5.277   1.477
11940TIP3    H135763   0.567   5.247   1.542
11940TIP3    H235764   0.553   5.279   1.395
11941TIP3   OH235765   7.567   0.259   2.951
11941TIP3    H135766   7.652   0.239   2.911
11941TIP3    H235767   7.503   0.216   2.895
11942TIP3   OH235768   0.702   6.827   6.000
11942TIP3    H135769   0.782   6.820   6.051
11942TIP3    H235770   0.732   6.830   5.909
11943TIP3   OH235771   7.856   0.137   4.583
11943TIP3    H135772   7.929   0.080   4.606
11943TIP3    H235773   7.778   0.086   4.600
11944TIP3   OH235774   0.167   3.792   6.206
11944TIP3    H135775   0.212   3.767   6.287
11944TIP3    H235776   0.088   3.739   6.205
11945TIP3   OH235777   7.654   0.331   6.777
11945TIP3    H135778   7.575   0.336   6.830
11945TIP3    H235779   7.667   0.237   6.763
11946TIP3   OH235780   2.919   7.723   1.279
11946TIP3    H135781   3.004   7.721   1.323
11946TIP3    H235782   2.892   7.631   1.276
11947TIP3   OH235783   1.620   1.465   2.509
11947TIP3    H135784   1.709   1.433   2.518
11947TIP3    H235785   1.578   1.405   2.447
11948TIP3   OH235786   3.708   0.133   3.781
11948TIP3    H135787   3.798   0.160   3.800
11948TIP3    H235788   3.717   0.066   3.714
11949TIP3   OH235789   1.809   7.181   3.500
11949TIP3    H135790   1.784   7.142   3.417
11949TIP3    H235791   1.738   7.242   3.521
11950TIP3   OH235792   4.137   6.622   5.917
11950TIP3    H135793   4.102   6.550   5.970
11950TIP3    H235794   4.176   6.579   5.842
11951TIP3   OH235795   1.844   2.447   4.100
11951TIP3    H135796   1.802   2.494   4.171
11951TIP3    H235797   1.913   2.396   4.142
11952TIP3   OH235798   2.099   4.351   2.587
11952TIP3    H135799   2.069   4.361   2.497
11952TIP3    H235800   2.061   4.425   2.634
11953TIP3   OH235801   7.197   4.562   0.676
11953TIP3    H135802   7.252   4.535   0.749
11953TIP3    H235803   7.114   4.588   0.717
11954TIP3   OH235804   3.263   1.021   0.425
11954TIP3    H135805   3.249   1.113   0.448
11954TIP3    H235806   3.178   0.991   0.392
11955TIP3   OH235807   7.091   1.948   5.141
11955TIP3    H135808   7.002   1.983   5.149
11955TIP3    H235809   7.094   1.877   5.204
11956TIP3   OH235810   6.829   0.747   3.092
11956TIP3    H135811   6.874   0.662   3.088
11956TIP3    H235812   6.736   0.725   3.099
11957TIP3   OH235813   0.932   0.516   1.278
11957TIP3    H135814   0.937   0.451   1.208
11957TIP3    H235815   0.898   0.595   1.235
11958TIP3   OH235816   4.441   1.895   5.683
11958TIP3    H135817   4.522   1.946   5.677
11958TIP3    H235818   4.380   1.952   5.729
11959TIP3   OH235819   5.383   2.788   0.038
11959TIP3    H135820   5.401   2.794  -0.056
11959TIP3    H235821   5.294   2.755   0.044
11960TIP3   OH235822   3.924   7.559   0.186
11960TIP3    H135823   3.848   7.510   0.155
11960TIP3    H235824   3.940   7.525   0.274
11961TIP3   OH235825   7.717   0.725   2.452
11961TIP3    H135826   7.739   0.814   2.478
11961TIP3    H235827   7.626   0.730   2.424
11962TIP3   OH235828   3.877   5.185   3.966
11962TIP3    H135829   3.942   5.116   3.954
11962TIP3    H235830   3.839   5.168   4.052
11963TIP3   OH235831   3.058   7.761   2.965
11963TIP3    H135832   3.010   7.687   3.002
11963TIP3    H235833   2.991   7.823   2.938
11964TIP3   OH235834   5.243   1.210   0.513
11964TIP3    H135835   5.316   1.149   0.504
11964TIP3    H235836   5.220   1.233   0.423
11965TIP3   OH235837   2.757   6.362   3.690
11965TIP3    H135838   2.772   6.268   3.694
11965TIP3    H235839   2.762   6.392   3.780
11966TIP3   OH235840   4.736   5.019   3.461
11966TIP3    H135841   4.831   5.013   3.467
11966TIP3    H235842   4.720   5.099   3.411
11967TIP3   OH235843   4.407   5.444   5.865
11967TIP3    H135844   4.460   5.408   5.794
11967TIP3    H235845   4.470   5.483   5.926
11968TIP3   OH235846   4.791   1.907   4.931
11968TIP3    H135847   4.696   1.914   4.923
11968TIP3    H235848   4.821   1.886   4.843
11969TIP3   OH235849   4.658   3.447   2.901
11969TIP3    H135850   4.724   3.472   2.965
11969TIP3    H235851   4.681   3.496   2.822
11970TIP3   OH235852   6.165   3.191   5.497
11970TIP3    H135853   6.223   3.250   5.546
11970TIP3    H235854   6.107   3.154   5.563
11971TIP3   OH235855   4.975   1.551   2.232
11971TIP3    H135856   4.891   1.568   2.190
11971TIP3    H235857   4.997   1.462   2.207
11972TIP3   OH235858   6.251   6.411   0.655
11972TIP3    H135859   6.179   6.426   0.594
11972TIP3    H235860   6.261   6.493   0.703
11973TIP3   OH235861   5.351   6.347   1.371
11973TIP3    H135862   5.317   6.281   1.311
11973TIP3    H235863   5.363   6.301   1.454
11974TIP3   OH235864   2.045   5.650   1.395
11974TIP3    H135865   1.955   5.653   1.426
11974TIP3    H235866   2.087   5.585   1.451
11975TIP3   OH235867   3.036   3.379   1.450
11975TIP3    H135868   3.046   3.285   1.468
11975TIP3    H235869   3.105   3.399   1.386
11976TIP3   OH235870   4.388   6.977   6.687
11976TIP3    H135871   4.464   7.004   6.738
11976TIP3    H235872   4.424   6.929   6.613
11977TIP3   OH235873   3.649   5.933   3.783
11977TIP3    H135874   3.728   5.973   3.746
11977TIP3    H235875   3.625   5.990   3.856
11978TIP3   OH235876   5.437   5.607   1.605
11978TIP3    H135877   5.447   5.512   1.599
11978TIP3    H235878   5.398   5.622   1.691
11979TIP3   OH235879   7.240   1.749   0.094
11979TIP3    H135880   7.285   1.728   0.013
11979TIP3    H235881   7.149   1.724   0.079
11980TIP3   OH235882   1.730   1.110   5.227
11980TIP3    H135883   1.737   1.182   5.164
11980TIP3    H235884   1.698   1.151   5.307
11981TIP3   OH235885   0.486   7.094   5.592
11981TIP3    H135886   0.488   7.009   5.634
11981TIP3    H235887   0.578   7.122   5.588
11982TIP3   OH235888   4.110   6.278   0.060
11982TIP3    H135889   4.126   6.254   0.151
11982TIP3    H235890   4.051   6.210   0.027
11983TIP3   OH235891   4.526   1.650   1.602
11983TIP3    H135892   4.540   1.699   1.683
11983TIP3    H235893   4.608   1.603   1.588
11984TIP3   OH235894   8.076   4.945   1.306
11984TIP3    H135895   8.099   5.035   1.328
11984TIP3    H235896   8.091   4.896   1.387
11985TIP3   OH235897   4.754   3.834   0.644
11985TIP3    H135898   4.771   3.927   0.626
11985TIP3    H235899   4.766   3.791   0.559
11986TIP3   OH235900   1.201   3.432   2.002
11986TIP3    H135901   1.246   3.515   2.018
11986TIP3    H235902   1.257   3.386   1.940
11987TIP3   OH235903   7.060   1.158   0.894
11987TIP3    H135904   7.135   1.166   0.834
11987TIP3    H235905   7.030   1.248   0.907
11988TIP3   OH235906   3.071   0.277   1.892
11988TIP3    H135907   3.055   0.307   1.803
11988TIP3    H235908   2.983   0.264   1.929
11989TIP3   OH235909   5.836   0.352   1.397
11989TIP3    H135910   5.810   0.369   1.306
11989TIP3    H235911   5.758   0.315   1.438
11990TIP3   OH235912   5.539   4.399   4.653
11990TIP3    H135913   5.595   4.323   4.636
11990TIP3    H235914   5.556   4.422   4.744
11991TIP3   OH235915   3.893   0.078   3.413
11991TIP3    H135916   3.975   0.034   3.390
11991TIP3    H235917   3.920   0.161   3.451
11992TIP3   OH235918   0.080   3.589   4.473
11992TIP3    H135919   0.172   3.606   4.493
11992TIP3    H235920   0.048   3.672   4.439
11993TIP3   OH235921   4.493   0.901   1.292
11993TIP3    H135922   4.577   0.890   1.247
11993TIP3    H235923   4.516   0.921   1.383
11994TIP3   OH235924   4.395   4.847   3.341
11994TIP3    H135925   4.424   4.891   3.421
11994TIP3    H235926   4.470   4.854   3.282
11995TIP3   OH235927   8.088   6.670   2.877
11995TIP3    H135928   8.048   6.619   2.806
11995TIP3    H235929   8.165   6.620   2.903
11996TIP3   OH235930   2.713   4.727   4.689
11996TIP3    H135931   2.751   4.642   4.710
11996TIP3    H235932   2.644   4.739   4.755
11997TIP3   OH235933   4.249   4.344   6.384
11997TIP3    H135934   4.318   4.366   6.320
11997TIP3    H235935   4.235   4.250   6.372
11998TIP3   OH235936   1.753   6.731   5.189
11998TIP3    H135937   1.811   6.794   5.146
11998TIP3    H235938   1.807   6.653   5.201
11999TIP3   OH235939   3.237   2.249   5.414
11999TIP3    H135940   3.281   2.323   5.372
11999TIP3    H235941   3.145   2.256   5.387
12000TIP3   OH235942   5.586   6.046   1.210
12000TIP3    H135943   5.570   6.073   1.300
12000TIP3    H235944   5.503   6.006   1.183
12001TIP3   OH235945   3.995   0.796   1.906
12001TIP3    H135946   4.005   0.731   1.976
12001TIP3    H235947   3.915   0.843   1.929
12002TIP3   OH235948   5.107   3.128   0.621
12002TIP3    H135949   5.055   3.187   0.568
12002TIP3    H235950   5.161   3.080   0.558
12003TIP3   OH235951   6.303   2.635   5.563
12003TIP3    H135952   6.271   2.721   5.537
12003TIP3    H235953   6.398   2.644   5.565
12004TIP3   OH235954   0.324   2.244   1.143
12004TIP3    H135955   0.415   2.248   1.113
12004TIP3    H235956   0.312   2.324   1.195
12005TIP3   OH235957   2.332   4.793   2.672
12005TIP3    H135958   2.338   4.760   2.762
12005TIP3    H235959   2.424   4.803   2.645
12006TIP3   OH235960   4.935   0.894   0.254
12006TIP3    H135961   4.862   0.941   0.214
12006TIP3    H235962   4.902   0.806   0.271
12007TIP3   OH235963   0.976   4.488   2.458
12007TIP3    H135964   1.060   4.534   2.465
12007TIP3    H235965   0.950   4.498   2.367
12008TIP3   OH235966   6.240   6.211   4.263
12008TIP3    H135967   6.204   6.244   4.181
12008TIP3    H235968   6.167   6.214   4.325
12009TIP3   OH235969   2.482   7.279   5.113
12009TIP3    H135970   2.419   7.267   5.185
12009TIP3    H235971   2.447   7.353   5.064
12010TIP3   OH235972   8.188   6.881   1.984
12010TIP3    H135973   8.261   6.870   2.046
12010TIP3    H235974   8.205   6.966   1.942
12011TIP3   OH235975   6.648   4.623   4.501
12011TIP3    H135976   6.642   4.645   4.594
12011TIP3    H235977   6.695   4.539   4.499
12012TIP3   OH235978   7.420   6.159   1.312
12012TIP3    H135979   7.504   6.112   1.311
12012TIP3    H235980   7.383   6.143   1.225
12013TIP3   OH235981   6.277   0.500   1.991
12013TIP3    H135982   6.315   0.424   1.948
12013TIP3    H235983   6.182   0.491   1.977
12014TIP3   OH235984   6.978   4.826   1.139
12014TIP3    H135985   6.978   4.745   1.189
12014TIP3    H235986   6.979   4.895   1.205
12015TIP3   OH235987   5.685   6.777   3.146
12015TIP3    H135988   5.596   6.810   3.136
12015TIP3    H235989   5.695   6.712   3.076
12016TIP3   OH235990   5.022   3.399   3.425
12016TIP3    H135991   4.984   3.472   3.474
12016TIP3    H235992   4.949   3.338   3.414
12017TIP3   OH235993   2.468   2.349   3.626
12017TIP3    H135994   2.508   2.339   3.539
12017TIP3    H235995   2.374   2.356   3.607
12018TIP3   OH235996   2.327   5.744   4.690
12018TIP3    H135997   2.249   5.706   4.732
12018TIP3    H235998   2.298   5.763   4.601
12019TIP3   OH235999   6.552   1.426   2.013
12019TIP3    H136000   6.555   1.465   1.926
12019TIP3    H236001   6.644   1.412   2.037
12020TIP3   OH236002   2.260   0.212   0.526
12020TIP3    H136003   2.289   0.139   0.471
12020TIP3    H236004   2.339   0.262   0.543
12021TIP3   OH236005   3.565   3.622   3.965
12021TIP3    H136006   3.492   3.647   3.910
12021TIP3    H236007   3.529   3.557   4.026
12022TIP3   OH236008   5.047   2.268   0.822
12022TIP3    H136009   5.062   2.281   0.916
12022TIP3    H236010   5.008   2.182   0.816
12023TIP3   OH236011   0.006   6.467   1.959
12023TIP3    H136012  -0.045   6.507   1.888
12023TIP3    H236013   0.075   6.531   1.978
12024TIP3   OH236014   4.140   6.298   3.246
12024TIP3    H136015   4.066   6.355   3.270
12024TIP3    H236016   4.163   6.254   3.327
12025TIP3   OH236017   4.204   4.306   2.770
12025TIP3    H136018   4.272   4.309   2.837
12025TIP3    H236019   4.137   4.367   2.801
12026TIP3   OH236020   2.500   2.966   3.017
12026TIP3    H136021   2.413   2.962   2.976
12026TIP3    H236022   2.498   2.896   3.082
12027TIP3   OH236023   7.695   1.269   5.712
12027TIP3    H136024   7.707   1.363   5.716
12027TIP3    H236025   7.690   1.241   5.803
12028TIP3   OH236026   8.120   7.543   0.700
12028TIP3    H136027   8.166   7.625   0.679
12028TIP3    H236028   8.041   7.571   0.746
12029TIP3   OH236029   4.828   1.942   6.504
12029TIP3    H136030   4.797   1.986   6.583
12029TIP3    H236031   4.820   1.848   6.524
12030TIP3   OH236032   5.063   4.108   0.522
12030TIP3    H136033   5.097   4.151   0.444
12030TIP3    H236034   5.141   4.071   0.565
12031TIP3   OH236035   6.432   3.019   2.140
12031TIP3    H136036   6.460   2.959   2.210
12031TIP3    H236037   6.449   2.970   2.059
12032TIP3   OH236038   8.032   3.573   6.470
12032TIP3    H136039   8.011   3.650   6.523
12032TIP3    H236040   8.123   3.586   6.443
12033TIP3   OH236041   3.993   3.929   1.094
12033TIP3    H136042   4.073   3.958   1.051
12033TIP3    H236043   4.007   3.949   1.187
12034TIP3   OH236044   3.611   0.193   0.097
12034TIP3    H136045   3.650   0.223   0.014
12034TIP3    H236046   3.519   0.179   0.076
12035TIP3   OH236047   8.164   2.377   2.118
12035TIP3    H136048   8.222   2.339   2.051
12035TIP3    H236049   8.174   2.472   2.106
12036TIP3   OH236050   7.435   0.241   3.919
12036TIP3    H136051   7.415   0.330   3.949
12036TIP3    H236052   7.387   0.184   3.979
12037TIP3   OH236053   2.020   2.056   6.714
12037TIP3    H136054   2.010   1.963   6.694
12037TIP3    H236055   1.975   2.101   6.643
12038TIP3   OH236056   1.783   2.242   4.370
12038TIP3    H136057   1.786   2.187   4.448
12038TIP3    H236058   1.868   2.228   4.327
12039TIP3   OH236059   1.498   2.810   2.073
12039TIP3    H136060   1.408   2.818   2.040
12039TIP3    H236061   1.552   2.854   2.008
12040TIP3   OH236062   5.342   7.207   2.939
12040TIP3    H136063   5.326   7.292   2.899
12040TIP3    H236064   5.330   7.223   3.033
12041TIP3   OH236065   1.539   6.191   1.668
12041TIP3    H136066   1.504   6.251   1.602
12041TIP3    H236067   1.580   6.248   1.733
12042TIP3   OH236068   5.462   6.982   0.261
12042TIP3    H136069   5.470   7.055   0.324
12042TIP3    H236070   5.551   6.971   0.227
12043TIP3   OH236071   0.855   1.511   5.910
12043TIP3    H136072   0.887   1.425   5.883
12043TIP3    H236073   0.886   1.571   5.842
12044TIP3   OH236074   1.455   5.441   4.468
12044TIP3    H136075   1.382   5.447   4.406
12044TIP3    H236076   1.417   5.466   4.553
12045TIP3   OH236077   3.090   7.238   1.848
12045TIP3    H136078   3.133   7.295   1.912
12045TIP3    H236079   3.063   7.297   1.777
12046TIP3   OH236080   2.601   7.634   0.642
12046TIP3    H136081   2.527   7.575   0.660
12046TIP3    H236082   2.674   7.597   0.692
12047TIP3   OH236083   0.926   4.798   2.343
12047TIP3    H136084   0.849   4.763   2.298
12047TIP3    H236085   0.952   4.874   2.291
12048TIP3   OH236086   1.965   0.211   3.425
12048TIP3    H136087   2.055   0.215   3.458
12048TIP3    H236088   1.916   0.270   3.483
12049TIP3   OH236089   6.948   0.024   4.043
12049TIP3    H136090   6.895  -0.055   4.039
12049TIP3    H236091   6.886   0.094   4.062
12050TIP3   OH236092   1.695   2.792   6.122
12050TIP3    H136093   1.696   2.851   6.198
12050TIP3    H236094   1.739   2.713   6.153
12051TIP3   OH236095   7.836   7.194   2.356
12051TIP3    H136096   7.924   7.181   2.323
12051TIP3    H236097   7.794   7.253   2.293
12052TIP3   OH236098   6.619   0.157   2.632
12052TIP3    H136099   6.595   0.207   2.554
12052TIP3    H236100   6.633   0.068   2.599
12053TIP3   OH236101   5.796   2.081   1.991
12053TIP3    H136102   5.723   2.024   2.017
12053TIP3    H236103   5.758   2.169   1.992
12054TIP3   OH236104   7.929   4.575   4.158
12054TIP3    H136105   7.899   4.597   4.070
12054TIP3    H236106   7.883   4.636   4.216
12055TIP3   OH236107   2.910   1.965   5.127
12055TIP3    H136108   2.857   1.885   5.121
12055TIP3    H236109   2.913   1.998   5.037
12056TIP3   OH236110   6.318   3.723   1.431
12056TIP3    H136111   6.283   3.808   1.460
12056TIP3    H236112   6.350   3.740   1.343
12057TIP3   OH236113   0.264   3.504   3.081
12057TIP3    H136114   0.312   3.586   3.098
12057TIP3    H236115   0.332   3.437   3.080
12058TIP3   OH236116   6.220   1.772   4.349
12058TIP3    H136117   6.173   1.750   4.268
12058TIP3    H236118   6.165   1.836   4.392
12059TIP3   OH236119   0.742   5.381   1.968
12059TIP3    H136120   0.730   5.428   1.885
12059TIP3    H236121   0.662   5.330   1.979
12060TIP3   OH236122   5.926   6.072   5.935
12060TIP3    H136123   5.836   6.041   5.949
12060TIP3    H236124   5.950   6.112   6.019
12061TIP3   OH236125   8.027   6.420   0.568
12061TIP3    H136126   7.987   6.345   0.613
12061TIP3    H236127   8.087   6.381   0.505
12062TIP3   OH236128   8.281   3.620   4.080
12062TIP3    H136129   8.269   3.532   4.114
12062TIP3    H236130   8.256   3.615   3.988
12063TIP3   OH236131   5.576   5.771   5.440
12063TIP3    H136132   5.567   5.678   5.421
12063TIP3    H236133   5.579   5.776   5.536
12064TIP3   OH236134   7.703   7.614   4.680
12064TIP3    H136135   7.712   7.666   4.600
12064TIP3    H236136   7.737   7.528   4.657
12065TIP3   OH236137   0.483   6.443   0.693
12065TIP3    H136138   0.437   6.517   0.732
12065TIP3    H236139   0.553   6.422   0.754
12066TIP3   OH236140   0.557   3.441   3.160
12066TIP3    H136141   0.566   3.498   3.083
12066TIP3    H236142   0.645   3.410   3.177
12067TIP3   OH236143   4.698   6.123   0.376
12067TIP3    H136144   4.741   6.040   0.355
12067TIP3    H236145   4.753   6.189   0.332
12068TIP3   OH236146   3.697   1.863   5.781
12068TIP3    H136147   3.758   1.790   5.790
12068TIP3    H236148   3.716   1.919   5.857
12069TIP3   OH236149   2.024   3.722   6.126
12069TIP3    H136150   2.008   3.628   6.131
12069TIP3    H236151   2.068   3.734   6.042
12070TIP3   OH236152   5.767   1.953   1.285
12070TIP3    H136153   5.777   1.964   1.191
12070TIP3    H236154   5.744   2.040   1.318
12071TIP3   OH236155   0.922   5.176   3.745
12071TIP3    H136156   1.001   5.138   3.707
12071TIP3    H236157   0.853   5.158   3.681
12072TIP3   OH236158   5.955   2.991   6.235
12072TIP3    H136159   5.896   2.985   6.160
12072TIP3    H236160   5.933   2.916   6.289
12073TIP3   OH236161   0.935   3.442   3.719
12073TIP3    H136162   0.967   3.522   3.759
12073TIP3    H236163   0.915   3.384   3.792
12074TIP3   OH236164   8.125   5.682   3.287
12074TIP3    H136165   8.166   5.693   3.372
12074TIP3    H236166   8.173   5.610   3.246
12075TIP3   OH236167   7.110   1.656   1.026
12075TIP3    H136168   7.047   1.728   1.023
12075TIP3    H236169   7.129   1.645   1.120
12076TIP3   OH236170   6.408   1.508   0.036
12076TIP3    H136171   6.479   1.558  -0.004
12076TIP3    H236172   6.396   1.433  -0.022
12077TIP3   OH236173   4.567   0.775   4.191
12077TIP3    H136174   4.531   0.861   4.167
12077TIP3    H236175   4.637   0.760   4.127
12078TIP3   OH236176   1.636   0.765   2.538
12078TIP3    H136177   1.708   0.828   2.546
12078TIP3    H236178   1.653   0.699   2.604
12079TIP3   OH236179   3.658   5.780   4.422
12079TIP3    H136180   3.589   5.737   4.472
12079TIP3    H236181   3.612   5.835   4.359
12080TIP3   OH236182   0.206   1.824   1.411
12080TIP3    H136183   0.245   1.753   1.461
12080TIP3    H236184   0.138   1.783   1.359
12081TIP3   OH236185   0.354   5.912   6.145
12081TIP3    H136186   0.449   5.908   6.140
12081TIP3    H236187   0.327   5.820   6.150
12082TIP3   OH236188   5.655   0.135   2.857
12082TIP3    H136189   5.679   0.214   2.906
12082TIP3    H236190   5.573   0.157   2.814
12083TIP3   OH236191   2.988   4.703   2.949
12083TIP3    H136192   2.998   4.640   2.878
12083TIP3    H236193   2.931   4.659   3.012
12084TIP3   OH236194   0.092   3.086   5.504
12084TIP3    H136195   0.065   3.174   5.480
12084TIP3    H236196   0.187   3.087   5.493
12085TIP3   OH236197   4.455   4.094   5.796
12085TIP3    H136198   4.424   4.154   5.864
12085TIP3    H236199   4.544   4.072   5.823
12086TIP3   OH236200   7.410   1.311   2.782
12086TIP3    H136201   7.431   1.404   2.788
12086TIP3    H236202   7.416   1.279   2.872
12087TIP3   OH236203   2.222   3.397   0.973
12087TIP3    H136204   2.235   3.490   0.993
12087TIP3    H236205   2.129   3.391   0.950
12088TIP3   OH236206   7.504   3.639   4.276
12088TIP3    H136207   7.484   3.640   4.182
12088TIP3    H236208   7.429   3.682   4.317
12089TIP3   OH236209   4.116   4.843   2.854
12089TIP3    H136210   4.069   4.854   2.937
12089TIP3    H236211   4.192   4.789   2.876
12090TIP3   OH236212   7.161   3.180   0.405
12090TIP3    H136213   7.146   3.201   0.497
12090TIP3    H236214   7.243   3.131   0.404
12091TIP3   OH236215   5.038   3.713   4.027
12091TIP3    H136216   5.128   3.683   4.022
12091TIP3    H236217   5.015   3.707   4.120
12092TIP3   OH236218   7.442   2.873   6.157
12092TIP3    H136219   7.484   2.951   6.193
12092TIP3    H236220   7.351   2.898   6.144
12093TIP3   OH236221   3.746   2.882   5.352
12093TIP3    H136222   3.805   2.888   5.276
12093TIP3    H236223   3.721   2.972   5.371
12094TIP3   OH236224   7.201   6.235   5.477
12094TIP3    H136225   7.254   6.159   5.456
12094TIP3    H236226   7.214   6.295   5.404
12095TIP3   OH236227   0.489   3.524   1.677
12095TIP3    H136228   0.428   3.467   1.630
12095TIP3    H236229   0.563   3.534   1.617
12096TIP3   OH236230   5.603   0.665   3.089
12096TIP3    H136231   5.590   0.636   2.999
12096TIP3    H236232   5.607   0.584   3.140
12097TIP3   OH236233   2.780   5.935   2.213
12097TIP3    H136234   2.705   5.979   2.173
12097TIP3    H236235   2.819   6.002   2.270
12098TIP3   OH236236   7.182   7.113   5.298
12098TIP3    H136237   7.111   7.154   5.348
12098TIP3    H236238   7.242   7.079   5.365
12099TIP3   OH236239   3.962   0.561   3.270
12099TIP3    H136240   3.978   0.650   3.300
12099TIP3    H236241   3.893   0.569   3.205
12100TIP3   OH236242   0.089   5.698   4.470
12100TIP3    H136243   0.171   5.649   4.466
12100TIP3    H236244   0.026   5.637   4.508
12101TIP3   OH236245   5.560   7.189   1.426
12101TIP3    H136246   5.561   7.096   1.445
12101TIP3    H236247   5.651   7.217   1.435
12102TIP3   OH236248   6.015   2.029   1.468
12102TIP3    H136249   5.926   2.041   1.434
12102TIP3    H236250   6.003   2.020   1.563
12103TIP3   OH236251   3.526   5.303   0.586
12103TIP3    H136252   3.598   5.278   0.643
12103TIP3    H236253   3.457   5.239   0.605
12104TIP3   OH236254   5.570   4.663   1.187
12104TIP3    H136255   5.556   4.614   1.105
12104TIP3    H236256   5.520   4.614   1.252
12105TIP3   OH236257   2.204   1.256   0.384
12105TIP3    H136258   2.192   1.248   0.479
12105TIP3    H236259   2.126   1.216   0.347
12106TIP3   OH236260   2.613   7.593   2.381
12106TIP3    H136261   2.707   7.587   2.364
12106TIP3    H236262   2.605   7.658   2.451
12107TIP3   OH236263   0.111   5.073   0.442
12107TIP3    H136264   0.025   5.035   0.426
12107TIP3    H236265   0.171   4.999   0.440
12108TIP3   OH236266   6.239   0.587   6.630
12108TIP3    H136267   6.237   0.678   6.660
12108TIP3    H236268   6.149   0.570   6.601
12109TIP3   OH236269   7.878   6.451   0.173
12109TIP3    H136270   7.876   6.357   0.187
12109TIP3    H236271   7.814   6.467   0.103
12110TIP3   OH236272   2.421   7.379   1.513
12110TIP3    H136273   2.506   7.422   1.517
12110TIP3    H236274   2.422   7.334   1.428
12111TIP3   OH236275   7.184   5.751   4.646
12111TIP3    H136276   7.152   5.721   4.561
12111TIP3    H236277   7.254   5.691   4.668
12112TIP3   OH236278   8.228   5.894   0.548
12112TIP3    H136279   8.248   5.802   0.564
12112TIP3    H236280   8.261   5.941   0.624
12113TIP3   OH236281   1.294   3.470   4.622
12113TIP3    H136282   1.295   3.420   4.541
12113TIP3    H236283   1.213   3.520   4.619
12114TIP3   OH236284   2.647   7.433   1.910
12114TIP3    H136285   2.696   7.372   1.965
12114TIP3    H236286   2.711   7.463   1.845
12115TIP3   OH236287   5.162   2.995   1.129
12115TIP3    H136288   5.226   3.043   1.075
12115TIP3    H236289   5.078   3.038   1.110
12116TIP3   OH236290   5.377   0.386   1.786
12116TIP3    H136291   5.308   0.406   1.722
12116TIP3    H236292   5.338   0.408   1.871
12117TIP3   OH236293   5.146   0.838   3.776
12117TIP3    H136294   5.147   0.806   3.865
12117TIP3    H236295   5.153   0.760   3.721
12118TIP3   OH236296   6.236   2.712   2.750
12118TIP3    H136297   6.323   2.679   2.773
12118TIP3    H236298   6.242   2.807   2.760
12119TIP3   OH236299   4.361   4.556   4.896
12119TIP3    H136300   4.369   4.462   4.911
12119TIP3    H236301   4.424   4.575   4.826
12120TIP3   OH236302   1.549   3.341   5.723
12120TIP3    H136303   1.624   3.327   5.665
12120TIP3    H236304   1.556   3.431   5.752
12121TIP3   OH236305   0.678   3.461   5.020
12121TIP3    H136306   0.723   3.501   5.094
12121TIP3    H236307   0.585   3.480   5.035
12122TIP3   OH236308   6.030   3.003   0.777
12122TIP3    H136309   6.116   3.035   0.748
12122TIP3    H236310   6.050   2.922   0.824
12123TIP3   OH236311   6.879   2.924   1.072
12123TIP3    H136312   6.972   2.917   1.092
12123TIP3    H236313   6.872   3.000   1.013
12124TIP3   OH236314   6.271   5.089   0.802
12124TIP3    H136315   6.341   5.089   0.737
12124TIP3    H236316   6.310   5.131   0.879
12125TIP3   OH236317   7.139   0.151   1.804
12125TIP3    H136318   7.190   0.092   1.860
12125TIP3    H236319   7.195   0.228   1.793
12126TIP3   OH236320   7.905   1.924   2.229
12126TIP3    H136321   7.834   1.935   2.166
12126TIP3    H236322   7.925   1.830   2.227
12127TIP3   OH236323   3.560   1.582   0.208
12127TIP3    H136324   3.563   1.673   0.235
12127TIP3    H236325   3.495   1.542   0.266
12128TIP3   OH236326   2.316   0.643   0.471
12128TIP3    H136327   2.291   0.688   0.391
12128TIP3    H236328   2.396   0.595   0.448
12129TIP3   OH236329   8.236   1.879   0.713
12129TIP3    H136330   8.267   1.887   0.803
12129TIP3    H236331   8.264   1.792   0.685
12130TIP3   OH236332   3.946   6.797   0.938
12130TIP3    H136333   4.007   6.811   1.010
12130TIP3    H236334   3.861   6.825   0.973
12131TIP3   OH236335   7.554   6.201   6.291
12131TIP3    H136336   7.621   6.133   6.282
12131TIP3    H236337   7.478   6.166   6.245
12132TIP3   OH236338   3.844   2.974   6.734
12132TIP3    H136339   3.884   2.942   6.654
12132TIP3    H236340   3.754   2.940   6.731
12133TIP3   OH236341   7.782   3.489   3.363
12133TIP3    H136342   7.790   3.443   3.279
12133TIP3    H236343   7.703   3.542   3.354
12134TIP3   OH236344   5.833   1.898   5.784
12134TIP3    H136345   5.881   1.939   5.711
12134TIP3    H236346   5.775   1.835   5.741
12135TIP3   OH236347  -0.030   4.704   4.454
12135TIP3    H136348  -0.028   4.747   4.368
12135TIP3    H236349   0.061   4.680   4.471
12136TIP3   OH236350   3.227   5.583   0.195
12136TIP3    H136351   3.235   5.665   0.243
12136TIP3    H236352   3.155   5.536   0.238
12137TIP3   OH236353   4.946   4.258   2.538
12137TIP3    H136354   4.967   4.185   2.597
12137TIP3    H236355   4.876   4.225   2.483
12138TIP3   OH236356   3.874   4.302   4.425
12138TIP3    H136357   3.938   4.257   4.369
12138TIP3    H236358   3.793   4.302   4.374
12139TIP3   OH236359   0.560   7.744   2.883
12139TIP3    H136360   0.621   7.770   2.813
12139TIP3    H236361   0.609   7.757   2.964
12140TIP3   OH236362   7.290   2.823   0.203
12140TIP3    H136363   7.329   2.856   0.121
12140TIP3    H236364   7.254   2.901   0.245
12141TIP3   OH236365   0.493   3.531   6.645
12141TIP3    H136366   0.437   3.606   6.623
12141TIP3    H236367   0.547   3.562   6.718
12142TIP3   OH236368   5.232   0.176   2.246
12142TIP3    H136369   5.153   0.146   2.200
12142TIP3    H236370   5.204   0.185   2.337
12143TIP3   OH236371   7.136   2.566   2.565
12143TIP3    H136372   7.216   2.610   2.534
12143TIP3    H236373   7.118   2.606   2.649
12144TIP3   OH236374   3.118   4.844   6.134
12144TIP3    H136375   3.130   4.904   6.060
12144TIP3    H236376   3.154   4.761   6.104
12145TIP3   OH236377   6.133   2.876   2.997
12145TIP3    H136378   6.038   2.880   2.989
12145TIP3    H236379   6.166   2.883   2.908
12146TIP3   OH236380   0.388   4.550   3.609
12146TIP3    H136381   0.369   4.628   3.557
12146TIP3    H236382   0.459   4.506   3.561
12147TIP3   OH236383   7.102   6.780   0.540
12147TIP3    H136384   7.112   6.862   0.492
12147TIP3    H236385   7.007   6.769   0.550
12148TIP3   OH236386   3.681   1.638   3.730
12148TIP3    H136387   3.627   1.587   3.669
12148TIP3    H236388   3.750   1.577   3.757
12149TIP3   OH236389   4.164   2.058   1.196
12149TIP3    H136390   4.087   2.036   1.143
12149TIP3    H236391   4.204   2.132   1.152
12150TIP3   OH236392   1.112   0.143   2.892
12150TIP3    H136393   1.053   0.153   2.967
12150TIP3    H236394   1.119   0.048   2.880
12151TIP3   OH236395   6.416   3.795   2.362
12151TIP3    H136396   6.433   3.883   2.328
12151TIP3    H236397   6.342   3.762   2.310
12152TIP3   OH236398   2.170   4.050   1.694
12152TIP3    H136399   2.083   4.031   1.729
12152TIP3    H236400   2.161   4.136   1.654
12153TIP3   OH236401   6.869   5.762   4.738
12153TIP3    H136402   6.831   5.847   4.761
12153TIP3    H236403   6.953   5.783   4.697
12154TIP3   OH236404   4.538   0.279   4.654
12154TIP3    H136405   4.579   0.342   4.595
12154TIP3    H236406   4.450   0.267   4.619
12155TIP3   OH236407   1.080   0.550   3.465
12155TIP3    H136408   1.071   0.639   3.498
12155TIP3    H236409   1.098   0.561   3.371
12156TIP3   OH236410   3.254   2.459   2.336
12156TIP3    H136411   3.224   2.521   2.270
12156TIP3    H236412   3.270   2.378   2.288
12157TIP3   OH236413   5.603   3.408   4.897
12157TIP3    H136414   5.573   3.330   4.850
12157TIP3    H236415   5.523   3.459   4.914
12158TIP3   OH236416   1.011   2.099   4.793
12158TIP3    H136417   0.998   2.148   4.874
12158TIP3    H236418   1.092   2.049   4.808
12159TIP3   OH236419   7.240   4.390   5.975
12159TIP3    H136420   7.332   4.366   5.989
12159TIP3    H236421   7.243   4.482   5.948
12160TIP3   OH236422   1.479   0.100   5.827
12160TIP3    H136423   1.463   0.068   5.916
12160TIP3    H236424   1.573   0.120   5.826
12161TIP3   OH236425   1.319   5.227   0.086
12161TIP3    H136426   1.271   5.237   0.168
12161TIP3    H236427   1.292   5.142   0.053
12162TIP3   OH236428   7.184   0.726   2.531
12162TIP3    H136429   7.241   0.738   2.456
12162TIP3    H236430   7.193   0.806   2.582
12163TIP3   OH236431   6.282   4.289   1.833
12163TIP3    H136432   6.286   4.214   1.774
12163TIP3    H236433   6.214   4.346   1.797
12164TIP3   OH236434   1.869   6.913   2.288
12164TIP3    H136435   1.834   6.949   2.369
12164TIP3    H236436   1.792   6.887   2.238
12165TIP3   OH236437   5.112   2.569   3.579
12165TIP3    H136438   5.018   2.586   3.580
12165TIP3    H236439   5.146   2.615   3.655
12166TIP3   OH236440   3.738   5.935   5.634
12166TIP3    H136441   3.799   5.930   5.708
12166TIP3    H236442   3.679   5.860   5.646
12167TIP3   OH236443   1.794   4.892   2.270
12167TIP3    H136444   1.720   4.832   2.262
12167TIP3    H236445   1.837   4.888   2.184
12168TIP3   OH236446   0.135   1.225   2.290
12168TIP3    H136447   0.110   1.293   2.227
12168TIP3    H236448   0.052   1.193   2.325
12169TIP3   OH236449   5.832   5.729   2.730
12169TIP3    H136450   5.775   5.741   2.654
12169TIP3    H236451   5.822   5.637   2.753
12170TIP3   OH236452   1.896   3.952   3.792
12170TIP3    H136453   1.986   3.952   3.826
12170TIP3    H236454   1.901   4.001   3.710
12171TIP3   OH236455   1.851   1.199   6.143
12171TIP3    H136456   1.796   1.141   6.196
12171TIP3    H236457   1.934   1.203   6.190
12172TIP3   OH236458   0.957   3.969   3.213
12172TIP3    H136459   0.983   4.007   3.129
12172TIP3    H236460   0.884   3.911   3.191
12173TIP3   OH236461   0.009   4.751   3.649
12173TIP3    H136462   0.029   4.658   3.661
12173TIP3    H236463   0.021   4.766   3.555
12174TIP3   OH236464   2.841   3.209   5.071
12174TIP3    H136465   2.920   3.159   5.048
12174TIP3    H236466   2.872   3.299   5.084
12175TIP3   OH236467   3.506   7.075   6.332
12175TIP3    H136468   3.460   7.147   6.375
12175TIP3    H236469   3.477   6.997   6.378
12176TIP3   OH236470   2.943   7.390   4.464
12176TIP3    H136471   2.851   7.407   4.482
12176TIP3    H236472   2.965   7.314   4.518
12177TIP3   OH236473   0.569   2.845   0.300
12177TIP3    H136474   0.554   2.904   0.374
12177TIP3    H236475   0.598   2.763   0.341
12178TIP3   OH236476   5.230   3.938   2.755
12178TIP3    H136477   5.195   3.904   2.673
12178TIP3    H236478   5.235   4.033   2.743
12179TIP3   OH236479   6.836   1.443   1.973
12179TIP3    H136480   6.848   1.413   1.883
12179TIP3    H236481   6.890   1.521   1.981
12180TIP3   OH236482   5.003   4.590   2.215
12180TIP3    H136483   5.087   4.606   2.257
12180TIP3    H236484   5.023   4.534   2.141
12181TIP3   OH236485   6.323   5.611   2.266
12181TIP3    H136486   6.231   5.604   2.292
12181TIP3    H236487   6.321   5.650   2.179
12182TIP3   OH236488   5.472   2.473   0.986
12182TIP3    H136489   5.425   2.459   0.904
12182TIP3    H236490   5.562   2.445   0.968
12183TIP3   OH236491   5.764   4.284   5.856
12183TIP3    H136492   5.847   4.316   5.892
12183TIP3    H236493   5.717   4.364   5.830
12184TIP3   OH236494   6.949   2.806   1.931
12184TIP3    H136495   6.948   2.874   1.999
12184TIP3    H236496   6.973   2.726   1.977
12185TIP3   OH236497   2.518   1.197   5.941
12185TIP3    H136498   2.606   1.233   5.941
12185TIP3    H236499   2.525   1.114   5.894
12186TIP3   OH236500   3.036   1.074   1.461
12186TIP3    H136501   3.093   1.015   1.412
12186TIP3    H236502   2.984   1.118   1.393
12187TIP3   OH236503   2.135   1.356   2.079
12187TIP3    H136504   2.053   1.391   2.045
12187TIP3    H236505   2.138   1.266   2.046
12188TIP3   OH236506   3.653   5.326   4.215
12188TIP3    H136507   3.706   5.375   4.278
12188TIP3    H236508   3.682   5.235   4.225
12189TIP3   OH236509   0.565   0.367   0.659
12189TIP3    H136510   0.522   0.451   0.679
12189TIP3    H236511   0.658   0.387   0.657
12190TIP3   OH236512   5.617   6.348   3.106
12190TIP3    H136513   5.678   6.277   3.129
12190TIP3    H236514   5.591   6.385   3.190
12191TIP3   OH236515   3.836   3.868   5.922
12191TIP3    H136516   3.811   3.828   5.839
12191TIP3    H236517   3.760   3.921   5.947
12192TIP3   OH236518   2.914   6.616   4.503
12192TIP3    H136519   2.820   6.600   4.497
12192TIP3    H236520   2.949   6.541   4.552
12193TIP3   OH236521   6.900   0.807   4.654
12193TIP3    H136522   6.951   0.807   4.735
12193TIP3    H236523   6.953   0.758   4.591
12194TIP3   OH236524   1.743   5.553   4.568
12194TIP3    H136525   1.652   5.523   4.568
12194TIP3    H236526   1.793   5.476   4.596
12195TIP3   OH236527   6.515   4.514   0.914
12195TIP3    H136528   6.554   4.507   0.827
12195TIP3    H236529   6.509   4.423   0.944
12196TIP3   OH236530   6.064   4.911   6.429
12196TIP3    H136531   6.131   4.977   6.412
12196TIP3    H236532   6.020   4.899   6.345
12197TIP3   OH236533   5.447   3.073   0.036
12197TIP3    H136534   5.435   2.979   0.046
12197TIP3    H236535   5.542   3.086   0.046
12198TIP3   OH236536   7.699   3.717   5.458
12198TIP3    H136537   7.767   3.777   5.489
12198TIP3    H236538   7.738   3.630   5.468
12199TIP3   OH236539   4.401   2.090   6.084
12199TIP3    H136540   4.393   2.185   6.076
12199TIP3    H236541   4.493   2.074   6.106
12200TIP3   OH236542   4.608   5.763   2.503
12200TIP3    H136543   4.671   5.702   2.542
12200TIP3    H236544   4.579   5.718   2.423
12201TIP3   OH236545   1.750   2.814   2.529
12201TIP3    H136546   1.714   2.856   2.450
12201TIP3    H236547   1.677   2.765   2.566
12202TIP3   OH236548   2.258   0.393   3.004
12202TIP3    H136549   2.274   0.306   3.041
12202TIP3    H236550   2.341   0.439   3.014
12203TIP3   OH236551   8.030   2.609   3.419
12203TIP3    H136552   8.057   2.553   3.347
12203TIP3    H236553   8.096   2.679   3.420
12204TIP3   OH236554   5.892   4.462   3.343
12204TIP3    H136555   5.877   4.461   3.437
12204TIP3    H236556   5.935   4.379   3.324
12205TIP3   OH236557   0.955   5.783   1.896
12205TIP3    H136558   0.920   5.753   1.812
12205TIP3    H236559   0.898   5.742   1.961
12206TIP3   OH236560   4.028   6.760   0.075
12206TIP3    H136561   4.012   6.686   0.134
12206TIP3    H236562   4.090   6.726   0.010
12207TIP3   OH236563   6.781   5.075   0.078
12207TIP3    H136564   6.707   5.121   0.038
12207TIP3    H236565   6.754   5.061   0.169
12208TIP3   OH236566   6.130   4.137   1.261
12208TIP3    H136567   6.216   4.139   1.219
12208TIP3    H236568   6.079   4.203   1.214
12209TIP3   OH236569   0.290   5.148   5.428
12209TIP3    H136570   0.259   5.137   5.338
12209TIP3    H236571   0.354   5.077   5.439
12210TIP3   OH236572   4.979   5.826   6.484
12210TIP3    H136573   4.912   5.887   6.516
12210TIP3    H236574   4.959   5.816   6.391
12211TIP3   OH236575   7.315   2.285   6.733
12211TIP3    H136576   7.232   2.284   6.685
12211TIP3    H236577   7.372   2.226   6.684
12212TIP3   OH236578   1.871   0.655   4.198
12212TIP3    H136579   1.861   0.577   4.143
12212TIP3    H236580   1.951   0.696   4.165
12213TIP3   OH236581   4.780   7.028   6.511
12213TIP3    H136582   4.775   6.933   6.498
12213TIP3    H236583   4.746   7.065   6.430
12214TIP3   OH236584   4.529   5.951   4.149
12214TIP3    H136585   4.604   5.914   4.196
12214TIP3    H236586   4.562   6.032   4.111
12215TIP3   OH236587   3.763   7.429   3.779
12215TIP3    H136588   3.849   7.467   3.759
12215TIP3    H236589   3.775   7.386   3.864
12216TIP3   OH236590   7.017   6.061   0.875
12216TIP3    H136591   7.074   6.073   0.799
12216TIP3    H236592   7.011   6.148   0.914
12217TIP3   OH236593   2.346   6.113   5.098
12217TIP3    H136594   2.428   6.160   5.082
12217TIP3    H236595   2.365   6.023   5.071
12218TIP3   OH236596   0.104   2.791   4.619
12218TIP3    H136597   0.169   2.761   4.682
12218TIP3    H236598   0.043   2.844   4.671
12219TIP3   OH236599   1.101   4.347   5.449
12219TIP3    H136600   1.126   4.383   5.534
12219TIP3    H236601   1.050   4.269   5.469
12220TIP3   OH236602   0.743   0.656   2.166
12220TIP3    H136603   0.663   0.691   2.126
12220TIP3    H236604   0.755   0.570   2.125
12221TIP3   OH236605   5.621   0.857   2.073
12221TIP3    H136606   5.705   0.886   2.037
12221TIP3    H236607   5.577   0.937   2.099
12222TIP3   OH236608   6.009   3.736   3.339
12222TIP3    H136609   6.074   3.673   3.311
12222TIP3    H236610   5.972   3.699   3.420
12223TIP3   OH236611   3.582   7.595   5.689
12223TIP3    H136612   3.502   7.645   5.708
12223TIP3    H236613   3.647   7.629   5.750
12224TIP3   OH236614   6.145   5.812   2.678
12224TIP3    H136615   6.167   5.892   2.630
12224TIP3    H236616   6.054   5.825   2.706
12225TIP3   OH236617   4.785   1.262   6.789
12225TIP3    H136618   4.774   1.169   6.770
12225TIP3    H236619   4.807   1.301   6.704
12226TIP3   OH236620   1.475   3.826   1.736
12226TIP3    H136621   1.401   3.885   1.719
12226TIP3    H236622   1.552   3.875   1.707
12227TIP3   OH236623   8.012   1.828   4.332
12227TIP3    H136624   8.072   1.798   4.399
12227TIP3    H236625   8.022   1.923   4.332
12228TIP3   OH236626   7.469   2.820   6.693
12228TIP3    H136627   7.422   2.737   6.694
12228TIP3    H236628   7.559   2.797   6.672
12229TIP3   OH236629   2.434   4.972   4.284
12229TIP3    H136630   2.435   5.031   4.360
12229TIP3    H236631   2.369   5.010   4.225
12230TIP3   OH236632   8.028   7.828   0.031
12230TIP3    H136633   8.079   7.875   0.097
12230TIP3    H236634   8.078   7.749   0.013
12231TIP3   OH236635   2.461   2.410   0.681
12231TIP3    H136636   2.509   2.343   0.632
12231TIP3    H236637   2.523   2.440   0.748
12232TIP3   OH236638   5.339   2.554   1.536
12232TIP3    H136639   5.319   2.487   1.600
12232TIP3    H236640   5.401   2.612   1.580
12233TIP3   OH236641   8.206   4.125   2.489
12233TIP3    H136642   8.186   4.034   2.511
12233TIP3    H236643   8.289   4.142   2.534
12234TIP3   OH236644   0.518   1.389   5.202
12234TIP3    H136645   0.486   1.354   5.285
12234TIP3    H236646   0.531   1.311   5.147
12235TIP3   OH236647   4.359   4.936   6.642
12235TIP3    H136648   4.275   4.952   6.600
12235TIP3    H236649   4.403   4.873   6.584
12236TIP3   OH236650   6.444   5.677   1.136
12236TIP3    H136651   6.416   5.766   1.157
12236TIP3    H236652   6.538   5.685   1.120
12237TIP3   OH236653   8.198   4.022   0.116
12237TIP3    H136654   8.220   3.929   0.116
12237TIP3    H236655   8.251   4.060   0.047
12238TIP3   OH236656   7.615   2.257   2.507
12238TIP3    H136657   7.675   2.326   2.535
12238TIP3    H236658   7.575   2.291   2.427
12239TIP3   OH236659   2.769   1.337   5.903
12239TIP3    H136660   2.800   1.252   5.932
12239TIP3    H236661   2.843   1.375   5.855
12240TIP3   OH236662   3.761   2.047   5.581
12240TIP3    H136663   3.850   2.072   5.605
12240TIP3    H236664   3.734   1.984   5.648
12241TIP3   OH236665   7.265   4.642   4.171
12241TIP3    H136666   7.310   4.718   4.209
12241TIP3    H236667   7.175   4.649   4.202
12242TIP3   OH236668   1.889   4.895   0.681
12242TIP3    H136669   1.920   4.985   0.690
12242TIP3    H236670   1.966   4.845   0.653
12243TIP3   OH236671   8.285   1.406   5.186
12243TIP3    H136672   8.275   1.501   5.199
12243TIP3    H236673   8.339   1.398   5.107
12244TIP3   OH236674   6.014   5.528   4.053
12244TIP3    H136675   5.963   5.560   4.127
12244TIP3    H236676   6.095   5.495   4.092
12245TIP3   OH236677   0.256   6.754   6.678
12245TIP3    H136678   0.290   6.743   6.589
12245TIP3    H236679   0.195   6.682   6.689
12246TIP3   OH236680   7.576   2.982   2.474
12246TIP3    H136681   7.615   3.069   2.483
12246TIP3    H236682   7.636   2.933   2.418
12247TIP3   OH236683   3.740   5.675   6.288
12247TIP3    H136684   3.803   5.678   6.359
12247TIP3    H236685   3.794   5.676   6.208
12248TIP3   OH236686   8.138   5.334   0.262
12248TIP3    H136687   8.092   5.323   0.345
12248TIP3    H236688   8.221   5.376   0.286
12249TIP3   OH236689   0.423   2.653   4.391
12249TIP3    H136690   0.442   2.746   4.404
12249TIP3    H236691   0.330   2.645   4.408
12250TIP3   OH236692   6.183   4.213   5.370
12250TIP3    H136693   6.269   4.174   5.358
12250TIP3    H236694   6.139   4.157   5.434
12251TIP3   OH236695   2.618   2.573   4.842
12251TIP3    H136696   2.666   2.512   4.897
12251TIP3    H236697   2.531   2.576   4.880
12252TIP3   OH236698   2.480   7.225   6.675
12252TIP3    H136699   2.570   7.256   6.669
12252TIP3    H236700   2.427   7.300   6.647
12253TIP3   OH236701   2.207   0.841   1.994
12253TIP3    H136702   2.189   0.748   1.984
12253TIP3    H236703   2.180   0.880   1.911
12254TIP3   OH236704   3.377   6.661   3.462
12254TIP3    H136705   3.335   6.747   3.463
12254TIP3    H236706   3.310   6.603   3.425
12255TIP3   OH236707   4.943   5.713   0.566
12255TIP3    H136708   5.031   5.705   0.531
12255TIP3    H236709   4.938   5.645   0.634
12256TIP3   OH236710   4.699   3.737   0.899
12256TIP3    H136711   4.664   3.652   0.872
12256TIP3    H236712   4.719   3.782   0.817
12257TIP3   OH236713   6.895   7.297   1.329
12257TIP3    H136714   6.894   7.389   1.306
12257TIP3    H236715   6.915   7.251   1.247
12258TIP3   OH236716   0.924   3.849   2.296
12258TIP3    H136717   0.836   3.879   2.273
12258TIP3    H236718   0.910   3.760   2.328
12259TIP3   OH236719   3.498   7.657   2.573
12259TIP3    H136720   3.555   7.716   2.525
12259TIP3    H236721   3.493   7.695   2.661
12260TIP3   OH236722   7.284   3.713   1.608
12260TIP3    H136723   7.273   3.698   1.514
12260TIP3    H236724   7.316   3.802   1.615
12261TIP3   OH236725   6.993   2.584   5.459
12261TIP3    H136726   6.990   2.598   5.554
12261TIP3    H236727   7.051   2.652   5.426
12262TIP3   OH236728   6.491   1.842   3.638
12262TIP3    H136729   6.458   1.791   3.711
12262TIP3    H236730   6.539   1.914   3.678
12263TIP3   OH236731   6.376   6.428   1.921
12263TIP3    H136732   6.449   6.375   1.954
12263TIP3    H236733   6.332   6.459   2.000
12264TIP3   OH236734   1.355   2.255   0.311
12264TIP3    H136735   1.275   2.261   0.259
12264TIP3    H236736   1.398   2.339   0.298
12265TIP3   OH236737   7.311   6.294   2.224
12265TIP3    H136738   7.231   6.255   2.258
12265TIP3    H236739   7.282   6.350   2.152
12266TIP3   OH236740   6.230   5.661   6.437
12266TIP3    H136741   6.224   5.644   6.531
12266TIP3    H236742   6.225   5.574   6.397
12267TIP3   OH236743   6.074   7.262   2.108
12267TIP3    H136744   6.079   7.194   2.175
12267TIP3    H236745   6.042   7.216   2.030
12268TIP3   OH236746   8.214   2.659   2.015
12268TIP3    H136747   8.196   2.720   2.087
12268TIP3    H236748   8.187   2.707   1.937
12269TIP3   OH236749   7.858   4.928   5.913
12269TIP3    H136750   7.884   4.838   5.893
12269TIP3    H236751   7.938   4.980   5.903
12270TIP3   OH236752   1.164   1.827   3.599
12270TIP3    H136753   1.191   1.735   3.607
12270TIP3    H236754   1.197   1.854   3.514
12271TIP3   OH236755   1.002   1.711   5.783
12271TIP3    H136756   1.053   1.779   5.739
12271TIP3    H236757   1.031   1.714   5.874
12272TIP3   OH236758   4.048   1.954   0.155
12272TIP3    H136759   4.100   1.875   0.172
12272TIP3    H236760   3.994   1.931   0.079
12273TIP3   OH236761   6.756   5.479   2.851
12273TIP3    H136762   6.742   5.422   2.927
12273TIP3    H236763   6.679   5.537   2.850
12274TIP3   OH236764   1.250   2.695   6.158
12274TIP3    H136765   1.330   2.649   6.135
12274TIP3    H236766   1.215   2.646   6.233
12275TIP3   OH236767   1.383   6.678   0.775
12275TIP3    H136768   1.354   6.760   0.734
12275TIP3    H236769   1.464   6.702   0.820
12276TIP3   OH236770   3.312   2.726   1.498
12276TIP3    H136771   3.307   2.788   1.426
12276TIP3    H236772   3.378   2.662   1.471
12277TIP3   OH236773   5.283   0.622   5.224
12277TIP3    H136774   5.301   0.688   5.292
12277TIP3    H236775   5.360   0.566   5.224
12278TIP3   OH236776   4.119   6.878   5.533
12278TIP3    H136777   4.046   6.842   5.483
12278TIP3    H236778   4.078   6.923   5.607
12279TIP3   OH236779   3.976   2.179   2.670
12279TIP3    H136780   4.003   2.216   2.753
12279TIP3    H236781   4.042   2.207   2.607
12280TIP3   OH236782   1.348   7.082   3.579
12280TIP3    H136783   1.278   7.079   3.644
12280TIP3    H236784   1.388   6.996   3.581
12281TIP3   OH236785   3.543   3.012   0.028
12281TIP3    H136786   3.485   3.001   0.104
12281TIP3    H236787   3.545   2.926  -0.013
12282TIP3   OH236788   6.254   2.804   3.714
12282TIP3    H136789   6.241   2.853   3.632
12282TIP3    H236790   6.311   2.861   3.766
12283TIP3   OH236791   0.070   5.215   0.656
12283TIP3    H136792   0.124   5.173   0.723
12283TIP3    H236793   0.073   5.155   0.581
12284TIP3   OH236794   2.791   0.026   5.176
12284TIP3    H136795   2.817   0.029   5.268
12284TIP3    H236796   2.759  -0.064   5.164
12285TIP3   OH236797   4.571   7.418   3.289
12285TIP3    H136798   4.553   7.427   3.383
12285TIP3    H236799   4.666   7.402   3.284
12286TIP3   OH236800   4.959   6.594   0.152
12286TIP3    H136801   4.868   6.622   0.144
12286TIP3    H236802   5.010   6.669   0.122
12287TIP3   OH236803   4.361   5.193   2.375
12287TIP3    H136804   4.349   5.179   2.281
12287TIP3    H236805   4.408   5.276   2.381
12288TIP3   OH236806   7.047   2.587   3.026
12288TIP3    H136807   7.067   2.677   3.052
12288TIP3    H236808   7.130   2.552   2.994
12289TIP3   OH236809   3.161   0.706   2.602
12289TIP3    H136810   3.137   0.651   2.528
12289TIP3    H236811   3.182   0.791   2.562
12290TIP3   OH236812   6.768   5.173   5.394
12290TIP3    H136813   6.831   5.132   5.453
12290TIP3    H236814   6.683   5.139   5.422
12291TIP3   OH236815   0.021   5.606   2.108
12291TIP3    H136816   0.087   5.551   2.150
12291TIP3    H236817   0.051   5.695   2.125
12292TIP3   OH236818   3.074   4.700   0.260
12292TIP3    H136819   3.045   4.736   0.343
12292TIP3    H236820   3.151   4.753   0.237
12293TIP3   OH236821   4.082   2.731   5.384
12293TIP3    H136822   4.104   2.797   5.318
12293TIP3    H236823   3.986   2.732   5.387
12294TIP3   OH236824   4.346   0.146   2.824
12294TIP3    H136825   4.280   0.215   2.830
12294TIP3    H236826   4.303   0.075   2.778
12295TIP3   OH236827   0.355   2.129   0.529
12295TIP3    H136828   0.365   2.106   0.621
12295TIP3    H236829   0.345   2.044   0.484
12296TIP3   OH236830   1.813   0.980   1.600
12296TIP3    H136831   1.752   0.921   1.645
12296TIP3    H236832   1.835   0.934   1.519
12297TIP3   OH236833   6.920   3.014   2.193
12297TIP3    H136834   6.846   3.034   2.136
12297TIP3    H236835   6.880   2.980   2.273
12298TIP3   OH236836   7.546   4.341   0.281
12298TIP3    H136837   7.560   4.371   0.371
12298TIP3    H236838   7.616   4.278   0.265
12299TIP3   OH236839   7.998   3.074  -0.004
12299TIP3    H136840   8.063   3.071   0.066
12299TIP3    H236841   7.999   3.165  -0.033
12300TIP3   OH236842   8.061   2.121   2.482
12300TIP3    H136843   8.021   2.103   2.567
12300TIP3    H236844   7.992   2.166   2.433
12301TIP3   OH236845   1.836   6.759   1.538
12301TIP3    H136846   1.745   6.739   1.517
12301TIP3    H236847   1.844   6.854   1.527
12302TIP3   OH236848   0.007   4.973   5.674
12302TIP3    H136849   0.073   5.026   5.719
12302TIP3    H236850   0.046   4.886   5.668
12303TIP3   OH236851   4.725   4.123   2.400
12303TIP3    H136852   4.695   4.096   2.487
12303TIP3    H236853   4.728   4.043   2.349
12304TIP3   OH236854   3.496   4.294   6.424
12304TIP3    H136855   3.587   4.265   6.422
12304TIP3    H236856   3.501   4.388   6.406
12305TIP3   OH236857   0.641   1.296   3.759
12305TIP3    H136858   0.592   1.348   3.823
12305TIP3    H236859   0.665   1.216   3.806
12306TIP3   OH236860   3.412   0.409   1.032
12306TIP3    H136861   3.390   0.503   1.033
12306TIP3    H236862   3.376   0.376   1.115
12307TIP3   OH236863   7.572   6.186   5.493
12307TIP3    H136864   7.502   6.145   5.442
12307TIP3    H236865   7.532   6.263   5.532
12308TIP3   OH236866   1.116   4.236   3.730
12308TIP3    H136867   1.163   4.320   3.733
12308TIP3    H236868   1.068   4.233   3.813
12309TIP3   OH236869   5.958   6.695   2.317
12309TIP3    H136870   5.945   6.776   2.368
12309TIP3    H236871   5.870   6.661   2.304
12310TIP3   OH236872   6.295   2.923   2.411
12310TIP3    H136873   6.334   2.859   2.470
12310TIP3    H236874   6.344   3.003   2.427
12311TIP3   OH236875   2.776   3.525   4.498
12311TIP3    H136876   2.809   3.613   4.521
12311TIP3    H236877   2.681   3.534   4.502
12312TIP3   OH236878   2.682   4.490   5.856
12312TIP3    H136879   2.684   4.553   5.928
12312TIP3    H236880   2.590   4.466   5.847
12313TIP3   OH236881   2.220   1.121   1.958
12313TIP3    H136882   2.242   1.041   2.006
12313TIP3    H236883   2.168   1.090   1.883
12314TIP3   OH236884   7.830   0.335   0.028
12314TIP3    H136885   7.888   0.268   0.065
12314TIP3    H236886   7.751   0.288   0.003
12315TIP3   OH236887   1.443   1.862   5.803
12315TIP3    H136888   1.415   1.909   5.882
12315TIP3    H236889   1.519   1.911   5.771
12316TIP3   OH236890   0.745   2.020   4.823
12316TIP3    H136891   0.709   2.067   4.748
12316TIP3    H236892   0.831   2.059   4.837
12317TIP3   OH236893   4.385   5.656   4.433
12317TIP3    H136894   4.318   5.683   4.370
12317TIP3    H236895   4.432   5.737   4.453
12318TIP3   OH236896   6.871   4.733   0.542
12318TIP3    H136897   6.877   4.645   0.579
12318TIP3    H236898   6.777   4.746   0.526
12319TIP3   OH236899   1.493   5.615   1.306
12319TIP3    H136900   1.407   5.655   1.292
12319TIP3    H236901   1.554   5.689   1.308
12320TIP3   OH236902   7.533   7.830   6.559
12320TIP3    H136903   7.472   7.854   6.628
12320TIP3    H236904   7.482   7.776   6.499
12321TIP3   OH236905   4.271   0.327   3.510
12321TIP3    H136906   4.286   0.289   3.597
12321TIP3    H236907   4.178   0.349   3.509
12322TIP3   OH236908   1.181   3.211   1.573
12322TIP3    H136909   1.126   3.149   1.526
12322TIP3    H236910   1.194   3.283   1.512
12323TIP3   OH236911   7.020   5.266   6.735
12323TIP3    H136912   6.957   5.299   6.799
12323TIP3    H236913   6.974   5.273   6.651
12324TIP3   OH236914   4.580   5.027   6.788
12324TIP3    H136915   4.638   5.086   6.741
12324TIP3    H236916   4.518   4.996   6.721
12325TIP3   OH236917   3.877   4.150   5.558
12325TIP3    H136918   3.971   4.166   5.552
12325TIP3    H236919   3.854   4.174   5.648
12326TIP3   OH236920   5.152   3.378   5.089
12326TIP3    H136921   5.112   3.305   5.042
12326TIP3    H236922   5.137   3.358   5.181
12327TIP3   OH236923   3.038   5.402   0.340
12327TIP3    H136924   3.052   5.345   0.265
12327TIP3    H236925   2.942   5.409   0.347
12328TIP3   OH236926   5.018   4.504   0.173
12328TIP3    H136927   4.965   4.583   0.159
12328TIP3    H236928   4.989   4.471   0.258
12329TIP3   OH236929   6.583   2.083   3.233
12329TIP3    H136930   6.592   1.990   3.253
12329TIP3    H236931   6.529   2.086   3.154
12330TIP3   OH236932   5.494   0.047   3.149
12330TIP3    H136933   5.582   0.027   3.119
12330TIP3    H236934   5.470  -0.028   3.204
12331TIP3   OH236935   0.338   3.985   4.009
12331TIP3    H136936   0.253   4.029   4.004
12331TIP3    H236937   0.318   3.893   4.021
12332TIP3   OH236938   3.404   0.336   4.967
12332TIP3    H136939   3.378   0.246   4.982
12332TIP3    H236940   3.344   0.388   5.021
12333TIP3   OH236941   5.027   6.910   0.038
12333TIP3    H136942   5.116   6.943   0.027
12333TIP3    H236943   4.978   6.985   0.071
12334TIP3   OH236944   0.879   2.418   2.246
12334TIP3    H136945   0.859   2.357   2.318
12334TIP3    H236946   0.796   2.463   2.228
12335TIP3   OH236947   2.745   6.583   4.746
12335TIP3    H136948   2.725   6.626   4.663
12335TIP3    H236949   2.670   6.602   4.802
12336TIP3   OH236950   3.569   7.372   0.551
12336TIP3    H136951   3.557   7.440   0.617
12336TIP3    H236952   3.554   7.290   0.598
12337TIP3   OH236953   0.069   5.863   2.204
12337TIP3    H136954   0.134   5.919   2.246
12337TIP3    H236955  -0.015   5.902   2.227
12338TIP3   OH236956   1.916   3.356   3.895
12338TIP3    H136957   2.005   3.390   3.906
12338TIP3    H236958   1.859   3.427   3.927
12339TIP3   OH236959   2.132   3.831   5.868
12339TIP3    H136960   2.177   3.747   5.875
12339TIP3    H236961   2.095   3.831   5.779
12340TIP3   OH236962   6.764   0.233   4.259
12340TIP3    H136963   6.683   0.257   4.304
12340TIP3    H236964   6.744   0.244   4.166
12341TIP3   OH236965   5.188   1.284   3.607
12341TIP3    H136966   5.265   1.256   3.656
12341TIP3    H236967   5.220   1.354   3.550
12342TIP3   OH236968   1.411   5.702   3.790
12342TIP3    H136969   1.329   5.674   3.750
12342TIP3    H236970   1.459   5.744   3.719
12343TIP3   OH236971   0.391   3.977   2.381
12343TIP3    H136972   0.423   3.998   2.293
12343TIP3    H236973   0.458   3.918   2.417
12344TIP3   OH236974   6.746   1.408  -0.031
12344TIP3    H136975   6.824   1.399   0.023
12344TIP3    H236976   6.716   1.318  -0.046
12345TIP3   OH236977   2.242   4.945   3.077
12345TIP3    H136978   2.282   5.010   3.135
12345TIP3    H236979   2.148   4.952   3.095
12346TIP3   OH236980   6.268   4.424   2.511
12346TIP3    H136981   6.175   4.444   2.516
12346TIP3    H236982   6.273   4.329   2.524
12347TIP3   OH236983   0.206   0.484   6.262
12347TIP3    H136984   0.282   0.542   6.272
12347TIP3    H236985   0.210   0.426   6.338
12348TIP3   OH236986   3.629   1.058   6.523
12348TIP3    H136987   3.615   1.102   6.440
12348TIP3    H236988   3.721   1.073   6.543
12349TIP3   OH236989   4.942   2.581   1.789
12349TIP3    H136990   4.891   2.561   1.867
12349TIP3    H236991   4.881   2.629   1.732
12350TIP3   OH236992   1.950   3.960   1.825
12350TIP3    H136993   1.859   3.951   1.853
12350TIP3    H236994   2.001   3.921   1.895
12351TIP3   OH236995   0.696   2.958   2.513
12351TIP3    H136996   0.769   3.014   2.487
12351TIP3    H236997   0.674   2.987   2.602
12352TIP3   OH236998   7.963   3.401   1.714
12352TIP3    H136999   7.961   3.423   1.807
12352TIP3    H237000   7.982   3.484   1.670
12353TIP3   OH237001   4.072   4.663   2.253
12353TIP3    H137002   4.080   4.582   2.203
12353TIP3    H237003   4.143   4.719   2.221
12354TIP3   OH237004   7.529   2.461   3.073
12354TIP3    H137005   7.586   2.390   3.042
12354TIP3    H237006   7.559   2.538   3.023
12355TIP3   OH237007   6.956   6.009   3.341
12355TIP3    H137008   6.863   5.991   3.352
12355TIP3    H237009   6.968   6.015   3.246
12356TIP3   OH237010   6.830   0.793   5.094
12356TIP3    H137011   6.808   0.794   5.188
12356TIP3    H237012   6.859   0.703   5.078
12357TIP3   OH237013   8.112   0.677   0.103
12357TIP3    H137014   8.152   0.593   0.079
12357TIP3    H237015   8.047   0.693   0.035
12358TIP3   OH237016   5.303   1.973   5.621
12358TIP3    H137017   5.233   2.033   5.596
12358TIP3    H237018   5.315   1.988   5.715
12359TIP3   OH237019   0.486   6.783   3.266
12359TIP3    H137020   0.391   6.775   3.255
12359TIP3    H237021   0.513   6.847   3.202
12360TIP3   OH237022   8.012   2.674   1.203
12360TIP3    H137023   8.105   2.699   1.210
12360TIP3    H237024   8.014   2.580   1.187
12361TIP3   OH237025   8.033   7.645   1.051
12361TIP3    H137026   7.987   7.659   0.969
12361TIP3    H237027   7.965   7.622   1.114
12362TIP3   OH237028   5.491   5.090   0.518
12362TIP3    H137029   5.497   5.104   0.612
12362TIP3    H237030   5.447   5.006   0.509
12363TIP3   OH237031   5.126   5.481   4.012
12363TIP3    H137032   5.103   5.500   3.921
12363TIP3    H237033   5.134   5.386   4.015
12364TIP3   OH237034   2.782   6.723   0.087
12364TIP3    H137035   2.873   6.697   0.079
12364TIP3    H237036   2.749   6.672   0.161
12365TIP3   OH237037   2.210   3.634   6.377
12365TIP3    H137038   2.289   3.663   6.423
12365TIP3    H237039   2.156   3.712   6.370
12366TIP3   OH237040   8.001   6.244   3.272
12366TIP3    H137041   8.067   6.189   3.229
12366TIP3    H237042   8.023   6.333   3.243
12367TIP3   OH237043   7.676   4.446   2.984
12367TIP3    H137044   7.726   4.405   3.056
12367TIP3    H237045   7.617   4.507   3.028
12368TIP3   OH237046   5.056   3.989   3.439
12368TIP3    H137047   5.090   4.076   3.421
12368TIP3    H237048   5.116   3.930   3.394
12369TIP3   OH237049   0.885   5.782   5.744
12369TIP3    H137050   0.863   5.689   5.742
12369TIP3    H237051   0.868   5.809   5.834
12370TIP3   OH237052   1.618   0.935   6.512
12370TIP3    H137053   1.595   0.842   6.518
12370TIP3    H237054   1.577   0.974   6.589
12371TIP3   OH237055   1.764   1.080   3.948
12371TIP3    H137056   1.857   1.059   3.958
12371TIP3    H237057   1.718   1.007   3.988
12372TIP3   OH237058   4.576   5.957   3.699
12372TIP3    H137059   4.595   5.897   3.627
12372TIP3    H237060   4.589   5.906   3.778
12373TIP3   OH237061   5.802   5.500   5.016
12373TIP3    H137062   5.846   5.584   5.025
12373TIP3    H237063   5.729   5.503   5.078
12374TIP3   OH237064   4.852   7.092   3.073
12374TIP3    H137065   4.773   7.112   3.024
12374TIP3    H237066   4.918   7.153   3.040
12375TIP3   OH237067   6.162   2.332   3.627
12375TIP3    H137068   6.083   2.327   3.680
12375TIP3    H237069   6.160   2.420   3.589
12376TIP3   OH237070   1.535   3.520   0.493
12376TIP3    H137071   1.485   3.543   0.571
12376TIP3    H237072   1.534   3.599   0.439
12377TIP3   OH237073   7.180   7.487   4.338
12377TIP3    H137074   7.232   7.560   4.369
12377TIP3    H237075   7.185   7.422   4.408
12378TIP3   OH237076   7.376   2.709   2.435
12378TIP3    H137077   7.333   2.670   2.359
12378TIP3    H237078   7.469   2.701   2.416
12379TIP3   OH237079   5.006   0.041   5.775
12379TIP3    H137080   5.020   0.109   5.841
12379TIP3    H237081   5.051  -0.036   5.811
12380TIP3   OH237082   2.146   5.212   2.782
12380TIP3    H137083   2.238   5.237   2.771
12380TIP3    H237084   2.147   5.116   2.784
12381TIP3   OH237085   6.891   6.987   5.949
12381TIP3    H137086   6.892   7.050   6.021
12381TIP3    H237087   6.854   6.907   5.988
12382TIP3   OH237088   4.472   6.355   1.674
12382TIP3    H137089   4.534   6.339   1.602
12382TIP3    H237090   4.414   6.424   1.642
12383TIP3   OH237091   5.859   2.102   2.529
12383TIP3    H137092   5.901   2.155   2.597
12383TIP3    H237093   5.848   2.162   2.455
12384TIP3   OH237094   2.520   3.853   5.358
12384TIP3    H137095   2.437   3.902   5.360
12384TIP3    H237096   2.553   3.861   5.448
12385TIP3   OH237097   3.159   4.847   4.651
12385TIP3    H137098   3.147   4.809   4.738
12385TIP3    H237099   3.252   4.872   4.648
12386TIP3   OH237100   2.567   0.384   1.304
12386TIP3    H137101   2.560   0.296   1.341
12386TIP3    H237102   2.652   0.385   1.261
12387TIP3   OH237103   5.842   0.759   4.597
12387TIP3    H137104   5.835   0.775   4.691
12387TIP3    H237105   5.840   0.847   4.558
12388TIP3   OH237106   6.826   5.744   0.097
12388TIP3    H137107   6.883   5.820   0.109
12388TIP3    H237108   6.826   5.700   0.182
12389TIP3   OH237109   2.153   6.091   6.039
12389TIP3    H137110   2.247   6.096   6.058
12389TIP3    H237111   2.144   6.016   5.981
12390TIP3   OH237112   8.066   6.401   4.063
12390TIP3    H137113   8.097   6.315   4.094
12390TIP3    H237114   8.079   6.398   3.969
12391TIP3   OH237115   4.185   3.388   2.908
12391TIP3    H137116   4.219   3.447   2.841
12391TIP3    H237117   4.245   3.399   2.982
12392TIP3   OH237118   0.205   4.584   0.416
12392TIP3    H137119   0.203   4.671   0.456
12392TIP3    H237120   0.115   4.568   0.387
12393TIP3   OH237121   3.393   6.340   2.478
12393TIP3    H137122   3.456   6.410   2.460
12393TIP3    H237123   3.437   6.285   2.543
12394TIP3   OH237124   1.233   2.618   3.536
12394TIP3    H137125   1.264   2.528   3.523
12394TIP3    H237126   1.311   2.667   3.561
12395TIP3   OH237127   7.202   1.481   4.943
12395TIP3    H137128   7.228   1.552   4.883
12395TIP3    H237129   7.136   1.521   5.000
12396TIP3   OH237130   7.365   0.155   5.593
12396TIP3    H137131   7.417   0.118   5.664
12396TIP3    H237132   7.414   0.134   5.514
12397TIP3   OH237133   0.878   2.166   2.398
12397TIP3    H137134   0.969   2.186   2.419
12397TIP3    H237135   0.847   2.116   2.473
12398TIP3   OH237136   3.751   4.153   1.228
12398TIP3    H137137   3.696   4.215   1.179
12398TIP3    H237138   3.788   4.096   1.162
12399TIP3   OH237139   2.129   4.344   0.471
12399TIP3    H137140   2.184   4.398   0.528
12399TIP3    H237141   2.099   4.404   0.403
12400TIP3   OH237142   4.386   1.718   4.381
12400TIP3    H137143   4.360   1.711   4.290
12400TIP3    H237144   4.328   1.785   4.418
12401TIP3   OH237145   1.605   6.053   3.056
12401TIP3    H137146   1.583   6.117   3.124
12401TIP3    H237147   1.546   5.979   3.073
12402TIP3   OH237148   7.304   0.532   3.533
12402TIP3    H137149   7.215   0.506   3.557
12402TIP3    H237150   7.323   0.484   3.453
12403TIP3   OH237151   2.494   7.251   4.832
12403TIP3    H137152   2.564   7.187   4.818
12403TIP3    H237153   2.465   7.235   4.922
12404TIP3   OH237154   3.768   2.778   4.055
12404TIP3    H137155   3.690   2.830   4.037
12404TIP3    H237156   3.778   2.722   3.978
12405TIP3   OH237157   3.356   3.599   0.744
12405TIP3    H137158   3.429   3.543   0.718
12405TIP3    H237159   3.368   3.612   0.838
12406TIP3   OH237160   3.778   2.548   4.649
12406TIP3    H137161   3.708   2.613   4.641
12406TIP3    H237162   3.732   2.464   4.655
12407TIP3   OH237163   3.197   0.129   4.698
12407TIP3    H137164   3.118   0.172   4.731
12407TIP3    H237165   3.262   0.144   4.767
12408TIP3   OH237166   0.284   7.442   0.471
12408TIP3    H137167   0.367   7.406   0.442
12408TIP3    H237168   0.254   7.381   0.539
12409TIP3   OH237169   6.815   5.670   2.560
12409TIP3    H137170   6.789   5.582   2.532
12409TIP3    H237171   6.905   5.679   2.529
12410TIP3   OH237172   1.228   0.280   1.077
12410TIP3    H137173   1.136   0.295   1.099
12410TIP3    H237174   1.265   0.240   1.155
12411TIP3   OH237175   7.125   2.366   0.768
12411TIP3    H137176   7.130   2.377   0.673
12411TIP3    H237177   7.042   2.321   0.782
12412TIP3   OH237178   3.184   6.902   3.408
12412TIP3    H137179   3.106   6.918   3.460
12412TIP3    H237180   3.156   6.839   3.341
12413TIP3   OH237181   0.054   2.163   5.096
12413TIP3    H137182   0.121   2.221   5.059
12413TIP3    H237183  -0.022   2.177   5.040
12414TIP3   OH237184   5.902   0.246   2.184
12414TIP3    H137185   5.815   0.284   2.169
12414TIP3    H237186   5.952   0.317   2.224
12415TIP3   OH237187   7.334   3.869   3.991
12415TIP3    H137188   7.355   3.928   4.063
12415TIP3    H237189   7.388   3.791   4.007
12416TIP3   OH237190   4.676   7.063   3.595
12416TIP3    H137191   4.698   7.091   3.506
12416TIP3    H237192   4.740   6.994   3.615
12417TIP3   OH237193   5.297   3.908   4.169
12417TIP3    H137194   5.258   3.889   4.255
12417TIP3    H237195   5.314   4.002   4.170
12418TIP3   OH237196   2.852   1.636   0.372
12418TIP3    H137197   2.794   1.587   0.314
12418TIP3    H237198   2.859   1.580   0.450
12419TIP3   OH237199   3.769   3.634   6.482
12419TIP3    H137200   3.828   3.706   6.507
12419TIP3    H237201   3.686   3.677   6.462
12420TIP3   OH237202   7.779   4.810   3.628
12420TIP3    H137203   7.688   4.826   3.602
12420TIP3    H237204   7.795   4.874   3.698
12421TIP3   OH237205   6.599   4.435   4.834
12421TIP3    H137206   6.528   4.442   4.770
12421TIP3    H237207   6.556   4.406   4.915
12422TIP3   OH237208   7.449   0.606   4.340
12422TIP3    H137209   7.417   0.692   4.368
12422TIP3    H237210   7.486   0.622   4.253
12423TIP3   OH237211   2.493   5.148   4.512
12423TIP3    H137212   2.488   5.116   4.602
12423TIP3    H237213   2.585   5.169   4.499
12424TIP3   OH237214   3.016   7.346   4.091
12424TIP3    H137215   3.042   7.315   4.004
12424TIP3    H237216   2.941   7.290   4.114
12425TIP3   OH237217   4.387   7.426   6.474
12425TIP3    H137218   4.304   7.473   6.479
12425TIP3    H237219   4.425   7.436   6.561
12426TIP3   OH237220   1.044   7.694   5.085
12426TIP3    H137221   1.061   7.787   5.078
12426TIP3    H237222   1.096   7.654   5.016
12427TIP3   OH237223   4.472   2.460   2.762
12427TIP3    H137224   4.449   2.462   2.669
12427TIP3    H237225   4.445   2.546   2.795
12428TIP3   OH237226   5.411   7.352   0.324
12428TIP3    H137227   5.491   7.299   0.320
12428TIP3    H237228   5.340   7.288   0.324
12429TIP3   OH237229   3.994   7.003   5.759
12429TIP3    H137230   3.900   6.996   5.742
12429TIP3    H237231   4.022   7.079   5.709
12430TIP3   OH237232   1.870   4.445   6.781
12430TIP3    H137233   1.814   4.383   6.827
12430TIP3    H237234   1.823   4.463   6.699
12431TIP3   OH237235   6.908   3.275   5.194
12431TIP3    H137236   6.981   3.330   5.167
12431TIP3    H237237   6.949   3.204   5.244
12432TIP3   OH237238   2.964   5.921   1.532
12432TIP3    H137239   2.951   5.829   1.556
12432TIP3    H237240   3.014   5.958   1.605
12433TIP3   OH237241   6.196   1.815   2.608
12433TIP3    H137242   6.183   1.768   2.526
12433TIP3    H237243   6.261   1.882   2.587
12434TIP3   OH237244   4.156   1.710   0.151
12434TIP3    H137245   4.242   1.750   0.138
12434TIP3    H237246   4.173   1.634   0.207
12435TIP3   OH237247   8.110   6.393   3.787
12435TIP3    H137248   8.200   6.424   3.777
12435TIP3    H237249   8.068   6.415   3.703
12436TIP3   OH237250   4.485   2.430   5.323
12436TIP3    H137251   4.502   2.511   5.371
12436TIP3    H237252   4.561   2.419   5.266
12437TIP3   OH237253   3.823   2.469   2.543
12437TIP3    H137254   3.763   2.441   2.612
12437TIP3    H237255   3.766   2.507   2.475
12438TIP3   OH237256   6.610   2.128   5.521
12438TIP3    H137257   6.673   2.158   5.455
12438TIP3    H237258   6.614   2.195   5.590
12439TIP3   OH237259   6.634   4.584   5.222
12439TIP3    H137260   6.565   4.641   5.255
12439TIP3    H237261   6.587   4.508   5.188
12440TIP3   OH237262   6.317   0.837   4.789
12440TIP3    H137263   6.332   0.790   4.707
12440TIP3    H237264   6.222   0.833   4.802
12441TIP3   OH237265   1.809   0.706   2.729
12441TIP3    H137266   1.880   0.769   2.742
12441TIP3    H237267   1.743   0.730   2.794
12442TIP3   OH237268   7.411   1.156   3.899
12442TIP3    H137269   7.454   1.113   3.973
12442TIP3    H237270   7.386   1.084   3.841
12443TIP3   OH237271   2.904   2.814   1.752
12443TIP3    H137272   2.940   2.766   1.678
12443TIP3    H237273   2.899   2.750   1.823
12444TIP3   OH237274   4.412   5.324   1.547
12444TIP3    H137275   4.498   5.345   1.511
12444TIP3    H237276   4.397   5.391   1.614
12445TIP3   OH237277   1.994   3.396   1.886
12445TIP3    H137278   1.908   3.430   1.861
12445TIP3    H237279   1.979   3.350   1.969
12446TIP3   OH237280   4.080   2.524   2.529
12446TIP3    H137281   4.095   2.580   2.605
12446TIP3    H237282   3.985   2.519   2.522
12447TIP3   OH237283   7.816   2.052   3.012
12447TIP3    H137284   7.786   2.001   3.087
12447TIP3    H237285   7.906   2.076   3.033
12448TIP3   OH237286   7.785   5.784   1.300
12448TIP3    H137287   7.698   5.822   1.314
12448TIP3    H237288   7.843   5.860   1.294
12449TIP3   OH237289   6.951   3.277   6.743
12449TIP3    H137290   6.937   3.182   6.741
12449TIP3    H237291   7.033   3.290   6.695
12450TIP3   OH237292   4.473   3.968   6.404
12450TIP3    H137293   4.472   4.037   6.470
12450TIP3    H237294   4.435   3.892   6.449
12451TIP3   OH237295   3.813   2.227   1.517
12451TIP3    H137296   3.806   2.322   1.507
12451TIP3    H237297   3.723   2.197   1.531
12452TIP3   OH237298   7.559   7.764   4.227
12452TIP3    H137299   7.627   7.792   4.288
12452TIP3    H237300   7.543   7.672   4.251
12453TIP3   OH237301   0.257   6.673   4.982
12453TIP3    H137302   0.233   6.603   5.042
12453TIP3    H237303   0.282   6.628   4.901
12454TIP3   OH237304   0.689   7.659   1.304
12454TIP3    H137305   0.719   7.568   1.292
12454TIP3    H237306   0.754   7.712   1.258
12455TIP3   OH237307   5.725   3.028   0.095
12455TIP3    H137308   5.702   3.001   0.184
12455TIP3    H237309   5.767   2.950   0.057
12456TIP3   OH237310   1.478   0.043   6.084
12456TIP3    H137311   1.517   0.130   6.094
12456TIP3    H237312   1.498  -0.002   6.166
12457TIP3   OH237313   3.130   1.739   5.117
12457TIP3    H137314   3.183   1.757   5.195
12457TIP3    H237315   3.055   1.798   5.124
12458TIP3   OH237316   4.730   4.574   3.639
12458TIP3    H137317   4.720   4.623   3.558
12458TIP3    H237318   4.758   4.639   3.703
12459TIP3   OH237319   2.518   0.632   2.372
12459TIP3    H137320   2.588   0.694   2.392
12459TIP3    H237321   2.562   0.562   2.324
12460TIP3   OH237322   5.705   5.847   6.586
12460TIP3    H137323   5.657   5.781   6.636
12460TIP3    H237324   5.637   5.899   6.544
12461TIP3   OH237325   0.287   1.010   2.205
12461TIP3    H137326   0.248   1.082   2.254
12461TIP3    H237327   0.222   0.939   2.210
12462TIP3   OH237328   1.366   7.574   1.600
12462TIP3    H137329   1.376   7.667   1.617
12462TIP3    H237330   1.453   7.538   1.612
12463TIP3   OH237331   1.802   3.486   0.044
12463TIP3    H137332   1.884   3.444   0.019
12463TIP3    H237333   1.828   3.562   0.095
12464TIP3   OH237334   5.102   0.915   2.480
12464TIP3    H137335   5.070   0.962   2.557
12464TIP3    H237336   5.138   0.984   2.424
12465TIP3   OH237337   2.847   1.197   4.163
12465TIP3    H137338   2.804   1.179   4.247
12465TIP3    H237339   2.878   1.287   4.171
12466TIP3   OH237340   1.714   7.499   1.240
12466TIP3    H137341   1.726   7.424   1.298
12466TIP3    H237342   1.694   7.572   1.298
12467TIP3   OH237343   7.927   5.739   3.480
12467TIP3    H137344   7.980   5.687   3.419
12467TIP3    H237345   7.841   5.698   3.477
12468TIP3   OH237346   3.223   5.714   1.604
12468TIP3    H137347   3.231   5.757   1.519
12468TIP3    H237348   3.290   5.755   1.659
12469TIP3   OH237349   0.727   6.209   5.204
12469TIP3    H137350   0.751   6.216   5.296
12469TIP3    H237351   0.696   6.119   5.194
12470TIP3   OH237352   6.280   2.016   3.461
12470TIP3    H137353   6.337   2.015   3.538
12470TIP3    H237354   6.278   2.107   3.433
12471TIP3   OH237355   2.900   1.197   6.259
12471TIP3    H137356   2.940   1.229   6.179
12471TIP3    H237357   2.853   1.118   6.233
12472TIP3   OH237358   4.189   5.014   6.391
12472TIP3    H137359   4.165   4.922   6.400
12472TIP3    H237360   4.108   5.058   6.365
12473TIP3   OH237361   0.582   3.729   4.545
12473TIP3    H137362   0.542   3.763   4.625
12473TIP3    H237363   0.648   3.667   4.575
12474TIP3   OH237364   4.529   3.039   2.895
12474TIP3    H137365   4.499   3.102   2.961
12474TIP3    H237366   4.448   3.000   2.861
12475TIP3   OH237367   6.072   5.362   3.004
12475TIP3    H137368   6.140   5.400   3.059
12475TIP3    H237369   6.111   5.283   2.968
12476TIP3   OH237370   6.480   2.368   0.323
12476TIP3    H137371   6.525   2.390   0.405
12476TIP3    H237372   6.549   2.370   0.257
12477TIP3   OH237373   2.193   6.828   5.392
12477TIP3    H137374   2.196   6.850   5.485
12477TIP3    H237375   2.162   6.737   5.390
12478TIP3   OH237376   4.001   0.219   3.792
12478TIP3    H137377   4.026   0.134   3.756
12478TIP3    H237378   4.050   0.226   3.874
12479TIP3   OH237379   3.879   6.816   1.644
12479TIP3    H137380   3.793   6.824   1.603
12479TIP3    H237381   3.929   6.760   1.585
12480TIP3   OH237382   2.258   2.962   0.441
12480TIP3    H137383   2.343   2.919   0.442
12480TIP3    H237384   2.202   2.901   0.393
12481TIP3   OH237385   5.815   4.861   4.482
12481TIP3    H137386   5.860   4.928   4.430
12481TIP3    H237387   5.834   4.779   4.437
12482TIP3   OH237388   0.240   3.035   3.078
12482TIP3    H137389   0.227   3.088   3.000
12482TIP3    H237390   0.198   2.952   3.059
12483TIP3   OH237391   3.409   2.882   6.439
12483TIP3    H137392   3.475   2.917   6.379
12483TIP3    H237393   3.404   2.789   6.417
12484TIP3   OH237394   2.633   2.242   2.919
12484TIP3    H137395   2.629   2.188   2.840
12484TIP3    H237396   2.676   2.323   2.890
12485TIP3   OH237397   1.060   3.043   1.334
12485TIP3    H137398   1.048   3.023   1.242
12485TIP3    H237399   1.154   3.060   1.343
12486TIP3   OH237400   3.199   0.701   3.438
12486TIP3    H137401   3.241   0.661   3.362
12486TIP3    H237402   3.170   0.786   3.407
12487TIP3   OH237403   5.092   4.950   5.999
12487TIP3    H137404   5.067   5.012   5.930
12487TIP3    H237405   5.030   4.877   5.988
12488TIP3   OH237406   0.345   1.847   0.495
12488TIP3    H137407   0.281   1.834   0.565
12488TIP3    H237408   0.411   1.779   0.509
12489TIP3   OH237409   6.054   4.216   5.612
12489TIP3    H137410   5.987   4.151   5.630
12489TIP3    H237411   6.007   4.300   5.612
12490TIP3   OH237412   7.883   7.517   4.267
12490TIP3    H137413   7.809   7.575   4.251
12490TIP3    H237414   7.914   7.494   4.179
12491TIP3   OH237415   7.599   5.456   1.211
12491TIP3    H137416   7.688   5.490   1.212
12491TIP3    H237417   7.548   5.523   1.165
12492TIP3   OH237418   2.338   1.559   2.102
12492TIP3    H137419   2.279   1.484   2.097
12492TIP3    H237420   2.280   1.633   2.122
12493TIP3   OH237421   1.826   1.437   1.705
12493TIP3    H137422   1.815   1.524   1.744
12493TIP3    H237423   1.739   1.416   1.669
12494TIP3   OH237424   1.327   2.868   2.496
12494TIP3    H137425   1.287   2.805   2.556
12494TIP3    H237426   1.417   2.837   2.486
12495TIP3   OH237427   4.009   0.897   0.437
12495TIP3    H137428   3.963   0.839   0.376
12495TIP3    H237429   4.063   0.837   0.489
12496TIP3   OH237430   0.921   4.007   5.248
12496TIP3    H137431   0.985   3.948   5.209
12496TIP3    H237432   0.895   4.065   5.176
12497TIP3   OH237433   6.706   0.239   5.406
12497TIP3    H137434   6.718   0.204   5.494
12497TIP3    H237435   6.622   0.285   5.410
12498TIP3   OH237436   3.486   2.822   0.711
12498TIP3    H137437   3.435   2.897   0.682
12498TIP3    H237438   3.565   2.824   0.656
12499TIP3   OH237439   2.098   0.364   5.734
12499TIP3    H137440   2.013   0.404   5.719
12499TIP3    H237441   2.161   0.427   5.699
12500TIP3   OH237442   3.362   3.274   1.926
12500TIP3    H137443   3.349   3.262   2.020
12500TIP3    H237444   3.299   3.214   1.885
12501TIP3   OH237445   2.877   6.127   5.342
12501TIP3    H137446   2.883   6.217   5.312
12501TIP3    H237447   2.959   6.087   5.315
12502TIP3   OH237448   3.573   1.877   0.947
12502TIP3    H137449   3.487   1.909   0.920
12502TIP3    H237450   3.613   1.843   0.867
12503TIP3   OH237451   5.040   0.134   0.405
12503TIP3    H137452   5.062   0.187   0.329
12503TIP3    H237453   5.025   0.047   0.371
12504TIP3   OH237454   7.373   5.033   2.413
12504TIP3    H137455   7.299   5.012   2.470
12504TIP3    H237456   7.339   5.101   2.355
12505TIP3   OH237457   2.745   5.858   4.871
12505TIP3    H137458   2.826   5.903   4.847
12505TIP3    H237459   2.715   5.818   4.790
12506TIP3   OH237460   6.472   1.760   0.699
12506TIP3    H137461   6.415   1.691   0.733
12506TIP3    H237462   6.510   1.723   0.620
12507TIP3   OH237463   6.261   6.472   6.441
12507TIP3    H137464   6.353   6.476   6.467
12507TIP3    H237465   6.236   6.381   6.457
12508TIP3   OH237466   2.415   6.792   4.703
12508TIP3    H137467   2.359   6.868   4.716
12508TIP3    H237468   2.391   6.731   4.774
12509TIP3   OH237469   7.169   3.588   0.050
12509TIP3    H137470   7.105   3.630   0.108
12509TIP3    H237471   7.119   3.567  -0.029
12510TIP3   OH237472   6.564   7.786   1.383
12510TIP3    H137473   6.644   7.734   1.395
12510TIP3    H237474   6.515   7.741   1.315
12511TIP3   OH237475   5.421   7.669   2.715
12511TIP3    H137476   5.467   7.753   2.718
12511TIP3    H237477   5.373   7.665   2.798
12512TIP3   OH237478   7.970   3.112   4.107
12512TIP3    H137479   8.017   3.153   4.179
12512TIP3    H237480   7.940   3.029   4.142
12513TIP3   OH237481   2.390   6.541   2.908
12513TIP3    H137482   2.302   6.510   2.926
12513TIP3    H237483   2.420   6.488   2.834
12514TIP3   OH237484   3.913   2.512   3.408
12514TIP3    H137485   3.999   2.538   3.440
12514TIP3    H237486   3.928   2.482   3.319
12515TIP3   OH237487   7.123   5.886   6.790
12515TIP3    H137488   7.075   5.862   6.710
12515TIP3    H237489   7.192   5.820   6.797
12516TIP3   OH237490   2.771   6.570   6.169
12516TIP3    H137491   2.801   6.613   6.089
12516TIP3    H237492   2.706   6.506   6.139
12517TIP3   OH237493   5.989   6.305   3.279
12517TIP3    H137494   6.080   6.306   3.247
12517TIP3    H237495   5.967   6.398   3.291
12518TIP3   OH237496   0.919   7.634   2.352
12518TIP3    H137497   1.008   7.645   2.385
12518TIP3    H237498   0.929   7.587   2.270
12519TIP3   OH237499   8.266   3.175   2.410
12519TIP3    H137500   8.295   3.256   2.369
12519TIP3    H237501   8.321   3.107   2.371
12520TIP3   OH237502   6.750   4.046   1.286
12520TIP3    H137503   6.736   4.032   1.380
12520TIP3    H237504   6.835   4.006   1.268
12521TIP3   OH237505   0.198   5.135   5.833
12521TIP3    H137506   0.272   5.112   5.777
12521TIP3    H237507   0.224   5.105   5.920
12522TIP3   OH237508   1.962   4.097   5.135
12522TIP3    H137509   1.985   4.093   5.042
12522TIP3    H237510   1.974   4.189   5.159
12523TIP3   OH237511   0.797   3.324   6.718
12523TIP3    H137512   0.819   3.417   6.714
12523TIP3    H237513   0.784   3.299   6.627
12524TIP3   OH237514   1.124   3.745   1.886
12524TIP3    H137515   1.201   3.689   1.893
12524TIP3    H237516   1.134   3.790   1.802
12525TIP3   OH237517   0.840   1.224   5.106
12525TIP3    H137518   0.831   1.296   5.043
12525TIP3    H237519   0.754   1.220   5.149
12526TIP3   OH237520   3.181   2.775   4.744
12526TIP3    H137521   3.209   2.789   4.653
12526TIP3    H237522   3.156   2.862   4.774
12527TIP3   OH237523   2.266   4.009   5.331
12527TIP3    H137524   2.243   3.917   5.342
12527TIP3    H237525   2.273   4.043   5.421
12528TIP3   OH237526   3.179   0.306   3.780
12528TIP3    H137527   3.265   0.281   3.816
12528TIP3    H237528   3.127   0.329   3.856
12529TIP3   OH237529   1.700   7.176   5.650
12529TIP3    H137530   1.665   7.259   5.618
12529TIP3    H237531   1.635   7.145   5.713
12530TIP3   OH237532   5.241   1.275   5.394
12530TIP3    H137533   5.255   1.217   5.469
12530TIP3    H237534   5.147   1.292   5.394
12531TIP3   OH237535   2.487   4.631   3.411
12531TIP3    H137536   2.534   4.596   3.335
12531TIP3    H237537   2.556   4.668   3.467
12532TIP3   OH237538   4.080   6.602   0.505
12532TIP3    H137539   4.145   6.532   0.510
12532TIP3    H237540   4.034   6.598   0.589
12533TIP3   OH237541  -0.004   6.224   2.094
12533TIP3    H137542   0.016   6.310   2.058
12533TIP3    H237543   0.031   6.162   2.030
12534TIP3   OH237544   4.162   1.122   0.313
12534TIP3    H137545   4.118   1.039   0.333
12534TIP3    H237546   4.164   1.125   0.217
12535TIP3   OH237547   6.824   6.291   2.215
12535TIP3    H137548   6.795   6.382   2.206
12535TIP3    H237549   6.829   6.259   2.125
12536TIP3   OH237550   2.700   3.256   2.046
12536TIP3    H137551   2.641   3.183   2.063
12536TIP3    H237552   2.739   3.237   1.962
12537TIP3   OH237553   2.937   3.876   2.043
12537TIP3    H137554   2.975   3.867   1.956
12537TIP3    H237555   2.855   3.827   2.038
12538TIP3   OH237556   6.111   7.178   6.398
12538TIP3    H137557   6.138   7.087   6.413
12538TIP3    H237558   6.034   7.190   6.455
12539TIP3   OH237559   7.968   7.531   4.914
12539TIP3    H137560   8.003   7.443   4.927
12539TIP3    H237561   8.028   7.572   4.852
12540TIP3   OH237562   8.039   2.936   5.769
12540TIP3    H137563   8.003   2.856   5.731
12540TIP3    H237564   7.989   3.007   5.730
12541TIP3   OH237565   2.244   2.681   6.505
12541TIP3    H137566   2.315   2.653   6.447
12541TIP3    H237567   2.234   2.610   6.567
12542TIP3   OH237568   6.871   6.074   6.619
12542TIP3    H137569   6.936   6.007   6.599
12542TIP3    H237570   6.904   6.153   6.578
12543TIP3   OH237571   3.975   4.267   1.009
12543TIP3    H137572   3.948   4.358   0.994
12543TIP3    H237573   3.928   4.217   0.942
12544TIP3   OH237574   4.918   7.706   6.642
12544TIP3    H137575   4.924   7.626   6.588
12544TIP3    H237576   4.840   7.692   6.696
12545TIP3   OH237577   7.190   1.106   2.141
12545TIP3    H137578   7.119   1.164   2.168
12545TIP3    H237579   7.153   1.018   2.151
12546TIP3   OH237580   2.078   0.724   0.278
12546TIP3    H137581   2.047   0.743   0.367
12546TIP3    H237582   2.029   0.785   0.223
12547TIP3   OH237583   1.888   3.552   4.266
12547TIP3    H137584   1.946   3.583   4.336
12547TIP3    H237585   1.799   3.562   4.302
12548TIP3   OH237586   5.587   3.909   4.141
12548TIP3    H137587   5.563   3.992   4.181
12548TIP3    H237588   5.509   3.854   4.149
12549TIP3   OH237589   7.752   0.634   4.781
12549TIP3    H137590   7.803   0.711   4.806
12549TIP3    H237591   7.805   0.589   4.716
12550TIP3   OH237592   7.814   5.016   5.478
12550TIP3    H137593   7.865   4.941   5.510
12550TIP3    H237594   7.730   5.009   5.524
12551TIP3   OH237595   8.045   5.383   6.541
12551TIP3    H137596   8.021   5.474   6.522
12551TIP3    H237597   8.028   5.336   6.460
12552TIP3   OH237598   1.795   4.963   3.647
12552TIP3    H137599   1.711   4.949   3.690
12552TIP3    H237600   1.848   5.009   3.712
12553TIP3   OH237601   4.869   5.486   1.560
12553TIP3    H137602   4.885   5.395   1.534
12553TIP3    H237603   4.904   5.538   1.488
12554TIP3   OH237604   7.178   1.628   6.454
12554TIP3    H137605   7.119   1.554   6.440
12554TIP3    H237606   7.226   1.637   6.372
12555TIP3   OH237607   6.163   7.530   3.298
12555TIP3    H137608   6.119   7.578   3.368
12555TIP3    H237609   6.256   7.533   3.321
12556TIP3   OH237610   0.347   6.722   1.773
12556TIP3    H137611   0.389   6.652   1.723
12556TIP3    H237612   0.400   6.731   1.852
12557TIP3   OH237613   2.247   3.584   5.842
12557TIP3    H137614   2.298   3.590   5.761
12557TIP3    H237615   2.290   3.514   5.892
12558TIP3   OH237616   3.754   0.732   5.148
12558TIP3    H137617   3.820   0.767   5.207
12558TIP3    H237618   3.792   0.652   5.113
12559TIP3   OH237619   6.153   4.242   6.327
12559TIP3    H137620   6.123   4.154   6.302
12559TIP3    H237621   6.211   4.268   6.255
12560TIP3   OH237622   7.743   2.467   4.482
12560TIP3    H137623   7.679   2.494   4.416
12560TIP3    H237624   7.747   2.372   4.474
12561TIP3   OH237625   5.450   5.829   1.937
12561TIP3    H137626   5.388   5.756   1.934
12561TIP3    H237627   5.536   5.788   1.937
12562TIP3   OH237628   7.249   6.979   0.931
12562TIP3    H137629   7.244   6.885   0.916
12562TIP3    H237630   7.342   6.995   0.946
12563TIP3   OH237631   3.714   6.797   2.590
12563TIP3    H137632   3.770   6.858   2.541
12563TIP3    H237633   3.713   6.832   2.679
12564TIP3   OH237634   8.194   4.283   2.912
12564TIP3    H137635   8.270   4.308   2.860
12564TIP3    H237636   8.187   4.188   2.900
12565TIP3   OH237637   4.461   7.121   1.857
12565TIP3    H137638   4.438   7.203   1.813
12565TIP3    H237639   4.523   7.078   1.798
12566TIP3   OH237640   0.752   6.450   5.668
12566TIP3    H137641   0.686   6.519   5.680
12566TIP3    H237642   0.832   6.487   5.704
12567TIP3   OH237643   3.564   7.770   6.428
12567TIP3    H137644   3.503   7.733   6.492
12567TIP3    H237645   3.599   7.848   6.470
12568TIP3   OH237646   6.825   0.928   6.539
12568TIP3    H137647   6.898   0.880   6.501
12568TIP3    H237648   6.748   0.875   6.518
12569TIP3   OH237649   2.991   2.152   6.398
12569TIP3    H137650   2.991   2.134   6.304
12569TIP3    H237651   2.912   2.110   6.431
12570TIP3   OH237652   7.327   4.284   3.527
12570TIP3    H137653   7.251   4.319   3.574
12570TIP3    H237654   7.401   4.337   3.558
12571TIP3   OH237655   7.673   3.778   1.835
12571TIP3    H137656   7.604   3.756   1.772
12571TIP3    H237657   7.627   3.797   1.916
12572TIP3   OH237658   7.402   5.551   6.023
12572TIP3    H137659   7.324   5.497   6.007
12572TIP3    H237660   7.417   5.595   5.939
12573TIP3   OH237661   0.280   0.403   4.791
12573TIP3    H137662   0.250   0.465   4.725
12573TIP3    H237663   0.322   0.333   4.740
12574TIP3   OH237664   1.845   3.601   1.009
12574TIP3    H137665   1.888   3.531   0.959
12574TIP3    H237666   1.756   3.604   0.974
12575TIP3   OH237667   4.413   5.977   2.141
12575TIP3    H137668   4.360   6.012   2.069
12575TIP3    H237669   4.359   5.993   2.219
12576TIP3   OH237670   6.749   6.082   4.372
12576TIP3    H137671   6.740   6.009   4.433
12576TIP3    H237672   6.805   6.145   4.417
12577TIP3   OH237673   6.475   3.504   2.964
12577TIP3    H137674   6.473   3.596   2.937
12577TIP3    H237675   6.559   3.471   2.931
12578TIP3   OH237676   4.309   7.636   2.607
12578TIP3    H137677   4.219   7.651   2.577
12578TIP3    H237678   4.311   7.674   2.695
12579TIP3   OH237679   4.422   7.133   0.888
12579TIP3    H137680   4.506   7.177   0.873
12579TIP3    H237681   4.402   7.090   0.804
12580TIP3   OH237682   8.134   5.137   6.010
12580TIP3    H137683   8.096   5.140   5.922
12580TIP3    H237684   8.179   5.221   6.019
12581TIP3   OH237685   2.412   1.894   2.141
12581TIP3    H137686   2.350   1.967   2.136
12581TIP3    H237687   2.423   1.878   2.235
12582TIP3   OH237688   2.883   3.758   4.163
12582TIP3    H137689   2.813   3.725   4.219
12582TIP3    H237690   2.963   3.729   4.206
12583TIP3   OH237691   6.348   6.634   4.607
12583TIP3    H137692   6.314   6.571   4.670
12583TIP3    H237693   6.404   6.692   4.659
12584TIP3   OH237694   3.530   4.912   0.715
12584TIP3    H137695   3.449   4.869   0.742
12584TIP3    H237696   3.532   4.902   0.620
12585TIP3   OH237697   3.438   7.314   1.712
12585TIP3    H137698   3.373   7.267   1.764
12585TIP3    H237699   3.387   7.376   1.660
12586TIP3   OH237700   1.375   3.383   2.521
12586TIP3    H137701   1.308   3.350   2.462
12586TIP3    H237702   1.345   3.470   2.546
12587TIP3   OH237703   4.398   5.905   5.410
12587TIP3    H137704   4.316   5.923   5.364
12587TIP3    H237705   4.466   5.910   5.342
12588TIP3   OH237706   7.411   0.105   0.725
12588TIP3    H137707   7.322   0.096   0.760
12588TIP3    H237708   7.405   0.177   0.663
12589TIP3   OH237709   4.675   3.833   4.972
12589TIP3    H137710   4.591   3.830   5.017
12589TIP3    H237711   4.669   3.765   4.905
12590TIP3   OH237712   5.674   4.844   1.992
12590TIP3    H137713   5.721   4.920   1.956
12590TIP3    H237714   5.597   4.882   2.033
12591TIP3   OH237715   3.597   2.840   5.743
12591TIP3    H137716   3.516   2.883   5.716
12591TIP3    H237717   3.607   2.766   5.682
12592TIP3   OH237718   4.852   6.338   2.416
12592TIP3    H137719   4.903   6.402   2.466
12592TIP3    H237720   4.762   6.350   2.447
12593TIP3   OH237721   4.516   2.152   0.653
12593TIP3    H137722   4.421   2.158   0.665
12593TIP3    H237723   4.538   2.062   0.674
12594TIP3   OH237724   4.582   5.984   0.125
12594TIP3    H137725   4.646   6.008   0.058
12594TIP3    H237726   4.635   5.949   0.196
12595TIP3   OH237727   7.486   5.888   5.481
12595TIP3    H137728   7.571   5.877   5.523
12595TIP3    H237729   7.450   5.799   5.476
12596TIP3   OH237730   5.621   1.959   3.493
12596TIP3    H137731   5.562   1.920   3.557
12596TIP3    H237732   5.579   2.042   3.470
12597TIP3   OH237733   6.833   1.143   3.436
12597TIP3    H137734   6.827   1.048   3.439
12597TIP3    H237735   6.768   1.169   3.370
12598TIP3   OH237736   2.927   0.682   3.158
12598TIP3    H137737   2.856   0.658   3.218
12598TIP3    H237738   2.956   0.768   3.189
12599TIP3   OH237739   6.377   4.545   5.770
12599TIP3    H137740   6.369   4.503   5.684
12599TIP3    H237741   6.348   4.635   5.755
12600TIP3   OH237742   2.180   2.803   5.273
12600TIP3    H137743   2.086   2.805   5.293
12600TIP3    H237744   2.222   2.794   5.358
12601TIP3   OH237745   7.456   5.750   0.402
12601TIP3    H137746   7.462   5.655   0.412
12601TIP3    H237747   7.429   5.781   0.489
12602TIP3   OH237748   7.381   1.218   6.041
12602TIP3    H137749   7.365   1.303   6.000
12602TIP3    H237750   7.373   1.155   5.969
12603TIP3   OH237751   3.631   5.593   6.722
12603TIP3    H137752   3.693   5.524   6.748
12603TIP3    H237753   3.611   5.574   6.631
12604TIP3   OH237754   5.963   4.359   0.327
12604TIP3    H137755   5.978   4.441   0.280
12604TIP3    H237756   5.882   4.325   0.288
12605TIP3   OH237757   6.617   1.110   5.070
12605TIP3    H137758   6.647   1.022   5.093
12605TIP3    H237759   6.562   1.137   5.143
12606TIP3   OH237760   8.162   1.191   4.614
12606TIP3    H137761   8.207   1.262   4.660
12606TIP3    H237762   8.085   1.173   4.668
12607TIP3   OH237763   7.218   3.254   0.005
12607TIP3    H137764   7.200   3.232   0.096
12607TIP3    H237765   7.173   3.337  -0.009
12608TIP3   OH237766   6.843   7.335   2.458
12608TIP3    H137767   6.848   7.345   2.553
12608TIP3    H237768   6.853   7.241   2.443
12609TIP3   OH237769   2.139   5.791   3.993
12609TIP3    H137770   2.186   5.720   3.949
12609TIP3    H237771   2.083   5.829   3.926
12610TIP3   OH237772   7.966   0.953   3.525
12610TIP3    H137773   8.001   0.866   3.544
12610TIP3    H237774   8.000   1.008   3.596
12611TIP3   OH237775   7.398   0.153   2.756
12611TIP3    H137776   7.379   0.079   2.699
12611TIP3    H237777   7.315   0.170   2.801
12612TIP3   OH237778   3.840   7.230   1.850
12612TIP3    H137779   3.816   7.216   1.942
12612TIP3    H237780   3.890   7.152   1.826
12613TIP3   OH237781   6.912   7.343   6.126
12613TIP3    H137782   6.830   7.319   6.083
12613TIP3    H237783   6.894   7.334   6.219
12614TIP3   OH237784   2.768   7.306   5.687
12614TIP3    H137785   2.826   7.269   5.620
12614TIP3    H237786   2.703   7.238   5.703
12615TIP3   OH237787   0.996   6.305   2.085
12615TIP3    H137788   1.048   6.226   2.069
12615TIP3    H237789   0.965   6.295   2.175
12616TIP3   OH237790   6.789   0.791   2.161
12616TIP3    H137791   6.694   0.780   2.165
12616TIP3    H237792   6.825   0.708   2.192
12617TIP3   OH237793   3.384   0.539   3.254
12617TIP3    H137794   3.339   0.454   3.249
12617TIP3    H237795   3.452   0.525   3.321
12618TIP3   OH237796   4.575   6.477   3.871
12618TIP3    H137797   4.571   6.384   3.847
12618TIP3    H237798   4.547   6.524   3.792
12619TIP3   OH237799   1.423   0.452   3.679
12619TIP3    H137800   1.469   0.460   3.763
12619TIP3    H237801   1.455   0.370   3.642
12620TIP3   OH237802   7.504   1.683   0.673
12620TIP3    H137803   7.438   1.714   0.736
12620TIP3    H237804   7.492   1.589   0.670
12621TIP3   OH237805   4.287   6.783   3.570
12621TIP3    H137806   4.328   6.833   3.641
12621TIP3    H237807   4.302   6.837   3.492
12622TIP3   OH237808   3.067   5.650   6.464
12622TIP3    H137809   2.999   5.717   6.456
12622TIP3    H237810   3.093   5.654   6.556
12623TIP3   OH237811   3.392   5.596   5.408
12623TIP3    H137812   3.343   5.555   5.479
12623TIP3    H237813   3.370   5.544   5.330
12624TIP3   OH237814   0.554   6.561   0.163
12624TIP3    H137815   0.570   6.482   0.216
12624TIP3    H237816   0.569   6.634   0.224
12625TIP3   OH237817   1.759   6.401   5.874
12625TIP3    H137818   1.847   6.429   5.851
12625TIP3    H237819   1.767   6.306   5.885
12626TIP3   OH237820   1.754   0.167   5.949
12626TIP3    H137821   1.782   0.102   5.884
12626TIP3    H237822   1.836   0.207   5.979
12627TIP3   OH237823   7.242   1.425   2.468
12627TIP3    H137824   7.229   1.330   2.467
12627TIP3    H237825   7.337   1.436   2.465
12628TIP3   OH237826   6.859   1.963   0.044
12628TIP3    H137827   6.850   1.927   0.132
12628TIP3    H237828   6.946   2.003   0.044
12629TIP3   OH237829   7.121   3.997   5.351
12629TIP3    H137830   7.169   3.915   5.341
12629TIP3    H237831   7.180   4.064   5.316
12630TIP3   OH237832   5.517   2.668   4.701
12630TIP3    H137833   5.428   2.669   4.666
12630TIP3    H237834   5.557   2.747   4.666
12631TIP3   OH237835   3.706   4.152   3.987
12631TIP3    H137836   3.649   4.190   4.053
12631TIP3    H237837   3.649   4.138   3.911
12632TIP3   OH237838   2.772   1.829   3.914
12632TIP3    H137839   2.861   1.852   3.888
12632TIP3    H237840   2.748   1.757   3.855
12633TIP3   OH237841   3.476   6.145   6.436
12633TIP3    H137842   3.479   6.240   6.444
12633TIP3    H237843   3.567   6.119   6.424
12634TIP3   OH237844   7.178   3.261   6.609
12634TIP3    H137845   7.260   3.273   6.658
12634TIP3    H237846   7.194   3.305   6.526
12635TIP3   OH237847   4.947   0.735   4.657
12635TIP3    H137848   4.949   0.807   4.594
12635TIP3    H237849   4.865   0.747   4.705
12636TIP3   OH237850   1.849   1.621   0.713
12636TIP3    H137851   1.771   1.579   0.675
12636TIP3    H237852   1.918   1.555   0.704
12637TIP3   OH237853   7.410   3.095   0.363
12637TIP3    H137854   7.473   3.149   0.411
12637TIP3    H237855   7.452   3.009   0.355
12638TIP3   OH237856   2.193   5.153   0.854
12638TIP3    H137857   2.118   5.189   0.808
12638TIP3    H237858   2.157   5.085   0.910
12639TIP3   OH237859   3.986   6.596   3.855
12639TIP3    H137860   4.042   6.535   3.806
12639TIP3    H237861   3.902   6.592   3.810
12640TIP3   OH237862   3.748   0.235   5.479
12640TIP3    H137863   3.830   0.266   5.518
12640TIP3    H237864   3.682   0.250   5.547
12641TIP3   OH237865   5.658   1.518   1.177
12641TIP3    H137866   5.627   1.427   1.174
12641TIP3    H237867   5.698   1.533   1.092
12642TIP3   OH237868   4.094   5.984   0.155
12642TIP3    H137869   4.038   5.920   0.110
12642TIP3    H237870   4.136   5.933   0.225
12643TIP3   OH237871   7.327   2.262   6.266
12643TIP3    H137872   7.277   2.317   6.326
12643TIP3    H237873   7.399   2.317   6.236
12644TIP3   OH237874   5.062   1.606   6.025
12644TIP3    H137875   5.111   1.554   5.962
12644TIP3    H237876   4.971   1.578   6.014
12645TIP3   OH237877   2.787   3.705   0.586
12645TIP3    H137878   2.755   3.699   0.676
12645TIP3    H237879   2.868   3.755   0.592
12646TIP3   OH237880   7.132   0.174   2.174
12646TIP3    H137881   7.149   0.268   2.182
12646TIP3    H237882   7.200   0.133   2.227
12647TIP3   OH237883   6.126   6.840   3.719
12647TIP3    H137884   6.186   6.868   3.649
12647TIP3    H237885   6.085   6.761   3.685
12648TIP3   OH237886   5.601   1.609   5.898
12648TIP3    H137887   5.562   1.653   5.974
12648TIP3    H237888   5.564   1.657   5.823
12649TIP3   OH237889   2.590   7.681   4.695
12649TIP3    H137890   2.681   7.680   4.666
12649TIP3    H237891   2.590   7.630   4.776
12650TIP3   OH237892   3.855   7.235   4.702
12650TIP3    H137893   3.897   7.314   4.739
12650TIP3    H237894   3.786   7.269   4.645
12651TIP3   OH237895   2.597   6.222   0.197
12651TIP3    H137896   2.641   6.159   0.255
12651TIP3    H237897   2.504   6.212   0.216
12652TIP3   OH237898   7.644   7.462   1.799
12652TIP3    H137899   7.653   7.555   1.819
12652TIP3    H237900   7.734   7.429   1.802
12653TIP3   OH237901   4.613   1.562   6.361
12653TIP3    H137902   4.707   1.557   6.347
12653TIP3    H237903   4.603   1.597   6.449
12654TIP3   OH237904   5.070   4.958   0.788
12654TIP3    H137905   5.129   5.033   0.797
12654TIP3    H237906   5.030   4.969   0.702
12655TIP3   OH237907   5.875   5.689   3.600
12655TIP3    H137908   5.931   5.673   3.676
12655TIP3    H237909   5.928   5.660   3.525
12656TIP3   OH237910   3.335   7.615   1.670
12656TIP3    H137911   3.389   7.624   1.592
12656TIP3    H237912   3.260   7.563   1.642
12657TIP3   OH237913   1.404   3.700   1.984
12657TIP3    H137914   1.474   3.668   2.041
12657TIP3    H237915   1.450   3.736   1.908
12658TIP3   OH237916   6.090   3.270   3.767
12658TIP3    H137917   6.084   3.365   3.767
12658TIP3    H237918   6.018   3.241   3.823
12659TIP3   OH237919   6.415   0.765   3.482
12659TIP3    H137920   6.410   0.790   3.390
12659TIP3    H237921   6.429   0.670   3.480
12660TIP3   OH237922   6.959   1.439   6.428
12660TIP3    H137923   6.969   1.344   6.418
12660TIP3    H237924   6.922   1.450   6.516
12661TIP3   OH237925   1.555   1.167   4.264
12661TIP3    H137926   1.549   1.149   4.358
12661TIP3    H237927   1.504   1.097   4.223
12662TIP3   OH237928   0.578   2.289   4.910
12662TIP3    H137929   0.566   2.379   4.880
12662TIP3    H237930   0.547   2.289   5.001
12663TIP3   OH237931   6.521   4.327   5.068
12663TIP3    H137932   6.426   4.343   5.069
12663TIP3    H237933   6.530   4.243   5.022
12664TIP3   OH237934   2.873   3.425   0.565
12664TIP3    H137935   2.883   3.430   0.660
12664TIP3    H237936   2.868   3.516   0.536
12665TIP3   OH237937   3.069   1.391   2.281
12665TIP3    H137938   3.008   1.331   2.237
12665TIP3    H237939   3.124   1.425   2.210
12666TIP3   OH237940   1.932   7.343   6.141
12666TIP3    H137941   1.976   7.259   6.146
12666TIP3    H237942   1.838   7.322   6.143
12667TIP3   OH237943   0.439   3.252   4.189
12667TIP3    H137944   0.386   3.326   4.218
12667TIP3    H237945   0.529   3.275   4.213
12668TIP3   OH237946   6.593   7.693   1.872
12668TIP3    H137947   6.689   7.687   1.880
12668TIP3    H237948   6.560   7.628   1.934
12669TIP3   OH237949   3.401   1.374   5.944
12669TIP3    H137950   3.486   1.346   5.909
12669TIP3    H237951   3.337   1.320   5.897
12670TIP3   OH237952   6.261   2.862   6.101
12670TIP3    H137953   6.174   2.844   6.065
12670TIP3    H237954   6.281   2.786   6.155
12671TIP3   OH237955   0.494   2.552   5.422
12671TIP3    H137956   0.543   2.604   5.358
12671TIP3    H237957   0.409   2.536   5.381
12672TIP3   OH237958   6.533   6.283   2.299
12672TIP3    H137959   6.505   6.374   2.294
12672TIP3    H237960   6.557   6.261   2.209
12673TIP3   OH237961   6.578   7.120   6.556
12673TIP3    H137962   6.565   7.026   6.558
12673TIP3    H237963   6.536   7.149   6.475
12674TIP3   OH237964   2.325   6.403   5.372
12674TIP3    H137965   2.321   6.421   5.466
12674TIP3    H237966   2.238   6.425   5.339
12675TIP3   OH237967   1.693   3.025   5.277
12675TIP3    H137968   1.776   3.028   5.229
12675TIP3    H237969   1.643   3.098   5.242
12676TIP3   OH237970   3.114   2.439   6.366
12676TIP3    H137971   3.161   2.451   6.448
12676TIP3    H237972   3.094   2.346   6.362
12677TIP3   OH237973   7.672   6.107   3.016
12677TIP3    H137974   7.596   6.069   3.061
12677TIP3    H237975   7.747   6.065   3.057
12678TIP3   OH237976   7.595   1.855   6.148
12678TIP3    H137977   7.671   1.890   6.193
12678TIP3    H237978   7.522   1.869   6.208
12679TIP3   OH237979   4.560   1.118   4.246
12679TIP3    H137980   4.476   1.077   4.222
12679TIP3    H237981   4.557   1.204   4.205
12680TIP3   OH237982   5.897   4.811   5.773
12680TIP3    H137983   5.948   4.731   5.785
12680TIP3    H237984   5.807   4.784   5.792
12681TIP3   OH237985   5.188   6.490   2.120
12681TIP3    H137986   5.165   6.536   2.039
12681TIP3    H237987   5.135   6.532   2.187
12682TIP3   OH237988   8.164   3.994   6.699
12682TIP3    H137989   8.171   3.904   6.665
12682TIP3    H237990   8.199   3.988   6.788
12683TIP3   OH237991   3.236   4.456   2.666
12683TIP3    H137992   3.278   4.435   2.750
12683TIP3    H237993   3.220   4.371   2.625
12684TIP3   OH237994   6.885   3.965   2.808
12684TIP3    H137995   6.888   3.976   2.903
12684TIP3    H237996   6.845   3.879   2.795
12685TIP3   OH237997   5.728   3.058   3.121
12685TIP3    H137998   5.636   3.069   3.096
12685TIP3    H237999   5.727   3.062   3.216
12686TIP3   OH238000   4.112   1.633   5.147
12686TIP3    H138001   4.174   1.561   5.148
12686TIP3    H238002   4.155   1.703   5.196
12687TIP3   OH238003   7.851   3.304   0.355
12687TIP3    H138004   7.860   3.209   0.342
12687TIP3    H238005   7.760   3.322   0.333
12688TIP3   OH238006   4.831   5.101   4.378
12688TIP3    H138007   4.776   5.178   4.387
12688TIP3    H238008   4.782   5.031   4.421
12689TIP3   OH238009   5.190   2.204   0.133
12689TIP3    H138010   5.248   2.234   0.203
12689TIP3    H238011   5.231   2.236   0.052
12690TIP3   OH238012   5.784   5.407   5.659
12690TIP3    H138013   5.731   5.409   5.739
12690TIP3    H238014   5.755   5.328   5.614
12691TIP3   OH238015   1.955   4.195   0.838
12691TIP3    H138016   1.906   4.193   0.756
12691TIP3    H238017   1.930   4.278   0.878
12692TIP3   OH238018   3.058   4.375   0.393
12692TIP3    H138019   2.974   4.367   0.438
12692TIP3    H238020   3.107   4.438   0.446
12693TIP3   OH238021   2.323   5.034   5.448
12693TIP3    H138022   2.323   5.083   5.366
12693TIP3    H238023   2.309   4.943   5.423
12694TIP3   OH238024   3.816   6.322   2.192
12694TIP3    H138025   3.904   6.354   2.173
12694TIP3    H238026   3.824   6.226   2.192
12695TIP3   OH238027   6.192   0.725   5.767
12695TIP3    H138028   6.142   0.743   5.687
12695TIP3    H238029   6.275   0.770   5.754
12696TIP3   OH238030   6.415   2.303   5.199
12696TIP3    H138031   6.326   2.271   5.215
12696TIP3    H238032   6.413   2.336   5.110
12697TIP3   OH238033   7.872   6.198   0.719
12697TIP3    H138034   7.788   6.156   0.705
12697TIP3    H238035   7.937   6.130   0.700
12698TIP3   OH238036   2.994   2.265   4.229
12698TIP3    H138037   2.967   2.323   4.300
12698TIP3    H238038   2.920   2.264   4.169
12699TIP3   OH238039   5.226   5.831   0.610
12699TIP3    H138040   5.243   5.779   0.688
12699TIP3    H238041   5.258   5.919   0.632
12700TIP3   OH238042   6.970   2.398   1.819
12700TIP3    H138043   7.006   2.480   1.786
12700TIP3    H238044   6.994   2.333   1.752
12701TIP3   OH238045   1.430   0.947   4.703
12701TIP3    H138046   1.471   0.868   4.668
12701TIP3    H238047   1.346   0.953   4.657
12702TIP3   OH238048   7.087   7.614   6.227
12702TIP3    H138049   7.003   7.606   6.272
12702TIP3    H238050   7.118   7.524   6.217
12703TIP3   OH238051   5.143   7.751   3.915
12703TIP3    H138052   5.195   7.799   3.979
12703TIP3    H238053   5.151   7.659   3.942
12704TIP3   OH238054   6.123   4.032   0.923
12704TIP3    H138055   6.178   4.102   0.888
12704TIP3    H238056   6.082   3.993   0.846
12705TIP3   OH238057   0.359   1.371   2.366
12705TIP3    H138058   0.435   1.324   2.332
12705TIP3    H238059   0.285   1.313   2.351
12706TIP3   OH238060   0.103   1.906   5.202
12706TIP3    H138061   0.140   1.957   5.275
12706TIP3    H238062   0.091   1.969   5.132
12707TIP3   OH238063   0.224   3.456   3.599
12707TIP3    H138064   0.199   3.364   3.605
12707TIP3    H238065   0.287   3.467   3.670
12708TIP3   OH238066   5.727   0.706   5.952
12708TIP3    H138067   5.794   0.644   5.924
12708TIP3    H238068   5.748   0.787   5.904
12709TIP3   OH238069   7.689   7.602   2.408
12709TIP3    H138070   7.707   7.693   2.432
12709TIP3    H238071   7.680   7.557   2.492
12710TIP3   OH238072   0.379   4.512   1.950
12710TIP3    H138073   0.357   4.456   1.876
12710TIP3    H238074   0.349   4.599   1.923
12711TIP3   OH238075   6.911   4.343   5.720
12711TIP3    H138076   6.816   4.330   5.728
12711TIP3    H238077   6.947   4.301   5.798
12712TIP3   OH238078   2.732   1.428   4.825
12712TIP3    H138079   2.789   1.357   4.853
12712TIP3    H238080   2.740   1.494   4.893
12713TIP3   OH238081   0.635   4.506   1.412
12713TIP3    H138082   0.715   4.510   1.360
12713TIP3    H238083   0.566   4.537   1.353
12714TIP3   OH238084   0.857   5.553   4.071
12714TIP3    H138085   0.880   5.530   3.981
12714TIP3    H238086   0.765   5.578   4.067
12715TIP3   OH238087   7.929   1.279   5.365
12715TIP3    H138088   7.885   1.220   5.425
12715TIP3    H238089   7.859   1.333   5.328
12716TIP3   OH238090   0.196   1.431   6.150
12716TIP3    H138091   0.144   1.418   6.070
12716TIP3    H238092   0.167   1.516   6.184
12717TIP3   OH238093   3.799   1.472   5.914
12717TIP3    H138094   3.746   1.519   5.979
12717TIP3    H238095   3.742   1.466   5.837
12718TIP3   OH238096   0.914   5.857   3.114
12718TIP3    H138097   0.841   5.896   3.163
12718TIP3    H238098   0.969   5.931   3.089
12719TIP3   OH238099   7.256   5.812   6.048
12719TIP3    H138100   7.306   5.755   6.107
12719TIP3    H238101   7.270   5.775   5.961
12720TIP3   OH238102   2.387   2.701   5.090
12720TIP3    H138103   2.297   2.719   5.120
12720TIP3    H238104   2.442   2.748   5.152
12721TIP3   OH238105   2.159   2.119   5.081
12721TIP3    H138106   2.114   2.079   5.007
12721TIP3    H238107   2.090   2.162   5.131
12722TIP3   OH238108   0.792   3.624   3.569
12722TIP3    H138109   0.812   3.547   3.621
12722TIP3    H238110   0.858   3.623   3.499
12723TIP3   OH238111   4.226   0.067   0.948
12723TIP3    H138112   4.132   0.055   0.937
12723TIP3    H238113   4.259  -0.020   0.972
12724TIP3   OH238114   1.077   7.070   0.173
12724TIP3    H138115   1.054   7.098   0.084
12724TIP3    H238116   1.120   7.146   0.212
12725TIP3   OH238117   2.416   5.448   2.557
12725TIP3    H138118   2.364   5.410   2.486
12725TIP3    H238119   2.474   5.511   2.513
12726TIP3   OH238120   7.016   4.305   6.232
12726TIP3    H138121   6.977   4.319   6.318
12726TIP3    H238122   7.110   4.294   6.249
12727TIP3   OH238123   7.801   7.709   1.906
12727TIP3    H138124   7.862   7.696   1.833
12727TIP3    H238125   7.853   7.752   1.974
12728TIP3   OH238126   0.866   0.603   6.460
12728TIP3    H138127   0.849   0.541   6.389
12728TIP3    H238128   0.895   0.549   6.533
12729TIP3   OH238129   1.495   5.496   3.457
12729TIP3    H138130   1.523   5.438   3.386
12729TIP3    H238131   1.413   5.458   3.489
12730TIP3   OH238132   2.330   4.447   3.970
12730TIP3    H138133   2.319   4.480   4.059
12730TIP3    H238134   2.398   4.380   3.977
12731TIP3   OH238135   3.913   2.309   2.319
12731TIP3    H138136   3.916   2.218   2.347
12731TIP3    H238137   3.877   2.357   2.394
12732TIP3   OH238138   1.289   6.852   1.092
12732TIP3    H138139   1.263   6.766   1.059
12732TIP3    H238140   1.366   6.834   1.147
12733TIP3   OH238141   3.322   6.328   3.478
12733TIP3    H138142   3.414   6.299   3.480
12733TIP3    H238143   3.321   6.404   3.537
12734TIP3   OH238144   6.579   2.941   6.680
12734TIP3    H138145   6.590   2.877   6.750
12734TIP3    H238146   6.638   2.912   6.611
12735TIP3   OH238147   4.761   5.259   2.582
12735TIP3    H138148   4.702   5.321   2.626
12735TIP3    H238149   4.723   5.173   2.599
12736TIP3   OH238150   5.280   0.071   3.791
12736TIP3    H138151   5.268  -0.024   3.797
12736TIP3    H238152   5.191   0.105   3.782
12737TIP3   OH238153   7.422   4.597   5.856
12737TIP3    H138154   7.467   4.523   5.896
12737TIP3    H238155   7.435   4.669   5.918
12738TIP3   OH238156   2.696   6.991   3.419
12738TIP3    H138157   2.676   6.910   3.371
12738TIP3    H238158   2.731   6.961   3.503
12739TIP3   OH238159   0.839   6.019   3.474
12739TIP3    H138160   0.896   6.060   3.539
12739TIP3    H238161   0.834   6.082   3.403
12740TIP3   OH238162   2.371   2.740   5.947
12740TIP3    H138163   2.408   2.655   5.924
12740TIP3    H238164   2.291   2.720   5.996
12741TIP3   OH238165   0.117   6.765   4.571
12741TIP3    H138166   0.076   6.828   4.511
12741TIP3    H238167   0.152   6.818   4.642
12742TIP3   OH238168   2.168   7.810   1.137
12742TIP3    H138169   2.252   7.784   1.101
12742TIP3    H238170   2.129   7.866   1.069
12743TIP3   OH238171   1.252   3.501   0.912
12743TIP3    H138172   1.180   3.519   0.973
12743TIP3    H238173   1.253   3.405   0.904
12744TIP3   OH238174   0.977   6.410   1.625
12744TIP3    H138175   0.934   6.360   1.694
12744TIP3    H238176   0.916   6.482   1.607
12745TIP3   OH238177   7.697   6.436   1.104
12745TIP3    H138178   7.706   6.356   1.156
12745TIP3    H238179   7.772   6.490   1.128
12746TIP3   OH238180   0.213   6.938   4.765
12746TIP3    H138181   0.236   6.947   4.858
12746TIP3    H238182   0.137   6.995   4.754
12747TIP3   OH238183   0.570   7.655   6.486
12747TIP3    H138184   0.475   7.653   6.500
12747TIP3    H238185   0.605   7.594   6.551
12748TIP3   OH238186   6.515   1.126   2.455
12748TIP3    H138187   6.600   1.127   2.498
12748TIP3    H238188   6.505   1.215   2.421
12749TIP3   OH238189   6.529   4.707   0.663
12749TIP3    H138190   6.447   4.666   0.633
12749TIP3    H238191   6.562   4.752   0.586
12750TIP3   OH238192   3.176   0.295   5.600
12750TIP3    H138193   3.207   0.366   5.543
12750TIP3    H238194   3.228   0.219   5.573
12751TIP3   OH238195   2.217   1.716   2.857
12751TIP3    H138196   2.230   1.646   2.793
12751TIP3    H238197   2.257   1.793   2.816
12752TIP3   OH238198   1.488   5.262   1.851
12752TIP3    H138199   1.413   5.248   1.794
12752TIP3    H238200   1.563   5.227   1.802
12753TIP3   OH238201   5.481   6.921   3.567
12753TIP3    H138202   5.459   6.839   3.613
12753TIP3    H238203   5.555   6.957   3.617
12754TIP3   OH238204   1.341   7.722   0.628
12754TIP3    H138205   1.317   7.639   0.586
12754TIP3    H238206   1.269   7.739   0.690
12755TIP3   OH238207   4.098   4.545   0.132
12755TIP3    H138208   4.146   4.603   0.072
12755TIP3    H238209   4.156   4.536   0.208
12756TIP3   OH238210   5.256   5.856   6.558
12756TIP3    H138211   5.282   5.764   6.548
12756TIP3    H238212   5.162   5.857   6.541
12757TIP3   OH238213   1.636   7.372   2.978
12757TIP3    H138214   1.542   7.350   2.982
12757TIP3    H238215   1.679   7.287   2.969
12758TIP3   OH238216   6.282   2.247   4.526
12758TIP3    H138217   6.194   2.251   4.565
12758TIP3    H238218   6.340   2.279   4.595
12759TIP3   OH238219   4.441   6.994   6.244
12759TIP3    H138220   4.381   6.960   6.310
12759TIP3    H238221   4.388   7.057   6.195
12760TIP3   OH238222   0.498   1.631   5.848
12760TIP3    H138223   0.558   1.608   5.920
12760TIP3    H238224   0.469   1.719   5.868
12761TIP3   OH238225   2.898   5.873   4.279
12761TIP3    H138226   2.918   5.965   4.296
12761TIP3    H238227   2.968   5.824   4.321
12762TIP3   OH238228   3.227   4.181   2.556
12762TIP3    H138229   3.291   4.149   2.619
12762TIP3    H238230   3.237   4.124   2.480
12763TIP3   OH238231   7.945   5.518   3.719
12763TIP3    H138232   7.874   5.541   3.779
12763TIP3    H238233   7.902   5.504   3.635
12764TIP3   OH238234   7.659   6.684   1.772
12764TIP3    H138235   7.628   6.774   1.785
12764TIP3    H238236   7.749   6.694   1.740
12765TIP3   OH238237   5.266   2.186   1.827
12765TIP3    H138238   5.346   2.180   1.774
12765TIP3    H238239   5.215   2.256   1.787
12766TIP3   OH238240   0.619   0.447   4.214
12766TIP3    H138241   0.649   0.450   4.123
12766TIP3    H238242   0.672   0.513   4.259
12767TIP3   OH238243   4.651   5.415   0.719
12767TIP3    H138244   4.735   5.456   0.739
12767TIP3    H238245   4.621   5.379   0.803
12768TIP3   OH238246   3.253   5.246   3.888
12768TIP3    H138247   3.332   5.296   3.910
12768TIP3    H238248   3.181   5.302   3.914
12769TIP3   OH238249   3.092   3.521   5.344
12769TIP3    H138250   3.101   3.554   5.434
12769TIP3    H238251   3.129   3.432   5.349
12770TIP3   OH238252   6.242   3.270   5.199
12770TIP3    H138253   6.154   3.301   5.222
12770TIP3    H238254   6.297   3.303   5.270
12771TIP3   OH238255   4.289   6.803   0.209
12771TIP3    H138256   4.200   6.789   0.178
12771TIP3    H238257   4.299   6.740   0.281
12772TIP3   OH238258   8.157   3.077   0.559
12772TIP3    H138259   8.229   3.073   0.622
12772TIP3    H238260   8.110   2.995   0.571
12773TIP3   OH238261   8.124   1.684   6.727
12773TIP3    H138262   8.078   1.603   6.703
12773TIP3    H238263   8.209   1.654   6.760
12774TIP3   OH238264   4.223   2.530   1.979
12774TIP3    H138265   4.232   2.510   1.886
12774TIP3    H238266   4.143   2.582   1.985
12775TIP3   OH238267   2.651   4.313   3.270
12775TIP3    H138268   2.677   4.221   3.266
12775TIP3    H238269   2.659   4.344   3.180
12776TIP3   OH238270   5.651   5.771   3.391
12776TIP3    H138271   5.699   5.722   3.324
12776TIP3    H238272   5.636   5.707   3.460
12777TIP3   OH238273   6.636   4.278   2.737
12777TIP3    H138274   6.689   4.255   2.814
12777TIP3    H238275   6.550   4.297   2.773
12778TIP3   OH238276   1.431   3.471   6.607
12778TIP3    H138277   1.404   3.379   6.608
12778TIP3    H238278   1.351   3.520   6.589
12779TIP3   OH238279   2.392   6.146   5.796
12779TIP3    H138280   2.464   6.087   5.817
12779TIP3    H238281   2.317   6.088   5.780
12780TIP3   OH238282   8.053   7.706   3.563
12780TIP3    H138283   8.136   7.659   3.554
12780TIP3    H238284   8.075   7.797   3.541
12781TIP3   OH238285   5.231   2.522   5.206
12781TIP3    H138286   5.205   2.601   5.158
12781TIP3    H238287   5.153   2.467   5.205
12782TIP3   OH238288   2.050   3.740   2.857
12782TIP3    H138289   2.008   3.755   2.942
12782TIP3    H238290   1.993   3.785   2.794
12783TIP3   OH238291   1.062   2.036   1.414
12783TIP3    H138292   1.082   2.127   1.393
12783TIP3    H238293   0.985   2.016   1.361
12784TIP3   OH238294   3.141   1.947   6.584
12784TIP3    H138295   3.163   2.036   6.555
12784TIP3    H238296   3.108   1.959   6.673
12785TIP3   OH238297   0.097   5.325   0.297
12785TIP3    H138298   0.178   5.375   0.289
12785TIP3    H238299   0.117   5.257   0.361
12786TIP3   OH238300   1.028   6.676   1.213
12786TIP3    H138301   1.121   6.654   1.209
12786TIP3    H238302   0.985   6.596   1.243
12787TIP3   OH238303   8.313   1.669   1.885
12787TIP3    H138304   8.321   1.628   1.798
12787TIP3    H238305   8.276   1.755   1.867
12788TIP3   OH238306   6.207   1.304   5.021
12788TIP3    H138307   6.112   1.294   5.029
12788TIP3    H238308   6.228   1.379   5.076
12789TIP3   OH238309   4.495   2.441   3.123
12789TIP3    H138310   4.533   2.458   3.208
12789TIP3    H238311   4.547   2.493   3.062
12790TIP3   OH238312   5.160   4.417   4.772
12790TIP3    H138313   5.069   4.444   4.785
12790TIP3    H238314   5.176   4.352   4.840
12791TIP3   OH238315   1.174   4.511   3.637
12791TIP3    H138316   1.268   4.515   3.622
12791TIP3    H238317   1.161   4.555   3.721
12792TIP3   OH238318   3.135   3.370   3.400
12792TIP3    H138319   3.181   3.286   3.397
12792TIP3    H238320   3.205   3.435   3.393
12793TIP3   OH238321   5.018   5.093   0.543
12793TIP3    H138322   4.977   5.107   0.457
12793TIP3    H238323   5.091   5.155   0.545
12794TIP3   OH238324   3.746   0.418   1.601
12794TIP3    H138325   3.838   0.395   1.591
12794TIP3    H238326   3.705   0.390   1.519
12795TIP3   OH238327   0.012   0.193   1.319
12795TIP3    H138328  -0.010   0.278   1.357
12795TIP3    H238329   0.057   0.213   1.237
12796TIP3   OH238330   7.010   2.024   1.672
12796TIP3    H138331   6.986   2.013   1.764
12796TIP3    H238332   7.105   2.032   1.673
12797TIP3   OH238333   6.927   2.224   4.737
12797TIP3    H138334   6.949   2.134   4.712
12797TIP3    H238335   6.871   2.214   4.814
12798TIP3   OH238336   3.773   3.212   4.814
12798TIP3    H138337   3.831   3.272   4.768
12798TIP3    H238338   3.743   3.262   4.890
12799TIP3   OH238339   7.535   2.494   4.320
12799TIP3    H138340   7.510   2.587   4.317
12799TIP3    H238341   7.454   2.447   4.299
12800TIP3   OH238342   5.150   6.856   5.869
12800TIP3    H138343   5.073   6.824   5.823
12800TIP3    H238344   5.134   6.950   5.882
12801TIP3   OH238345   2.590   7.766   1.254
12801TIP3    H138346   2.503   7.746   1.219
12801TIP3    H238347   2.648   7.701   1.212
12802TIP3   OH238348   8.204   5.477   4.138
12802TIP3    H138349   8.141   5.523   4.193
12802TIP3    H238350   8.163   5.475   4.051
12803TIP3   OH238351   8.065   0.075   0.081
12803TIP3    H138352   8.143   0.078   0.137
12803TIP3    H238353   8.032  -0.015   0.091
12804TIP3   OH238354   4.210   6.108   4.905
12804TIP3    H138355   4.206   6.126   4.999
12804TIP3    H238356   4.119   6.104   4.878
12805TIP3   OH238357   8.279   4.260   6.692
12805TIP3    H138358   8.365   4.270   6.652
12805TIP3    H238359   8.243   4.181   6.652
12806TIP3   OH238360   1.889   4.953   5.692
12806TIP3    H138361   1.958   4.900   5.652
12806TIP3    H238362   1.901   4.941   5.786
12807TIP3   OH238363   0.868   0.366   3.630
12807TIP3    H138364   0.874   0.460   3.612
12807TIP3    H238365   0.863   0.325   3.544
12808TIP3   OH238366   4.929   4.938   2.790
12808TIP3    H138367   4.942   4.972   2.701
12808TIP3    H238368   4.940   5.015   2.846
12809TIP3   OH238369   7.441   3.552   5.708
12809TIP3    H138370   7.386   3.566   5.785
12809TIP3    H238371   7.425   3.628   5.652
12810TIP3   OH238372   1.945   2.418   5.650
12810TIP3    H138373   2.038   2.396   5.648
12810TIP3    H238374   1.934   2.467   5.732
12811TIP3   OH238375   3.074   4.308   4.734
12811TIP3    H138376   3.115   4.281   4.816
12811TIP3    H238377   3.009   4.239   4.716
12812TIP3   OH238378   1.667   5.643   0.976
12812TIP3    H138379   1.595   5.636   1.039
12812TIP3    H238380   1.710   5.725   0.998
12813TIP3   OH238381   0.473   2.895   6.344
12813TIP3    H138382   0.546   2.957   6.335
12813TIP3    H238383   0.400   2.948   6.377
12814TIP3   OH238384   0.831   3.034   3.023
12814TIP3    H138385   0.858   3.102   3.084
12814TIP3    H238386   0.739   3.018   3.043
12815TIP3   OH238387   0.699   0.426   0.968
12815TIP3    H138388   0.615   0.439   0.923
12815TIP3    H238389   0.762   0.477   0.918
12816TIP3   OH238390   7.678   3.007   3.319
12816TIP3    H138391   7.756   3.049   3.353
12816TIP3    H238392   7.685   2.916   3.347
12817TIP3   OH238393   6.288   2.887   5.768
12817TIP3    H138394   6.209   2.837   5.789
12817TIP3    H238395   6.312   2.931   5.849
12818TIP3   OH238396   3.857   7.453   2.306
12818TIP3    H138397   3.812   7.466   2.389
12818TIP3    H238398   3.801   7.392   2.258
12819TIP3   OH238399   0.541   6.656   4.630
12819TIP3    H138400   0.559   6.592   4.561
12819TIP3    H238401   0.511   6.734   4.584
12820TIP3   OH238402   2.339   0.101   5.241
12820TIP3    H138403   2.375   0.012   5.245
12820TIP3    H238404   2.246   0.090   5.262
12821TIP3   OH238405   3.614   6.684   4.930
12821TIP3    H138406   3.642   6.660   5.018
12821TIP3    H238407   3.566   6.607   4.898
12822TIP3   OH238408   0.897   3.893   3.612
12822TIP3    H138409   0.852   3.808   3.606
12822TIP3    H238410   0.829   3.954   3.639
12823TIP3   OH238411   7.671   3.977   2.106
12823TIP3    H138412   7.588   3.937   2.081
12823TIP3    H238413   7.694   4.034   2.032
12824TIP3   OH238414   7.195   5.350   4.812
12824TIP3    H138415   7.205   5.293   4.889
12824TIP3    H238416   7.143   5.424   4.844
12825TIP3   OH238417   0.964   1.355   2.935
12825TIP3    H138418   0.966   1.266   2.900
12825TIP3    H238419   0.875   1.386   2.918
12826TIP3   OH238420   6.725   6.495   0.063
12826TIP3    H138421   6.637   6.518   0.034
12826TIP3    H238422   6.713   6.417   0.117
12827TIP3   OH238423   0.644   1.235   1.474
12827TIP3    H138424   0.677   1.285   1.549
12827TIP3    H238425   0.686   1.274   1.398
12828TIP3   OH238426   2.932   1.161   4.662
12828TIP3    H138427   2.988   1.102   4.611
12828TIP3    H238428   2.845   1.121   4.659
12829TIP3   OH238429   3.337   2.801   5.476
12829TIP3    H138430   3.245   2.784   5.493
12829TIP3    H238431   3.358   2.877   5.531
12830TIP3   OH238432   5.376   1.310   5.890
12830TIP3    H138433   5.397   1.334   5.800
12830TIP3    H238434   5.280   1.305   5.891
12831TIP3   OH238435   6.522   3.825   0.595
12831TIP3    H138436   6.558   3.779   0.671
12831TIP3    H238437   6.588   3.891   0.573
12832TIP3   OH238438   6.584   7.638   0.455
12832TIP3    H138439   6.589   7.631   0.550
12832TIP3    H238440   6.518   7.573   0.430
12833TIP3   OH238441   4.931   7.398   5.533
12833TIP3    H138442   4.865   7.330   5.523
12833TIP3    H238443   4.905   7.466   5.470
12834TIP3   OH238444   4.502   7.031   4.967
12834TIP3    H138445   4.548   7.105   5.007
12834TIP3    H238446   4.566   6.991   4.909
12835TIP3   OH238447   7.223   2.316   2.466
12835TIP3    H138448   7.190   2.401   2.495
12835TIP3    H238449   7.216   2.260   2.544
12836TIP3   OH238450   2.128   3.004   1.858
12836TIP3    H138451   2.206   3.022   1.806
12836TIP3    H238452   2.064   3.069   1.829
12837TIP3   OH238453   7.204   4.785   3.016
12837TIP3    H138454   7.160   4.810   3.097
12837TIP3    H238455   7.263   4.858   2.998
12838TIP3   OH238456   4.055   1.057   5.645
12838TIP3    H138457   3.966   1.020   5.644
12838TIP3    H238458   4.112   0.981   5.634
12839TIP3   OH238459   2.306   1.064   2.598
12839TIP3    H138460   2.242   0.994   2.583
12839TIP3    H238461   2.390   1.025   2.572
12840TIP3   OH238462   0.332   5.037   3.200
12840TIP3    H138463   0.268   4.987   3.149
12840TIP3    H238464   0.416   4.994   3.182
12841TIP3   OH238465   0.913   7.208   6.579
12841TIP3    H138466   0.819   7.189   6.575
12841TIP3    H238467   0.944   7.193   6.490
12842TIP3   OH238468   0.946   3.859   4.811
12842TIP3    H138469   1.027   3.808   4.814
12842TIP3    H238470   0.877   3.793   4.817
12843TIP3   OH238471   0.946   6.362   3.488
12843TIP3    H138472   0.852   6.353   3.505
12843TIP3    H238473   0.959   6.322   3.402
12844TIP3   OH238474   2.014   0.765   3.007
12844TIP3    H138475   2.101   0.779   2.972
12844TIP3    H238476   1.958   0.823   2.956
12845TIP3   OH238477   2.693   5.426   5.807
12845TIP3    H138478   2.646   5.499   5.766
12845TIP3    H238479   2.702   5.452   5.899
12846TIP3   OH238480   0.009   3.002   1.408
12846TIP3    H138481   0.096   3.041   1.415
12846TIP3    H238482   0.019   2.932   1.343
12847TIP3   OH238483   1.703   6.391   0.417
12847TIP3    H138484   1.668   6.434   0.495
12847TIP3    H238485   1.673   6.301   0.424
12848TIP3   OH238486   8.036   7.122   5.707
12848TIP3    H138487   8.051   7.031   5.683
12848TIP3    H238488   8.102   7.171   5.656
12849TIP3   OH238489   6.429   2.829   3.121
12849TIP3    H138490   6.466   2.741   3.118
12849TIP3    H238491   6.340   2.816   3.153
12850TIP3   OH238492   4.271   3.718   1.617
12850TIP3    H138493   4.263   3.797   1.671
12850TIP3    H238494   4.343   3.669   1.656
12851TIP3   OH238495   6.268   4.115   5.833
12851TIP3    H138496   6.198   4.159   5.786
12851TIP3    H238497   6.329   4.087   5.764
12852TIP3   OH238498   0.546   0.700   1.436
12852TIP3    H138499   0.484   0.660   1.497
12852TIP3    H238500   0.529   0.657   1.352
12853TIP3   OH238501   3.523   1.263   6.668
12853TIP3    H138502   3.563   1.199   6.610
12853TIP3    H238503   3.454   1.304   6.615
12854TIP3   OH238504   6.454   0.690   3.883
12854TIP3    H138505   6.429   0.777   3.850
12854TIP3    H238506   6.391   0.672   3.952
12855TIP3   OH238507   0.432   1.477   2.951
12855TIP3    H138508   0.346   1.490   2.991
12855TIP3    H238509   0.420   1.404   2.890
12856TIP3   OH238510   7.621   3.167   4.296
12856TIP3    H138511   7.637   3.119   4.215
12856TIP3    H238512   7.546   3.224   4.276
12857TIP3   OH238513   5.330   5.878   4.109
12857TIP3    H138514   5.343   5.790   4.075
12857TIP3    H238515   5.321   5.866   4.203
12858TIP3   OH238516   6.418   2.627   3.813
12858TIP3    H138517   6.346   2.671   3.769
12858TIP3    H238518   6.393   2.624   3.905
12859TIP3   OH238519   7.088   6.386   5.017
12859TIP3    H138520   7.102   6.297   5.051
12859TIP3    H238521   7.149   6.440   5.067
12860TIP3   OH238522   0.143   5.814   3.163
12860TIP3    H138523   0.173   5.724   3.171
12860TIP3    H238524   0.109   5.835   3.251
12861TIP3   OH238525   1.182   0.016   3.140
12861TIP3    H138526   1.265   0.013   3.093
12861TIP3    H238527   1.168   0.109   3.158
12862TIP3   OH238528   4.547   0.595   3.512
12862TIP3    H138529   4.583   0.682   3.495
12862TIP3    H238530   4.502   0.572   3.430
12863TIP3   OH238531   4.690   7.111   6.270
12863TIP3    H138532   4.667   7.194   6.229
12863TIP3    H238533   4.608   7.063   6.275
12864TIP3   OH238534   0.545   2.554   0.571
12864TIP3    H138535   0.619   2.504   0.604
12864TIP3    H238536   0.547   2.636   0.620
12865TIP3   OH238537   1.558   3.927   2.260
12865TIP3    H138538   1.556   3.870   2.337
12865TIP3    H238539   1.473   3.971   2.260
12866TIP3   OH238540   4.162   3.529   2.170
12866TIP3    H138541   4.124   3.575   2.244
12866TIP3    H238542   4.255   3.522   2.191
12867TIP3   OH238543   1.104   3.817   1.184
12867TIP3    H138544   1.111   3.894   1.240
12867TIP3    H238545   1.012   3.791   1.190
12868TIP3   OH238546   3.216   3.495   3.928
12868TIP3    H138547   3.138   3.457   3.886
12868TIP3    H238548   3.260   3.542   3.857
12869TIP3   OH238549   6.075   5.464   4.613
12869TIP3    H138550   6.165   5.480   4.583
12869TIP3    H238551   6.025   5.451   4.532
12870TIP3   OH238552   4.183   1.817   3.274
12870TIP3    H138553   4.262   1.828   3.327
12870TIP3    H238554   4.145   1.735   3.305
12871TIP3   OH238555   0.576   3.803   2.446
12871TIP3    H138556   0.667   3.804   2.477
12871TIP3    H238557   0.568   3.721   2.397
12872TIP3   OH238558   2.434   7.412   2.959
12872TIP3    H138559   2.503   7.348   2.946
12872TIP3    H238560   2.452   7.450   3.046
12873TIP3   OH238561   6.437   2.739   1.150
12873TIP3    H138562   6.489   2.819   1.165
12873TIP3    H238563   6.453   2.686   1.228
12874TIP3   OH238564   2.344   0.727   6.019
12874TIP3    H138565   2.407   0.717   6.090
12874TIP3    H238566   2.260   0.742   6.063
12875TIP3   OH238567   6.653   5.938   0.386
12875TIP3    H138568   6.745   5.918   0.405
12875TIP3    H238569   6.606   5.859   0.412
12876TIP3   OH238570   8.133   7.355   4.645
12876TIP3    H138571   8.110   7.358   4.552
12876TIP3    H238572   8.223   7.388   4.648
12877TIP3   OH238573   7.724   7.816   1.167
12877TIP3    H138574   7.759   7.727   1.163
12877TIP3    H238575   7.800   7.870   1.191
12878TIP3   OH238576   4.314   5.048   5.931
12878TIP3    H138577   4.225   5.030   5.962
12878TIP3    H238578   4.362   5.073   6.009
12879TIP3   OH238579   3.348   3.249   2.223
12879TIP3    H138580   3.259   3.248   2.260
12879TIP3    H238581   3.370   3.157   2.213
12880TIP3   OH238582   5.697   0.672   3.706
12880TIP3    H138583   5.792   0.684   3.710
12880TIP3    H238584   5.671   0.707   3.621
12881TIP3   OH238585   5.426   1.570   1.862
12881TIP3    H138586   5.424   1.662   1.888
12881TIP3    H238587   5.497   1.532   1.912
12882TIP3   OH238588   1.958   4.351   6.398
12882TIP3    H138589   1.950   4.362   6.303
12882TIP3    H238590   1.886   4.402   6.435
12883TIP3   OH238591   1.238   1.664   6.574
12883TIP3    H138592   1.206   1.702   6.492
12883TIP3    H238593   1.167   1.607   6.603
12884TIP3   OH238594   8.170   6.979   4.814
12884TIP3    H138595   8.234   7.049   4.827
12884TIP3    H238596   8.159   6.939   4.900
12885TIP3   OH238597   0.925   1.902   3.696
12885TIP3    H138598   1.017   1.878   3.684
12885TIP3    H238599   0.927   1.994   3.722
12886TIP3   OH238600   3.978   2.047   3.477
12886TIP3    H138601   3.925   2.126   3.479
12886TIP3    H238602   4.060   2.075   3.435
12887TIP3   OH238603   5.536   5.235   6.623
12887TIP3    H138604   5.618   5.233   6.671
12887TIP3    H238605   5.472   5.196   6.682
12888TIP3   OH238606   0.341   4.178   4.747
12888TIP3    H138607   0.254   4.161   4.783
12888TIP3    H238608   0.396   4.197   4.824
12889TIP3   OH238609   4.942   7.621   0.475
12889TIP3    H138610   5.006   7.687   0.501
12889TIP3    H238611   4.994   7.542   0.461
12890TIP3   OH238612   4.110   0.140   2.202
12890TIP3    H138613   4.151   0.207   2.147
12890TIP3    H238614   4.019   0.136   2.172
12891TIP3   OH238615   2.816   3.702   6.580
12891TIP3    H138616   2.801   3.769   6.513
12891TIP3    H238617   2.757   3.631   6.557
12892TIP3   OH238618   5.453   0.031   3.580
12892TIP3    H138619   5.388   0.031   3.649
12892TIP3    H238620   5.537   0.031   3.625
12893TIP3   OH238621   7.398   2.761   3.138
12893TIP3    H138622   7.490   2.781   3.121
12893TIP3    H238623   7.381   2.680   3.091
12894TIP3   OH238624   0.179   3.752   6.682
12894TIP3    H138625   0.247   3.775   6.619
12894TIP3    H238626   0.097   3.764   6.635
12895TIP3   OH238627   4.175   1.372   6.641
12895TIP3    H138628   4.170   1.429   6.565
12895TIP3    H238629   4.249   1.405   6.691
12896TIP3   OH238630   2.500   4.388   5.208
12896TIP3    H138631   2.586   4.368   5.170
12896TIP3    H238632   2.442   4.320   5.172
12897TIP3   OH238633   6.802   2.856   3.274
12897TIP3    H138634   6.737   2.898   3.330
12897TIP3    H238635   6.807   2.912   3.196
12898TIP3   OH238636   6.438   2.292   6.515
12898TIP3    H138637   6.388   2.244   6.582
12898TIP3    H238638   6.484   2.360   6.564
12899TIP3   OH238639   0.648   4.397   5.378
12899TIP3    H138640   0.640   4.467   5.443
12899TIP3    H238641   0.567   4.348   5.384
12900TIP3   OH238642   6.963   6.290   3.314
12900TIP3    H138643   6.951   6.287   3.409
12900TIP3    H238644   6.993   6.202   3.291
12901TIP3   OH238645   3.618   6.526   0.276
12901TIP3    H138646   3.672   6.543   0.353
12901TIP3    H238647   3.562   6.453   0.302
12902TIP3   OH238648   2.253   6.511   6.296
12902TIP3    H138649   2.194   6.582   6.269
12902TIP3    H238650   2.215   6.432   6.259
12903TIP3   OH238651   4.480   6.996   2.783
12903TIP3    H138652   4.566   6.979   2.746
12903TIP3    H238653   4.497   7.052   2.859
12904TIP3   OH238654   3.314   5.986   5.746
12904TIP3    H138655   3.230   5.941   5.748
12904TIP3    H238656   3.292   6.079   5.753
12905TIP3   OH238657   7.355   1.220   0.793
12905TIP3    H138658   7.336   1.271   0.871
12905TIP3    H238659   7.387   1.284   0.729
12906TIP3   OH238660   3.419   0.746   1.674
12906TIP3    H138661   3.500   0.698   1.693
12906TIP3    H238662   3.420   0.757   1.579
12907TIP3   OH238663   5.762   4.284   4.379
12907TIP3    H138664   5.671   4.255   4.388
12907TIP3    H238665   5.814   4.210   4.408
12908TIP3   OH238666   0.682   5.481   5.406
12908TIP3    H138667   0.707   5.398   5.447
12908TIP3    H238668   0.633   5.527   5.473
12909TIP3   OH238669   7.762   6.977   2.963
12909TIP3    H138670   7.855   6.997   2.953
12909TIP3    H238671   7.718   7.059   2.938
12910TIP3   OH238672   3.352   3.041   2.448
12910TIP3    H138673   3.380   2.953   2.423
12910TIP3    H238674   3.433   3.085   2.477
12911TIP3   OH238675   6.341   2.648   6.454
12911TIP3    H138676   6.264   2.600   6.485
12911TIP3    H238677   6.415   2.590   6.473
12912TIP3   OH238678   6.468   5.715   2.055
12912TIP3    H138679   6.497   5.792   2.104
12912TIP3    H238680   6.481   5.739   1.963
12913TIP3   OH238681   5.765   5.158   6.767
12913TIP3    H138682   5.792   5.097   6.835
12913TIP3    H238683   5.816   5.131   6.690
12914TIP3   OH238684   4.360   6.406   1.343
12914TIP3    H138685   4.380   6.498   1.329
12914TIP3    H238686   4.276   6.392   1.300
12915TIP3   OH238687   1.375   4.359   3.846
12915TIP3    H138688   1.408   4.291   3.787
12915TIP3    H238689   1.406   4.441   3.807
12916TIP3   OH238690   4.538   2.084   0.333
12916TIP3    H138691   4.629   2.064   0.354
12916TIP3    H238692   4.517   2.027   0.260
12917TIP3   OH238693   7.655   5.948   0.840
12917TIP3    H138694   7.700   5.885   0.784
12917TIP3    H238695   7.632   6.020   0.781
12918TIP3   OH238696   8.106   3.785   0.324
12918TIP3    H138697   8.154   3.790   0.241
12918TIP3    H238698   8.143   3.709   0.369
12919TIP3   OH238699   3.461   4.475   4.929
12919TIP3    H138700   3.389   4.517   4.882
12919TIP3    H238701   3.507   4.424   4.862
12920TIP3   OH238702   6.489   6.421   4.165
12920TIP3    H138703   6.563   6.428   4.226
12920TIP3    H238704   6.492   6.331   4.134
12921TIP3   OH238705   4.658   6.068   1.751
12921TIP3    H138706   4.741   6.037   1.716
12921TIP3    H238707   4.679   6.096   1.841
12922TIP3   OH238708   0.237   6.087   2.281
12922TIP3    H138709   0.170   6.155   2.276
12922TIP3    H238710   0.307   6.119   2.225
12923TIP3   OH238711   4.508   3.032   3.695
12923TIP3    H138712   4.513   3.122   3.662
12923TIP3    H238713   4.470   2.982   3.623
12924TIP3   OH238714   3.822   1.000   0.154
12924TIP3    H138715   3.837   1.087   0.191
12924TIP3    H238716   3.728   0.997   0.137
12925TIP3   OH238717   3.191   6.988   2.959
12925TIP3    H138718   3.108   6.982   3.006
12925TIP3    H238719   3.243   7.050   3.010
12926TIP3   OH238720   4.669   2.790   1.357
12926TIP3    H138721   4.728   2.737   1.410
12926TIP3    H238722   4.586   2.787   1.404
12927TIP3   OH238723   5.116   1.306   3.997
12927TIP3    H138724   5.171   1.304   3.919
12927TIP3    H238725   5.072   1.221   3.997
12928TIP3   OH238726   6.442   3.833   3.112
12928TIP3    H138727   6.418   3.924   3.093
12928TIP3    H238728   6.485   3.803   3.032
12929TIP3   OH238729   3.883   0.564   6.604
12929TIP3    H138730   3.882   0.659   6.603
12929TIP3    H238731   3.969   0.541   6.639
12930TIP3   OH238732   6.924   6.822   6.251
12930TIP3    H138733   6.856   6.768   6.212
12930TIP3    H238734   7.003   6.769   6.245
12931TIP3   OH238735   6.216   3.371   0.329
12931TIP3    H138736   6.220   3.377   0.425
12931TIP3    H238737   6.289   3.314   0.306
12932TIP3   OH238738   8.193   0.251   2.763
12932TIP3    H138739   8.174   0.301   2.684
12932TIP3    H238740   8.246   0.177   2.733
12933TIP3   OH238741   0.068   4.080   6.067
12933TIP3    H138742  -0.025   4.098   6.058
12933TIP3    H238743   0.094   4.128   6.146
12934TIP3   OH238744   6.058   3.543   4.938
12934TIP3    H138745   6.130   3.586   4.892
12934TIP3    H238746   6.097   3.462   4.971
12935TIP3   OH238747   3.355   5.432   6.628
12935TIP3    H138748   3.384   5.344   6.650
12935TIP3    H238749   3.370   5.483   6.708
12936TIP3   OH238750   5.794   6.537   1.045
12936TIP3    H138751   5.737   6.460   1.035
12936TIP3    H238752   5.776   6.568   1.134
12937TIP3   OH238753   0.323   3.717   4.497
12937TIP3    H138754   0.416   3.732   4.479
12937TIP3    H238755   0.296   3.791   4.552
12938TIP3   OH238756   6.560   2.873   3.461
12938TIP3    H138757   6.469   2.894   3.480
12938TIP3    H238758   6.567   2.779   3.479
12939TIP3   OH238759   5.365   5.538   6.752
12939TIP3    H138760   5.294   5.602   6.756
12939TIP3    H238761   5.367   5.511   6.660
12940TIP3   OH238762   2.604   5.012   1.781
12940TIP3    H138763   2.604   5.008   1.877
12940TIP3    H238764   2.535   5.075   1.760
12941TIP3   OH238765   2.826   6.756   5.968
12941TIP3    H138766   2.834   6.819   6.039
12941TIP3    H238767   2.810   6.809   5.890
12942TIP3   OH238768   0.987   4.486   3.892
12942TIP3    H138769   0.934   4.503   3.969
12942TIP3    H238770   0.925   4.458   3.825
12943TIP3   OH238771   7.442   7.534   4.716
12943TIP3    H138772   7.523   7.579   4.691
12943TIP3    H238773   7.453   7.516   4.810
12944TIP3   OH238774   3.989   7.480   4.818
12944TIP3    H138775   3.991   7.531   4.899
12944TIP3    H238776   3.971   7.545   4.750
12945TIP3   OH238777   2.396   2.084   2.487
12945TIP3    H138778   2.458   2.128   2.429
12945TIP3    H238779   2.311   2.121   2.463
12946TIP3   OH238780   4.186   6.271   0.343
12946TIP3    H138781   4.129   6.231   0.409
12946TIP3    H238782   4.274   6.241   0.367
12947TIP3   OH238783   0.110   1.843   4.060
12947TIP3    H138784   0.098   1.918   4.117
12947TIP3    H238785   0.153   1.777   4.114
12948TIP3   OH238786   1.997   2.195   4.198
12948TIP3    H138787   1.942   2.164   4.125
12948TIP3    H238788   2.085   2.198   4.162
12949TIP3   OH238789   5.871   1.283   5.612
12949TIP3    H138790   5.886   1.266   5.705
12949TIP3    H238791   5.801   1.348   5.611
12950TIP3   OH238792   4.189   1.293   5.707
12950TIP3    H138793   4.139   1.344   5.771
12950TIP3    H238794   4.131   1.221   5.684
12951TIP3   OH238795   0.041   7.097   2.820
12951TIP3    H138796   0.074   7.051   2.743
12951TIP3    H238797   0.091   7.179   2.821
12952TIP3   OH238798   4.267   5.703   3.642
12952TIP3    H138799   4.196   5.707   3.578
12952TIP3    H238800   4.258   5.618   3.684
12953TIP3   OH238801   0.230   1.004   1.930
12953TIP3    H138802   0.292   1.052   1.875
12953TIP3    H238803   0.243   1.040   2.017
12954TIP3   OH238804   5.395   1.652   1.097
12954TIP3    H138805   5.300   1.660   1.110
12954TIP3    H238806   5.406   1.648   1.002
12955TIP3   OH238807   4.788   4.842   4.201
12955TIP3    H138808   4.761   4.750   4.213
12955TIP3    H238809   4.879   4.844   4.233
12956TIP3   OH238810   2.776   7.205   3.798
12956TIP3    H138811   2.782   7.296   3.826
12956TIP3    H238812   2.682   7.191   3.783
12957TIP3   OH238813   1.830   4.470   0.697
12957TIP3    H138814   1.816   4.544   0.638
12957TIP3    H238815   1.791   4.395   0.652
12958TIP3   OH238816   0.973   0.900   0.698
12958TIP3    H138817   1.005   0.857   0.619
12958TIP3    H238818   1.036   0.971   0.713
12959TIP3   OH238819   7.527   4.383   5.982
12959TIP3    H138820   7.516   4.375   6.076
12959TIP3    H238821   7.583   4.310   5.957
12960TIP3   OH238822   0.204   4.116   0.967
12960TIP3    H138823   0.137   4.048   0.972
12960TIP3    H238824   0.156   4.198   0.974
12961TIP3   OH238825   0.692   0.339   2.088
12961TIP3    H138826   0.598   0.355   2.083
12961TIP3    H238827   0.705   0.254   2.046
12962TIP3   OH238828   4.032   0.910   6.424
12962TIP3    H138829   4.013   1.002   6.441
12962TIP3    H238830   4.031   0.902   6.329
12963TIP3   OH238831   7.102   3.171   5.610
12963TIP3    H138832   7.195   3.194   5.609
12963TIP3    H238833   7.100   3.081   5.642
12964TIP3   OH238834   3.045   1.183   3.839
12964TIP3    H138835   2.967   1.235   3.859
12964TIP3    H238836   3.065   1.138   3.922
12965TIP3   OH238837   7.128   0.143   5.448
12965TIP3    H138838   7.154   0.212   5.387
12965TIP3    H238839   7.208   0.121   5.496
12966TIP3   OH238840   7.482   5.797   1.715
12966TIP3    H138841   7.433   5.865   1.669
12966TIP3    H238842   7.414   5.735   1.745
12967TIP3   OH238843   7.852   3.270   1.258
12967TIP3    H138844   7.912   3.344   1.251
12967TIP3    H238845   7.894   3.210   1.319
12968TIP3   OH238846   5.721   0.207   3.415
12968TIP3    H138847   5.631   0.179   3.398
12968TIP3    H238848   5.774   0.144   3.365
12969TIP3   OH238849   1.229   6.261   1.251
12969TIP3    H138850   1.137   6.278   1.269
12969TIP3    H238851   1.237   6.269   1.156
12970TIP3   OH238852   3.595   0.280   2.139
12970TIP3    H138853   3.567   0.255   2.051
12970TIP3    H238854   3.558   0.368   2.152
12971TIP3   OH238855   0.963   4.373   0.648
12971TIP3    H138856   0.979   4.466   0.633
12971TIP3    H238857   1.051   4.335   0.654
12972TIP3   OH238858   6.777   7.163   5.288
12972TIP3    H138859   6.819   7.185   5.372
12972TIP3    H238860   6.685   7.148   5.311
12973TIP3   OH238861   7.251   6.118   4.294
12973TIP3    H138862   7.246   6.027   4.321
12973TIP3    H238863   7.307   6.160   4.359
12974TIP3   OH238864   5.539   3.434   3.369
12974TIP3    H138865   5.563   3.390   3.287
12974TIP3    H238866   5.613   3.491   3.388
12975TIP3   OH238867   3.755   6.549   3.709
12975TIP3    H138868   3.663   6.553   3.735
12975TIP3    H238869   3.759   6.602   3.629
12976TIP3   OH238870   4.207   0.603   2.461
12976TIP3    H138871   4.113   0.619   2.472
12976TIP3    H238872   4.213   0.509   2.442
12977TIP3   OH238873   1.487   4.178   3.652
12977TIP3    H138874   1.535   4.108   3.696
12977TIP3    H238875   1.552   4.217   3.593
12978TIP3   OH238876   6.215   5.319   6.580
12978TIP3    H138877   6.174   5.260   6.643
12978TIP3    H238878   6.215   5.270   6.497
12979TIP3   OH238879   4.328   2.948   2.735
12979TIP3    H138880   4.294   2.871   2.690
12979TIP3    H238881   4.302   3.022   2.680
12980TIP3   OH238882   4.601   1.118   5.884
12980TIP3    H138883   4.628   1.068   5.807
12980TIP3    H238884   4.510   1.142   5.866
12981TIP3   OH238885   3.248   5.302   6.099
12981TIP3    H138886   3.246   5.339   6.187
12981TIP3    H238887   3.261   5.208   6.113
12982TIP3   OH238888   1.702   0.283   6.298
12982TIP3    H138889   1.795   0.268   6.316
12982TIP3    H238890   1.656   0.218   6.350
12983TIP3   OH238891   5.428   3.533   1.606
12983TIP3    H138892   5.488   3.518   1.678
12983TIP3    H238893   5.342   3.542   1.648
12984TIP3   OH238894   4.149   4.368   3.547
12984TIP3    H138895   4.188   4.284   3.523
12984TIP3    H238896   4.209   4.433   3.509
12985TIP3   OH238897   6.638   4.886   6.656
12985TIP3    H138898   6.592   4.854   6.733
12985TIP3    H238899   6.610   4.977   6.646
12986TIP3   OH238900   4.880   5.554   0.778
12986TIP3    H138901   4.967   5.517   0.785
12986TIP3    H238902   4.879   5.626   0.841
12987TIP3   OH238903   5.210   6.622   1.874
12987TIP3    H138904   5.269   6.660   1.809
12987TIP3    H238905   5.129   6.671   1.864
12988TIP3   OH238906   2.359   5.591   1.902
12988TIP3    H138907   2.338   5.654   1.833
12988TIP3    H238908   2.401   5.518   1.857
12989TIP3   OH238909   3.076   7.202   6.120
12989TIP3    H138910   3.104   7.238   6.036
12989TIP3    H238911   3.008   7.138   6.097
12990TIP3   OH238912   7.230   4.998   5.709
12990TIP3    H138913   7.325   4.995   5.722
12990TIP3    H238914   7.214   4.938   5.636
12991TIP3   OH238915   3.949   5.060   0.223
12991TIP3    H138916   3.866   5.107   0.221
12991TIP3    H238917   4.012   5.120   0.183
12992TIP3   OH238918   4.569   5.737   6.489
12992TIP3    H138919   4.527   5.741   6.403
12992TIP3    H238920   4.642   5.799   6.482
12993TIP3   OH238921   7.195   3.513   0.685
12993TIP3    H138922   7.151   3.450   0.626
12993TIP3    H238923   7.127   3.540   0.746
12994TIP3   OH238924   5.993   1.674   2.171
12994TIP3    H138925   6.077   1.629   2.171
12994TIP3    H238926   5.963   1.669   2.081
12995TIP3   OH238927   7.878   5.268   2.811
12995TIP3    H138928   7.936   5.318   2.754
12995TIP3    H238929   7.934   5.201   2.851
12996TIP3   OH238930   6.549   2.097   0.095
12996TIP3    H138931   6.542   2.064   0.185
12996TIP3    H238932   6.577   2.021   0.044
12997TIP3   OH238933   4.784   2.526   2.596
12997TIP3    H138934   4.840   2.569   2.660
12997TIP3    H238935   4.788   2.433   2.619
12998TIP3   OH238936   1.168   4.882   0.314
12998TIP3    H138937   1.165   4.797   0.270
12998TIP3    H238938   1.084   4.923   0.292
12999TIP3   OH238939   7.967   3.513   0.665
12999TIP3    H138940   8.018   3.588   0.697
12999TIP3    H238941   8.024   3.473   0.599
13000TIP3   OH238942   6.555   4.404   1.707
13000TIP3    H138943   6.606   4.325   1.689
13000TIP3    H238944   6.465   4.373   1.715
13001TIP3   OH238945   0.375   6.181   2.067
13001TIP3    H138946   0.470   6.180   2.061
13001TIP3    H238947   0.345   6.195   1.977
13002TIP3   OH238948   5.019   6.244   5.219
13002TIP3    H138949   4.972   6.326   5.231
13002TIP3    H238950   5.023   6.205   5.306
13003TIP3   OH238951   0.039   4.617   2.088
13003TIP3    H138952   0.024   4.622   2.183
13003TIP3    H238953   0.051   4.524   2.070
13004TIP3   OH238954   1.122   2.254   3.413
13004TIP3    H138955   1.090   2.333   3.457
13004TIP3    H238956   1.173   2.209   3.479
13005TIP3   OH238957   7.509   7.489   4.988
13005TIP3    H138958   7.572   7.491   5.060
13005TIP3    H238959   7.431   7.449   5.026
13006TIP3   OH238960   2.461   0.153   0.852
13006TIP3    H138961   2.553   0.160   0.876
13006TIP3    H238962   2.434   0.244   0.836
13007TIP3   OH238963   5.951   0.728   4.296
13007TIP3    H138964   6.025   0.739   4.236
13007TIP3    H238965   5.959   0.639   4.329
13008TIP3   OH238966   2.329   0.539   2.530
13008TIP3    H138967   2.336   0.532   2.625
13008TIP3    H238968   2.408   0.586   2.503
13009TIP3   OH238969   4.554   2.707   1.112
13009TIP3    H138970   4.629   2.668   1.068
13009TIP3    H238971   4.590   2.742   1.194
13010TIP3   OH238972   3.256   4.018   0.130
13010TIP3    H138973   3.230   4.042   0.041
13010TIP3    H238974   3.279   4.102   0.171
13011TIP3   OH238975   2.803   5.532   5.515
13011TIP3    H138976   2.882   5.482   5.537
13011TIP3    H238977   2.748   5.470   5.467
13012TIP3   OH238978   2.550   0.129   1.409
13012TIP3    H138979   2.643   0.125   1.432
13012TIP3    H238980   2.505   0.142   1.493
13013TIP3   OH238981   5.127   2.814   3.957
13013TIP3    H138982   5.160   2.756   4.026
13013TIP3    H238983   5.194   2.811   3.889
13014TIP3   OH238984   5.291   6.941   5.155
13014TIP3    H138985   5.313   6.960   5.064
13014TIP3    H238986   5.364   6.976   5.206
13015TIP3   OH238987   5.996   7.062   5.348
13015TIP3    H138988   6.084   7.048   5.314
13015TIP3    H238989   6.008   7.078   5.441
13016TIP3   OH238990   5.204   1.160   2.389
13016TIP3    H138991   5.148   1.154   2.311
13016TIP3    H238992   5.161   1.225   2.444
13017TIP3   OH238993   8.079   3.309   5.333
13017TIP3    H138994   8.082   3.402   5.358
13017TIP3    H238995   8.050   3.310   5.242
13018TIP3   OH238996   6.341   3.057   4.851
13018TIP3    H138997   6.344   3.141   4.807
13018TIP3    H238998   6.387   3.072   4.934
13019TIP3   OH238999   3.683   3.251   6.393
13019TIP3    H139000   3.602   3.271   6.346
13019TIP3    H239001   3.703   3.161   6.368
13020TIP3   OH239002   5.331   0.487   4.575
13020TIP3    H139003   5.385   0.408   4.569
13020TIP3    H239004   5.299   0.487   4.665
13021TIP3   OH239005   0.915   3.906   6.114
13021TIP3    H139006   0.912   3.985   6.168
13021TIP3    H239007   0.950   3.839   6.173
13022TIP3   OH239008   1.149   6.533   1.871
13022TIP3    H139009   1.072   6.587   1.854
13022TIP3    H239010   1.113   6.448   1.899
13023TIP3   OH239011   1.937   1.304   5.914
13023TIP3    H139012   1.908   1.260   5.994
13023TIP3    H239013   2.000   1.370   5.944
13024TIP3   OH239014   7.709   2.302   2.933
13024TIP3    H139015   7.741   2.222   2.975
13024TIP3    H239016   7.785   2.360   2.929
13025TIP3   OH239017   2.395   6.311   4.232
13025TIP3    H139018   2.393   6.305   4.137
13025TIP3    H239019   2.363   6.226   4.262
13026TIP3   OH239020   4.400   1.522   2.716
13026TIP3    H139021   4.336   1.593   2.725
13026TIP3    H239022   4.456   1.530   2.793
13027TIP3   OH239023   2.578   1.684   1.605
13027TIP3    H139024   2.554   1.774   1.627
13027TIP3    H239025   2.535   1.630   1.671
13028TIP3   OH239026   5.745   7.057   3.977
13028TIP3    H139027   5.662   7.100   3.994
13028TIP3    H239028   5.722   6.965   3.959
13029TIP3   OH239029   5.151   1.694   3.215
13029TIP3    H139030   5.233   1.694   3.165
13029TIP3    H239031   5.122   1.785   3.214
13030TIP3   OH239032  -0.016   0.092   0.222
13030TIP3    H139033   0.041   0.154   0.176
13030TIP3    H239034   0.038   0.013   0.230
13031TIP3   OH239035   3.569   2.262   2.358
13031TIP3    H139036   3.553   2.346   2.401
13031TIP3    H239037   3.492   2.209   2.381
13032TIP3   OH239038   3.505   4.897   3.768
13032TIP3    H139039   3.437   4.914   3.833
13032TIP3    H239040   3.509   4.976   3.715
13033TIP3   OH239041   7.225   6.013   4.644
13033TIP3    H139042   7.316   6.003   4.615
13033TIP3    H239043   7.190   5.924   4.642
13034TIP3   OH239044   7.918   2.255   0.789
13034TIP3    H139045   7.950   2.165   0.789
13034TIP3    H239046   7.966   2.298   0.718
13035TIP3   OH239047   2.306   1.539   1.069
13035TIP3    H139048   2.223   1.566   1.108
13035TIP3    H239049   2.296   1.559   0.975
13036TIP3   OH239050   0.834   7.446   3.398
13036TIP3    H139051   0.869   7.377   3.455
13036TIP3    H239052   0.841   7.410   3.309
13037TIP3   OH239053   5.867   5.045   6.544
13037TIP3    H139054   5.929   4.982   6.507
13037TIP3    H239055   5.832   5.092   6.468
13038TIP3   OH239056   7.358   4.586   2.766
13038TIP3    H139057   7.424   4.650   2.794
13038TIP3    H239058   7.400   4.501   2.779
13039TIP3   OH239059   5.051   1.117   1.735
13039TIP3    H139060   4.989   1.127   1.663
13039TIP3    H239061   5.136   1.137   1.696
13040TIP3   OH239062   0.926   2.958   5.810
13040TIP3    H139063   0.991   3.028   5.821
13040TIP3    H239064   0.977   2.877   5.811
13041TIP3   OH239065   1.315   7.391   2.518
13041TIP3    H139066   1.249   7.407   2.586
13041TIP3    H239067   1.359   7.311   2.546
13042TIP3   OH239068   7.136   7.228   6.481
13042TIP3    H139069   7.162   7.278   6.404
13042TIP3    H239070   7.219   7.205   6.524
13043TIP3   OH239071   0.684   5.201   3.401
13043TIP3    H139072   0.603   5.154   3.420
13043TIP3    H239073   0.690   5.201   3.306
13044TIP3   OH239074   8.070   3.333   5.011
13044TIP3    H139075   8.084   3.386   4.933
13044TIP3    H239076   8.076   3.242   4.980
13045TIP3   OH239077   1.096   1.487   3.270
13045TIP3    H139078   1.105   1.391   3.266
13045TIP3    H239079   1.076   1.512   3.180
13046TIP3   OH239080   2.832   5.559   6.322
13046TIP3    H139081   2.926   5.554   6.304
13046TIP3    H239082   2.826   5.577   6.415
13047TIP3   OH239083   1.117   2.306   1.533
13047TIP3    H139084   1.126   2.367   1.607
13047TIP3    H239085   1.206   2.297   1.499
13048TIP3   OH239086   4.661   1.392   5.120
13048TIP3    H139087   4.607   1.470   5.133
13048TIP3    H239088   4.641   1.363   5.032
13049TIP3   OH239089   2.176   2.491   1.221
13049TIP3    H139090   2.213   2.568   1.265
13049TIP3    H239091   2.101   2.467   1.275
13050TIP3   OH239092   5.831   4.465   2.739
13050TIP3    H139093   5.897   4.507   2.684
13050TIP3    H239094   5.778   4.413   2.678
13051TIP3   OH239095  -0.016   0.160   4.975
13051TIP3    H139096   0.047   0.196   4.913
13051TIP3    H239097  -0.030   0.229   5.039
13052TIP3   OH239098   5.959   3.735   5.292
13052TIP3    H139099   5.914   3.818   5.311
13052TIP3    H239100   5.906   3.694   5.224
13053TIP3   OH239101   1.130   7.430   2.725
13053TIP3    H139102   1.093   7.519   2.726
13053TIP3    H239103   1.055   7.374   2.707
13054TIP3   OH239104   2.728   0.412   6.595
13054TIP3    H139105   2.776   0.399   6.513
13054TIP3    H239106   2.750   0.500   6.623
13055TIP3   OH239107   7.210   7.393   3.071
13055TIP3    H139108   7.263   7.346   3.008
13055TIP3    H239109   7.197   7.479   3.032
13056TIP3   OH239110   5.569   6.011   5.695
13056TIP3    H139111   5.548   5.956   5.770
13056TIP3    H239112   5.662   5.993   5.678
13057TIP3   OH239113   0.251   6.115   1.322
13057TIP3    H139114   0.315   6.186   1.314
13057TIP3    H239115   0.301   6.035   1.306
13058TIP3   OH239116   7.001   1.905   1.036
13058TIP3    H139117   7.088   1.943   1.035
13058TIP3    H239118   6.971   1.909   0.945
13059TIP3   OH239119   3.119   7.143   6.708
13059TIP3    H139120   3.212   7.124   6.695
13059TIP3    H239121   3.073   7.077   6.657
13060TIP3   OH239122   3.899   2.433   3.809
13060TIP3    H139123   3.864   2.363   3.864
13060TIP3    H239124   3.964   2.477   3.864
13061TIP3   OH239125   2.394   0.803   0.222
13061TIP3    H139126   2.388   0.794   0.127
13061TIP3    H239127   2.488   0.797   0.240
13062TIP3   OH239128   5.536   4.385   5.542
13062TIP3    H139129   5.473   4.313   5.546
13062TIP3    H239130   5.482   4.464   5.535
13063TIP3   OH239131   4.356   3.036   0.122
13063TIP3    H139132   4.371   2.949   0.085
13063TIP3    H239133   4.440   3.062   0.157
13064TIP3   OH239134   4.997   5.179   2.911
13064TIP3    H139135   5.046   5.255   2.880
13064TIP3    H239136   5.037   5.157   2.995
13065TIP3   OH239137   5.777   3.475   2.292
13065TIP3    H139138   5.855   3.430   2.325
13065TIP3    H239139   5.706   3.412   2.303
13066TIP3   OH239140   8.076   7.120   2.948
13066TIP3    H139141   8.155   7.094   2.901
13066TIP3    H239142   8.104   7.191   3.005
13067TIP3   OH239143   5.516   4.892   5.532
13067TIP3    H139144   5.449   4.958   5.515
13067TIP3    H239145   5.542   4.861   5.446
13068TIP3   OH239146   2.760   2.882   0.482
13068TIP3    H139147   2.804   2.966   0.496
13068TIP3    H239148   2.803   2.845   0.405
13069TIP3   OH239149   7.636   5.405   3.185
13069TIP3    H139150   7.654   5.407   3.091
13069TIP3    H239151   7.552   5.451   3.195
13070TIP3   OH239152   6.380   7.659   5.520
13070TIP3    H139153   6.400   7.582   5.573
13070TIP3    H239154   6.410   7.733   5.574
13071TIP3   OH239155   4.627   6.756   3.280
13071TIP3    H139156   4.576   6.677   3.296
13071TIP3    H239157   4.563   6.821   3.251
13072TIP3   OH239158   1.297   7.506   0.986
13072TIP3    H139159   1.275   7.443   0.917
13072TIP3    H239160   1.373   7.468   1.029
13073TIP3   OH239161   2.433   0.884   2.177
13073TIP3    H139162   2.359   0.894   2.116
13073TIP3    H239163   2.434   0.791   2.198
13074TIP3   OH239164   6.371   0.145   5.291
13074TIP3    H139165   6.419   0.138   5.209
13074TIP3    H239166   6.414   0.082   5.349
13075TIP3   OH239167  -0.003   3.843   3.158
13075TIP3    H139168   0.042   3.788   3.224
13075TIP3    H239169   0.062   3.852   3.088
13076TIP3   OH239170   1.881   0.364   4.057
13076TIP3    H139171   1.974   0.371   4.037
13076TIP3    H239172   1.878   0.330   4.146
13077TIP3   OH239173   7.739   6.981   1.568
13077TIP3    H139174   7.661   7.033   1.548
13077TIP3    H239175   7.812   7.037   1.544
13078TIP3   OH239176   4.088   6.526   0.209
13078TIP3    H139177   4.104   6.454   0.149
13078TIP3    H239178   4.063   6.484   0.291
13079TIP3   OH239179   3.351   7.429   3.278
13079TIP3    H139180   3.374   7.458   3.190
13079TIP3    H239181   3.366   7.335   3.277
13080TIP3   OH239182   2.312   4.754   1.346
13080TIP3    H139183   2.323   4.668   1.306
13080TIP3    H239184   2.386   4.805   1.313
13081TIP3   OH239185   2.700   5.333   1.976
13081TIP3    H139186   2.639   5.320   2.048
13081TIP3    H239187   2.749   5.412   2.000
13082TIP3   OH239188   4.163   6.710   2.354
13082TIP3    H139189   4.234   6.675   2.301
13082TIP3    H239190   4.164   6.804   2.337
13083TIP3   OH239191   2.503   2.624   2.083
13083TIP3    H139192   2.586   2.620   2.129
13083TIP3    H239193   2.439   2.591   2.146
13084TIP3   OH239194   6.005   1.681   0.596
13084TIP3    H139195   5.910   1.696   0.591
13084TIP3    H239196   6.013   1.589   0.617
13085TIP3   OH239197   4.118   4.122   0.686
13085TIP3    H139198   4.200   4.095   0.645
13085TIP3    H239199   4.106   4.212   0.657
13086TIP3   OH239200   3.679   2.484   4.911
13086TIP3    H139201   3.612   2.416   4.920
13086TIP3    H239202   3.747   2.443   4.858
13087TIP3   OH239203   5.239   2.948   6.068
13087TIP3    H139204   5.309   3.013   6.063
13087TIP3    H239205   5.282   2.864   6.053
13088TIP3   OH239206   1.461   0.210   3.582
13088TIP3    H139207   1.514   0.199   3.502
13088TIP3    H239208   1.436   0.121   3.607
13089TIP3   OH239209   2.544   7.217   3.306
13089TIP3    H139210   2.511   7.268   3.381
13089TIP3    H239211   2.554   7.128   3.340
13090TIP3   OH239212   7.937   3.950   2.071
13090TIP3    H139213   7.846   3.948   2.100
13090TIP3    H239214   7.932   3.944   1.976
13091TIP3   OH239215   3.338   2.606   3.351
13091TIP3    H139216   3.254   2.569   3.323
13091TIP3    H239217   3.355   2.565   3.436
13092TIP3   OH239218   6.178   7.586   2.802
13092TIP3    H139219   6.127   7.538   2.737
13092TIP3    H239220   6.132   7.572   2.884
13093TIP3   OH239221   7.769   7.674   6.274
13093TIP3    H139222   7.682   7.672   6.233
13093TIP3    H239223   7.810   7.752   6.237
13094TIP3   OH239224   6.948   0.980   1.411
13094TIP3    H139225   6.906   1.054   1.367
13094TIP3    H239226   6.875   0.930   1.448
13095TIP3   OH239227   4.940   0.434   4.224
13095TIP3    H139228   5.028   0.424   4.259
13095TIP3    H239229   4.883   0.418   4.299
13096TIP3   OH239230   1.763   6.274   3.198
13096TIP3    H139231   1.843   6.326   3.200
13096TIP3    H239232   1.766   6.229   3.113
13097TIP3   OH239233   6.273   6.794   4.392
13097TIP3    H139234   6.290   6.883   4.423
13097TIP3    H239235   6.300   6.737   4.464
13098TIP3   OH239236   6.174   4.475   3.916
13098TIP3    H139237   6.109   4.507   3.854
13098TIP3    H239238   6.161   4.530   3.994
13099TIP3   OH239239   5.769   1.621   1.499
13099TIP3    H139240   5.782   1.529   1.474
13099TIP3    H239241   5.835   1.669   1.448
13100TIP3   OH239242   0.584   2.545   5.047
13100TIP3    H139243   0.673   2.561   5.078
13100TIP3    H239244   0.539   2.629   5.058
13101TIP3   OH239245   1.748   7.014   4.812
13101TIP3    H139246   1.810   7.057   4.872
13101TIP3    H239247   1.782   6.926   4.801
13102TIP3   OH239248   2.847   1.134   3.030
13102TIP3    H139249   2.833   1.043   3.004
13102TIP3    H239250   2.872   1.178   2.950
13103TIP3   OH239251   6.348   1.676   3.148
13103TIP3    H139252   6.335   1.601   3.206
13103TIP3    H239253   6.391   1.741   3.204
13104TIP3   OH239254   1.589   4.250   2.452
13104TIP3    H139255   1.640   4.232   2.373
13104TIP3    H239256   1.581   4.165   2.496
13105TIP3   OH239257   1.078   5.973   6.455
13105TIP3    H139258   1.168   6.005   6.463
13105TIP3    H239259   1.060   5.932   6.539
13106TIP3   OH239260   3.626   0.222   6.620
13106TIP3    H139261   3.701   0.203   6.677
13106TIP3    H239262   3.569   0.278   6.673
13107TIP3   OH239263   1.001   4.275   2.079
13107TIP3    H139264   0.987   4.193   2.126
13107TIP3    H239265   0.920   4.323   2.090
13108TIP3   OH239266   5.577   2.749   1.033
13108TIP3    H139267   5.561   2.685   0.963
13108TIP3    H239268   5.672   2.757   1.036
13109TIP3   OH239269   6.058   0.781   3.947
13109TIP3    H139270   5.967   0.779   3.977
13109TIP3    H239271   6.059   0.725   3.870
13110TIP3   OH239272  -0.006   1.293   1.036
13110TIP3    H139273   0.005   1.234   1.111
13110TIP3    H239274   0.082   1.300   0.998
13111TIP3   OH239275   6.434   6.074   0.830
13111TIP3    H139276   6.504   6.015   0.860
13111TIP3    H239277   6.477   6.130   0.765
13112TIP3   OH239278   4.270   5.762   5.034
13112TIP3    H139279   4.317   5.833   5.078
13112TIP3    H239280   4.243   5.799   4.950
13113TIP3   OH239281   7.889   2.717   0.866
13113TIP3    H139282   7.900   2.693   0.958
13113TIP3    H239283   7.803   2.759   0.862
13114TIP3   OH239284   3.260   2.397   3.547
13114TIP3    H139285   3.219   2.416   3.463
13114TIP3    H239286   3.219   2.316   3.576
13115TIP3   OH239287   2.856   2.128   5.735
13115TIP3    H139288   2.773   2.152   5.775
13115TIP3    H239289   2.922   2.159   5.796
13116TIP3   OH239290   0.454   1.074   2.481
13116TIP3    H139291   0.391   1.004   2.498
13116TIP3    H239292   0.484   1.059   2.392
13117TIP3   OH239293   3.681   1.706   1.118
13117TIP3    H139294   3.763   1.689   1.072
13117TIP3    H239295   3.646   1.785   1.076
13118TIP3   OH239296   5.962   5.225   4.822
13118TIP3    H139297   6.004   5.306   4.795
13118TIP3    H239298   5.926   5.243   4.909
13119TIP3   OH239299   6.940   3.913   5.830
13119TIP3    H139300   6.968   3.985   5.887
13119TIP3    H239301   7.021   3.879   5.793
13120TIP3   OH239302   6.415   1.710   1.921
13120TIP3    H139303   6.467   1.750   1.851
13120TIP3    H239304   6.416   1.775   1.992
13121TIP3   OH239305   3.589   1.394   5.708
13121TIP3    H139306   3.638   1.452   5.649
13121TIP3    H239307   3.552   1.328   5.650
13122TIP3   OH239308   2.512   1.298   2.207
13122TIP3    H139309   2.567   1.224   2.232
13122TIP3    H239310   2.493   1.284   2.114
13123TIP3   OH239311   5.644   1.898   0.180
13123TIP3    H139312   5.650   1.921   0.272
13123TIP3    H239313   5.729   1.920   0.144
13124TIP3   OH239314   1.646   7.313   6.135
13124TIP3    H139315   1.594   7.359   6.201
13124TIP3    H239316   1.581   7.268   6.081
13125TIP3   OH239317   5.617   3.928   3.775
13125TIP3    H139318   5.556   3.998   3.796
13125TIP3    H239319   5.625   3.931   3.679
13126TIP3   OH239320   6.735   2.922   4.925
13126TIP3    H139321   6.812   2.905   4.979
13126TIP3    H239322   6.710   3.011   4.946
13127TIP3   OH239323   1.034   6.472   3.739
13127TIP3    H139324   1.116   6.521   3.746
13127TIP3    H239325   1.029   6.446   3.647
13128TIP3   OH239326   0.068   5.401   6.290
13128TIP3    H139327  -0.004   5.369   6.236
13128TIP3    H239328   0.099   5.324   6.338
13129TIP3   OH239329   2.215   6.872   1.154
13129TIP3    H139330   2.122   6.851   1.148
13129TIP3    H239331   2.218   6.951   1.209
13130TIP3   OH239332   7.642   2.636   2.364
13130TIP3    H139333   7.706   2.705   2.346
13130TIP3    H239334   7.667   2.603   2.450
13131TIP3   OH239335   5.124   0.334   5.538
13131TIP3    H139336   5.188   0.404   5.521
13131TIP3    H239337   5.054   0.378   5.587
13132TIP3   OH239338   3.932   3.419   6.337
13132TIP3    H139339   3.886   3.411   6.253
13132TIP3    H239340   3.872   3.468   6.393
13133TIP3   OH239341   4.848   5.875   0.295
13133TIP3    H139342   4.880   5.820   0.367
13133TIP3    H239343   4.915   5.866   0.227
13134TIP3   OH239344   7.775   0.794   2.862
13134TIP3    H139345   7.752   0.810   2.953
13134TIP3    H239346   7.838   0.863   2.840
13135TIP3   OH239347   8.248   5.512   2.811
13135TIP3    H139348   8.330   5.487   2.854
13135TIP3    H239349   8.261   5.602   2.783
13136TIP3   OH239350   1.217   1.401   0.802
13136TIP3    H139351   1.232   1.375   0.893
13136TIP3    H239352   1.252   1.490   0.797
13137TIP3   OH239353   7.709   5.585   3.866
13137TIP3    H139354   7.680   5.548   3.783
13137TIP3    H239355   7.669   5.530   3.933
13138TIP3   OH239356   5.062   5.826   2.904
13138TIP3    H139357   5.084   5.918   2.913
13138TIP3    H239358   5.044   5.814   2.811
13139TIP3   OH239359   2.029   1.149   2.848
13139TIP3    H139360   2.081   1.195   2.782
13139TIP3    H239361   2.084   1.145   2.925
13140TIP3   OH239362   5.526   5.674   5.815
13140TIP3    H139363   5.607   5.696   5.769
13140TIP3    H239364   5.543   5.588   5.854
13141TIP3   OH239365   1.385   6.192   3.753
13141TIP3    H139366   1.373   6.195   3.847
13141TIP3    H239367   1.463   6.138   3.740
13142TIP3   OH239368   1.673   6.122   0.427
13142TIP3    H139369   1.620   6.099   0.503
13142TIP3    H239370   1.755   6.075   0.440
13143TIP3   OH239371   3.065   3.432   3.011
13143TIP3    H139372   3.007   3.492   3.057
13143TIP3    H239373   3.012   3.354   2.995
13144TIP3   OH239374   7.181   5.095   6.357
13144TIP3    H139375   7.168   5.069   6.266
13144TIP3    H239376   7.188   5.012   6.405
13145TIP3   OH239377   1.596   5.766   2.082
13145TIP3    H139378   1.653   5.835   2.047
13145TIP3    H239379   1.654   5.692   2.095
13146TIP3   OH239380   4.815   0.734   5.555
13146TIP3    H139381   4.749   0.668   5.534
13146TIP3    H239382   4.829   0.723   5.650
13147TIP3   OH239383   3.718   7.352   2.984
13147TIP3    H139384   3.640   7.311   2.947
13147TIP3    H239385   3.735   7.427   2.927
13148TIP3   OH239386   4.845   5.956   2.076
13148TIP3    H139387   4.870   5.971   2.167
13148TIP3    H239388   4.919   5.990   2.025
13149TIP3   OH239389   3.878   7.754   4.378
13149TIP3    H139390   3.888   7.701   4.299
13149TIP3    H239391   3.814   7.821   4.354
13150TIP3   OH239392   0.939   5.592   0.758
13150TIP3    H139393   0.901   5.535   0.825
13150TIP3    H239394   1.011   5.541   0.721
13151TIP3   OH239395   3.610   3.261   4.498
13151TIP3    H139396   3.564   3.305   4.427
13151TIP3    H239397   3.693   3.234   4.461
13152TIP3   OH239398   0.505   5.888   3.204
13152TIP3    H139399   0.503   5.848   3.118
13152TIP3    H239400   0.551   5.972   3.191
13153TIP3   OH239401   3.793   1.400   2.349
13153TIP3    H139402   3.889   1.393   2.346
13153TIP3    H239403   3.774   1.435   2.435
13154TIP3   OH239404   0.329   3.273   0.956
13154TIP3    H139405   0.236   3.268   0.935
13154TIP3    H239406   0.372   3.230   0.883
13155TIP3   OH239407   3.524   0.462   3.485
13155TIP3    H139408   3.440   0.426   3.514
13155TIP3    H239409   3.560   0.395   3.427
13156TIP3   OH239410   0.397   0.627   5.648
13156TIP3    H139411   0.318   0.671   5.680
13156TIP3    H239412   0.439   0.594   5.728
13157TIP3   OH239413   5.842   1.499   4.989
13157TIP3    H139414   5.800   1.512   4.904
13157TIP3    H239415   5.896   1.420   4.977
13158TIP3   OH239416   5.849   0.924   5.847
13158TIP3    H139417   5.937   0.959   5.834
13158TIP3    H239418   5.794   1.000   5.865
13159TIP3   OH239419   6.832   0.082   0.690
13159TIP3    H139420   6.745   0.098   0.727
13159TIP3    H239421   6.822   0.100   0.596
13160TIP3   OH239422   4.775   2.714   1.605
13160TIP3    H139423   4.846   2.774   1.582
13160TIP3    H239424   4.717   2.767   1.660
13161TIP3   OH239425   3.554   6.137   2.639
13161TIP3    H139426   3.500   6.138   2.718
13161TIP3    H239427   3.623   6.201   2.656
13162TIP3   OH239428   2.953   7.688   5.318
13162TIP3    H139429   2.939   7.762   5.377
13162TIP3    H239430   2.964   7.728   5.231
13163TIP3   OH239431   7.854   6.611   3.267
13163TIP3    H139432   7.816   6.523   3.270
13163TIP3    H239433   7.821   6.655   3.345
13164TIP3   OH239434   0.183   1.263   6.372
13164TIP3    H139435   0.189   1.326   6.300
13164TIP3    H239436   0.152   1.182   6.330
13165TIP3   OH239437   4.871   0.931   3.507
13165TIP3    H139438   4.887   0.851   3.457
13165TIP3    H239439   4.923   0.998   3.463
13166TIP3   OH239440   1.247   6.612   4.960
13166TIP3    H139441   1.208   6.542   5.012
13166TIP3    H239442   1.175   6.674   4.947
13167TIP3   OH239443   4.615   5.086   1.549
13167TIP3    H139444   4.618   4.996   1.515
13167TIP3    H239445   4.532   5.121   1.516
13168TIP3   OH239446   0.888   3.969   4.184
13168TIP3    H139447   0.855   4.048   4.227
13168TIP3    H239448   0.824   3.901   4.206
13169TIP3   OH239449   6.618   3.984   0.893
13169TIP3    H139450   6.575   4.058   0.935
13169TIP3    H239451   6.642   4.017   0.806
13170TIP3   OH239452   4.597   4.874   3.155
13170TIP3    H139453   4.682   4.913   3.174
13170TIP3    H239454   4.611   4.826   3.073
13171TIP3   OH239455   1.602   5.093   2.320
13171TIP3    H139456   1.639   5.005   2.328
13171TIP3    H239457   1.547   5.089   2.242
13172TIP3   OH239458   7.452   6.651   4.870
13172TIP3    H139459   7.470   6.745   4.861
13172TIP3    H239460   7.539   6.611   4.872
13173TIP3   OH239461   8.213   6.450   6.137
13173TIP3    H139462   8.246   6.540   6.142
13173TIP3    H239463   8.203   6.423   6.228
13174TIP3   OH239464   4.109   3.087   6.661
13174TIP3    H139465   4.053   3.158   6.694
13174TIP3    H239466   4.056   3.045   6.593
13175TIP3   OH239467   2.874   4.117   3.147
13175TIP3    H139468   2.870   4.067   3.066
13175TIP3    H239469   2.945   4.179   3.133
13176TIP3   OH239470   4.160   4.828   0.264
13176TIP3    H139471   4.097   4.895   0.292
13176TIP3    H239472   4.129   4.801   0.177
13177TIP3   OH239473   7.500   1.686   3.056
13177TIP3    H139474   7.529   1.723   3.139
13177TIP3    H239475   7.565   1.715   2.992
13178TIP3   OH239476   2.743   1.454   4.491
13178TIP3    H139477   2.723   1.366   4.459
13178TIP3    H239478   2.830   1.445   4.531
13179TIP3   OH239479   6.561   5.473   6.595
13179TIP3    H139480   6.559   5.450   6.688
13179TIP3    H239481   6.484   5.430   6.558
13180TIP3   OH239482   4.430   5.512   4.806
13180TIP3    H139483   4.344   5.491   4.841
13180TIP3    H239484   4.436   5.461   4.725
13181TIP3   OH239485   5.150   7.020   3.760
13181TIP3    H139486   5.172   6.986   3.674
13181TIP3    H239487   5.230   7.063   3.790
13182TIP3   OH239488   5.016   7.382   2.319
13182TIP3    H139489   4.947   7.383   2.252
13182TIP3    H239490   5.079   7.316   2.287
13183TIP3   OH239491   4.688   1.869   3.915
13183TIP3    H139492   4.747   1.793   3.911
13183TIP3    H239493   4.739   1.936   3.961
13184TIP3   OH239494   2.581   0.175   0.277
13184TIP3    H139495   2.606   0.266   0.290
13184TIP3    H239496   2.645   0.124   0.326
13185TIP3   OH239497   1.794   6.169   0.733
13185TIP3    H139498   1.782   6.148   0.826
13185TIP3    H239499   1.871   6.227   0.732
13186TIP3   OH239500   5.339   1.953   5.894
13186TIP3    H139501   5.367   1.892   5.963
13186TIP3    H239502   5.401   2.026   5.901
13187TIP3   OH239503   2.232   1.557   4.806
13187TIP3    H139504   2.179   1.621   4.759
13187TIP3    H239505   2.322   1.583   4.790
13188TIP3   OH239506   3.795   0.002   5.345
13188TIP3    H139507   3.710  -0.031   5.317
13188TIP3    H239508   3.775   0.082   5.394
13189TIP3   OH239509   3.252   0.377   4.404
13189TIP3    H139510   3.182   0.340   4.351
13189TIP3    H239511   3.246   0.330   4.487
13190TIP3   OH239512   3.175   5.644   2.410
13190TIP3    H139513   3.214   5.579   2.352
13190TIP3    H239514   3.097   5.674   2.363
13191TIP3   OH239515   7.954   5.417   3.079
13191TIP3    H139516   7.929   5.510   3.087
13191TIP3    H239517   7.912   5.389   2.997
13192TIP3   OH239518   0.972   5.241   2.409
13192TIP3    H139519   1.048   5.272   2.360
13192TIP3    H239520   1.007   5.182   2.475
13193TIP3   OH239521   3.405   1.787   5.209
13193TIP3    H139522   3.489   1.819   5.175
13193TIP3    H239523   3.422   1.696   5.233
13194TIP3   OH239524   6.697   4.805   3.898
13194TIP3    H139525   6.768   4.848   3.851
13194TIP3    H239526   6.640   4.770   3.830
13195TIP3   OH239527   1.283   5.126   6.176
13195TIP3    H139528   1.335   5.061   6.129
13195TIP3    H239529   1.324   5.133   6.262
13196TIP3   OH239530   7.846   6.523   4.200
13196TIP3    H139531   7.927   6.494   4.159
13196TIP3    H239532   7.788   6.448   4.194
13197TIP3   OH239533   0.668   7.148   3.011
13197TIP3    H139534   0.589   7.095   2.996
13197TIP3    H239535   0.738   7.098   2.970
13198TIP3   OH239536   2.236   2.002   3.393
13198TIP3    H139537   2.208   2.083   3.349
13198TIP3    H239538   2.232   2.025   3.486
13199TIP3   OH239539   1.651   4.515   1.218
13199TIP3    H139540   1.666   4.577   1.147
13199TIP3    H239541   1.714   4.445   1.203
13200TIP3   OH239542   5.447   3.311   3.613
13200TIP3    H139543   5.497   3.366   3.673
13200TIP3    H239544   5.477   3.337   3.526
13201TIP3   OH239545   1.229   6.399   4.182
13201TIP3    H139546   1.136   6.380   4.178
13201TIP3    H239547   1.271   6.313   4.181
13202TIP3   OH239548   7.276   7.759   6.119
13202TIP3    H139549   7.205   7.705   6.154
13202TIP3    H239550   7.231   7.821   6.061
13203TIP3   OH239551   6.675   4.540   6.560
13203TIP3    H139552   6.747   4.603   6.568
13203TIP3    H239553   6.695   4.472   6.625
13204TIP3   OH239554   3.001   2.213   4.551
13204TIP3    H139555   3.074   2.181   4.499
13204TIP3    H239556   2.994   2.306   4.527
13205TIP3   OH239557   2.519   4.092   2.197
13205TIP3    H139558   2.597   4.051   2.233
13205TIP3    H239559   2.551   4.147   2.126
13206TIP3   OH239560   2.884   5.353   2.903
13206TIP3    H139561   2.941   5.379   2.975
13206TIP3    H239562   2.811   5.415   2.906
13207TIP3   OH239563   4.330   2.599   4.091
13207TIP3    H139564   4.415   2.640   4.077
13207TIP3    H239565   4.332   2.569   4.181
13208TIP3   OH239566   0.046   6.643   2.603
13208TIP3    H139567   0.117   6.580   2.593
13208TIP3    H239568   0.019   6.634   2.694
13209TIP3   OH239569   7.009   2.621   2.323
13209TIP3    H139570   7.090   2.633   2.274
13209TIP3    H239571   7.038   2.604   2.413
13210TIP3   OH239572   0.504   2.774   4.873
13210TIP3    H139573   0.441   2.819   4.929
13210TIP3    H239574   0.465   2.688   4.857
13211TIP3   OH239575   4.576   3.016   6.122
13211TIP3    H139576   4.507   3.081   6.133
13211TIP3    H239577   4.649   3.049   6.175
13212TIP3   OH239578   7.208   4.301   2.621
13212TIP3    H139579   7.214   4.231   2.687
13212TIP3    H239580   7.293   4.300   2.577
13213TIP3   OH239581   3.049   0.075   1.422
13213TIP3    H139582   3.119   0.023   1.461
13213TIP3    H239583   3.093   0.131   1.359
13214TIP3   OH239584   4.407   6.355   2.661
13214TIP3    H139585   4.326   6.330   2.704
13214TIP3    H239586   4.393   6.446   2.634
13215TIP3   OH239587   5.324   3.330   0.596
13215TIP3    H139588   5.252   3.326   0.658
13215TIP3    H239589   5.399   3.360   0.648
13216TIP3   OH239590   4.557   2.882   5.861
13216TIP3    H139591   4.559   2.926   5.946
13216TIP3    H239592   4.467   2.894   5.830
13217TIP3   OH239593   7.208   5.163   1.409
13217TIP3    H139594   7.277   5.153   1.344
13217TIP3    H239595   7.253   5.191   1.489
13218TIP3   OH239596   6.642   3.691   4.690
13218TIP3    H139597   6.588   3.768   4.710
13218TIP3    H239598   6.664   3.699   4.597
13219TIP3   OH239599   5.195   3.560   1.828
13219TIP3    H139600   5.124   3.546   1.892
13219TIP3    H239601   5.241   3.638   1.860
13220TIP3   OH239602   5.253   5.727   5.617
13220TIP3    H139603   5.158   5.735   5.609
13220TIP3    H239604   5.269   5.633   5.614
13221TIP3   OH239605   1.098   4.864   0.830
13221TIP3    H139606   1.167   4.807   0.861
13221TIP3    H239607   1.112   4.870   0.735
13222TIP3   OH239608   5.209   5.769   3.365
13222TIP3    H139609   5.217   5.802   3.454
13222TIP3    H239610   5.119   5.735   3.360
13223TIP3   OH239611   6.594   7.501   5.052
13223TIP3    H139612   6.544   7.420   5.062
13223TIP3    H239613   6.567   7.555   5.127
13224TIP3   OH239614   1.113   7.202   4.482
13224TIP3    H139615   1.144   7.159   4.562
13224TIP3    H239616   1.122   7.295   4.500
13225TIP3   OH239617   6.297   5.432   6.226
13225TIP3    H139618   6.326   5.389   6.145
13225TIP3    H239619   6.284   5.360   6.288
13226TIP3   OH239620   5.304   7.366   5.113
13226TIP3    H139621   5.261   7.344   5.196
13226TIP3    H239622   5.382   7.311   5.110
13227TIP3   OH239623   6.244   3.340   6.712
13227TIP3    H139624   6.188   3.299   6.778
13227TIP3    H239625   6.317   3.279   6.701
13228TIP3   OH239626   2.719   7.790   0.392
13228TIP3    H139627   2.762   7.727   0.449
13228TIP3    H239628   2.719   7.872   0.442
13229TIP3   OH239629   7.999   4.404   6.465
13229TIP3    H139630   8.040   4.392   6.379
13229TIP3    H239631   7.915   4.359   6.458
13230TIP3   OH239632   4.903   6.372   3.839
13230TIP3    H139633   4.872   6.450   3.793
13230TIP3    H239634   4.829   6.310   3.833
13231TIP3   OH239635   2.495   1.516   6.062
13231TIP3    H139636   2.470   1.442   6.117
13231TIP3    H239637   2.551   1.570   6.118
13232TIP3   OH239638   5.706   2.992   2.577
13232TIP3    H139639   5.750   3.054   2.635
13232TIP3    H239640   5.775   2.931   2.551
13233TIP3   OH239641   6.821   6.711   0.992
13233TIP3    H139642   6.914   6.692   1.004
13233TIP3    H239643   6.793   6.753   1.073
13234TIP3   OH239644   0.342   5.584   6.040
13234TIP3    H139645   0.296   5.546   5.965
13234TIP3    H239646   0.382   5.663   6.006
13235TIP3   OH239647   6.683   0.070   5.682
13235TIP3    H139648   6.652   0.026   5.762
13235TIP3    H239649   6.631   0.030   5.612
13236TIP3   OH239650   6.745   0.823   1.515
13236TIP3    H139651   6.758   0.739   1.558
13236TIP3    H239652   6.690   0.873   1.576
13237TIP3   OH239653   3.363   4.483   6.219
13237TIP3    H139654   3.402   4.548   6.161
13237TIP3    H239655   3.353   4.527   6.303
13238TIP3   OH239656   6.511   5.633   5.343
13238TIP3    H139657   6.522   5.666   5.432
13238TIP3    H239658   6.434   5.680   5.309
13239TIP3   OH239659   6.370   1.266   3.934
13239TIP3    H139660   6.376   1.320   4.013
13239TIP3    H239661   6.341   1.181   3.965
13240TIP3   OH239662   0.856   5.774   2.834
13240TIP3    H139663   0.877   5.783   2.927
13240TIP3    H239664   0.910   5.839   2.791
13241TIP3   OH239665   4.614   0.698   3.159
13241TIP3    H139666   4.533   0.648   3.152
13241TIP3    H239667   4.585   0.789   3.165
13242TIP3   OH239668   2.198   7.238   4.459
13242TIP3    H139669   2.109   7.259   4.485
13242TIP3    H239670   2.217   7.298   4.387
13243TIP3   OH239671   1.129   1.555   2.974
13243TIP3    H139672   1.192   1.539   2.904
13243TIP3    H239673   1.077   1.475   2.979
13244TIP3   OH239674   4.241   0.941   1.817
13244TIP3    H139675   4.235   1.022   1.867
13244TIP3    H239676   4.166   0.890   1.847
13245TIP3   OH239677   2.126   5.348   0.554
13245TIP3    H139678   2.197   5.348   0.618
13245TIP3    H239679   2.101   5.440   0.547
13246TIP3   OH239680   6.265   6.793   3.953
13246TIP3    H139681   6.327   6.808   3.882
13246TIP3    H239682   6.199   6.862   3.943
13247TIP3   OH239683   0.528   7.146   0.097
13247TIP3    H139684   0.445   7.099   0.094
13247TIP3    H239685   0.531   7.184   0.185
13248TIP3   OH239686   8.237   3.193   1.104
13248TIP3    H139687   8.204   3.275   1.067
13248TIP3    H239688   8.164   3.132   1.096
13249TIP3   OH239689   6.937   4.807   4.673
13249TIP3    H139690   6.959   4.847   4.757
13249TIP3    H239691   6.908   4.718   4.696
13250TIP3   OH239692   7.458   6.126   5.838
13250TIP3    H139693   7.523   6.067   5.874
13250TIP3    H239694   7.376   6.076   5.840
13251TIP3   OH239695   5.750   7.149   1.709
13251TIP3    H139696   5.744   7.231   1.758
13251TIP3    H239697   5.791   7.174   1.626
13252TIP3   OH239698   6.804   1.491   4.561
13252TIP3    H139699   6.768   1.494   4.472
13252TIP3    H239700   6.778   1.575   4.600
13253TIP3   OH239701   1.780   3.313   3.627
13253TIP3    H139702   1.712   3.315   3.694
13253TIP3    H239703   1.846   3.375   3.659
13254TIP3   OH239704   4.784   4.439   5.683
13254TIP3    H139705   4.708   4.493   5.705
13254TIP3    H239706   4.794   4.379   5.758
13255TIP3   OH239707   5.870   3.605   5.613
13255TIP3    H139708   5.856   3.515   5.582
13255TIP3    H239709   5.788   3.629   5.656
13256TIP3   OH239710   2.092   0.767   1.581
13256TIP3    H139711   2.024   0.798   1.522
13256TIP3    H239712   2.047   0.752   1.665
13257TIP3   OH239713   3.900   4.325   0.552
13257TIP3    H139714   3.964   4.331   0.481
13257TIP3    H239715   3.940   4.372   0.625
13258TIP3   OH239716   3.437   1.281   4.626
13258TIP3    H139717   3.407   1.371   4.612
13258TIP3    H239718   3.371   1.227   4.583
13259TIP3   OH239719   2.223   5.813   6.206
13259TIP3    H139720   2.133   5.796   6.235
13259TIP3    H239721   2.253   5.885   6.262
13260TIP3   OH239722   2.332   1.928   3.155
13260TIP3    H139723   2.274   1.979   3.099
13260TIP3    H239724   2.320   1.965   3.243
13261TIP3   OH239725   0.904   1.715   0.946
13261TIP3    H139726   0.922   1.785   1.009
13261TIP3    H239727   0.952   1.741   0.867
13262TIP3   OH239728   1.976   5.927   3.768
13262TIP3    H139729   1.896   5.979   3.758
13262TIP3    H239730   2.012   5.921   3.679
13263TIP3   OH239731   4.781   5.475   5.777
13263TIP3    H139732   4.775   5.398   5.833
13263TIP3    H239733   4.712   5.462   5.712
13264TIP3   OH239734   7.045   0.902   0.996
13264TIP3    H139735   6.961   0.911   1.040
13264TIP3    H239736   7.065   0.991   0.964
13265TIP3   OH239737   6.289   2.560   4.453
13265TIP3    H139738   6.204   2.531   4.488
13265TIP3    H239739   6.267   2.604   4.371
13266TIP3   OH239740   0.694   4.498   2.589
13266TIP3    H139741   0.789   4.506   2.584
13266TIP3    H239742   0.660   4.570   2.535
13267TIP3   OH239743   7.804   7.558   1.201
13267TIP3    H139744   7.719   7.524   1.227
13267TIP3    H239745   7.858   7.550   1.279
13268TIP3   OH239746   3.721   1.423   2.618
13268TIP3    H139747   3.784   1.493   2.636
13268TIP3    H239748   3.636   1.464   2.626
13269TIP3   OH239749   1.740   7.645   3.744
13269TIP3    H139750   1.733   7.562   3.792
13269TIP3    H239751   1.833   7.653   3.724
13270TIP3   OH239752   7.284   2.741   3.632
13270TIP3    H139753   7.315   2.674   3.571
13270TIP3    H239754   7.288   2.823   3.584
13271TIP3   OH239755   6.355   7.243   4.837
13271TIP3    H139756   6.301   7.312   4.875
13271TIP3    H239757   6.296   7.194   4.780
13272TIP3   OH239758   6.899   4.339   2.136
13272TIP3    H139759   6.935   4.253   2.156
13272TIP3    H239760   6.952   4.400   2.188
13273TIP3   OH239761   6.944   4.984   5.474
13273TIP3    H139762   7.004   5.007   5.403
13273TIP3    H239763   6.908   4.899   5.449
13274TIP3   OH239764   2.829   5.529   0.105
13274TIP3    H139765   2.922   5.522   0.082
13274TIP3    H239766   2.820   5.616   0.143
13275TIP3   OH239767   4.029   7.368   1.674
13275TIP3    H139768   4.079   7.289   1.654
13275TIP3    H239769   3.969   7.341   1.744
13276TIP3   OH239770   0.366   2.588   2.521
13276TIP3    H139771   0.335   2.671   2.559
13276TIP3    H239772   0.460   2.588   2.537
13277TIP3   OH239773   2.891   0.907   2.839
13277TIP3    H139774   2.930   0.864   2.914
13277TIP3    H239775   2.858   0.835   2.785
13278TIP3   OH239776   1.285   5.609   1.086
13278TIP3    H139777   1.323   5.693   1.061
13278TIP3    H239778   1.215   5.632   1.147
13279TIP3   OH239779   5.905   6.524   2.566
13279TIP3    H139780   5.974   6.588   2.553
13279TIP3    H239781   5.826   6.566   2.531
13280TIP3   OH239782   2.150   0.575   2.325
13280TIP3    H139783   2.149   0.504   2.261
13280TIP3    H239784   2.216   0.548   2.389
13281TIP3   OH239785   5.295   1.577   2.427
13281TIP3    H139786   5.226   1.511   2.435
13281TIP3    H239787   5.318   1.598   2.518
13282TIP3   OH239788   8.101   3.888   2.585
13282TIP3    H139789   8.023   3.898   2.641
13282TIP3    H239790   8.077   3.818   2.523
13283TIP3   OH239791   1.910   4.053   2.488
13283TIP3    H139792   1.955   4.129   2.452
13283TIP3    H239793   1.819   4.064   2.461
13284TIP3   OH239794   0.499   0.227   4.345
13284TIP3    H139795   0.550   0.225   4.426
13284TIP3    H239796   0.547   0.286   4.288
13285TIP3   OH239797   5.926   5.017   2.347
13285TIP3    H139798   5.887   4.949   2.291
13285TIP3    H239799   5.923   4.980   2.435
13286TIP3   OH239800   3.515   7.092   4.933
13286TIP3    H139801   3.502   7.082   4.839
13286TIP3    H239802   3.581   7.026   4.955
13287TIP3   OH239803   1.566   6.503   6.069
13287TIP3    H139804   1.634   6.494   6.002
13287TIP3    H239805   1.557   6.598   6.081
13288TIP3   OH239806   5.443   0.103   5.089
13288TIP3    H139807   5.491   0.106   5.172
13288TIP3    H239808   5.384   0.178   5.093
13289TIP3   OH239809   8.274   6.488   2.355
13289TIP3    H139810   8.283   6.538   2.437
13289TIP3    H239811   8.238   6.404   2.383
13290TIP3   OH239812   8.134   7.446   2.318
13290TIP3    H139813   8.086   7.409   2.244
13290TIP3    H239814   8.067   7.465   2.384
13291TIP3   OH239815   3.735   0.521   0.627
13291TIP3    H139816   3.754   0.589   0.691
13291TIP3    H239817   3.644   0.538   0.600
13292TIP3   OH239818   0.298   5.223   1.722
13292TIP3    H139819   0.219   5.192   1.767
13292TIP3    H239820   0.328   5.298   1.773
13293TIP3   OH239821   6.563   3.991   0.270
13293TIP3    H139822   6.529   4.058   0.330
13293TIP3    H239823   6.491   3.928   0.262
13294TIP3   OH239824   6.886   7.429   4.257
13294TIP3    H139825   6.828   7.500   4.231
13294TIP3    H239826   6.921   7.456   4.342
13295TIP3   OH239827   2.770   6.596   0.867
13295TIP3    H139828   2.791   6.654   0.940
13295TIP3    H239829   2.855   6.561   0.839
13296TIP3   OH239830   1.478   7.234   1.508
13296TIP3    H139831   1.502   7.252   1.599
13296TIP3    H239832   1.401   7.178   1.515
13297TIP3   OH239833   3.675   5.069  -0.034
13297TIP3    H139834   3.660   5.090   0.058
13297TIP3    H239835   3.589   5.078  -0.076
13298TIP3   OH239836   3.491   7.500   5.056
13298TIP3    H139837   3.480   7.523   4.963
13298TIP3    H239838   3.586   7.495   5.068
13299TIP3   OH239839   2.803   0.561   5.466
13299TIP3    H139840   2.723   0.519   5.434
13299TIP3    H239841   2.778   0.653   5.476
13300TIP3   OH239842   3.497   4.744   5.545
13300TIP3    H139843   3.539   4.668   5.504
13300TIP3    H239844   3.426   4.707   5.597
13301TIP3   OH239845   1.304   0.356   5.346
13301TIP3    H139846   1.240   0.286   5.360
13301TIP3    H239847   1.376   0.312   5.301
13302TIP3   OH239848   7.908   5.640   6.547
13302TIP3    H139849   7.893   5.621   6.639
13302TIP3    H239850   7.822   5.634   6.506
13303TIP3   OH239851   7.763   2.963   2.776
13303TIP3    H139852   7.749   3.046   2.821
13303TIP3    H239853   7.830   2.982   2.710
13304TIP3   OH239854   8.254   4.622   2.352
13304TIP3    H139855   8.310   4.631   2.430
13304TIP3    H239856   8.199   4.700   2.353
13305TIP3   OH239857   1.878   0.571   2.357
13305TIP3    H139858   1.822   0.648   2.344
13305TIP3    H239859   1.967   0.605   2.349
13306TIP3   OH239860   0.841   4.593   4.105
13306TIP3    H139861   0.782   4.667   4.118
13306TIP3    H239862   0.864   4.563   4.193
13307TIP3   OH239863   1.360   3.116   2.051
13307TIP3    H139864   1.377   3.153   2.138
13307TIP3    H239865   1.338   3.025   2.069
13308TIP3   OH239866   3.505   3.424   1.333
13308TIP3    H139867   3.533   3.471   1.255
13308TIP3    H239868   3.579   3.429   1.393
13309TIP3   OH239869   8.325   0.854   4.353
13309TIP3    H139870   8.241   0.858   4.398
13309TIP3    H239871   8.303   0.835   4.262
13310TIP3   OH239872   1.781   3.502   4.583
13310TIP3    H139873   1.773   3.439   4.511
13310TIP3    H239874   1.862   3.477   4.628
13311TIP3   OH239875   5.742   5.606   6.226
13311TIP3    H139876   5.804   5.579   6.294
13311TIP3    H239877   5.778   5.688   6.192
13312TIP3   OH239878   8.141   4.041   4.722
13312TIP3    H139879   8.062   4.075   4.763
13312TIP3    H239880   8.127   4.055   4.628
13313TIP3   OH239881   8.236   5.646   3.536
13313TIP3    H139882   8.285   5.571   3.501
13313TIP3    H239883   8.269   5.657   3.626
13314TIP3   OH239884   0.622   4.604   6.089
13314TIP3    H139885   0.638   4.694   6.062
13314TIP3    H239886   0.634   4.605   6.184
13315TIP3   OH239887   6.624   7.103   4.899
13315TIP3    H139888   6.540   7.148   4.900
13315TIP3    H239889   6.639   7.085   4.806
13316TIP3   OH239890   2.764   4.248   5.225
13316TIP3    H139891   2.848   4.207   5.248
13316TIP3    H239892   2.703   4.217   5.293
13317TIP3   OH239893   6.681   2.962   2.586
13317TIP3    H139894   6.769   2.926   2.596
13317TIP3    H239895   6.646   2.966   2.675
13318TIP3   OH239896   7.781   3.473   2.564
13318TIP3    H139897   7.839   3.491   2.490
13318TIP3    H239898   7.693   3.484   2.528
13319TIP3   OH239899   1.856   0.741   6.750
13319TIP3    H139900   1.919   0.781   6.810
13319TIP3    H239901   1.832   0.811   6.689
13320TIP3   OH239902   5.477   6.315   3.620
13320TIP3    H139903   5.512   6.279   3.539
13320TIP3    H239904   5.382   6.308   3.610
13321TIP3   OH239905   5.426   6.359   2.910
13321TIP3    H139906   5.398   6.269   2.926
13321TIP3    H239907   5.496   6.374   2.974
13322TIP3   OH239908   2.624   6.399   2.115
13322TIP3    H139909   2.638   6.379   2.207
13322TIP3    H239910   2.530   6.411   2.107
13323TIP3   OH239911   7.872   0.174   1.795
13323TIP3    H139912   7.950   0.162   1.849
13323TIP3    H239913   7.906   0.201   1.710
13324TIP3   OH239914   7.817   0.083   5.222
13324TIP3    H139915   7.754   0.077   5.150
13324TIP3    H239916   7.897   0.041   5.188
13325TIP3   OH239917   2.620   7.361   4.499
13325TIP3    H139918   2.664   7.294   4.446
13325TIP3    H239919   2.669   7.363   4.581
13326TIP3   OH239920   1.044   7.258   2.375
13326TIP3    H139921   1.015   7.300   2.456
13326TIP3    H239922   1.102   7.188   2.404
13327TIP3   OH239923   2.253   7.159   5.736
13327TIP3    H139924   2.303   7.237   5.759
13327TIP3    H239925   2.177   7.192   5.688
13328TIP3   OH239926   0.725   1.218   0.789
13328TIP3    H139927   0.805   1.268   0.804
13328TIP3    H239928   0.697   1.242   0.700
13329TIP3   OH239929   6.275   2.363   0.131
13329TIP3    H139930   6.301   2.371   0.039
13329TIP3    H239931   6.349   2.398   0.180
13330TIP3   OH239932   7.595   7.223   4.740
13330TIP3    H139933   7.519   7.207   4.796
13330TIP3    H239934   7.665   7.245   4.802
13331TIP3   OH239935   2.965   5.077   0.421
13331TIP3    H139936   2.965   5.053   0.328
13331TIP3    H239937   3.017   5.158   0.424
13332TIP3   OH239938   0.859   1.218   4.511
13332TIP3    H139939   0.949   1.248   4.497
13332TIP3    H239940   0.816   1.227   4.426
13333TIP3   OH239941   2.844   5.728   3.655
13333TIP3    H139942   2.882   5.814   3.638
13333TIP3    H239943   2.797   5.706   3.574
13334TIP3   OH239944   2.898   1.573   3.866
13334TIP3    H139945   2.950   1.523   3.930
13334TIP3    H239946   2.963   1.605   3.803
13335TIP3   OH239947   1.220   4.910   0.576
13335TIP3    H139948   1.198   4.906   0.483
13335TIP3    H239949   1.260   4.997   0.587
13336TIP3   OH239950   5.729   1.905   6.388
13336TIP3    H139951   5.681   1.854   6.454
13336TIP3    H239952   5.688   1.882   6.305
13337TIP3   OH239953   7.305   3.133   4.789
13337TIP3    H139954   7.211   3.117   4.783
13337TIP3    H239955   7.343   3.048   4.810
13338TIP3   OH239956   4.627   2.891   1.726
13338TIP3    H139957   4.590   2.967   1.681
13338TIP3    H239958   4.669   2.927   1.804
13339TIP3   OH239959   4.917   7.181   5.062
13339TIP3    H139960   4.843   7.148   5.114
13339TIP3    H239961   4.887   7.265   5.027
13340TIP3   OH239962   4.335   4.735   1.718
13340TIP3    H139963   4.406   4.707   1.776
13340TIP3    H239964   4.277   4.659   1.713
13341TIP3   OH239965   5.440   7.345   1.773
13341TIP3    H139966   5.465   7.385   1.690
13341TIP3    H239967   5.358   7.299   1.755
13342TIP3   OH239968   4.649   5.026   2.696
13342TIP3    H139969   4.640   4.931   2.685
13342TIP3    H239970   4.643   5.040   2.790
13343TIP3   OH239971   2.726   3.653   5.151
13343TIP3    H139972   2.747   3.742   5.177
13343TIP3    H239973   2.631   3.653   5.137
13344TIP3   OH239974   5.458   1.157   1.828
13344TIP3    H139975   5.538   1.132   1.781
13344TIP3    H239976   5.489   1.177   1.917
13345TIP3   OH239977   7.474   0.986   2.755
13345TIP3    H139978   7.527   0.984   2.835
13345TIP3    H239979   7.537   0.997   2.684
13346TIP3   OH239980   2.160   5.722   3.108
13346TIP3    H139981   2.088   5.784   3.107
13346TIP3    H239982   2.222   5.757   3.044
13347TIP3   OH239983   6.681   3.660   1.745
13347TIP3    H139984   6.722   3.733   1.791
13347TIP3    H239985   6.732   3.583   1.771
13348TIP3   OH239986   8.266   1.118   0.799
13348TIP3    H139987   8.313   1.136   0.881
13348TIP3    H239988   8.313   1.170   0.733
13349TIP3   OH239989   3.986   0.837   0.914
13349TIP3    H139990   3.996   0.851   1.009
13349TIP3    H239991   4.039   0.906   0.874
13350TIP3   OH239992   4.418   5.123   4.874
13350TIP3    H139993   4.441   5.200   4.823
13350TIP3    H239994   4.381   5.062   4.809
13351TIP3   OH239995   3.731   3.600   3.086
13351TIP3    H139996   3.793   3.574   3.018
13351TIP3    H239997   3.648   3.559   3.060
13352TIP3   OH239998   0.418   5.661   1.806
13352TIP3    H139999   0.469   5.729   1.849
13352TIP3    H240000   0.345   5.708   1.764
13353TIP3   OH240001   4.383   7.316   1.705
13353TIP3    H140002   4.369   7.314   1.610
13353TIP3    H240003   4.386   7.409   1.727
13354TIP3   OH240004   4.262   5.594   6.153
13354TIP3    H140005   4.311   5.549   6.222
13354TIP3    H240006   4.293   5.555   6.072
13355TIP3   OH240007   7.068   4.322   3.205
13355TIP3    H140008   7.039   4.389   3.266
13355TIP3    H240009   7.144   4.360   3.160
13356TIP3   OH240010   3.872   6.327   0.542
13356TIP3    H140011   3.846   6.254   0.485
13356TIP3    H240012   3.932   6.287   0.605
13357TIP3   OH240013   4.072   6.227   4.672
13357TIP3    H140014   4.004   6.273   4.624
13357TIP3    H240015   4.108   6.294   4.731
13358TIP3   OH240016   6.029   1.508   0.303
13358TIP3    H140017   6.004   1.599   0.321
13358TIP3    H240018   6.059   1.509   0.213
13359TIP3   OH240019   2.930   3.746   3.869
13359TIP3    H140020   2.996   3.805   3.833
13359TIP3    H240021   2.960   3.728   3.958
13360TIP3   OH240022   3.642   7.538   1.985
13360TIP3    H140023   3.681   7.516   1.900
13360TIP3    H240024   3.712   7.584   2.031
13361TIP3   OH240025   2.128   6.999   1.440
13361TIP3    H140026   2.034   7.017   1.429
13361TIP3    H240027   2.158   7.067   1.501
13362TIP3   OH240028   4.147   6.401   2.188
13362TIP3    H140029   4.198   6.479   2.169
13362TIP3    H240030   4.176   6.337   2.123
13363TIP3   OH240031   1.130   1.792   6.381
13363TIP3    H140032   1.058   1.851   6.402
13363TIP3    H240033   1.200   1.850   6.350
13364TIP3   OH240034   6.927   4.723   3.721
13364TIP3    H140035   6.977   4.723   3.640
13364TIP3    H240036   6.929   4.814   3.750
13365TIP3   OH240037   6.671   1.786   4.439
13365TIP3    H140038   6.625   1.868   4.456
13365TIP3    H240039   6.698   1.756   4.526
13366TIP3   OH240040   1.194   1.204   3.100
13366TIP3    H140041   1.150   1.235   3.020
13366TIP3    H240042   1.252   1.276   3.125
13367TIP3   OH240043   1.491   4.903   1.643
13367TIP3    H140044   1.462   4.890   1.553
13367TIP3    H240045   1.559   4.969   1.638
13368TIP3   OH240046   2.956   6.632   2.191
13368TIP3    H140047   2.981   6.709   2.243
13368TIP3    H240048   2.941   6.667   2.103
13369TIP3   OH240049   4.220   0.580   5.536
13369TIP3    H140050   4.302   0.534   5.554
13369TIP3    H240051   4.197   0.555   5.447
13370TIP3   OH240052   5.422   6.469   2.356
13370TIP3    H140053   5.461   6.383   2.373
13370TIP3    H240054   5.353   6.452   2.292
13371TIP3   OH240055   4.121   1.529   6.236
13371TIP3    H140056   4.203   1.480   6.230
13371TIP3    H240057   4.107   1.564   6.148
13372TIP3   OH240058   3.305   4.587   4.581
13372TIP3    H140059   3.373   4.575   4.647
13372TIP3    H240060   3.225   4.602   4.632
13373TIP3   OH240061   1.225   4.024   0.076
13373TIP3    H140062   1.249   3.956   0.138
13373TIP3    H240063   1.196   3.977  -0.002
13374TIP3   OH240064   7.036   2.554   5.731
13374TIP3    H140065   7.014   2.507   5.812
13374TIP3    H240066   7.092   2.494   5.683
13375TIP3   OH240067   5.675   5.334   0.734
13375TIP3    H140068   5.740   5.314   0.667
13375TIP3    H240069   5.620   5.256   0.737
13376TIP3   OH240070   0.853   3.728   1.239
13376TIP3    H140071   0.765   3.716   1.204
13376TIP3    H240072   0.874   3.646   1.284
13377TIP3   OH240073   6.863   6.604   2.740
13377TIP3    H140074   6.937   6.547   2.718
13377TIP3    H240075   6.799   6.587   2.671
13378TIP3   OH240076   6.156   3.964   0.329
13378TIP3    H140077   6.080   3.911   0.352
13378TIP3    H240078   6.147   3.980   0.235
13379TIP3   OH240079   6.308   1.008   2.619
13379TIP3    H140080   6.375   1.039   2.559
13379TIP3    H240081   6.229   0.999   2.565
13380TIP3   OH240082   2.133   6.111   5.260
13380TIP3    H140083   2.207   6.093   5.201
13380TIP3    H240084   2.152   6.197   5.297
13381TIP3   OH240085   1.565   0.854   6.103
13381TIP3    H140086   1.491   0.844   6.044
13381TIP3    H240087   1.582   0.766   6.135
13382TIP3   OH240088   5.320   7.266   0.863
13382TIP3    H140089   5.268   7.204   0.914
13382TIP3    H240090   5.360   7.323   0.928
13383TIP3   OH240091   5.318   1.557   3.522
13383TIP3    H140092   5.361   1.577   3.439
13383TIP3    H240093   5.379   1.589   3.589
13384TIP3   OH240094   2.682   4.451   4.563
13384TIP3    H140095   2.588   4.448   4.583
13384TIP3    H240096   2.724   4.469   4.647
13385TIP3   OH240097   7.390   3.292   5.012
13385TIP3    H140098   7.353   3.235   4.945
13385TIP3    H240099   7.451   3.237   5.060
13386TIP3   OH240100   4.948   2.043   5.143
13386TIP3    H140101   4.888   1.975   5.174
13386TIP3    H240102   4.924   2.121   5.192
13387TIP3   OH240103   4.467   3.512   5.683
13387TIP3    H140104   4.428   3.593   5.648
13387TIP3    H240105   4.421   3.442   5.635
13388TIP3   OH240106   3.765   3.277   3.329
13388TIP3    H140107   3.794   3.360   3.367
13388TIP3    H240108   3.672   3.290   3.311
13389TIP3   OH240109   7.562   2.368   6.160
13389TIP3    H140110   7.650   2.400   6.179
13389TIP3    H240111   7.575   2.276   6.137
13390TIP3   OH240112   4.849   4.764   3.815
13390TIP3    H140113   4.932   4.795   3.780
13390TIP3    H240114   4.796   4.843   3.824
13391TIP3   OH240115   5.531   6.632   4.408
13391TIP3    H140116   5.498   6.571   4.342
13391TIP3    H240117   5.512   6.589   4.492
13392TIP3   OH240118   1.760   3.679   5.596
13392TIP3    H140119   1.821   3.748   5.623
13392TIP3    H240120   1.709   3.661   5.675
13393TIP3   OH240121   0.181   2.525   3.514
13393TIP3    H140122   0.140   2.587   3.453
13393TIP3    H240123   0.108   2.475   3.550
13394TIP3   OH240124   8.081   4.714   4.863
13394TIP3    H140125   8.074   4.717   4.959
13394TIP3    H240126   8.161   4.762   4.843
13395TIP3   OH240127   3.155   5.013   1.155
13395TIP3    H140128   3.090   5.078   1.180
13395TIP3    H240129   3.111   4.929   1.169
13396TIP3   OH240130   1.783   6.791   6.699
13396TIP3    H140131   1.694   6.824   6.697
13396TIP3    H240132   1.806   6.779   6.607
13397TIP3   OH240133   6.392   5.563   0.393
13397TIP3    H140134   6.335   5.630   0.357
13397TIP3    H240135   6.346   5.530   0.470
13398TIP3   OH240136   4.915   7.385   2.721
13398TIP3    H140137   4.874   7.464   2.686
13398TIP3    H240138   5.002   7.413   2.749
13399TIP3   OH240139   7.348   1.578   0.270
13399TIP3    H140140   7.345   1.661   0.223
13399TIP3    H240141   7.263   1.573   0.315
13400TIP3   OH240142   1.172   2.903   4.164
13400TIP3    H140143   1.098   2.952   4.128
13400TIP3    H240144   1.152   2.811   4.145
13401TIP3   OH240145   0.499   1.619   0.570
13401TIP3    H140146   0.485   1.597   0.662
13401TIP3    H240147   0.592   1.642   0.564
13402TIP3   OH240148   5.311   3.270   2.437
13402TIP3    H140149   5.257   3.210   2.387
13402TIP3    H240150   5.276   3.266   2.526
13403TIP3   OH240151   3.760   3.454   3.533
13403TIP3    H140152   3.734   3.373   3.577
13403TIP3    H240153   3.767   3.519   3.604
13404TIP3   OH240154   2.769   0.777   2.470
13404TIP3    H140155   2.850   0.828   2.468
13404TIP3    H240156   2.749   0.767   2.563
13405TIP3   OH240157   2.990   1.782   0.884
13405TIP3    H140158   3.011   1.863   0.839
13405TIP3    H240159   2.926   1.807   0.951
13406TIP3   OH240160   7.605   3.283   0.245
13406TIP3    H140161   7.523   3.301   0.291
13406TIP3    H240162   7.581   3.221   0.176
13407TIP3   OH240163   0.266   4.997   6.070
13407TIP3    H140164   0.179   4.958   6.080
13407TIP3    H240165   0.310   4.979   6.153
13408TIP3   OH240166   4.172   7.577   2.101
13408TIP3    H140167   4.178   7.671   2.120
13408TIP3    H240168   4.166   7.573   2.005
13409TIP3   OH240169   7.577   3.257   1.197
13409TIP3    H140170   7.669   3.248   1.221
13409TIP3    H240171   7.579   3.317   1.122
13410TIP3   OH240172   2.800   3.148   3.856
13410TIP3    H140173   2.793   3.086   3.784
13410TIP3    H240174   2.709   3.170   3.878
13411TIP3   OH240175   6.619   6.942   3.968
13411TIP3    H140176   6.539   6.937   3.916
13411TIP3    H240177   6.644   6.851   3.981
13412TIP3   OH240178   7.376   5.272   6.450
13412TIP3    H140179   7.435   5.197   6.450
13412TIP3    H240180   7.288   5.234   6.452
13413TIP3   OH240181   0.456   1.697   5.455
13413TIP3    H140182   0.543   1.664   5.431
13413TIP3    H240183   0.409   1.705   5.372
13414TIP3   OH240184   6.469   5.431   4.347
13414TIP3    H140185   6.547   5.406   4.397
13414TIP3    H240186   6.458   5.524   4.363
13415TIP3   OH240187   4.667   6.432   2.569
13415TIP3    H140188   4.584   6.392   2.594
13415TIP3    H240189   4.677   6.505   2.630
13416TIP3   OH240190   5.301   5.862   1.575
13416TIP3    H140191   5.351   5.781   1.566
13416TIP3    H240192   5.214   5.833   1.603
13417TIP3   OH240193   2.329   5.637   0.854
13417TIP3    H140194   2.314   5.624   0.947
13417TIP3    H240195   2.300   5.556   0.813
13418TIP3   OH240196   3.873   2.253   4.000
13418TIP3    H140197   3.950   2.216   3.957
13418TIP3    H240198   3.887   2.235   4.093
13419TIP3   OH240199   1.776   1.943   4.834
13419TIP3    H140200   1.829   1.889   4.894
13419TIP3    H240201   1.765   2.026   4.880
13420TIP3   OH240202   6.182   5.103   2.976
13420TIP3    H140203   6.261   5.081   2.925
13420TIP3    H240204   6.206   5.082   3.067
13421TIP3   OH240205   8.271   2.324   4.480
13421TIP3    H140206   8.182   2.359   4.487
13421TIP3    H240207   8.306   2.329   4.569
13422TIP3   OH240208   0.556   4.012   3.276
13422TIP3    H140209   0.621   4.079   3.294
13422TIP3    H240210   0.490   4.056   3.223
13423TIP3   OH240211   6.483   1.944   5.134
13423TIP3    H140212   6.398   1.921   5.097
13423TIP3    H240213   6.461   2.005   5.205
13424TIP3   OH240214   2.897   2.684   3.267
13424TIP3    H140215   2.982   2.686   3.223
13424TIP3    H240216   2.845   2.750   3.220
13425TIP3   OH240217   0.734   7.190   1.070
13425TIP3    H140218   0.776   7.245   1.004
13425TIP3    H240219   0.771   7.220   1.154
13426TIP3   OH240220   1.871   1.707   5.332
13426TIP3    H140221   1.798   1.656   5.367
13426TIP3    H240222   1.835   1.794   5.317
13427TIP3   OH240223   2.893   7.293   0.196
13427TIP3    H140224   2.922   7.329   0.280
13427TIP3    H240225   2.805   7.259   0.213
13428TIP3   OH240226   3.690   1.662   6.115
13428TIP3    H140227   3.706   1.756   6.103
13428TIP3    H240228   3.703   1.648   6.209
13429TIP3   OH240229   6.591   6.347   2.994
13429TIP3    H140230   6.651   6.345   2.919
13429TIP3    H240231   6.522   6.285   2.972
13430TIP3   OH240232   4.690   6.472   4.913
13430TIP3    H140233   4.721   6.477   5.004
13430TIP3    H240234   4.610   6.525   4.912
13431TIP3   OH240235   6.641   7.532   5.888
13431TIP3    H140236   6.688   7.508   5.967
13431TIP3    H240237   6.586   7.606   5.914
13432TIP3   OH240238   8.211   3.296   3.256
13432TIP3    H140239   8.170   3.366   3.306
13432TIP3    H240240   8.146   3.272   3.191
13433TIP3   OH240241   7.916   3.976   4.480
13433TIP3    H140242   7.835   4.024   4.495
13433TIP3    H240243   7.973   4.038   4.435
13434TIP3   OH240244   7.996   1.075   2.525
13434TIP3    H140245   8.009   1.038   2.438
13434TIP3    H240246   8.049   1.020   2.582
13435TIP3   OH240247   1.045   3.978   6.420
13435TIP3    H140248   1.058   3.895   6.374
13435TIP3    H240249   1.133   4.006   6.445
13436TIP3   OH240250   1.319   2.384   2.627
13436TIP3    H140251   1.345   2.363   2.717
13436TIP3    H240252   1.289   2.301   2.590
13437TIP3   OH240253   4.650   6.777   2.268
13437TIP3    H140254   4.580   6.824   2.312
13437TIP3    H240255   4.610   6.693   2.243
13438TIP3   OH240256   6.517   5.955   5.366
13438TIP3    H140257   6.544   5.938   5.457
13438TIP3    H240258   6.421   5.957   5.370
13439TIP3   OH240259   2.814   4.460   2.376
13439TIP3    H140260   2.875   4.399   2.334
13439TIP3    H240261   2.732   4.412   2.381
13440TIP3   OH240262   7.724   7.795   2.680
13440TIP3    H140263   7.818   7.786   2.661
13440TIP3    H240264   7.694   7.865   2.621
13441TIP3   OH240265   4.000   4.393   3.800
13441TIP3    H140266   4.049   4.383   3.719
13441TIP3    H240267   3.909   4.403   3.773
13442TIP3   OH240268   5.683   4.643   1.664
13442TIP3    H140269   5.610   4.587   1.637
13442TIP3    H240270   5.761   4.588   1.652
13443TIP3   OH240271   4.222   2.504   4.620
13443TIP3    H140272   4.157   2.572   4.637
13443TIP3    H240273   4.271   2.496   4.702
13444TIP3   OH240274   5.909   3.776   6.379
13444TIP3    H140275   5.987   3.750   6.330
13444TIP3    H240276   5.836   3.751   6.321
13445TIP3   OH240277   4.558   2.232   5.782
13445TIP3    H140278   4.480   2.285   5.796
13445TIP3    H240279   4.578   2.197   5.869
13446TIP3   OH240280   7.848   2.895   4.248
13446TIP3    H140281   7.804   2.819   4.209
13446TIP3    H240282   7.791   2.920   4.320
13447TIP3   OH240283   6.467   2.575   3.097
13447TIP3    H140284   6.557   2.576   3.130
13447TIP3    H240285   6.468   2.510   3.027
13448TIP3   OH240286   3.920   5.762   4.446
13448TIP3    H140287   3.827   5.778   4.462
13448TIP3    H240288   3.964   5.839   4.482
13449TIP3   OH240289   5.807   3.066   1.414
13449TIP3    H140290   5.816   2.971   1.427
13449TIP3    H240291   5.892   3.094   1.380
13450TIP3   OH240292   1.853   6.753   3.883
13450TIP3    H140293   1.937   6.759   3.837
13450TIP3    H240294   1.800   6.823   3.844
13451TIP3   OH240295   6.470   5.975   1.126
13451TIP3    H140296   6.563   5.972   1.101
13451TIP3    H240297   6.441   6.061   1.097
13452TIP3   OH240298   3.448   2.814   2.988
13452TIP3    H140299   3.393   2.750   3.033
13452TIP3    H240300   3.509   2.845   3.055
13453TIP3   OH240301   3.700   7.777   2.413
13453TIP3    H140302   3.686   7.825   2.331
13453TIP3    H240303   3.795   7.775   2.423
13454TIP3   OH240304   7.989   3.757   0.078
13454TIP3    H140305   7.963   3.828   0.137
13454TIP3    H240306   7.960   3.677   0.122
13455TIP3   OH240307   0.206   2.321   3.919
13455TIP3    H140308   0.284   2.333   3.864
13455TIP3    H240309   0.147   2.269   3.865
13456TIP3   OH240310   0.478   5.088   0.470
13456TIP3    H140311   0.504   5.048   0.386
13456TIP3    H240312   0.458   5.013   0.526
13457TIP3   OH240313   2.361   3.721   0.667
13457TIP3    H140314   2.376   3.812   0.695
13457TIP3    H240315   2.407   3.669   0.733
13458TIP3   OH240316   6.129   3.917   2.952
13458TIP3    H140317   6.215   3.959   2.953
13458TIP3    H240318   6.141   3.836   3.002
13459TIP3   OH240319   8.089   5.560   5.307
13459TIP3    H140320   8.071   5.557   5.401
13459TIP3    H240321   8.124   5.648   5.292
13460TIP3   OH240322   4.336   5.208   6.515
13460TIP3    H140323   4.305   5.142   6.453
13460TIP3    H240324   4.278   5.200   6.590
13461TIP3   OH240325   0.568   4.997   3.974
13461TIP3    H140326   0.525   5.074   3.938
13461TIP3    H240327   0.661   5.010   3.953
13462TIP3   OH240328   7.818   4.441   3.754
13462TIP3    H140329   7.847   4.350   3.761
13462TIP3    H240330   7.774   4.446   3.669
13463TIP3   OH240331   4.243   6.845   0.545
13463TIP3    H140332   4.246   6.750   0.554
13463TIP3    H240333   4.168   6.873   0.598
13464TIP3   OH240334   7.920   3.080   3.419
13464TIP3    H140335   7.963   3.159   3.453
13464TIP3    H240336   7.979   3.008   3.442
13465TIP3   OH240337   1.726   4.974   0.109
13465TIP3    H140338   1.687   4.997   0.024
13465TIP3    H240339   1.818   4.958   0.089
13466TIP3   OH240340   1.662   6.343   5.479
13466TIP3    H140341   1.628   6.276   5.419
13466TIP3    H240342   1.756   6.326   5.483
13467TIP3   OH240343   5.842   7.267   1.475
13467TIP3    H140344   5.929   7.301   1.496
13467TIP3    H240345   5.858   7.177   1.445
13468TIP3   OH240346   8.179   5.840   4.291
13468TIP3    H140347   8.186   5.933   4.312
13468TIP3    H240348   8.208   5.795   4.370
13469TIP3   OH240349   1.901   2.301   0.777
13469TIP3    H140350   1.868   2.320   0.690
13469TIP3    H240351   1.996   2.302   0.768
13470TIP3   OH240352   1.790   1.266   4.583
13470TIP3    H140353   1.744   1.316   4.650
13470TIP3    H240354   1.720   1.217   4.538
13471TIP3   OH240355   2.480   7.625   3.814
13471TIP3    H140356   2.434   7.577   3.745
13471TIP3    H240357   2.419   7.628   3.887
13472TIP3   OH240358   1.189   7.678   6.461
13472TIP3    H140359   1.241   7.681   6.541
13472TIP3    H240360   1.175   7.584   6.445
13473TIP3   OH240361   4.410   1.874   1.364
13473TIP3    H140362   4.376   1.839   1.446
13473TIP3    H240363   4.346   1.941   1.338
13474TIP3   OH240364   0.500   4.779   6.596
13474TIP3    H140365   0.412   4.741   6.601
13474TIP3    H240366   0.505   4.836   6.673
13475TIP3   OH240367   5.952   6.867   2.684
13475TIP3    H140368   5.887   6.848   2.752
13475TIP3    H240369   5.900   6.885   2.606
13476TIP3   OH240370   1.382   3.535   3.491
13476TIP3    H140371   1.299   3.526   3.442
13476TIP3    H240372   1.409   3.625   3.475
13477TIP3   OH240373   7.134   6.628   5.186
13477TIP3    H140374   7.187   6.708   5.196
13477TIP3    H240375   7.094   6.615   5.272
13478TIP3   OH240376   3.625   4.007   5.556
13478TIP3    H140377   3.704   4.060   5.546
13478TIP3    H240378   3.607   3.975   5.467
13479TIP3   OH240379   0.314   3.826   1.157
13479TIP3    H140380   0.332   3.767   1.229
13479TIP3    H240381   0.385   3.891   1.161
13480TIP3   OH240382   0.264   2.527   4.770
13480TIP3    H140383   0.219   2.445   4.747
13480TIP3    H240384   0.353   2.516   4.737
13481TIP3   OH240385   6.397   5.813   0.521
13481TIP3    H140386   6.444   5.730   0.511
13481TIP3    H240387   6.375   5.817   0.614
13482TIP3   OH240388   3.484   5.431   0.103
13482TIP3    H140389   3.554   5.479   0.148
13482TIP3    H240390   3.404   5.462   0.146
13483TIP3   OH240391   1.889   4.408   1.710
13483TIP3    H140392   1.837   4.470   1.659
13483TIP3    H240393   1.830   4.377   1.779
13484TIP3   OH240394   3.416   3.794   5.105
13484TIP3    H140395   3.341   3.736   5.093
13484TIP3    H240396   3.390   3.876   5.064
13485TIP3   OH240397   7.548   2.708   1.131
13485TIP3    H140398   7.578   2.621   1.159
13485TIP3    H240399   7.621   2.766   1.152
13486TIP3   OH240400   0.315   3.745   5.953
13486TIP3    H140401   0.399   3.732   5.996
13486TIP3    H240402   0.263   3.794   6.017
13487TIP3   OH240403   4.198   5.945   1.221
13487TIP3    H140404   4.156   5.894   1.152
13487TIP3    H240405   4.134   6.014   1.242
13488TIP3   OH240406   5.133   2.938   6.324
13488TIP3    H140407   5.157   2.920   6.233
13488TIP3    H240408   5.131   3.034   6.329
13489TIP3   OH240409   1.644   3.912   1.000
13489TIP3    H140410   1.577   3.978   0.979
13489TIP3    H240411   1.601   3.828   0.981
13490TIP3   OH240412   2.692   0.733   3.633
13490TIP3    H140413   2.697   0.807   3.694
13490TIP3    H240414   2.599   0.724   3.615
13491TIP3   OH240415   5.832   2.742   1.608
13491TIP3    H140416   5.914   2.695   1.623
13491TIP3    H240417   5.826   2.805   1.680
13492TIP3   OH240418   7.174   3.611   6.601
13492TIP3    H140419   7.187   3.530   6.551
13492TIP3    H240420   7.104   3.590   6.663
13493TIP3   OH240421   1.422   0.223   4.456
13493TIP3    H140422   1.496   0.274   4.425
13493TIP3    H240423   1.372   0.202   4.377
13494TIP3   OH240424   3.796   4.142   4.634
13494TIP3    H140425   3.833   4.192   4.707
13494TIP3    H240426   3.808   4.199   4.557
13495TIP3   OH240427   0.849   0.300   6.449
13495TIP3    H140428   0.843   0.324   6.541
13495TIP3    H240429   0.938   0.266   6.438
13496TIP3   OH240430   5.486   4.078   0.876
13496TIP3    H140431   5.414   4.042   0.927
13496TIP3    H240432   5.539   4.002   0.852
13497TIP3   OH240433   2.309   5.384   0.766
13497TIP3    H140434   2.399   5.400   0.793
13497TIP3    H240435   2.283   5.305   0.814
13498TIP3   OH240436   6.927   7.551   3.606
13498TIP3    H140437   6.969   7.507   3.532
13498TIP3    H240438   6.999   7.588   3.656
13499TIP3   OH240439   0.652   6.099   4.038
13499TIP3    H140440   0.560   6.123   4.043
13499TIP3    H240441   0.699   6.180   4.055
13500TIP3   OH240442   4.652   0.227   1.655
13500TIP3    H140443   4.633   0.166   1.726
13500TIP3    H240444   4.636   0.176   1.575
13501TIP3   OH240445   5.094   1.175   5.071
13501TIP3    H140446   5.015   1.134   5.036
13501TIP3    H240447   5.110   1.128   5.153
13502TIP3   OH240448   7.134   2.253   3.167
13502TIP3    H140449   7.148   2.193   3.241
13502TIP3    H240450   7.143   2.340   3.205
13503TIP3   OH240451   1.626   2.397   3.597
13503TIP3    H140452   1.705   2.350   3.571
13503TIP3    H240453   1.562   2.376   3.529
13504TIP3   OH240454   0.461   5.375   1.074
13504TIP3    H140455   0.387   5.422   1.113
13504TIP3    H240456   0.447   5.383   0.980
13505TIP3   OH240457   2.354   2.142   2.966
13505TIP3    H140458   2.301   2.212   2.926
13505TIP3    H240459   2.441   2.182   2.978
13506TIP3   OH240460   2.314   3.919   2.589
13506TIP3    H140461   2.291   3.863   2.515
13506TIP3    H240462   2.345   3.859   2.657
13507TIP3   OH240463   1.812   1.348   1.430
13507TIP3    H140464   1.801   1.365   1.524
13507TIP3    H240465   1.724   1.352   1.394
13508TIP3   OH240466   1.715   1.806   4.378
13508TIP3    H140467   1.801   1.847   4.381
13508TIP3    H240468   1.677   1.825   4.464
13509TIP3   OH240469   8.107   7.710   5.455
13509TIP3    H140470   8.111   7.787   5.512
13509TIP3    H240471   8.051   7.648   5.502
13510TIP3   OH240472   1.628   0.420   3.890
13510TIP3    H140473   1.615   0.331   3.858
13510TIP3    H240474   1.688   0.409   3.965
13511TIP3   OH240475   7.044   1.928   2.790
13511TIP3    H140476   7.063   1.839   2.817
13511TIP3    H240477   6.996   1.967   2.864
13512TIP3   OH240478   1.401   7.856   6.293
13512TIP3    H140479   1.484   7.821   6.327
13512TIP3    H240480   1.341   7.782   6.297
13513TIP3   OH240481   2.149   1.674   0.257
13513TIP3    H140482   2.161   1.751   0.202
13513TIP3    H240483   2.083   1.621   0.211
13514TIP3   OH240484   3.370   6.427   1.121
13514TIP3    H140485   3.282   6.402   1.092
13514TIP3    H240486   3.356   6.474   1.203
13515TIP3   OH240487   5.296   6.777   4.187
13515TIP3    H140488   5.202   6.797   4.180
13515TIP3    H240489   5.303   6.723   4.266
13516TIP3   OH240490   2.888   3.681   0.252
13516TIP3    H140491   2.827   3.697   0.180
13516TIP3    H240492   2.944   3.759   0.252
13517TIP3   OH240493   4.785   1.421   4.157
13517TIP3    H140494   4.808   1.330   4.139
13517TIP3    H240495   4.690   1.420   4.170
13518TIP3   OH240496   2.725   6.397   1.458
13518TIP3    H140497   2.725   6.410   1.364
13518TIP3    H240498   2.737   6.303   1.470
13519TIP3   OH240499   7.493   3.646   4.014
13519TIP3    H140500   7.553   3.673   3.944
13519TIP3    H240501   7.440   3.577   3.973
13520TIP3   OH240502   0.682   6.347   1.289
13520TIP3    H140503   0.687   6.266   1.341
13520TIP3    H240504   0.588   6.363   1.279
13521TIP3   OH240505   4.548   1.642   5.157
13521TIP3    H140506   4.506   1.664   5.074
13521TIP3    H240507   4.541   1.722   5.209
13522TIP3   OH240508   1.240   4.455   2.254
13522TIP3    H140509   1.270   4.448   2.344
13522TIP3    H240510   1.197   4.371   2.236
13523TIP3   OH240511   6.116   5.270   0.114
13523TIP3    H140512   6.192   5.291   0.061
13523TIP3    H240513   6.047   5.252   0.050
13524TIP3   OH240514   4.279   5.007   0.552
13524TIP3    H140515   4.346   4.941   0.533
13524TIP3    H240516   4.298   5.078   0.491
13525TIP3   OH240517   2.159   3.431   4.504
13525TIP3    H140518   2.198   3.388   4.427
13525TIP3    H240519   2.228   3.431   4.570
13526TIP3   OH240520   0.059   5.657   2.491
13526TIP3    H140521   0.082   5.564   2.499
13526TIP3    H240522  -0.035   5.657   2.476
13527TIP3   OH240523   3.941   4.659   2.710
13527TIP3    H140524   3.988   4.735   2.743
13527TIP3    H240525   3.959   4.590   2.773
13528TIP3   OH240526   0.710   4.279   5.800
13528TIP3    H140527   0.670   4.254   5.717
13528TIP3    H240528   0.638   4.278   5.863
13529TIP3   OH240529   4.363   0.485   6.303
13529TIP3    H140530   4.347   0.572   6.340
13529TIP3    H240531   4.281   0.462   6.260
13530TIP3   OH240532   7.794   7.149   0.186
13530TIP3    H140533   7.814   7.241   0.165
13530TIP3    H240534   7.700   7.141   0.173
13531TIP3   OH240535   0.524   6.149   2.598
13531TIP3    H140536   0.539   6.113   2.686
13531TIP3    H240537   0.492   6.075   2.547
13532TIP3   OH240538   5.835   5.950   4.467
13532TIP3    H140539   5.829   5.873   4.410
13532TIP3    H240540   5.869   6.020   4.411
13533TIP3   OH240541   1.310   0.426   5.060
13533TIP3    H140542   1.231   0.372   5.057
13533TIP3    H240543   1.281   0.508   5.099
13534TIP3   OH240544   3.345   2.423   4.492
13534TIP3    H140545   3.325   2.373   4.413
13534TIP3    H240546   3.333   2.514   4.466
13535TIP3   OH240547   7.723   2.838   4.988
13535TIP3    H140548   7.637   2.863   4.955
13535TIP3    H240549   7.781   2.909   4.960
13536TIP3   OH240550   6.611   4.303   2.448
13536TIP3    H140551   6.619   4.396   2.427
13536TIP3    H240552   6.629   4.299   2.542
13537TIP3   OH240553   5.282   5.626   2.937
13537TIP3    H140554   5.215   5.692   2.918
13537TIP3    H240555   5.342   5.631   2.863
13538TIP3   OH240556   6.747   6.223   6.090
13538TIP3    H140557   6.653   6.241   6.085
13538TIP3    H240558   6.757   6.134   6.058
13539TIP3   OH240559   8.038   6.962   1.297
13539TIP3    H140560   7.982   6.944   1.373
13539TIP3    H240561   8.043   6.878   1.251
13540TIP3   OH240562   5.395   4.845   0.452
13540TIP3    H140563   5.420   4.757   0.482
13540TIP3    H240564   5.303   4.836   0.426
13541TIP3   OH240565   3.745   2.788   1.660
13541TIP3    H140566   3.700   2.704   1.673
13541TIP3    H240567   3.742   2.830   1.746
13542TIP3   OH240568   3.381   1.639   3.153
13542TIP3    H140569   3.477   1.643   3.160
13542TIP3    H240570   3.351   1.621   3.242
13543TIP3   OH240571   5.736   6.737   3.664
13543TIP3    H140572   5.805   6.671   3.669
13543TIP3    H240573   5.729   6.772   3.753
13544TIP3   OH240574   2.929   3.032   2.721
13544TIP3    H140575   2.977   3.060   2.643
13544TIP3    H240576   2.853   2.985   2.687
13545TIP3   OH240577   3.031   0.584   4.467
13545TIP3    H140578   2.993   0.501   4.438
13545TIP3    H240579   3.088   0.560   4.540
13546TIP3   OH240580   6.955   4.273   5.046
13546TIP3    H140581   6.943   4.183   5.076
13546TIP3    H240582   6.918   4.274   4.958
13547TIP3   OH240583   2.264   7.507   1.191
13547TIP3    H140584   2.222   7.578   1.143
13547TIP3    H240585   2.194   7.442   1.204
13548TIP3   OH240586   2.884   7.811   0.834
13548TIP3    H140587   2.871   7.754   0.910
13548TIP3    H240588   2.977   7.803   0.814
13549TIP3   OH240589   7.078   7.267   5.503
13549TIP3    H140590   7.043   7.212   5.573
13549TIP3    H240591   7.031   7.350   5.511
13550TIP3   OH240592   0.250   6.032   5.872
13550TIP3    H140593   0.284   6.121   5.883
13550TIP3    H240594   0.263   5.990   5.957
13551TIP3   OH240595   3.203   2.409   5.957
13551TIP3    H140596   3.161   2.456   6.030
13551TIP3    H240597   3.258   2.475   5.915
13552TIP3   OH240598   7.149   6.106   5.103
13552TIP3    H140599   7.065   6.062   5.114
13552TIP3    H240600   7.213   6.034   5.101
13553TIP3   OH240601   8.213   7.843   6.368
13553TIP3    H140602   8.227   7.767   6.311
13553TIP3    H240603   8.300   7.862   6.403
13554TIP3   OH240604   3.090   1.254   1.861
13554TIP3    H140605   3.128   1.168   1.841
13554TIP3    H240606   3.115   1.271   1.952
13555TIP3   OH240607   7.458   6.971   2.367
13555TIP3    H140608   7.440   6.918   2.445
13555TIP3    H240609   7.377   7.020   2.353
13556TIP3   OH240610   3.644   2.832   6.260
13556TIP3    H140611   3.691   2.755   6.294
13556TIP3    H240612   3.611   2.803   6.175
13557TIP3   OH240613   2.292   3.489   5.352
13557TIP3    H140614   2.233   3.418   5.327
13557TIP3    H240615   2.369   3.477   5.297
13558TIP3   OH240616   1.000   7.039   5.380
13558TIP3    H140617   0.970   7.053   5.291
13558TIP3    H240618   0.970   6.951   5.403
13559TIP3   OH240619   7.275   1.943   2.205
13559TIP3    H140620   7.339   2.013   2.202
13559TIP3    H240621   7.229   1.956   2.287
13560TIP3   OH240622   6.831   3.425   1.706
13560TIP3    H140623   6.769   3.361   1.673
13560TIP3    H240624   6.884   3.377   1.770
13561TIP3   OH240625   3.293   1.349   3.268
13561TIP3    H140626   3.303   1.289   3.341
13561TIP3    H240627   3.300   1.436   3.307
13562TIP3   OH240628   0.878   6.622   3.381
13562TIP3    H140629   0.784   6.626   3.397
13562TIP3    H240630   0.904   6.535   3.410
13563TIP3   OH240631   7.821   1.545   5.013
13563TIP3    H140632   7.757   1.477   5.035
13563TIP3    H240633   7.769   1.624   5.001
13564TIP3   OH240634   3.138   6.474   2.489
13564TIP3    H140635   3.213   6.419   2.512
13564TIP3    H240636   3.078   6.415   2.443
13565TIP3   OH240637   3.449   6.177   2.913
13565TIP3    H140638   3.363   6.198   2.949
13565TIP3    H240639   3.464   6.086   2.940
13566TIP3   OH240640   0.738   4.762   5.607
13566TIP3    H140641   0.714   4.713   5.528
13566TIP3    H240642   0.778   4.696   5.664
13567TIP3   OH240643   7.948   1.274   3.161
13567TIP3    H140644   7.962   1.260   3.068
13567TIP3    H240645   7.858   1.307   3.167
13568TIP3   OH240646   6.386   4.103   1.651
13568TIP3    H140647   6.318   4.072   1.591
13568TIP3    H240648   6.437   4.024   1.672
13569TIP3   OH240649   6.804   6.416   5.071
13569TIP3    H140650   6.895   6.394   5.051
13569TIP3    H240651   6.787   6.371   5.154
13570TIP3   OH240652   1.821   3.680   3.714
13570TIP3    H140653   1.740   3.656   3.759
13570TIP3    H240654   1.856   3.753   3.765
13571TIP3   OH240655   1.305   4.053   6.490
13571TIP3    H140656   1.360   3.976   6.502
13571TIP3    H240657   1.325   4.083   6.401
13572TIP3   OH240658   0.603   6.439   2.145
13572TIP3    H140659   0.597   6.418   2.239
13572TIP3    H240660   0.537   6.506   2.131
13573TIP3   OH240661   0.389   7.144   0.442
13573TIP3    H140662   0.422   7.119   0.528
13573TIP3    H240663   0.296   7.122   0.444
13574TIP3   OH240664   2.138   2.289   3.911
13574TIP3    H140665   2.123   2.384   3.908
13574TIP3    H240666   2.083   2.253   3.841
13575TIP3   OH240667   0.950   7.408   3.881
13575TIP3    H140668   0.992   7.338   3.930
13575TIP3    H240669   0.886   7.445   3.942
13576TIP3   OH240670   7.260   0.526   2.723
13576TIP3    H140671   7.311   0.557   2.798
13576TIP3    H240672   7.317   0.461   2.681
13577TIP3   OH240673   2.147   3.051   3.504
13577TIP3    H140674   2.159   3.131   3.452
13577TIP3    H240675   2.096   3.079   3.580
13578TIP3   OH240676   3.816   2.055   3.777
13578TIP3    H140677   3.724   2.068   3.752
13578TIP3    H240678   3.829   2.114   3.852
13579TIP3   OH240679   3.084   1.697   1.256
13579TIP3    H140680   3.106   1.687   1.349
13579TIP3    H240681   3.118   1.783   1.232
13580TIP3   OH240682   0.589   1.617   6.104
13580TIP3    H140683   0.680   1.642   6.122
13580TIP3    H240684   0.554   1.594   6.190
13581TIP3   OH240685   2.386   7.184   6.404
13581TIP3    H140686   2.295   7.193   6.376
13581TIP3    H240687   2.381   7.134   6.485
13582TIP3   OH240688   4.225   2.107   0.668
13582TIP3    H140689   4.239   2.125   0.574
13582TIP3    H240690   4.134   2.132   0.683
13583TIP3   OH240691   6.305   6.355   2.682
13583TIP3    H140692   6.328   6.426   2.621
13583TIP3    H240693   6.223   6.384   2.722
13584TIP3   OH240694   2.713   5.534   0.655
13584TIP3    H140695   2.719   5.488   0.571
13584TIP3    H240696   2.691   5.465   0.718
13585TIP3   OH240697   2.035   4.029   2.738
13585TIP3    H140698   2.123   3.996   2.719
13585TIP3    H240699   1.991   4.030   2.654
13586TIP3   OH240700   6.988   6.749   4.434
13586TIP3    H140701   6.949   6.835   4.451
13586TIP3    H240702   7.080   6.759   4.457
13587TIP3   OH240703   4.889   5.173   1.257
13587TIP3    H140704   4.933   5.126   1.328
13587TIP3    H240705   4.959   5.196   1.196
13588TIP3   OH240706   4.367   1.599   4.905
13588TIP3    H140707   4.272   1.593   4.895
13588TIP3    H240708   4.397   1.508   4.908
13589TIP3   OH240709   4.594   7.346   0.884
13589TIP3    H140710   4.521   7.373   0.940
13589TIP3    H240711   4.636   7.428   0.858
13590TIP3   OH240712   7.313   6.035   3.790
13590TIP3    H140713   7.317   5.947   3.751
13590TIP3    H240714   7.251   6.083   3.736
13591TIP3   OH240715   1.655   5.438   5.587
13591TIP3    H140716   1.694   5.426   5.500
13591TIP3    H240717   1.562   5.447   5.570
13592TIP3   OH240718   7.034   1.287   0.593
13592TIP3    H140719   7.124   1.309   0.568
13592TIP3    H240720   6.998   1.368   0.629
13593TIP3   OH240721   1.406   0.252   0.263
13593TIP3    H140722   1.493   0.290   0.252
13593TIP3    H240723   1.416   0.190   0.335
13594TIP3   OH240724   7.853   3.085   1.697
13594TIP3    H140725   7.778   3.098   1.756
13594TIP3    H240726   7.894   3.171   1.691
13595TIP3   OH240727   1.719   7.055   6.205
13595TIP3    H140728   1.676   7.138   6.186
13595TIP3    H240729   1.702   7.038   6.297
13596TIP3   OH240730   2.262   2.922   2.599
13596TIP3    H140731   2.173   2.892   2.618
13596TIP3    H240732   2.319   2.850   2.628
13597TIP3   OH240733   3.156   4.629   6.743
13597TIP3    H140734   3.161   4.721   6.767
13597TIP3    H240735   3.138   4.584   6.825
13598TIP3   OH240736   5.837   7.830   4.443
13598TIP3    H140737   5.752   7.787   4.437
13598TIP3    H240738   5.895   7.778   4.387
13599TIP3   OH240739   5.057   4.815   6.351
13599TIP3    H140740   5.129   4.756   6.332
13599TIP3    H240741   4.995   4.802   6.279
13600TIP3   OH240742   6.062   2.627   1.617
13600TIP3    H140743   6.144   2.611   1.664
13600TIP3    H240744   6.088   2.680   1.542
13601TIP3   OH240745   3.885   6.381   3.320
13601TIP3    H140746   3.896   6.397   3.414
13601TIP3    H240747   3.844   6.460   3.286
13602TIP3   OH240748   1.950   0.318   6.084
13602TIP3    H140749   1.935   0.328   6.178
13602TIP3    H240750   1.977   0.405   6.054
13603TIP3   OH240751   0.543   7.126   0.693
13603TIP3    H140752   0.616   7.186   0.678
13603TIP3    H240753   0.499   7.161   0.771
13604TIP3   OH240754   7.772   2.174   4.515
13604TIP3    H140755   7.811   2.094   4.551
13604TIP3    H240756   7.701   2.143   4.459
13605TIP3   OH240757   2.660   1.038   2.167
13605TIP3    H140758   2.583   0.981   2.170
13605TIP3    H240759   2.733   0.980   2.144
13606TIP3   OH240760   7.856   0.017   3.650
13606TIP3    H140761   7.933   0.065   3.616
13606TIP3    H240762   7.876   0.001   3.742
13607TIP3   OH240763   7.148   5.396   0.464
13607TIP3    H140764   7.113   5.397   0.375
13607TIP3    H240765   7.132   5.307   0.495
13608TIP3   OH240766   1.405   2.765   6.648
13608TIP3    H140767   1.426   2.810   6.566
13608TIP3    H240768   1.423   2.673   6.630
13609TIP3   OH240769   7.313   5.852   0.631
13609TIP3    H140770   7.234   5.799   0.626
13609TIP3    H240771   7.283   5.940   0.653
13610TIP3   OH240772   7.122   4.274   3.867
13610TIP3    H140773   7.081   4.338   3.925
13610TIP3    H240774   7.145   4.324   3.789
13611TIP3   OH240775   8.013   2.483   4.453
13611TIP3    H140776   8.043   2.443   4.372
13611TIP3    H240777   7.919   2.466   4.456
13612TIP3   OH240778   3.284   6.314   5.373
13612TIP3    H140779   3.281   6.370   5.295
13612TIP3    H240780   3.340   6.241   5.348
13613TIP3   OH240781   3.668   4.268   3.253
13613TIP3    H140782   3.645   4.240   3.341
13613TIP3    H240783   3.754   4.309   3.262
13614TIP3   OH240784   6.821   5.405   0.529
13614TIP3    H140785   6.801   5.434   0.617
13614TIP3    H240786   6.916   5.390   0.529
13615TIP3   OH240787   5.455   1.613   3.012
13615TIP3    H140788   5.405   1.535   2.990
13615TIP3    H240789   5.398   1.686   2.990
13616TIP3   OH240790   1.953   7.705   1.277
13616TIP3    H140791   2.046   7.725   1.294
13616TIP3    H240792   1.946   7.704   1.182
13617TIP3   OH240793   0.280   1.717   4.222
13617TIP3    H140794   0.348   1.678   4.168
13617TIP3    H240795   0.248   1.645   4.276
13618TIP3   OH240796   0.452   0.407   6.645
13618TIP3    H140797   0.485   0.495   6.628
13618TIP3    H240798   0.357   0.415   6.638
13619TIP3   OH240799   8.136   4.685   2.820
13619TIP3    H140800   8.132   4.620   2.750
13619TIP3    H240801   8.229   4.707   2.826
13620TIP3   OH240802   6.209   1.871   6.399
13620TIP3    H140803   6.263   1.793   6.412
13620TIP3    H240804   6.178   1.894   6.487
13621TIP3   OH240805   0.550   2.906   5.241
13621TIP3    H140806   0.525   2.941   5.156
13621TIP3    H240807   0.467   2.885   5.284
13622TIP3   OH240808   5.984   3.258   1.268
13622TIP3    H140809   5.999   3.350   1.250
13622TIP3    H240810   6.051   3.212   1.218
13623TIP3   OH240811   7.023   6.253   6.140
13623TIP3    H140812   7.078   6.327   6.115
13623TIP3    H240813   6.935   6.278   6.113
13624TIP3   OH240814   7.678   4.120   0.207
13624TIP3    H140815   7.726   4.047   0.247
13624TIP3    H240816   7.618   4.077   0.145
13625TIP3   OH240817   2.844   7.570   3.668
13625TIP3    H140818   2.792   7.531   3.739
13625TIP3    H240819   2.849   7.663   3.691
13626TIP3   OH240820   4.617   5.257   6.163
13626TIP3    H140821   4.591   5.165   6.169
13626TIP3    H240822   4.627   5.285   6.254
13627TIP3   OH240823   5.543   3.962   4.794
13627TIP3    H140824   5.549   4.018   4.871
13627TIP3    H240825   5.502   3.882   4.825
13628TIP3   OH240826   0.752   6.561   0.534
13628TIP3    H140827   0.711   6.580   0.618
13628TIP3    H240828   0.705   6.617   0.471
13629TIP3   OH240829   8.246   0.194   0.518
13629TIP3    H140830   8.221   0.159   0.432
13629TIP3    H240831   8.236   0.288   0.509
13630TIP3   OH240832   1.468   5.673   6.484
13630TIP3    H140833   1.459   5.767   6.500
13630TIP3    H240834   1.458   5.665   6.389
13631TIP3   OH240835   7.633   3.298   5.534
13631TIP3    H140836   7.688   3.359   5.484
13631TIP3    H240837   7.571   3.263   5.469
13632TIP3   OH240838   7.877   3.072   4.695
13632TIP3    H140839   7.848   2.981   4.702
13632TIP3    H240840   7.821   3.110   4.627
13633TIP3   OH240841   6.135   6.474   2.255
13633TIP3    H140842   6.085   6.550   2.286
13633TIP3    H240843   6.070   6.403   2.252
13634TIP3   OH240844   7.200   4.956   3.435
13634TIP3    H140845   7.260   5.028   3.412
13634TIP3    H240846   7.146   4.944   3.357
13635TIP3   OH240847   1.977   1.957   4.358
13635TIP3    H140848   1.974   2.039   4.308
13635TIP3    H240849   2.034   1.976   4.432
13636TIP3   OH240850   6.209   4.437   5.508
13636TIP3    H140851   6.198   4.350   5.470
13636TIP3    H240852   6.126   4.454   5.551
13637TIP3   OH240853   1.120   2.989   1.075
13637TIP3    H140854   1.074   3.063   1.036
13637TIP3    H240855   1.096   2.914   1.019
13638TIP3   OH240856   2.117   0.239   4.728
13638TIP3    H140857   2.165   0.249   4.810
13638TIP3    H240858   2.025   0.237   4.754
13639TIP3   OH240859   6.474   0.507   2.537
13639TIP3    H140860   6.394   0.553   2.511
13639TIP3    H240861   6.477   0.429   2.481
13640TIP3   OH240862   0.675   7.384   1.840
13640TIP3    H140863   0.765   7.389   1.810
13640TIP3    H240864   0.675   7.430   1.924
13641TIP3   OH240865   0.833   3.403   2.313
13641TIP3    H140866   0.757   3.363   2.355
13641TIP3    H240867   0.804   3.492   2.292
13642TIP3   OH240868   3.071   0.116   2.957
13642TIP3    H140869   3.071   0.022   2.975
13642TIP3    H240870   3.159   0.134   2.923
13643TIP3   OH240871   0.266   4.499   1.467
13643TIP3    H140872   0.316   4.440   1.412
13643TIP3    H240873   0.311   4.583   1.459
13644TIP3   OH240874   5.745   3.388   5.490
13644TIP3    H140875   5.751   3.368   5.397
13644TIP3    H240876   5.758   3.304   5.533
13645TIP3   OH240877   7.540   5.000   1.584
13645TIP3    H140878   7.593   5.010   1.505
13645TIP3    H240879   7.485   5.077   1.587
13646TIP3   OH240880   4.241   0.668   1.208
13646TIP3    H140881   4.274   0.737   1.150
13646TIP3    H240882   4.251   0.587   1.157
13647TIP3   OH240883   7.277   2.541   0.266
13647TIP3    H140884   7.244   2.526   0.354
13647TIP3    H240885   7.261   2.634   0.249
13648TIP3   OH240886   5.026   3.512   6.444
13648TIP3    H140887   4.987   3.533   6.358
13648TIP3    H240888   5.015   3.592   6.495
13649TIP3   OH240889   7.000   5.849   0.398
13649TIP3    H140890   7.037   5.846   0.310
13649TIP3    H240891   7.032   5.769   0.441
13650TIP3   OH240892   8.038   7.666   1.751
13650TIP3    H140893   8.083   7.601   1.697
13650TIP3    H240894   8.104   7.694   1.814
13651TIP3   OH240895   2.427   4.352   4.569
13651TIP3    H140896   2.491   4.281   4.562
13651TIP3    H240897   2.386   4.356   4.483
13652TIP3   OH240898   0.144   0.962   5.589
13652TIP3    H140899   0.076   0.968   5.522
13652TIP3    H240900   0.097   0.941   5.670
13653TIP3   OH240901   5.139   6.814   2.604
13653TIP3    H140902   5.199   6.882   2.633
13653TIP3    H240903   5.194   6.737   2.590
13654TIP3   OH240904   3.475   1.868   2.914
13654TIP3    H140905   3.388   1.845   2.947
13654TIP3    H240906   3.526   1.888   2.993
13655TIP3   OH240907   0.702   0.774   6.348
13655TIP3    H140908   0.682   0.837   6.418
13655TIP3    H240909   0.785   0.735   6.374
13656TIP3   OH240910   0.027   6.959   5.430
13656TIP3    H140911   0.006   6.918   5.346
13656TIP3    H240912   0.117   6.988   5.420
13657TIP3   OH240913   5.386   4.918   5.944
13657TIP3    H140914   5.296   4.937   5.973
13657TIP3    H240915   5.435   4.998   5.965
13658TIP3   OH240916   5.489   2.669   3.591
13658TIP3    H140917   5.470   2.617   3.514
13658TIP3    H240918   5.524   2.606   3.655
13659TIP3   OH240919   1.779   0.645   5.862
13659TIP3    H140920   1.690   0.619   5.885
13659TIP3    H240921   1.777   0.740   5.860
13660TIP3   OH240922   4.723   1.235   1.870
13660TIP3    H140923   4.784   1.192   1.809
13660TIP3    H240924   4.700   1.167   1.933
13661TIP3   OH240925   1.437   0.473   3.223
13661TIP3    H140926   1.409   0.559   3.254
13661TIP3    H240927   1.371   0.448   3.159
13662TIP3   OH240928   5.313   3.888   5.660
13662TIP3    H140929   5.385   3.854   5.713
13662TIP3    H240930   5.234   3.861   5.706
13663TIP3   OH240931   7.108  -0.005   3.277
13663TIP3    H140932   7.027  -0.055   3.269
13663TIP3    H240933   7.079   0.082   3.308
13664TIP3   OH240934   7.672   0.498   0.956
13664TIP3    H140935   7.616   0.549   1.014
13664TIP3    H240936   7.639   0.517   0.868
13665TIP3   OH240937   3.380   1.087   3.928
13665TIP3    H140938   3.431   1.168   3.931
13665TIP3    H240939   3.288   1.116   3.927
13666TIP3   OH240940   4.372   4.559   0.284
13666TIP3    H140941   4.406   4.648   0.276
13666TIP3    H240942   4.428   4.518   0.350
13667TIP3   OH240943   1.471   5.938   6.472
13667TIP3    H140944   1.423   5.989   6.407
13667TIP3    H240945   1.485   5.998   6.545
13668TIP3   OH240946   4.981   5.649   5.670
13668TIP3    H140947   4.922   5.587   5.712
13668TIP3    H240948   4.931   5.731   5.667
13669TIP3   OH240949   0.812   1.859   1.640
13669TIP3    H140950   0.857   1.806   1.575
13669TIP3    H240951   0.721   1.862   1.610
13670TIP3   OH240952   1.619   0.378   4.340
13670TIP3    H140953   1.667   0.445   4.389
13670TIP3    H240954   1.563   0.428   4.280
13671TIP3   OH240955   5.269   0.841   6.354
13671TIP3    H140956   5.234   0.878   6.435
13671TIP3    H240957   5.257   0.746   6.363
13672TIP3   OH240958   3.572   4.417   0.765
13672TIP3    H140959   3.488   4.462   0.754
13672TIP3    H240960   3.625   4.446   0.691
13673TIP3   OH240961   5.368   1.212   1.422
13673TIP3    H140962   5.351   1.242   1.333
13673TIP3    H240963   5.457   1.177   1.419
13674TIP3   OH240964   2.050   5.271   4.931
13674TIP3    H140965   2.005   5.229   5.004
13674TIP3    H240966   2.113   5.330   4.972
13675TIP3   OH240967   0.718   0.908   0.514
13675TIP3    H140968   0.685   0.836   0.569
13675TIP3    H240969   0.804   0.929   0.552
13676TIP3   OH240970   0.844   6.673   3.794
13676TIP3    H140971   0.922   6.618   3.788
13676TIP3    H240972   0.772   6.611   3.802
13677TIP3   OH240973   6.708   2.816   5.960
13677TIP3    H140974   6.677   2.906   5.955
13677TIP3    H240975   6.714   2.798   6.054
13678TIP3   OH240976   0.780   1.362   6.459
13678TIP3    H140977   0.732   1.359   6.377
13678TIP3    H240978   0.857   1.416   6.440
13679TIP3   OH240979   6.621   5.194   6.150
13679TIP3    H140980   6.610   5.288   6.164
13679TIP3    H240981   6.686   5.187   6.080
13680TIP3   OH240982   6.838   6.183   0.057
13680TIP3    H140983   6.771   6.117   0.040
13680TIP3    H240984   6.834   6.243  -0.017
13681TIP3   OH240985   5.523   6.003   6.465
13681TIP3    H140986   5.427   6.005   6.471
13681TIP3    H240987   5.547   6.095   6.455
13682TIP3   OH240988   2.175   0.869   3.635
13682TIP3    H140989   2.180   0.774   3.643
13682TIP3    H240990   2.083   0.890   3.651
13683TIP3   OH240991   7.042   2.348   5.317
13683TIP3    H140992   7.102   2.285   5.357
13683TIP3    H240993   7.051   2.427   5.371
13684TIP3   OH240994   4.946   1.117   0.422
13684TIP3    H140995   4.886   1.091   0.492
13684TIP3    H240996   4.919   1.206   0.400
13685TIP3   OH240997   3.599   0.583   2.094
13685TIP3    H140998   3.680   0.611   2.138
13685TIP3    H240999   3.586   0.647   2.024
13686TIP3   OH241000   1.049   1.309   1.576
13686TIP3    H141001   1.015   1.396   1.558
13686TIP3    H241002   0.980   1.250   1.546
13687TIP3   OH241003   1.844   2.552   1.350
13687TIP3    H141004   1.749   2.559   1.352
13687TIP3    H241005   1.874   2.637   1.319
13688TIP3   OH241006   2.315   4.874   3.549
13688TIP3    H141007   2.288   4.783   3.535
13688TIP3    H241008   2.358   4.899   3.467
13689TIP3   OH241009   0.449   5.919   1.304
13689TIP3    H141010   0.532   5.946   1.344
13689TIP3    H241011   0.475   5.862   1.232
13690TIP3   OH241012  -0.011   3.451   2.634
13690TIP3    H141013  -0.050   3.467   2.720
13690TIP3    H241014   0.078   3.486   2.640
13691TIP3   OH241015   4.821   6.805   0.391
13691TIP3    H141016   4.741   6.855   0.378
13691TIP3    H241017   4.791   6.719   0.422
13692TIP3   OH241018   6.828   1.880   0.386
13692TIP3    H141019   6.879   1.898   0.464
13692TIP3    H241020   6.851   1.790   0.362
13693TIP3   OH241021   6.825   4.333   4.124
13693TIP3    H141022   6.758   4.391   4.087
13693TIP3    H241023   6.905   4.360   4.080
13694TIP3   OH241024   1.762   1.256   6.486
13694TIP3    H141025   1.854   1.281   6.488
13694TIP3    H241026   1.762   1.171   6.441
13695TIP3   OH241027   5.422   1.670   0.818
13695TIP3    H141028   5.447   1.583   0.785
13695TIP3    H241029   5.497   1.726   0.796
13696TIP3   OH241030   0.750   7.760   3.089
13696TIP3    H141031   0.750   7.738   3.182
13696TIP3    H241032   0.817   7.703   3.051
13697TIP3   OH241033   3.812   4.179   0.792
13697TIP3    H141034   3.727   4.178   0.749
13697TIP3    H241035   3.875   4.172   0.720
13698TIP3   OH241036   4.279   7.795   6.593
13698TIP3    H141037   4.232   7.718   6.625
13698TIP3    H241038   4.287   7.781   6.498
13699TIP3   OH241039   6.484   7.781   4.299
13699TIP3    H141040   6.415   7.769   4.365
13699TIP3    H241041   6.437   7.786   4.216
13700TIP3   OH241042   7.582   4.400   1.974
13700TIP3    H141043   7.494   4.373   2.000
13700TIP3    H241044   7.625   4.424   2.056
13701TIP3   OH241045   2.428   1.205   4.662
13701TIP3    H141046   2.401   1.252   4.741
13701TIP3    H241047   2.438   1.114   4.692
13702TIP3   OH241048   8.060   0.121   6.473
13702TIP3    H141049   8.121   0.194   6.468
13702TIP3    H241050   8.080   0.079   6.557
13703TIP3   OH241051   3.707   1.973   6.040
13703TIP3    H141052   3.676   2.001   6.126
13703TIP3    H241053   3.800   1.995   6.040
13704TIP3   OH241054   2.306   3.573   2.306
13704TIP3    H141055   2.231   3.570   2.365
13704TIP3    H241056   2.348   3.657   2.325
13705TIP3   OH241057   7.955   2.915   5.374
13705TIP3    H141058   7.944   2.978   5.446
13705TIP3    H241059   7.870   2.872   5.368
13706TIP3   OH241060   6.584   6.974   1.347
13706TIP3    H141061   6.585   7.070   1.342
13706TIP3    H241062   6.561   6.956   1.438
13707TIP3   OH241063   3.300   7.347   5.148
13707TIP3    H141064   3.342   7.317   5.229
13707TIP3    H241065   3.360   7.414   5.114
13708TIP3   OH241066   3.190   6.643   6.249
13708TIP3    H141067   3.261   6.687   6.202
13708TIP3    H241068   3.123   6.711   6.259
13709TIP3   OH241069   1.070   4.539   6.644
13709TIP3    H141070   1.075   4.481   6.568
13709TIP3    H241071   0.992   4.510   6.692
13710TIP3   OH241072   1.517   0.148   6.461
13710TIP3    H141073   1.494   0.097   6.539
13710TIP3    H241074   1.511   0.239   6.489
13711TIP3   OH241075   3.021   0.668   6.503
13711TIP3    H141076   2.995   0.646   6.592
13711TIP3    H241077   3.001   0.761   6.494
13712TIP3   OH241078   6.964   5.520   3.135
13712TIP3    H141079   7.030   5.469   3.089
13712TIP3    H241080   6.959   5.480   3.222
13713TIP3   OH241081   5.633   3.016   0.439
13713TIP3    H141082   5.702   3.001   0.503
13713TIP3    H241083   5.552   3.006   0.489
13714TIP3   OH241084   3.626   6.991   2.841
13714TIP3    H141085   3.582   7.048   2.904
13714TIP3    H241086   3.702   6.957   2.888
13715TIP3   OH241087   6.838   3.971   1.565
13715TIP3    H141088   6.922   3.984   1.520
13715TIP3    H241089   6.841   3.881   1.596
13716TIP3   OH241090   2.816   3.299   6.158
13716TIP3    H141091   2.785   3.265   6.242
13716TIP3    H241092   2.905   3.265   6.150
13717TIP3   OH241093   4.273   2.839   5.821
13717TIP3    H141094   4.248   2.918   5.774
13717TIP3    H241095   4.197   2.781   5.812
13718TIP3   OH241096   3.763   2.837   2.447
13718TIP3    H141097   3.848   2.793   2.453
13718TIP3    H241098   3.778   2.923   2.487
13719TIP3   OH241099   1.200   3.458   1.465
13719TIP3    H141100   1.278   3.471   1.518
13719TIP3    H241101   1.212   3.515   1.389
13720TIP3   OH241102   5.984   0.735   1.172
13720TIP3    H141103   5.965   0.792   1.246
13720TIP3    H241104   6.069   0.697   1.192
13721TIP3   OH241105   1.952   5.447   3.974
13721TIP3    H141106   2.006   5.440   4.053
13721TIP3    H241107   1.862   5.437   4.005
13722TIP3   OH241108   5.673   6.258   3.896
13722TIP3    H141109   5.612   6.246   3.824
13722TIP3    H241110   5.670   6.176   3.945
13723TIP3   OH241111   0.771   1.903   5.881
13723TIP3    H141112   0.808   1.851   5.809
13723TIP3    H241113   0.846   1.928   5.934
13724TIP3   OH241114   1.892   3.097   5.746
13724TIP3    H141115   1.839   3.041   5.689
13724TIP3    H241116   1.890   3.183   5.703
13725TIP3   OH241117   1.476   6.896   4.873
13725TIP3    H141118   1.414   6.960   4.906
13725TIP3    H241119   1.561   6.941   4.873
13726TIP3   OH241120   3.709   0.899   4.039
13726TIP3    H141121   3.712   0.917   3.945
13726TIP3    H241122   3.791   0.853   4.057
13727TIP3   OH241123   2.313   6.030   2.196
13727TIP3    H141124   2.366   5.985   2.130
13727TIP3    H241125   2.368   6.029   2.275
13728TIP3   OH241126   7.874   4.281   3.415
13728TIP3    H141127   7.856   4.194   3.449
13728TIP3    H241128   7.970   4.286   3.412
13729TIP3   OH241129   3.975   5.009   3.131
13729TIP3    H141130   3.935   5.093   3.108
13729TIP3    H241131   3.910   4.943   3.106
13730TIP3   OH241132   1.852   2.577   2.690
13730TIP3    H141133   1.758   2.584   2.706
13730TIP3    H241134   1.884   2.667   2.693
13731TIP3   OH241135   6.061   5.619   6.119
13731TIP3    H141136   6.067   5.562   6.042
13731TIP3    H241137   6.052   5.559   6.192
13732TIP3   OH241138   4.273   4.341   3.921
13732TIP3    H141139   4.242   4.417   3.871
13732TIP3    H241140   4.194   4.302   3.957
13733TIP3   OH241141   3.656   6.542   1.524
13733TIP3    H141142   3.618   6.541   1.612
13733TIP3    H241143   3.730   6.482   1.530
13734TIP3   OH241144   3.631   1.612   4.994
13734TIP3    H141145   3.716   1.575   5.018
13734TIP3    H241146   3.630   1.699   5.034
13735TIP3   OH241147   1.188   2.693   1.722
13735TIP3    H141148   1.215   2.714   1.632
13735TIP3    H241149   1.208   2.773   1.772
13736TIP3   OH241150   0.408   4.021   0.576
13736TIP3    H141151   0.402   4.104   0.622
13736TIP3    H241152   0.488   4.027   0.525
13737TIP3   OH241153   7.050   1.648   4.687
13737TIP3    H141154   7.075   1.704   4.614
13737TIP3    H241155   6.957   1.667   4.701
13738TIP3   OH241156   0.034   0.883   2.228
13738TIP3    H141157   0.012   0.966   2.188
13738TIP3    H241158   0.043   0.822   2.154
13739TIP3   OH241159   1.409   5.753   5.411
13739TIP3    H141160   1.488   5.701   5.423
13739TIP3    H241161   1.345   5.713   5.471
13740TIP3   OH241162   3.939   4.619   1.750
13740TIP3    H141163   4.022   4.575   1.769
13740TIP3    H241164   3.921   4.596   1.658
13741TIP3   OH241165   6.028   4.031   6.156
13741TIP3    H141166   5.947   3.982   6.170
13741TIP3    H241167   6.014   4.078   6.073
13742TIP3   OH241168   0.781   0.949   6.131
13742TIP3    H141169   0.790   0.904   6.047
13742TIP3    H241170   0.753   0.881   6.192
13743TIP3   OH241171   0.471   1.690   1.746
13743TIP3    H141172   0.419   1.664   1.670
13743TIP3    H241173   0.532   1.756   1.712
13744TIP3   OH241174   8.268   3.147   5.227
13744TIP3    H141175   8.244   3.207   5.298
13744TIP3    H241176   8.359   3.169   5.207
13745TIP3   OH241177   2.535   3.306   0.916
13745TIP3    H141178   2.519   3.289   1.009
13745TIP3    H241179   2.527   3.400   0.907
13746TIP3   OH241180   3.404   3.736   0.973
13746TIP3    H141181   3.410   3.824   0.936
13746TIP3    H241182   3.489   3.720   1.012
13747TIP3   OH241183   4.983   6.383   6.577
13747TIP3    H141184   4.992   6.314   6.511
13747TIP3    H241185   4.910   6.355   6.631
13748TIP3   OH241186   2.362   5.437   4.755
13748TIP3    H141187   2.359   5.533   4.750
13748TIP3    H241188   2.348   5.408   4.665
13749TIP3   OH241189   2.211   2.346   2.857
13749TIP3    H141190   2.235   2.395   2.778
13749TIP3    H241191   2.117   2.331   2.849
13750TIP3   OH241192   4.544   4.934   5.063
13750TIP3    H141193   4.501   5.019   5.058
13750TIP3    H241194   4.608   4.935   4.992
13751TIP3   OH241195   6.802   7.313   3.554
13751TIP3    H141196   6.893   7.300   3.579
13751TIP3    H241197   6.759   7.230   3.575
13752TIP3   OH241198   2.481   5.836   6.515
13752TIP3    H141199   2.496   5.764   6.454
13752TIP3    H241200   2.405   5.809   6.566
13753TIP3   OH241201   1.621   1.479   5.162
13753TIP3    H141202   1.611   1.491   5.257
13753TIP3    H241203   1.681   1.405   5.154
13754TIP3   OH241204   8.197   2.020   4.647
13754TIP3    H141205   8.140   1.998   4.573
13754TIP3    H241206   8.270   1.959   4.640
13755TIP3   OH241207   2.666   5.573   2.192
13755TIP3    H141208   2.725   5.579   2.117
13755TIP3    H241209   2.619   5.657   2.192
13756TIP3   OH241210   5.637   4.547   5.323
13756TIP3    H141211   5.568   4.537   5.389
13756TIP3    H241212   5.709   4.591   5.370
13757TIP3   OH241213   3.977   6.633   1.487
13757TIP3    H141214   3.932   6.553   1.516
13757TIP3    H241215   4.023   6.607   1.407
13758TIP3   OH241216   3.677   0.666   3.806
13758TIP3    H141217   3.667   0.753   3.768
13758TIP3    H241218   3.745   0.624   3.754
13759TIP3   OH241219   4.937   5.808   3.531
13759TIP3    H141220   4.902   5.883   3.484
13759TIP3    H241221   4.929   5.832   3.623
13760TIP3   OH241222   6.274   5.934   4.648
13760TIP3    H141223   6.286   5.891   4.733
13760TIP3    H241224   6.214   6.006   4.666
13761TIP3   OH241225   8.224   0.529   6.664
13761TIP3    H141226   8.307   0.494   6.694
13761TIP3    H241227   8.246   0.613   6.625
13762TIP3   OH241228   5.818   2.909   3.604
13762TIP3    H141229   5.729   2.922   3.571
13762TIP3    H241230   5.806   2.855   3.682
13763TIP3   OH241231   7.896   2.331   4.751
13763TIP3    H141232   7.841   2.309   4.676
13763TIP3    H241233   7.883   2.425   4.763
13764TIP3   OH241234   1.872   7.608   4.452
13764TIP3    H141235   1.838   7.673   4.513
13764TIP3    H241236   1.863   7.649   4.366
13765TIP3   OH241237   1.495   2.318   1.361
13765TIP3    H141238   1.546   2.396   1.339
13765TIP3    H241239   1.561   2.252   1.381
13766TIP3   OH241240   5.881   0.307   6.769
13766TIP3    H141241   5.873   0.402   6.772
13766TIP3    H241242   5.792   0.276   6.753
13767TIP3   OH241243   0.939   2.327   6.375
13767TIP3    H141244   0.897   2.292   6.453
13767TIP3    H241245   0.883   2.399   6.347
13768TIP3   OH241246   4.997   3.732   1.501
13768TIP3    H141247   5.034   3.815   1.533
13768TIP3    H241248   5.072   3.672   1.500
13769TIP3   OH241249   7.282   4.574   6.346
13769TIP3    H141250   7.190   4.555   6.367
13769TIP3    H241251   7.297   4.661   6.383
13770TIP3   OH241252   2.892   4.978   5.678
13770TIP3    H141253   2.911   4.912   5.744
13770TIP3    H241254   2.870   5.056   5.728
13771TIP3   OH241255   8.311   2.907   1.682
13771TIP3    H141256   8.314   2.821   1.640
13771TIP3    H241257   8.250   2.957   1.629
13772TIP3   OH241258   0.374   1.916   6.807
13772TIP3    H141259   0.332   1.949   6.727
13772TIP3    H241260   0.420   1.837   6.779
13773TIP3   OH241261   6.635   5.509   6.026
13773TIP3    H141262   6.693   5.471   5.960
13773TIP3    H241263   6.689   5.574   6.071
13774TIP3   OH241264   6.242   7.340   5.910
13774TIP3    H141265   6.150   7.339   5.938
13774TIP3    H241266   6.259   7.251   5.879
13775TIP3   OH241267   2.298   1.105   0.724
13775TIP3    H141268   2.212   1.068   0.707
13775TIP3    H241269   2.283   1.174   0.788
13776TIP3   OH241270   7.553   6.945   0.421
13776TIP3    H141271   7.554   6.967   0.514
13776TIP3    H241272   7.630   6.891   0.408
13777TIP3   OH241273   3.179   7.116   1.182
13777TIP3    H141274   3.106   7.125   1.243
13777TIP3    H241275   3.256   7.141   1.232
13778TIP3   OH241276   1.870   0.488   5.667
13778TIP3    H141277   1.833   0.555   5.724
13778TIP3    H241278   1.833   0.507   5.580
13779TIP3   OH241279   6.647   2.024   2.450
13779TIP3    H141280   6.668   2.069   2.532
13779TIP3    H241281   6.721   1.964   2.436
13780TIP3   OH241282   3.000   0.899   3.788
13780TIP3    H141283   2.916   0.941   3.803
13780TIP3    H241284   3.061   0.944   3.847
13781TIP3   OH241285   5.678   7.532   2.271
13781TIP3    H141286   5.711   7.442   2.263
13781TIP3    H241287   5.641   7.536   2.360
13782TIP3   OH241288   6.668   4.857   4.631
13782TIP3    H141289   6.666   4.895   4.543
13782TIP3    H241290   6.761   4.841   4.648
13783TIP3   OH241291   8.300   7.647   4.416
13783TIP3    H141292   8.329   7.710   4.483
13783TIP3    H241293   8.225   7.690   4.374
13784TIP3   OH241294   0.785   3.336   0.762
13784TIP3    H141295   0.745   3.407   0.711
13784TIP3    H241296   0.764   3.357   0.853
13785TIP3   OH241297   5.670   6.817   1.758
13785TIP3    H141298   5.652   6.731   1.794
13785TIP3    H241299   5.749   6.805   1.705
13786TIP3   OH241300   7.751   6.214   1.241
13786TIP3    H141301   7.704   6.147   1.192
13786TIP3    H241302   7.788   6.169   1.317
13787TIP3   OH241303   6.149   0.217   4.042
13787TIP3    H141304   6.122   0.125   4.034
13787TIP3    H241305   6.074   0.267   4.011
13788TIP3   OH241306   7.017   2.025   3.391
13788TIP3    H141307   6.966   2.026   3.472
13788TIP3    H241308   7.103   2.059   3.417
13789TIP3   OH241309   5.381   3.771   1.949
13789TIP3    H141310   5.421   3.858   1.943
13789TIP3    H241311   5.432   3.717   1.889
13790TIP3   OH241312   4.296   5.976   3.489
13790TIP3    H141313   4.348   6.014   3.418
13790TIP3    H241314   4.351   5.907   3.526
13791TIP3   OH241315   1.719   5.675   0.668
13791TIP3    H141316   1.737   5.769   0.662
13791TIP3    H241317   1.634   5.670   0.711
13792TIP3   OH241318   3.995   5.909   0.795
13792TIP3    H141319   4.028   5.874   0.878
13792TIP3    H241320   3.902   5.886   0.795
13793TIP3   OH241321   3.392   1.091   4.258
13793TIP3    H141322   3.444   1.143   4.197
13793TIP3    H241323   3.386   1.005   4.217
13794TIP3   OH241324   1.174   6.597   0.025
13794TIP3    H141325   1.269   6.594   0.032
13794TIP3    H241326   1.143   6.626   0.110
13795TIP3   OH241327   4.720   6.525   6.088
13795TIP3    H141328   4.727   6.619   6.104
13795TIP3    H241329   4.633   6.502   6.121
13796TIP3   OH241330   1.473   2.006   2.648
13796TIP3    H141331   1.396   1.963   2.687
13796TIP3    H241332   1.543   1.942   2.655
13797TIP3   OH241333   2.286   6.335   4.585
13797TIP3    H141334   2.379   6.357   4.581
13797TIP3    H241335   2.283   6.240   4.569
13798TIP3   OH241336   7.623   1.797   0.017
13798TIP3    H141337   7.715   1.788  -0.008
13798TIP3    H241338   7.627   1.818   0.111
13799TIP3   OH241339   3.969   2.708   1.498
13799TIP3    H141340   4.021   2.679   1.573
13799TIP3    H241341   3.890   2.745   1.537
13800TIP3   OH241342   4.698   1.247   4.871
13800TIP3    H141343   4.724   1.292   4.791
13800TIP3    H241344   4.683   1.156   4.845
13801TIP3   OH241345   4.363   7.740   4.294
13801TIP3    H141346   4.313   7.822   4.290
13801TIP3    H241347   4.299   7.672   4.271
13802TIP3   OH241348   7.978   2.105   4.150
13802TIP3    H141349   7.925   2.176   4.187
13802TIP3    H241350   8.064   2.116   4.190
13803TIP3   OH241351   0.536   4.751   0.966
13803TIP3    H141352   0.573   4.739   1.053
13803TIP3    H241353   0.586   4.691   0.910
13804TIP3   OH241354   5.422   5.075   5.223
13804TIP3    H141355   5.329   5.054   5.229
13804TIP3    H241356   5.462   4.998   5.183
13805TIP3   OH241357   1.008   2.827   4.964
13805TIP3    H141358   0.963   2.905   4.996
13805TIP3    H241359   1.067   2.802   5.035
13806TIP3   OH241360   7.386   0.234   6.115
13806TIP3    H141361   7.355   0.166   6.055
13806TIP3    H241362   7.468   0.265   6.076
13807TIP3   OH241363   0.490   2.470   4.187
13807TIP3    H141364   0.475   2.532   4.258
13807TIP3    H241365   0.402   2.452   4.152
13808TIP3   OH241366   6.649   4.214   5.699
13808TIP3    H141367   6.692   4.157   5.636
13808TIP3    H241368   6.619   4.155   5.768
13809TIP3   OH241369   3.161   7.172   0.389
13809TIP3    H141370   3.085   7.211   0.432
13809TIP3    H241371   3.126   7.096   0.343
13810TIP3   OH241372   4.283   0.929   3.502
13810TIP3    H141373   4.370   0.902   3.474
13810TIP3    H241374   4.248   0.979   3.428
13811TIP3   OH241375   6.382   4.699   3.001
13811TIP3    H141376   6.317   4.738   2.943
13811TIP3    H241377   6.398   4.612   2.965
13812TIP3   OH241378   2.529   7.694   1.940
13812TIP3    H141379   2.600   7.639   1.971
13812TIP3    H241380   2.458   7.682   2.003
13813TIP3   OH241381   3.209   5.268   1.666
13813TIP3    H141382   3.193   5.309   1.581
13813TIP3    H241383   3.302   5.283   1.683
13814TIP3   OH241384   5.913   1.593   4.738
13814TIP3    H141385   5.858   1.666   4.710
13814TIP3    H241386   5.999   1.613   4.701
13815TIP3   OH241387   2.983   5.498   4.428
13815TIP3    H141388   2.891   5.486   4.403
13815TIP3    H241389   2.986   5.469   4.519
13816TIP3   OH241390   7.753   2.713   6.720
13816TIP3    H141391   7.764   2.751   6.633
13816TIP3    H241392   7.761   2.787   6.780
13817TIP3   OH241393   1.606   4.015   2.606
13817TIP3    H141394   1.600   4.064   2.688
13817TIP3    H241395   1.663   3.941   2.626
13818TIP3   OH241396   2.647   0.111   3.111
13818TIP3    H141397   2.633   0.192   3.160
13818TIP3    H241398   2.717   0.132   3.049
13819TIP3   OH241399   5.362   2.489   3.781
13819TIP3    H141400   5.275   2.517   3.811
13819TIP3    H241401   5.352   2.396   3.764
13820TIP3   OH241402   4.245   7.331   4.924
13820TIP3    H141403   4.338   7.355   4.927
13820TIP3    H241404   4.218   7.351   4.834
13821TIP3   OH241405   1.403   3.172   6.509
13821TIP3    H141406   1.414   3.078   6.498
13821TIP3    H241407   1.469   3.211   6.451
13822TIP3   OH241408   2.169   7.320   3.959
13822TIP3    H141409   2.115   7.241   3.965
13822TIP3    H241410   2.206   7.330   4.046
13823TIP3   OH241411   4.415   0.045   5.336
13823TIP3    H141412   4.426  -0.036   5.286
13823TIP3    H241413   4.500   0.088   5.332
13824TIP3   OH241414   4.089   0.583   0.795
13824TIP3    H141415   4.044   0.654   0.840
13824TIP3    H241416   4.174   0.577   0.839
13825TIP3   OH241417   3.200   0.703   5.592
13825TIP3    H141418   3.260   0.637   5.629
13825TIP3    H241419   3.156   0.740   5.668
13826TIP3   OH241420   7.363   4.140   3.760
13826TIP3    H141421   7.277   4.107   3.788
13826TIP3    H241422   7.349   4.173   3.672
13827TIP3   OH241423   5.973   2.241   3.786
13827TIP3    H141424   6.014   2.209   3.866
13827TIP3    H241425   5.880   2.241   3.805
13828TIP3   OH241426   6.203   1.873   0.539
13828TIP3    H141427   6.253   1.800   0.504
13828TIP3    H241428   6.117   1.836   0.559
13829TIP3   OH241429   4.372   3.150   2.326
13829TIP3    H141430   4.332   3.194   2.251
13829TIP3    H241431   4.400   3.065   2.292
13830TIP3   OH241432   8.137   4.688   1.830
13830TIP3    H141433   8.174   4.682   1.918
13830TIP3    H241434   8.056   4.636   1.834
13831TIP3   OH241435   4.696   0.261   3.731
13831TIP3    H141436   4.721   0.173   3.759
13831TIP3    H241437   4.665   0.304   3.810
13832TIP3   OH241438   1.295   3.664   2.600
13832TIP3    H141439   1.292   3.668   2.696
13832TIP3    H241440   1.280   3.754   2.571
13833TIP3   OH241441   3.084   4.533   3.882
13833TIP3    H141442   3.154   4.519   3.946
13833TIP3    H241443   3.040   4.448   3.876
13834TIP3   OH241444   6.479   3.275   3.407
13834TIP3    H141445   6.450   3.244   3.322
13834TIP3    H241446   6.401   3.312   3.448
13835TIP3   OH241447   8.236   1.961   3.265
13835TIP3    H141448   8.280   1.948   3.181
13835TIP3    H241449   8.236   1.875   3.306
13836TIP3   OH241450   6.664   3.298   0.136
13836TIP3    H141451   6.607   3.356   0.086
13836TIP3    H241452   6.609   3.266   0.207
13837TIP3   OH241453   1.526   6.443   0.128
13837TIP3    H141454   1.622   6.453   0.127
13837TIP3    H241455   1.513   6.348   0.131
13838TIP3   OH241456   7.133   3.037   2.848
13838TIP3    H141457   7.138   3.125   2.812
13838TIP3    H241458   7.149   3.048   2.942
13839TIP3   OH241459   5.243   1.759   5.101
13839TIP3    H141460   5.194   1.771   5.020
13839TIP3    H241461   5.231   1.666   5.123
13840TIP3   OH241462   7.200   6.892   6.589
13840TIP3    H141463   7.191   6.797   6.599
13840TIP3    H241464   7.124   6.928   6.635
13841TIP3   OH241465   4.443   1.326   4.899
13841TIP3    H141466   4.398   1.270   4.835
13841TIP3    H241467   4.535   1.302   4.891
13842TIP3   OH241468   6.379   1.760   6.028
13842TIP3    H141469   6.366   1.749   5.934
13842TIP3    H241470   6.366   1.854   6.043
13843TIP3   OH241471   7.538   5.993   1.110
13843TIP3    H141472   7.598   5.953   1.047
13843TIP3    H241473   7.463   5.933   1.112
13844TIP3   OH241474   7.011   7.518   0.277
13844TIP3    H141475   7.030   7.429   0.307
13844TIP3    H241476   7.096   7.551   0.247
13845TIP3   OH241477   0.670   4.799   4.154
13845TIP3    H141478   0.611   4.844   4.093
13845TIP3    H241479   0.697   4.868   4.215
13846TIP3   OH241480   8.015   5.258   0.500
13846TIP3    H141481   8.021   5.283   0.593
13846TIP3    H241482   7.994   5.165   0.502
13847TIP3   OH241483   7.794   3.748   3.673
13847TIP3    H141484   7.819   3.765   3.582
13847TIP3    H241485   7.825   3.825   3.721
13848TIP3   OH241486   3.738   1.302   1.439
13848TIP3    H141487   3.813   1.242   1.443
13848TIP3    H241488   3.718   1.321   1.530
13849TIP3   OH241489   4.028   3.017   1.204
13849TIP3    H141490   4.047   3.110   1.192
13849TIP3    H241491   3.937   3.008   1.175
13850TIP3   OH241492   6.901   5.190   4.337
13850TIP3    H141493   6.868   5.121   4.395
13850TIP3    H241494   6.996   5.177   4.335
13851TIP3   OH241495   7.345   7.586   3.648
13851TIP3    H141496   7.410   7.631   3.593
13851TIP3    H241497   7.348   7.495   3.619
13852TIP3   OH241498   5.072   5.941   1.167
13852TIP3    H141499   4.993   5.982   1.131
13852TIP3    H241500   5.064   5.849   1.143
13853TIP3   OH241501   4.054   7.088   3.698
13853TIP3    H141502   4.134   7.125   3.661
13853TIP3    H241503   4.057   7.114   3.790
13854TIP3   OH241504   7.328   1.956   6.592
13854TIP3    H141505   7.414   1.999   6.599
13854TIP3    H241506   7.345   1.876   6.542
13855TIP3   OH241507   5.871   0.062   2.588
13855TIP3    H141508   5.910   0.031   2.670
13855TIP3    H241509   5.944   0.099   2.539
13856TIP3   OH241510   5.921   6.229   1.288
13856TIP3    H141511   5.956   6.315   1.264
13856TIP3    H241512   5.913   6.232   1.383
13857TIP3   OH241513   6.298   1.157   1.705
13857TIP3    H141514   6.244   1.078   1.695
13857TIP3    H241515   6.343   1.145   1.788
13858TIP3   OH241516   2.909   1.234   2.147
13858TIP3    H141517   2.847   1.287   2.096
13858TIP3    H241518   2.858   1.158   2.174
13859TIP3   OH241519   2.482   5.123   3.919
13859TIP3    H141520   2.465   5.198   3.862
13859TIP3    H241521   2.482   5.047   3.861
13860TIP3   OH241522   8.267   6.176   4.031
13860TIP3    H141523   8.288   6.090   4.067
13860TIP3    H241524   8.192   6.161   3.974
13861TIP3   OH241525   6.713   5.129   2.413
13861TIP3    H141526   6.749   5.138   2.502
13861TIP3    H241527   6.767   5.062   2.372
13862TIP3   OH241528   2.477   1.398   5.474
13862TIP3    H141529   2.499   1.464   5.408
13862TIP3    H241530   2.482   1.446   5.557
13863TIP3   OH241531   5.210   1.600   4.056
13863TIP3    H141532   5.159   1.530   4.096
13863TIP3    H241533   5.268   1.631   4.125
13864TIP3   OH241534   0.851   0.836   4.128
13864TIP3    H141535   0.903   0.916   4.138
13864TIP3    H241536   0.903   0.782   4.068
13865TIP3   OH241537   5.372   6.660   6.683
13865TIP3    H141538   5.443   6.596   6.675
13865TIP3    H241539   5.297   6.609   6.715
13866TIP3   OH241540   2.785   6.291   4.871
13866TIP3    H141541   2.808   6.377   4.908
13866TIP3    H241542   2.704   6.267   4.916
13867TIP3   OH241543   7.333   6.035   6.197
13867TIP3    H141544   7.306   5.956   6.151
13867TIP3    H241545   7.293   6.027   6.284
13868TIP3   OH241546   0.963   1.073   2.914
13868TIP3    H141547   0.915   1.094   2.833
13868TIP3    H241548   0.905   1.014   2.961
13869TIP3   OH241549   7.902   2.708   3.073
13869TIP3    H141550   7.886   2.655   3.152
13869TIP3    H241551   7.936   2.791   3.107
13870TIP3   OH241552   4.679   4.816   1.523
13870TIP3    H141553   4.645   4.769   1.447
13870TIP3    H241554   4.750   4.761   1.556
13871TIP3   OH241555   2.940   1.254   4.920
13871TIP3    H141556   2.969   1.234   4.831
13871TIP3    H241557   2.994   1.329   4.946
13872TIP3   OH241558   4.903   3.074   2.603
13872TIP3    H141559   4.939   3.064   2.515
13872TIP3    H241560   4.809   3.059   2.593
13873TIP3   OH241561   2.665   3.768   3.986
13873TIP3    H141562   2.750   3.803   4.014
13873TIP3    H241563   2.601   3.819   4.035
13874TIP3   OH241564   7.005   5.279   4.048
13874TIP3    H141565   6.966   5.305   4.132
13874TIP3    H241566   7.078   5.223   4.072
13875TIP3   OH241567   0.848   4.491   3.657
13875TIP3    H141568   0.897   4.571   3.637
13875TIP3    H241569   0.896   4.422   3.612
13876TIP3   OH241570   8.050   7.155   4.095
13876TIP3    H141571   8.026   7.131   4.006
13876TIP3    H241572   8.143   7.135   4.101
13877TIP3   OH241573   6.454   0.131   1.150
13877TIP3    H141574   6.506   0.058   1.182
13877TIP3    H241575   6.425   0.103   1.063
13878TIP3   OH241576   1.502   2.481   4.722
13878TIP3    H141577   1.497   2.390   4.693
13878TIP3    H241578   1.503   2.476   4.818
13879TIP3   OH241579   5.692   5.934   3.635
13879TIP3    H141580   5.607   5.962   3.603
13879TIP3    H241581   5.714   5.857   3.582
13880TIP3   OH241582   0.614   5.171   4.790
13880TIP3    H141583   0.593   5.197   4.700
13880TIP3    H241584   0.661   5.088   4.781
13881TIP3   OH241585   5.238   3.818   4.427
13881TIP3    H141586   5.164   3.875   4.448
13881TIP3    H241587   5.311   3.854   4.476
13882TIP3   OH241588   6.292   3.488   6.019
13882TIP3    H141589   6.256   3.575   6.000
13882TIP3    H241590   6.230   3.427   5.980
13883TIP3   OH241591   2.079   6.678   0.311
13883TIP3    H141592   1.990   6.704   0.289
13883TIP3    H241593   2.072   6.588   0.342
13884TIP3   OH241594   4.625   2.057   3.541
13884TIP3    H141595   4.701   2.076   3.597
13884TIP3    H241596   4.662   2.050   3.453
13885TIP3   OH241597   6.735   7.143   5.588
13885TIP3    H141598   6.678   7.102   5.654
13885TIP3    H241599   6.822   7.111   5.610
13886TIP3   OH241600   8.275   2.205   3.393
13886TIP3    H141601   8.282   2.119   3.352
13886TIP3    H241602   8.211   2.194   3.463
13887TIP3   OH241603   5.337   7.664   2.401
13887TIP3    H141604   5.334   7.757   2.423
13887TIP3    H241605   5.411   7.657   2.341
13888TIP3   OH241606   1.303   3.234   0.879
13888TIP3    H141607   1.384   3.277   0.852
13888TIP3    H241608   1.331   3.172   0.947
13889TIP3   OH241609   1.868   7.000   5.535
13889TIP3    H141610   1.805   7.056   5.582
13889TIP3    H241611   1.814   6.928   5.500
13890TIP3   OH241612   2.395   6.169   2.942
13890TIP3    H141613   2.474   6.204   2.900
13890TIP3    H241614   2.418   6.162   3.034
13891TIP3   OH241615   2.721   2.887   2.213
13891TIP3    H141616   2.745   2.837   2.291
13891TIP3    H241617   2.804   2.904   2.169
13892TIP3   OH241618   6.240   3.078   1.404
13892TIP3    H141619   6.312   3.140   1.418
13892TIP3    H241620   6.172   3.106   1.466
13893TIP3   OH241621   1.998   6.723   0.934
13893TIP3    H141622   1.993   6.643   0.986
13893TIP3    H241623   2.041   6.697   0.853
13894TIP3   OH241624   6.007   1.615   5.742
13894TIP3    H141625   6.034   1.651   5.657
13894TIP3    H241626   6.082   1.632   5.799
13895TIP3   OH241627   5.019   0.193   3.822
13895TIP3    H141628   4.923   0.198   3.822
13895TIP3    H241629   5.047   0.274   3.865
13896TIP3   OH241630   5.794   7.635   5.007
13896TIP3    H141631   5.846   7.665   5.082
13896TIP3    H241632   5.705   7.629   5.041
13897TIP3   OH241633   0.103   4.055   4.851
13897TIP3    H141634   0.091   4.105   4.932
13897TIP3    H241635   0.014   4.042   4.817
13898TIP3   OH241636   6.735   6.470   3.942
13898TIP3    H141637   6.812   6.526   3.929
13898TIP3    H241638   6.694   6.464   3.856
13899TIP3   OH241639   3.643   3.451   4.700
13899TIP3    H141640   3.736   3.445   4.723
13899TIP3    H241641   3.630   3.382   4.635
13900TIP3   OH241642   4.766   5.013   2.306
13900TIP3    H141643   4.807   4.973   2.382
13900TIP3    H241644   4.757   4.941   2.243
13901TIP3   OH241645   1.142   1.113   5.696
13901TIP3    H141646   1.184   1.039   5.651
13901TIP3    H241647   1.184   1.191   5.659
13902TIP3   OH241648   7.990   5.898   3.187
13902TIP3    H141649   8.044   5.954   3.132
13902TIP3    H241650   8.049   5.829   3.218
13903TIP3   OH241651   8.264   2.881   2.586
13903TIP3    H141652   8.226   2.865   2.500
13903TIP3    H241653   8.218   2.958   2.619
13904TIP3   OH241654   3.165   1.002   1.747
13904TIP3    H141655   3.138   0.915   1.777
13904TIP3    H241656   3.139   1.005   1.655
13905TIP3   OH241657   2.060   0.529   4.857
13905TIP3    H141658   2.147   0.499   4.881
13905TIP3    H241659   2.001   0.482   4.916
13906TIP3   OH241660   5.001   3.800   2.288
13906TIP3    H141661   5.092   3.792   2.317
13906TIP3    H241662   5.000   3.761   2.201
13907TIP3   OH241663   1.867   0.940   2.824
13907TIP3    H141664   1.780   0.979   2.834
13907TIP3    H241665   1.927   1.010   2.848
13908TIP3   OH241666   2.892   3.795   5.899
13908TIP3    H141667   2.911   3.736   5.826
13908TIP3    H241668   2.841   3.741   5.960
13909TIP3   OH241669   3.280   3.007   3.201
13909TIP3    H141670   3.185   3.016   3.208
13909TIP3    H241671   3.304   2.951   3.274
13910TIP3   OH241672   0.692   6.806   4.041
13910TIP3    H141673   0.739   6.884   4.070
13910TIP3    H241674   0.695   6.811   3.945
13911TIP3   OH241675   0.198   7.256   3.232
13911TIP3    H141676   0.292   7.274   3.226
13911TIP3    H241677   0.160   7.304   3.159
13912TIP3   OH241678   1.735   3.051   4.637
13912TIP3    H141679   1.689   3.073   4.556
13912TIP3    H241680   1.702   3.113   4.702
13913TIP3   OH241681   0.467   0.536   0.183
13913TIP3    H141682   0.444   0.492   0.265
13913TIP3    H241683   0.552   0.577   0.200
13914TIP3   OH241684   3.159   5.057   3.245
13914TIP3    H141685   3.191   5.103   3.323
13914TIP3    H241686   3.064   5.057   3.254
13915TIP3   OH241687   1.389   1.193   2.836
13915TIP3    H141688   1.399   1.168   2.744
13915TIP3    H241689   1.336   1.123   2.874
13916TIP3   OH241690   6.783   6.015   4.763
13916TIP3    H141691   6.776   6.006   4.668
13916TIP3    H241692   6.822   6.101   4.776
13917TIP3   OH241693   2.541   1.183   0.087
13917TIP3    H141694   2.509   1.156   0.173
13917TIP3    H241695   2.508   1.273   0.077
13918TIP3   OH241696   5.737   0.962   1.809
13918TIP3    H141697   5.689   1.003   1.737
13918TIP3    H241698   5.691   0.879   1.824
13919TIP3   OH241699   1.752   6.135   6.274
13919TIP3    H141700   1.745   6.040   6.264
13919TIP3    H241701   1.833   6.148   6.323
13920TIP3   OH241702   7.729   3.411   0.017
13920TIP3    H141703   7.794   3.476   0.043
13920TIP3    H241704   7.746   3.336   0.074
13921TIP3   OH241705   4.029   5.858   2.278
13921TIP3    H141706   4.036   5.817   2.192
13921TIP3    H241707   3.976   5.797   2.330
13922TIP3   OH241708   2.055   0.385   2.049
13922TIP3    H141709   2.075   0.295   2.075
13922TIP3    H241710   2.019   0.376   1.961
13923TIP3   OH241711   1.971   1.452   0.513
13923TIP3    H141712   1.956   1.452   0.419
13923TIP3    H241713   2.035   1.522   0.528
13924TIP3   OH241714   0.405   0.466   5.431
13924TIP3    H141715   0.478   0.478   5.371
13924TIP3    H241716   0.411   0.541   5.491
13925TIP3   OH241717   6.927   4.015   6.232
13925TIP3    H141718   6.930   4.103   6.269
13925TIP3    H241719   7.019   3.993   6.217
13926TIP3   OH241720   7.520   3.511   6.489
13926TIP3    H141721   7.428   3.484   6.493
13926TIP3    H241722   7.518   3.606   6.504
13927TIP3   OH241723   4.620   5.360   2.038
13927TIP3    H141724   4.538   5.318   2.011
13927TIP3    H241725   4.635   5.329   2.127
13928TIP3   OH241726   5.531   4.983   4.448
13928TIP3    H141727   5.531   4.917   4.379
13928TIP3    H241728   5.438   4.997   4.467
13929TIP3   OH241729   3.017   4.182   2.022
13929TIP3    H141730   2.951   4.243   1.990
13929TIP3    H241731   2.968   4.102   2.043
13930TIP3   OH241732   6.899   4.145   2.589
13930TIP3    H141733   6.868   4.092   2.662
13930TIP3    H241734   6.877   4.235   2.613
13931TIP3   OH241735   0.352   7.644   2.742
13931TIP3    H141736   0.304   7.588   2.804
13931TIP3    H241737   0.424   7.680   2.793
13932TIP3   OH241738   3.428   7.563   2.323
13932TIP3    H141739   3.367   7.497   2.357
13932TIP3    H241740   3.479   7.591   2.399
13933TIP3   OH241741   5.489   6.673   6.325
13933TIP3    H141742   5.416   6.612   6.340
13933TIP3    H241743   5.463   6.722   6.247
13934TIP3   OH241744   0.093   4.785   2.517
13934TIP3    H141745   0.097   4.795   2.612
13934TIP3    H241746   0.039   4.858   2.487
13935TIP3   OH241747   0.632   7.311   5.808
13935TIP3    H141748   0.594   7.226   5.830
13935TIP3    H241749   0.715   7.289   5.765
13936TIP3   OH241750   3.100   7.284   3.185
13936TIP3    H141751   3.070   7.320   3.101
13936TIP3    H241752   3.022   7.248   3.225
13937TIP3   OH241753   1.291   0.432   1.710
13937TIP3    H141754   1.320   0.361   1.652
13937TIP3    H241755   1.319   0.404   1.797
13938TIP3   OH241756   5.351   3.667   6.728
13938TIP3    H141757   5.445   3.657   6.739
13938TIP3    H241758   5.339   3.678   6.633
13939TIP3   OH241759   5.994   0.026   4.859
13939TIP3    H141760   5.933  -0.039   4.894
13939TIP3    H241761   6.081  -0.007   4.883
13940TIP3   OH241762   1.847   6.308   2.186
13940TIP3    H141763   1.901   6.381   2.214
13940TIP3    H241764   1.759   6.344   2.179
13941TIP3   OH241765   0.646   6.047   4.428
13941TIP3    H141766   0.569   6.059   4.485
13941TIP3    H241767   0.676   6.136   4.410
13942TIP3   OH241768   5.696   5.070   4.691
13942TIP3    H141769   5.630   5.136   4.671
13942TIP3    H241770   5.748   5.109   4.762
13943TIP3   OH241771   1.718   5.297   6.568
13943TIP3    H141772   1.807   5.329   6.582
13943TIP3    H241773   1.729   5.215   6.520
13944TIP3   OH241774   2.231   5.064   2.069
13944TIP3    H141775   2.249   4.993   2.131
13944TIP3    H241776   2.153   5.035   2.022
13945TIP3   OH241777   1.600   3.321   0.720
13945TIP3    H141778   1.554   3.272   0.652
13945TIP3    H241779   1.693   3.308   0.700
13946TIP3   OH241780   0.431   4.873   4.368
13946TIP3    H141781   0.515   4.910   4.341
13946TIP3    H241782   0.371   4.899   4.298
13947TIP3   OH241783   0.317   1.603   6.751
13947TIP3    H141784   0.364   1.612   6.834
13947TIP3    H241785   0.382   1.627   6.684
13948TIP3   OH241786   7.717   0.741   0.303
13948TIP3    H141787   7.680   0.668   0.254
13948TIP3    H241788   7.661   0.750   0.380
13949TIP3   OH241789   6.002   5.314   5.112
13949TIP3    H141790   6.075   5.372   5.089
13949TIP3    H241791   5.924   5.362   5.086
13950TIP3   OH241792   6.297   6.231   3.490
13950TIP3    H141793   6.390   6.218   3.509
13950TIP3    H241794   6.292   6.233   3.394
13951TIP3   OH241795   6.276   7.658   1.525
13951TIP3    H141796   6.361   7.614   1.531
13951TIP3    H241797   6.255   7.656   1.432
13952TIP3   OH241798   1.492   3.696   0.951
13952TIP3    H141799   1.403   3.666   0.939
13952TIP3    H241800   1.542   3.656   0.879
13953TIP3   OH241801   3.466   4.153   3.749
13953TIP3    H141802   3.379   4.185   3.724
13953TIP3    H241803   3.454   4.122   3.839
13954TIP3   OH241804   6.813   1.785   6.452
13954TIP3    H141805   6.819   1.723   6.379
13954TIP3    H241806   6.735   1.837   6.432
13955TIP3   OH241807   2.093   1.299   1.602
13955TIP3    H141808   2.030   1.371   1.606
13955TIP3    H241809   2.120   1.296   1.510
13956TIP3   OH241810   3.479   4.718   2.569
13956TIP3    H141811   3.480   4.657   2.495
13956TIP3    H241812   3.526   4.672   2.639
13957TIP3   OH241813   3.258   0.465   0.198
13957TIP3    H141814   3.350   0.471   0.224
13957TIP3    H241815   3.260   0.447   0.104
13958TIP3   OH241816   7.399   3.916   4.641
13958TIP3    H141817   7.460   3.866   4.586
13958TIP3    H241818   7.430   3.903   4.730
13959TIP3   OH241819   3.688   2.840   1.393
13959TIP3    H141820   3.696   2.843   1.488
13959TIP3    H241821   3.617   2.778   1.376
13960TIP3   OH241822   0.994   6.118   5.806
13960TIP3    H141823   0.982   6.024   5.789
13960TIP3    H241824   0.907   6.148   5.835
13961TIP3   OH241825   0.769   4.235   0.813
13961TIP3    H141826   0.848   4.277   0.779
13961TIP3    H241827   0.702   4.253   0.747
13962TIP3   OH241828   0.658   1.903   6.338
13962TIP3    H141829   0.679   1.810   6.331
13962TIP3    H241830   0.584   1.915   6.279
13963TIP3   OH241831   0.672   5.446   4.539
13963TIP3    H141832   0.619   5.371   4.510
13963TIP3    H241833   0.612   5.521   4.533
13964TIP3   OH241834   1.781   6.633   0.269
13964TIP3    H141835   1.769   6.585   0.187
13964TIP3    H241836   1.756   6.571   0.337
13965TIP3   OH241837   6.140   3.491   3.305
13965TIP3    H141838   6.079   3.428   3.267
13965TIP3    H241839   6.201   3.437   3.355
13966TIP3   OH241840   4.046   3.523   5.844
13966TIP3    H141841   4.040   3.615   5.868
13966TIP3    H241842   4.133   3.496   5.873
13967TIP3   OH241843   6.673   7.631   3.436
13967TIP3    H141844   6.712   7.718   3.426
13967TIP3    H241845   6.587   7.638   3.396
13968TIP3   OH241846   3.547   3.638   5.303
13968TIP3    H141847   3.530   3.544   5.294
13968TIP3    H241848   3.489   3.679   5.238
13969TIP3   OH241849   3.980   6.080   2.792
13969TIP3    H141850   3.896   6.055   2.829
13969TIP3    H241851   4.022   6.131   2.862
13970TIP3   OH241852   0.638   3.167   3.552
13970TIP3    H141853   0.563   3.223   3.530
13970TIP3    H241854   0.649   3.111   3.475
13971TIP3   OH241855   0.353   1.664   2.296
13971TIP3    H141856   0.377   1.572   2.302
13971TIP3    H241857   0.286   1.667   2.228
13972TIP3   OH241858   5.084   0.414   2.702
13972TIP3    H141859   5.058   0.453   2.786
13972TIP3    H241860   5.067   0.483   2.638
13973TIP3   OH241861   7.908   5.662   0.299
13973TIP3    H141862   7.846   5.590   0.312
13973TIP3    H241863   7.980   5.642   0.359
13974TIP3   OH241864   5.716   0.635   6.646
13974TIP3    H141865   5.642   0.616   6.589
13974TIP3    H241866   5.677   0.653   6.732
13975TIP3   OH241867   4.472   4.775   4.529
13975TIP3    H141868   4.412   4.742   4.462
13975TIP3    H241869   4.503   4.697   4.575
13976TIP3   OH241870   2.132   7.804   6.366
13976TIP3    H141871   2.163   7.803   6.457
13976TIP3    H241872   2.095   7.892   6.355
13977TIP3   OH241873   6.566   1.616   0.463
13977TIP3    H141874   6.659   1.634   0.459
13977TIP3    H241875   6.558   1.524   0.438
13978TIP3   OH241876   7.522   3.786   1.343
13978TIP3    H141877   7.471   3.726   1.289
13978TIP3    H241878   7.517   3.870   1.296
13979TIP3   OH241879   7.727   2.911   1.180
13979TIP3    H141880   7.730   2.924   1.274
13979TIP3    H241881   7.807   2.952   1.147
13980TIP3   OH241882   4.063   0.769   4.568
13980TIP3    H141883   4.129   0.779   4.500
13980TIP3    H241884   3.989   0.822   4.538
13981TIP3   OH241885   3.291   4.967   3.929
13981TIP3    H141886   3.258   5.057   3.918
13981TIP3    H241887   3.325   4.964   4.018
13982TIP3   OH241888   0.051   3.979   3.813
13982TIP3    H141889   0.043   3.920   3.738
13982TIP3    H241890  -0.018   3.951   3.873
13983TIP3   OH241891   5.569   7.046   1.885
13983TIP3    H141892   5.613   7.076   1.805
13983TIP3    H241893   5.577   6.951   1.883
13984TIP3   OH241894   1.278   2.589   5.814
13984TIP3    H141895   1.337   2.597   5.889
13984TIP3    H241896   1.216   2.520   5.840
13985TIP3   OH241897   0.286   5.474   4.514
13985TIP3    H141898   0.221   5.405   4.514
13985TIP3    H241899   0.315   5.480   4.606
13986TIP3   OH241900   1.549   3.342   4.138
13986TIP3    H141901   1.472   3.389   4.106
13986TIP3    H241902   1.529   3.250   4.124
13987TIP3   OH241903   0.475   0.974   4.367
13987TIP3    H141904   0.485   0.984   4.272
13987TIP3    H241905   0.451   1.061   4.398
13988TIP3   OH241906   2.935   7.151   1.319
13988TIP3    H141907   2.851   7.178   1.281
13988TIP3    H241908   2.911   7.114   1.404
13989TIP3   OH241909   1.532   6.225   2.070
13989TIP3    H141910   1.594   6.152   2.074
13989TIP3    H241911   1.470   6.208   2.141
13990TIP3   OH241912   6.673   4.526   1.927
13990TIP3    H141913   6.608   4.512   1.996
13990TIP3    H241914   6.637   4.482   1.850
13991TIP3   OH241915   1.705   2.457   0.118
13991TIP3    H141916   1.728   2.416   0.035
13991TIP3    H241917   1.610   2.467   0.114
13992TIP3   OH241918   7.607   2.552   1.559
13992TIP3    H141919   7.650   2.594   1.485
13992TIP3    H241920   7.677   2.506   1.606
13993TIP3   OH241921   1.289   6.129   4.093
13993TIP3    H141922   1.202   6.155   4.123
13993TIP3    H241923   1.287   6.034   4.094
13994TIP3   OH241924   1.185   1.077   4.281
13994TIP3    H141925   1.238   1.015   4.231
13994TIP3    H241926   1.231   1.160   4.272
13995TIP3   OH241927   1.804   7.538   0.213
13995TIP3    H141928   1.789   7.619   0.262
13995TIP3    H241929   1.831   7.567   0.126
13996TIP3   OH241930   5.396   1.824   3.207
13996TIP3    H141931   5.463   1.756   3.214
13996TIP3    H241932   5.440   1.904   3.236
13997TIP3   OH241933   2.408   0.770   2.780
13997TIP3    H141934   2.355   0.768   2.700
13997TIP3    H241935   2.346   0.793   2.849
13998TIP3   OH241936   0.787   0.836   5.873
13998TIP3    H141937   0.723   0.838   5.802
13998TIP3    H241938   0.858   0.892   5.842
13999TIP3   OH241939   1.782   5.770   5.595
13999TIP3    H141940   1.702   5.742   5.641
13999TIP3    H241941   1.800   5.857   5.629
14000TIP3   OH241942   3.337   0.109   0.060
14000TIP3    H141943   3.306   0.067  -0.021
14000TIP3    H241944   3.359   0.035   0.117
14001TIP3   OH241945   6.967   0.362   1.498
14001TIP3    H141946   7.056   0.398   1.497
14001TIP3    H241947   6.955   0.332   1.589
14002TIP3   OH241948   5.007   5.942   5.644
14002TIP3    H141949   5.065   6.004   5.688
14002TIP3    H241950   5.029   5.951   5.551
14003TIP3   OH241951   2.231   3.796   0.167
14003TIP3    H141952   2.255   3.799   0.260
14003TIP3    H241953   2.189   3.880   0.150
14004TIP3   OH241954   4.466   6.089   2.582
14004TIP3    H141955   4.442   6.164   2.636
14004TIP3    H241956   4.420   6.015   2.622
14005TIP3   OH241957   2.633   7.633   3.412
14005TIP3    H141958   2.644   7.706   3.472
14005TIP3    H241959   2.695   7.567   3.443
14006TIP3   OH241960   1.599   2.204   3.160
14006TIP3    H141961   1.605   2.177   3.068
14006TIP3    H241962   1.513   2.172   3.189
14007TIP3   OH241963   6.062   0.154   3.562
14007TIP3    H141964   6.149   0.160   3.602
14007TIP3    H241965   6.031   0.245   3.558
14008TIP3   OH241966   0.261   6.487   4.115
14008TIP3    H141967   0.319   6.533   4.054
14008TIP3    H241968   0.179   6.536   4.112
14009TIP3   OH241969   3.252   7.783   6.364
14009TIP3    H141970   3.163   7.797   6.396
14009TIP3    H241971   3.292   7.870   6.365
14010TIP3   OH241972   2.752   7.381   3.483
14010TIP3    H141973   2.790   7.439   3.548
14010TIP3    H241974   2.680   7.338   3.529
14011TIP3   OH241975   5.460   4.494   2.962
14011TIP3    H141976   5.399   4.563   2.937
14011TIP3    H241977   5.546   4.536   2.959
14012TIP3   OH241978   6.132   1.790   1.809
14012TIP3    H141979   6.067   1.723   1.788
14012TIP3    H241980   6.204   1.742   1.850
14013TIP3   OH241981   2.535   3.102   0.736
14013TIP3    H141982   2.525   3.121   0.643
14013TIP3    H241983   2.541   3.188   0.778
14014TIP3   OH241984   1.257   7.780   3.762
14014TIP3    H141985   1.180   7.724   3.748
14014TIP3    H241986   1.311   7.731   3.824
14015TIP3   OH241987   1.940   0.846   1.359
14015TIP3    H141988   1.951   0.934   1.323
14015TIP3    H241989   1.929   0.790   1.283
14016TIP3   OH241990   3.563   0.090   1.162
14016TIP3    H141991   3.490   0.153   1.163
14016TIP3    H241992   3.577   0.071   1.070
14017TIP3   OH241993   3.146   2.494   4.100
14017TIP3    H141994   3.073   2.432   4.102
14017TIP3    H241995   3.113   2.571   4.147
14018TIP3   OH241996   4.117   2.143   2.064
14018TIP3    H141997   4.150   2.057   2.037
14018TIP3    H241998   4.037   2.123   2.113
14019TIP3   OH241999   3.693   3.775   5.707
14019TIP3    H142000   3.685   3.868   5.687
14019TIP3    H242001   3.743   3.738   5.635
14020TIP3   OH242002   6.547   6.022   6.763
14020TIP3    H142003   6.506   5.955   6.818
14020TIP3    H242004   6.498   6.018   6.681
14021TIP3   OH242005   1.914   4.854   1.643
14021TIP3    H142006   1.927   4.816   1.730
14021TIP3    H242007   1.831   4.816   1.612
14022TIP3   OH242008   0.584   0.885   5.691
14022TIP3    H142009   0.493   0.894   5.720
14022TIP3    H242010   0.602   0.966   5.643
14023TIP3   OH242011   3.950   4.018   4.222
14023TIP3    H142012   4.011   4.086   4.252
14023TIP3    H242013   3.887   4.065   4.167
14024TIP3   OH242014   3.583   3.816   1.868
14024TIP3    H142015   3.515   3.748   1.864
14024TIP3    H242016   3.556   3.881   1.803
14025TIP3   OH242017   2.826   2.339   1.393
14025TIP3    H142018   2.911   2.375   1.366
14025TIP3    H242019   2.848   2.273   1.459
14026TIP3   OH242020   6.467   7.372   4.421
14026TIP3    H142021   6.538   7.343   4.478
14026TIP3    H242022   6.389   7.372   4.477
14027TIP3   OH242023   3.182   5.077   6.588
14027TIP3    H142024   3.096   5.039   6.606
14027TIP3    H242025   3.193   5.067   6.494
14028TIP3   OH242026   4.747   4.720   4.822
14028TIP3    H142027   4.781   4.807   4.804
14028TIP3    H242028   4.744   4.715   4.918
14029TIP3   OH242029   7.483   5.078   3.421
14029TIP3    H142030   7.527   5.005   3.378
14029TIP3    H242031   7.553   5.138   3.445
14030TIP3   OH242032   0.109   0.087   2.641
14030TIP3    H142033   0.137   0.097   2.732
14030TIP3    H242034   0.147   0.162   2.596
14031TIP3   OH242035   2.580   0.147   3.543
14031TIP3    H142036   2.561   0.239   3.562
14031TIP3    H242037   2.675   0.143   3.538
14032TIP3   OH242038   1.751   5.595   6.388
14032TIP3    H142039   1.700   5.514   6.392
14032TIP3    H242040   1.771   5.616   6.479
14033TIP3   OH242041   7.865   3.115   1.029
14033TIP3    H142042   7.862   3.177   1.102
14033TIP3    H242043   7.950   3.071   1.038
14034TIP3   OH242044   7.749   7.087   6.610
14034TIP3    H142045   7.760   7.181   6.629
14034TIP3    H242046   7.778   7.043   6.689
14035TIP3   OH242047   5.055   6.660   3.782
14035TIP3    H142048   5.024   6.657   3.691
14035TIP3    H242049   5.079   6.570   3.803
14036TIP3   OH242050   8.026   1.681   1.172
14036TIP3    H142051   8.100   1.721   1.127
14036TIP3    H242052   8.037   1.587   1.157
14037TIP3   OH242053   4.523   4.638   1.883
14037TIP3    H142054   4.524   4.595   1.969
14037TIP3    H242055   4.573   4.718   1.896
14038TIP3   OH242056   1.459   4.986   6.018
14038TIP3    H142057   1.497   4.963   5.933
14038TIP3    H242058   1.530   4.973   6.081
14039TIP3   OH242059   7.820   1.003   5.204
14039TIP3    H142060   7.777   1.049   5.132
14039TIP3    H242061   7.785   1.044   5.284
14040TIP3   OH242062   7.688   1.288   2.996
14040TIP3    H142063   7.599   1.325   2.994
14040TIP3    H242064   7.740   1.349   2.944
14041TIP3   OH242065   0.514   2.194   5.188
14041TIP3    H142066   0.539   2.108   5.154
14041TIP3    H242067   0.597   2.238   5.205
14042TIP3   OH242068   3.802   4.846   6.317
14042TIP3    H142069   3.712   4.859   6.287
14042TIP3    H242070   3.797   4.767   6.371
14043TIP3   OH242071   4.836   5.555   2.707
14043TIP3    H142072   4.866   5.556   2.616
14043TIP3    H242073   4.750   5.512   2.704
14044TIP3   OH242074   6.638   0.138   6.192
14044TIP3    H142075   6.669   0.173   6.108
14044TIP3    H242076   6.576   0.069   6.167
14045TIP3   OH242077   8.252   0.395   5.126
14045TIP3    H142078   8.339   0.377   5.161
14045TIP3    H242079   8.219   0.468   5.179
14046TIP3   OH242080   7.196   3.322   2.890
14046TIP3    H142081   7.182   3.394   2.951
14046TIP3    H242082   7.284   3.336   2.856
14047TIP3   OH242083   4.815   2.818   3.147
14047TIP3    H142084   4.900   2.821   3.191
14047TIP3    H242085   4.753   2.792   3.215
14048TIP3   OH242086   7.481   5.529   1.460
14048TIP3    H142087   7.474   5.505   1.368
14048TIP3    H242088   7.551   5.594   1.463
14049TIP3   OH242089   0.453   3.136   4.737
14049TIP3    H142090   0.414   3.071   4.678
14049TIP3    H242091   0.389   3.206   4.742
14050TIP3   OH242092   7.723   3.067   0.521
14050TIP3    H142093   7.765   3.035   0.442
14050TIP3    H242094   7.636   3.027   0.520
14051TIP3   OH242095   3.779   2.612   6.329
14051TIP3    H142096   3.735   2.528   6.336
14051TIP3    H242097   3.848   2.609   6.396
14052TIP3   OH242098   0.016   5.142   5.446
14052TIP3    H142099   0.008   5.076   5.515
14052TIP3    H242100   0.110   5.149   5.430
14053TIP3   OH242101   2.717   0.520   2.105
14053TIP3    H142102   2.640   0.553   2.058
14053TIP3    H242103   2.791   0.556   2.056
14054TIP3   OH242104   2.291   2.247   4.248
14054TIP3    H142105   2.346   2.171   4.272
14054TIP3    H242106   2.334   2.282   4.170
14055TIP3   OH242107   3.358   2.486   5.354
14055TIP3    H142108   3.296   2.556   5.333
14055TIP3    H242109   3.439   2.511   5.309
14056TIP3   OH242110   4.515   3.229   5.872
14056TIP3    H142111   4.523   3.268   5.959
14056TIP3    H242112   4.426   3.192   5.871
14057TIP3   OH242113   5.850   7.636   2.054
14057TIP3    H142114   5.901   7.693   2.111
14057TIP3    H242115   5.794   7.586   2.113
14058TIP3   OH242116   0.624   1.960   5.068
14058TIP3    H142117   0.661   2.005   4.992
14058TIP3    H242118   0.551   1.910   5.032
14059TIP3   OH242119   0.275   6.970   5.882
14059TIP3    H142120   0.226   7.020   5.947
14059TIP3    H242121   0.359   7.016   5.875
14060TIP3   OH242122   3.090   3.696   6.634
14060TIP3    H142123   3.145   3.744   6.572
14060TIP3    H242124   3.006   3.688   6.591
14061TIP3   OH242125   6.169   0.150   0.508
14061TIP3    H142126   6.126   0.205   0.572
14061TIP3    H242127   6.228   0.209   0.461
14062TIP3   OH242128   2.918   5.834   0.999
14062TIP3    H142129   2.947   5.926   1.003
14062TIP3    H242130   2.823   5.839   1.000
14063TIP3   OH242131   5.596   3.836   5.438
14063TIP3    H142132   5.605   3.825   5.533
14063TIP3    H242133   5.536   3.766   5.412
14064TIP3   OH242134   4.210   3.603   3.359
14064TIP3    H142135   4.195   3.643   3.445
14064TIP3    H242136   4.126   3.562   3.337
14065TIP3   OH242137   4.178   1.442   3.219
14065TIP3    H142138   4.188   1.485   3.304
14065TIP3    H242139   4.267   1.435   3.185
14066TIP3   OH242140   4.176   2.783   4.937
14066TIP3    H142141   4.130   2.701   4.956
14066TIP3    H242142   4.269   2.760   4.938
14067TIP3   OH242143   0.081   0.360   6.056
14067TIP3    H142144   0.135   0.427   6.097
14067TIP3    H242145   0.103   0.279   6.102
14068TIP3   OH242146   2.913   6.418   5.313
14068TIP3    H142147   2.838   6.429   5.255
14068TIP3    H242148   2.912   6.495   5.370
14069TIP3   OH242149   2.807   5.266   3.922
14069TIP3    H142150   2.720   5.301   3.902
14069TIP3    H242151   2.846   5.329   3.982
14070TIP3   OH242152   1.988   6.964   4.254
14070TIP3    H142153   1.991   6.889   4.195
14070TIP3    H242154   2.080   6.979   4.278
14071TIP3   OH242155   3.048   7.350   2.565
14071TIP3    H142156   2.962   7.391   2.569
14071TIP3    H242157   3.044   7.281   2.631
14072TIP3   OH242158   4.374   6.060   3.164
14072TIP3    H142159   4.462   6.026   3.178
14072TIP3    H242160   4.369   6.138   3.218
14073TIP3   OH242161   5.398   2.838   2.253
14073TIP3    H142162   5.426   2.764   2.199
14073TIP3    H242163   5.318   2.870   2.211
14074TIP3   OH242164   6.248   6.606   4.991
14074TIP3    H142165   6.166   6.617   4.943
14074TIP3    H242166   6.270   6.513   4.980
14075TIP3   OH242167   3.220   6.425   3.739
14075TIP3    H142168   3.180   6.512   3.745
14075TIP3    H242169   3.153   6.366   3.772
14076TIP3   OH242170   4.313   4.403   0.548
14076TIP3    H142171   4.354   4.490   0.543
14076TIP3    H242172   4.384   4.345   0.573
14077TIP3   OH242173   7.817   7.512   3.087
14077TIP3    H142174   7.894   7.537   3.137
14077TIP3    H242175   7.847   7.443   3.029
14078TIP3   OH242176   8.083   2.962   1.086
14078TIP3    H142177   8.136   2.934   1.161
14078TIP3    H242178   8.114   2.908   1.013
14079TIP3   OH242179   4.419   1.695   5.861
14079TIP3    H142180   4.437   1.756   5.789
14079TIP3    H242181   4.500   1.694   5.911
14080TIP3   OH242182   2.746   1.816   0.585
14080TIP3    H142183   2.768   1.754   0.516
14080TIP3    H242184   2.702   1.764   0.651
14081TIP3   OH242185   4.875   2.803   2.091
14081TIP3    H142186   4.853   2.863   2.019
14081TIP3    H242187   4.792   2.790   2.137
14082TIP3   OH242188   4.419   0.850   4.744
14082TIP3    H142189   4.377   0.934   4.763
14082TIP3    H242190   4.466   0.865   4.662
14083TIP3   OH242191   3.206   4.535   5.429
14083TIP3    H142192   3.226   4.473   5.498
14083TIP3    H242193   3.119   4.510   5.398
14084TIP3   OH242194   0.044   1.545   1.285
14084TIP3    H142195   0.113   1.492   1.244
14084TIP3    H242196  -0.033   1.488   1.284
14085TIP3   OH242197   2.901   5.154   6.175
14085TIP3    H142198   2.930   5.245   6.189
14085TIP3    H242199   2.805   5.159   6.177
14086TIP3   OH242200   0.865   6.148   2.614
14086TIP3    H142201   0.959   6.130   2.608
14086TIP3    H242202   0.843   6.132   2.706
14087TIP3   OH242203   2.650   0.440   2.765
14087TIP3    H142204   2.709   0.457   2.838
14087TIP3    H242205   2.679   0.356   2.729
14088TIP3   OH242206   3.414   0.820   0.263
14088TIP3    H142207   3.344   0.830   0.328
14088TIP3    H242208   3.492   0.800   0.315
14089TIP3   OH242209   6.299   7.103   5.802
14089TIP3    H142210   6.280   7.061   5.718
14089TIP3    H242211   6.393   7.088   5.814
14090TIP3   OH242212   1.702   4.006   4.162
14090TIP3    H142213   1.696   3.932   4.222
14090TIP3    H242214   1.615   4.046   4.164
14091TIP3   OH242215   0.910   2.799  -0.027
14091TIP3    H142216   0.932   2.723   0.026
14091TIP3    H242217   0.854   2.852   0.030
14092TIP3   OH242218   7.489   0.806   2.266
14092TIP3    H142219   7.446   0.855   2.337
14092TIP3    H242220   7.477   0.861   2.189
14093TIP3   OH242221   6.639   7.202   2.038
14093TIP3    H142222   6.645   7.297   2.036
14093TIP3    H242223   6.551   7.184   2.070
14094TIP3   OH242224   6.402   3.993   5.593
14094TIP3    H142225   6.470   3.939   5.634
14094TIP3    H242226   6.442   4.025   5.512
14095TIP3   OH242227   1.554   1.109   4.510
14095TIP3    H142228   1.496   1.169   4.555
14095TIP3    H242229   1.543   1.025   4.556
14096TIP3   OH242230   1.395   6.443   0.412
14096TIP3    H142231   1.346   6.362   0.399
14096TIP3    H242232   1.410   6.477   0.323
14097TIP3   OH242233   4.084   5.540   1.664
14097TIP3    H142234   4.139   5.516   1.739
14097TIP3    H242235   4.134   5.513   1.587
14098TIP3   OH242236   1.683   3.172   2.985
14098TIP3    H142237   1.683   3.078   3.003
14098TIP3    H242238   1.649   3.178   2.895
14099TIP3   OH242239   6.647   7.802   0.987
14099TIP3    H142240   6.651   7.850   0.904
14099TIP3    H242241   6.621   7.713   0.962
14100TIP3   OH242242   0.759   2.052   0.879
14100TIP3    H142243   0.795   2.088   0.798
14100TIP3    H242244   0.833   2.012   0.923
14101TIP3   OH242245   6.678   0.417   0.874
14101TIP3    H142246   6.649   0.429   0.964
14101TIP3    H242247   6.657   0.325   0.854
14102TIP3   OH242248   7.287   7.549   0.502
14102TIP3    H142249   7.258   7.638   0.481
14102TIP3    H242250   7.253   7.534   0.590
14103TIP3   OH242251   5.987   7.643   1.121
14103TIP3    H142252   6.041   7.684   1.052
14103TIP3    H242253   5.922   7.709   1.143
14104TIP3   OH242254   2.394   4.675   4.223
14104TIP3    H142255   2.374   4.755   4.272
14104TIP3    H242256   2.489   4.679   4.210
14105TIP3   OH242257   1.101   5.588   0.382
14105TIP3    H142258   1.095   5.629   0.468
14105TIP3    H242259   1.057   5.504   0.393
14106TIP3   OH242260   2.928   1.641   2.209
14106TIP3    H142261   2.951   1.559   2.253
14106TIP3    H242262   2.833   1.637   2.200
14107TIP3   OH242263   3.456   0.260   3.858
14107TIP3    H142264   3.464   0.352   3.880
14107TIP3    H242265   3.545   0.233   3.834
14108TIP3   OH242266   0.013   6.059   4.864
14108TIP3    H142267   0.053   5.973   4.847
14108TIP3    H242268   0.074   6.102   4.923
14109TIP3   OH242269   2.194   5.640   4.256
14109TIP3    H142270   2.167   5.550   4.242
14109TIP3    H242271   2.181   5.682   4.170
14110TIP3   OH242272   4.857   0.970   6.711
14110TIP3    H142273   4.833   1.001   6.624
14110TIP3    H242274   4.868   0.875   6.700
14111TIP3   OH242275   5.993   2.085   0.490
14111TIP3    H142276   6.079   2.088   0.531
14111TIP3    H242277   6.011   2.081   0.396
14112TIP3   OH242278   3.877   1.906   5.277
14112TIP3    H142279   3.823   1.828   5.288
14112TIP3    H242280   3.820   1.979   5.299
14113TIP3   OH242281   7.079   4.110   0.083
14113TIP3    H142282   7.141   4.046   0.047
14113TIP3    H242283   7.133   4.187   0.101
14114TIP3   OH242284   5.071   7.627   6.056
14114TIP3    H142285   5.014   7.688   6.010
14114TIP3    H242286   5.110   7.680   6.126
14115TIP3   OH242287   0.062   1.614   0.715
14115TIP3    H142288   0.076   1.557   0.639
14115TIP3    H242289  -0.007   1.570   0.765
14116TIP3   OH242290   4.441   4.076   1.719
14116TIP3    H142291   4.491   4.156   1.734
14116TIP3    H242292   4.501   4.005   1.743
14117TIP3   OH242293   6.756   1.456   5.152
14117TIP3    H142294   6.763   1.381   5.212
14117TIP3    H242295   6.723   1.419   5.071
14118TIP3   OH242296   4.293   4.936   4.680
14118TIP3    H142297   4.236   4.974   4.614
14118TIP3    H242298   4.350   4.875   4.632
14119TIP3   OH242299   4.066   2.380   6.001
14119TIP3    H142300   4.018   2.441   5.944
14119TIP3    H242301   4.004   2.308   6.014
14120TIP3   OH242302   1.142   5.913   4.389
14120TIP3    H142303   1.072   5.973   4.414
14120TIP3    H242304   1.096   5.842   4.344
14121TIP3   OH242305   6.984   5.538   1.913
14121TIP3    H142306   6.995   5.627   1.946
14121TIP3    H242307   6.904   5.541   1.860
14122TIP3   OH242308   8.147   6.671   0.667
14122TIP3    H142309   8.103   6.694   0.749
14122TIP3    H242310   8.129   6.578   0.655
14123TIP3   OH242311   0.873   2.663   5.851
14123TIP3    H142312   0.836   2.704   5.773
14123TIP3    H242313   0.803   2.605   5.883
14124TIP3   OH242314   7.660   3.236   1.502
14124TIP3    H142315   7.679   3.322   1.540
14124TIP3    H242316   7.688   3.244   1.411
14125TIP3   OH242317   3.247   1.285   2.790
14125TIP3    H142318   3.156   1.258   2.797
14125TIP3    H242319   3.256   1.358   2.850
14126TIP3   OH242320   2.711   6.305   6.007
14126TIP3    H142321   2.706   6.323   5.913
14126TIP3    H242322   2.628   6.261   6.027
14127TIP3   OH242323   3.083   3.074   5.139
14127TIP3    H142324   3.140   3.118   5.076
14127TIP3    H242325   3.096   2.980   5.123
14128TIP3   OH242326   1.529   3.083   1.652
14128TIP3    H142327   1.544   3.172   1.681
14128TIP3    H242328   1.540   3.086   1.557
14129TIP3   OH242329   2.704   5.107   0.988
14129TIP3    H142330   2.724   5.095   0.896
14129TIP3    H242331   2.762   5.047   1.034
14130TIP3   OH242332   3.414   1.134   2.119
14130TIP3    H142333   3.385   1.177   2.199
14130TIP3    H242334   3.369   1.049   2.119
14131TIP3   OH242335   7.318   1.808   0.867
14131TIP3    H142336   7.362   1.840   0.946
14131TIP3    H242337   7.236   1.770   0.899
14132TIP3   OH242338   6.855   0.099   1.862
14132TIP3    H142339   6.950   0.109   1.857
14132TIP3    H242340   6.838   0.082   1.955
14133TIP3   OH242341   7.141   3.252   3.345
14133TIP3    H142342   7.067   3.234   3.403
14133TIP3    H242343   7.148   3.347   3.344
14134TIP3   OH242344   5.313   6.514   3.406
14134TIP3    H142345   5.409   6.512   3.411
14134TIP3    H242346   5.287   6.578   3.473
14135TIP3   OH242347   4.302   2.445   3.676
14135TIP3    H142348   4.292   2.404   3.762
14135TIP3    H242349   4.385   2.411   3.643
14136TIP3   OH242350   1.767   5.180   2.981
14136TIP3    H142351   1.807   5.240   2.918
14136TIP3    H242352   1.733   5.236   3.050
14137TIP3   OH242353   7.958   3.640   4.363
14137TIP3    H142354   7.962   3.736   4.363
14137TIP3    H242355   7.899   3.619   4.291
14138TIP3   OH242356   4.324   7.086   0.249
14138TIP3    H142357   4.243   7.099   0.201
14138TIP3    H242358   4.326   6.993   0.269
14139TIP3   OH242359   2.581   0.357   1.001
14139TIP3    H142360   2.648   0.308   1.049
14139TIP3    H242361   2.600   0.449   1.020
14140TIP3   OH242362   5.459   0.067   6.329
14140TIP3    H142363   5.459  -0.026   6.354
14140TIP3    H242364   5.451   0.066   6.233
14141TIP3   OH242365   6.255   5.303   3.770
14141TIP3    H142366   6.174   5.277   3.726
14141TIP3    H242367   6.285   5.223   3.814
14142TIP3   OH242368   1.624   5.486   1.966
14142TIP3    H142369   1.548   5.544   1.964
14142TIP3    H242370   1.606   5.421   1.898
14143TIP3   OH242371   3.041   6.901   0.297
14143TIP3    H142372   3.034   6.856   0.213
14143TIP3    H242373   2.951   6.912   0.327
14144TIP3   OH242374   4.658   7.020   6.747
14144TIP3    H142375   4.740   7.007   6.794
14144TIP3    H242376   4.685   7.040   6.657
14145TIP3   OH242377   5.512   7.077   0.737
14145TIP3    H142378   5.469   7.133   0.801
14145TIP3    H242379   5.474   6.990   0.751
14146TIP3   OH242380   0.260   6.361   3.851
14146TIP3    H142381   0.239   6.319   3.935
14146TIP3    H242382   0.305   6.294   3.801
14147TIP3   OH242383   8.187   0.788   3.265
14147TIP3    H142384   8.225   0.875   3.252
14147TIP3    H242385   8.102   0.792   3.222
14148TIP3   OH242386   7.444   3.999   0.362
14148TIP3    H142387   7.525   4.018   0.313
14148TIP3    H242388   7.390   3.949   0.301
14149TIP3   OH242389   2.437   1.892   1.718
14149TIP3    H142390   2.363   1.891   1.778
14149TIP3    H242391   2.501   1.951   1.760
14150TIP3   OH242392   7.882   4.654   3.906
14150TIP3    H142393   7.835   4.575   3.881
14150TIP3    H242394   7.840   4.724   3.855
14151TIP3   OH242395   2.977   4.641   5.730
14151TIP3    H142396   2.984   4.556   5.774
14151TIP3    H242397   2.938   4.699   5.795
14152TIP3   OH242398   6.353   5.385   2.929
14152TIP3    H142399   6.301   5.457   2.893
14152TIP3    H242400   6.386   5.338   2.853
14153TIP3   OH242401   2.235   5.775   1.713
14153TIP3    H142402   2.208   5.719   1.639
14153TIP3    H242403   2.155   5.786   1.765
14154TIP3   OH242404   0.109   5.802   4.836
14154TIP3    H142405   0.046   5.735   4.863
14154TIP3    H242406   0.193   5.756   4.834
14155TIP3   OH242407   4.600   3.404   1.795
14155TIP3    H142408   4.606   3.491   1.754
14155TIP3    H242409   4.507   3.382   1.791
14156TIP3   OH242410   4.923   6.379   1.332
14156TIP3    H142411   4.903   6.302   1.280
14156TIP3    H242412   4.853   6.383   1.397
14157TIP3   OH242413   1.177   1.054   0.769
14157TIP3    H142414   1.157   0.991   0.838
14157TIP3    H242415   1.269   1.077   0.783
14158TIP3   OH242416   5.529   5.342   5.472
14158TIP3    H142417   5.486   5.265   5.434
14158TIP3    H242418   5.623   5.324   5.461
14159TIP3   OH242419   0.265   6.675   2.872
14159TIP3    H142420   0.170   6.672   2.881
14159TIP3    H242421   0.297   6.680   2.962
14160TIP3   OH242422   7.697   3.432   0.963
14160TIP3    H142423   7.699   3.516   0.919
14160TIP3    H242424   7.779   3.427   1.012
14161TIP3   OH242425   5.065   4.800   4.753
14161TIP3    H142426   5.037   4.887   4.724
14161TIP3    H242427   5.027   4.740   4.689
14162TIP3   OH242428   4.543   2.524   3.422
14162TIP3    H142429   4.591   2.605   3.438
14162TIP3    H242430   4.577   2.463   3.488
14163TIP3   OH242431   1.382   5.957   4.756
14163TIP3    H142432   1.319   5.886   4.749
14163TIP3    H242433   1.371   6.008   4.676
14164TIP3   OH242434   2.301   4.197   5.141
14164TIP3    H142435   2.282   4.134   5.211
14164TIP3    H242436   2.234   4.264   5.151
14165TIP3   OH242437   4.526   4.088   4.624
14165TIP3    H142438   4.582   4.069   4.700
14165TIP3    H242439   4.532   4.009   4.570
14166TIP3   OH242440   3.024   1.922   2.402
14166TIP3    H142441   3.032   2.015   2.420
14166TIP3    H242442   3.109   1.885   2.423
14167TIP3   OH242443   0.140   6.993   3.174
14167TIP3    H142444   0.173   6.980   3.085
14167TIP3    H242445   0.171   7.080   3.199
14168TIP3   OH242446   0.983   7.212   1.796
14168TIP3    H142447   0.982   7.224   1.891
14168TIP3    H242448   1.037   7.284   1.763
14169TIP3   OH242449   1.196   7.242   0.470
14169TIP3    H142450   1.140   7.316   0.497
14169TIP3    H242451   1.234   7.270   0.386
14170TIP3   OH242452   4.403   1.986   4.105
14170TIP3    H142453   4.484   1.975   4.155
14170TIP3    H242454   4.388   2.081   4.105
14171TIP3   OH242455   2.031   2.145   1.168
14171TIP3    H142456   2.094   2.085   1.207
14171TIP3    H242457   2.024   2.217   1.230
14172TIP3   OH242458   2.482   4.799   0.352
14172TIP3    H142459   2.517   4.774   0.267
14172TIP3    H242460   2.415   4.865   0.333
14173TIP3   OH242461   4.618   0.209   4.380
14173TIP3    H142462   4.599   0.221   4.287
14173TIP3    H242463   4.583   0.289   4.421
14174TIP3   OH242464   5.754   5.194   3.520
14174TIP3    H142465   5.682   5.132   3.507
14174TIP3    H242466   5.716   5.265   3.571
14175TIP3   OH242467   0.389   6.905   5.029
14175TIP3    H142468   0.336   6.828   5.007
14175TIP3    H242469   0.455   6.872   5.089
14176TIP3   OH242470   4.248   2.303   1.092
14176TIP3    H142471   4.284   2.387   1.063
14176TIP3    H242472   4.153   2.313   1.085
14177TIP3   OH242473   2.217   5.112   4.768
14177TIP3    H142474   2.174   5.150   4.845
14177TIP3    H242475   2.150   5.113   4.700
14178TIP3   OH242476   2.533   6.121   4.787
14178TIP3    H142477   2.472   6.055   4.817
14178TIP3    H242478   2.620   6.083   4.802
14179TIP3   OH242479   4.677   4.464   1.707
14179TIP3    H142480   4.615   4.512   1.762
14179TIP3    H242481   4.741   4.530   1.682
14180TIP3   OH242482   2.632   1.506   0.211
14180TIP3    H142483   2.543   1.509   0.248
14180TIP3    H242484   2.624   1.547   0.125
14181TIP3   OH242485   5.427   0.096   1.788
14181TIP3    H142486   5.388   0.100   1.701
14181TIP3    H242487   5.397   0.012   1.824
14182TIP3   OH242488   3.409   1.546   6.659
14182TIP3    H142489   3.388   1.637   6.678
14182TIP3    H242490   3.476   1.551   6.590
14183TIP3   OH242491   4.849   3.165   0.132
14183TIP3    H142492   4.787   3.113   0.080
14183TIP3    H242493   4.881   3.232   0.071
14184TIP3   OH242494   0.283   7.827   1.887
14184TIP3    H142495   0.367   7.784   1.869
14184TIP3    H242496   0.296   7.918   1.859
14185TIP3   OH242497   2.415   4.172   5.810
14185TIP3    H142498   2.402   4.176   5.905
14185TIP3    H242499   2.510   4.175   5.799
14186TIP3   OH242500   1.849   2.759   1.140
14186TIP3    H142501   1.917   2.826   1.137
14186TIP3    H242502   1.865   2.705   1.063
14187TIP3   OH242503   2.365   1.565   5.773
14187TIP3    H142504   2.320   1.495   5.820
14187TIP3    H242505   2.457   1.537   5.770
14188TIP3   OH242506   2.246   7.001   4.331
14188TIP3    H142507   2.240   7.076   4.389
14188TIP3    H242508   2.321   6.951   4.364
14189TIP3   OH242509   3.332   7.786   3.983
14189TIP3    H142510   3.251   7.786   4.036
14189TIP3    H242511   3.334   7.699   3.943
14190TIP3   OH242512   5.577   3.697   2.474
14190TIP3    H142513   5.576   3.605   2.446
14190TIP3    H242514   5.484   3.722   2.472
14191TIP3   OH242515   7.619   1.282   3.693
14191TIP3    H142516   7.544   1.249   3.742
14191TIP3    H242517   7.644   1.209   3.636
14192TIP3   OH242518   8.040   5.913   6.073
14192TIP3    H142519   8.095   5.933   6.149
14192TIP3    H242520   7.951   5.911   6.107
14193TIP3   OH242521   4.356   0.240   0.755
14193TIP3    H142522   4.325   0.230   0.845
14193TIP3    H242523   4.438   0.288   0.763
14194TIP3   OH242524   4.566   2.694   2.534
14194TIP3    H142525   4.501   2.624   2.541
14194TIP3    H242526   4.649   2.654   2.560
14195TIP3   OH242527   5.945   4.002   4.198
14195TIP3    H142528   5.935   3.941   4.125
14195TIP3    H242529   5.946   4.088   4.157
14196TIP3   OH242530   3.588   2.886   3.207
14196TIP3    H142531   3.644   2.829   3.258
14196TIP3    H242532   3.632   2.971   3.208
14197TIP3   OH242533   1.462   7.236   4.386
14197TIP3    H142534   1.521   7.172   4.345
14197TIP3    H242535   1.403   7.183   4.439
14198TIP3   OH242536   4.825   5.814   1.743
14198TIP3    H142537   4.758   5.794   1.678
14198TIP3    H242538   4.799   5.766   1.821
14199TIP3   OH242539   2.521   4.106   4.530
14199TIP3    H142540   2.529   4.013   4.506
14199TIP3    H242541   2.445   4.109   4.588
14200TIP3   OH242542   7.273   5.815   1.943
14200TIP3    H142543   7.199   5.814   2.004
14200TIP3    H242544   7.351   5.817   2.000
14201TIP3   OH242545   7.361   7.814   3.326
14201TIP3    H142546   7.405   7.895   3.352
14201TIP3    H242547   7.415   7.745   3.362
14202TIP3   OH242548   3.506   7.336   4.096
14202TIP3    H142549   3.477   7.285   4.020
14202TIP3    H242550   3.503   7.273   4.168
14203TIP3   OH242551   3.388   5.798   2.205
14203TIP3    H142552   3.299   5.764   2.200
14203TIP3    H242553   3.388   5.874   2.147
14204TIP3   OH242554   5.699   4.689   2.562
14204TIP3    H142555   5.731   4.634   2.490
14204TIP3    H242556   5.642   4.753   2.520
14205TIP3   OH242557   7.453   2.269   0.264
14205TIP3    H142558   7.400   2.221   0.328
14205TIP3    H242559   7.423   2.359   0.270
14206TIP3   OH242560   2.518   6.574   3.790
14206TIP3    H142561   2.516   6.642   3.722
14206TIP3    H242562   2.600   6.527   3.773
14207TIP3   OH242563   3.977   3.779   2.954
14207TIP3    H142564   3.948   3.755   3.042
14207TIP3    H242565   4.020   3.863   2.965
14208TIP3   OH242566   4.593   4.194   3.649
14208TIP3    H142567   4.516   4.250   3.653
14208TIP3    H242568   4.662   4.246   3.693
14209TIP3   OH242569   8.062   2.426   1.057
14209TIP3    H142570   8.104   2.413   0.972
14209TIP3    H242571   7.971   2.399   1.043
14210TIP3   OH242572   2.553   0.179   5.534
14210TIP3    H142573   2.567   0.215   5.621
14210TIP3    H242574   2.464   0.143   5.537
14211TIP3   OH242575   8.244   3.428   6.090
14211TIP3    H142576   8.320   3.467   6.046
14211TIP3    H242577   8.201   3.377   6.022
14212TIP3   OH242578   0.587   7.569   5.330
14212TIP3    H142579   0.552   7.515   5.258
14212TIP3    H242580   0.512   7.622   5.358
14213TIP3   OH242581   3.364   5.155   6.755
14213TIP3    H142582   3.292   5.115   6.705
14213TIP3    H242583   3.379   5.094   6.828
14214TIP3   OH242584   0.757   0.807   3.336
14214TIP3    H142585   0.753   0.871   3.408
14214TIP3    H242586   0.721   0.727   3.374
14215TIP3   OH242587   0.678   0.922   3.732
14215TIP3    H142588   0.742   0.851   3.739
14215TIP3    H242589   0.686   0.953   3.642
14216TIP3   OH242590   5.533   0.487   3.816
14216TIP3    H142591   5.512   0.526   3.901
14216TIP3    H242592   5.574   0.558   3.767
14217TIP3   OH242593   4.125   1.329   0.530
14217TIP3    H142594   4.031   1.320   0.516
14217TIP3    H242595   4.163   1.254   0.485
14218TIP3   OH242596   2.737   2.487   4.595
14218TIP3    H142597   2.723   2.547   4.668
14218TIP3    H242598   2.651   2.479   4.553
14219TIP3   OH242599   3.541   4.491   2.946
14219TIP3    H142600   3.491   4.536   3.014
14219TIP3    H242601   3.547   4.555   2.875
14220TIP3   OH242602   4.549   2.228   0.949
14220TIP3    H142603   4.620   2.266   1.001
14220TIP3    H242604   4.523   2.298   0.890
14221TIP3   OH242605   7.974   2.951   3.173
14221TIP3    H142606   7.925   3.007   3.233
14221TIP3    H242607   8.060   2.943   3.213
14222TIP3   OH242608   6.699   0.195   3.985
14222TIP3    H142609   6.606   0.210   4.003
14222TIP3    H242610   6.700   0.138   3.909
14223TIP3   OH242611   5.713   0.718   1.674
14223TIP3    H142612   5.808   0.727   1.664
14223TIP3    H242613   5.695   0.628   1.647
14224TIP3   OH242614   2.997   3.443   1.740
14224TIP3    H142615   2.968   3.510   1.678
14224TIP3    H242616   2.939   3.368   1.724
14225TIP3   OH242617   5.199   6.831   1.457
14225TIP3    H142618   5.116   6.789   1.437
14225TIP3    H242619   5.176   6.909   1.507
14226TIP3   OH242620   2.199   7.236   1.561
14226TIP3    H142621   2.284   7.269   1.532
14226TIP3    H242622   2.148   7.314   1.580
14227TIP3   OH242623   2.410   2.896   3.709
14227TIP3    H142624   2.498   2.917   3.741
14227TIP3    H242625   2.352   2.921   3.781
14228TIP3   OH242626   6.703   5.908   4.119
14228TIP3    H142627   6.743   5.870   4.040
14228TIP3    H242628   6.667   5.832   4.166
14229TIP3   OH242629   7.255   4.791   0.528
14229TIP3    H142630   7.240   4.708   0.573
14229TIP3    H242631   7.276   4.853   0.598
14230TIP3   OH242632   1.966   2.968   3.172
14230TIP3    H142633   1.996   2.879   3.155
14230TIP3    H242634   1.897   2.958   3.238
14231TIP3   OH242635   6.831   3.251   0.779
14231TIP3    H142636   6.787   3.216   0.857
14231TIP3    H242637   6.858   3.173   0.730
14232TIP3   OH242638   0.528   6.501   4.888
14232TIP3    H142639   0.485   6.545   4.961
14232TIP3    H242640   0.502   6.551   4.811
14233TIP3   OH242641   3.491   6.331   3.750
14233TIP3    H142642   3.397   6.353   3.754
14233TIP3    H242643   3.496   6.259   3.687
14234TIP3   OH242644   8.252   1.083   1.256
14234TIP3    H142645   8.256   0.989   1.241
14234TIP3    H242646   8.225   1.092   1.347
14235TIP3   OH242647   5.261   4.509   6.096
14235TIP3    H142648   5.231   4.471   6.013
14235TIP3    H242649   5.182   4.512   6.151
14236TIP3   OH242650   0.497   2.444   2.857
14236TIP3    H142651   0.462   2.388   2.788
14236TIP3    H242652   0.482   2.394   2.938
14237TIP3   OH242653   0.024   7.056   3.672
14237TIP3    H142654   0.087   7.117   3.633
14237TIP3    H242655   0.076   6.999   3.729
14238TIP3   OH242656   7.038   2.855   0.747
14238TIP3    H142657   7.133   2.847   0.750
14238TIP3    H242658   7.005   2.767   0.764
14239TIP3   OH242659   4.538   7.382   0.596
14239TIP3    H142660   4.542   7.317   0.526
14239TIP3    H242661   4.593   7.346   0.666
14240TIP3   OH242662   2.857   0.337   0.242
14240TIP3    H142663   2.934   0.304   0.196
14240TIP3    H242664   2.801   0.372   0.173
14241TIP3   OH242665   1.910   6.461   6.106
14241TIP3    H142666   1.933   6.541   6.060
14241TIP3    H242667   1.873   6.404   6.039
14242TIP3   OH242668   1.409   7.648   0.251
14242TIP3    H142669   1.457   7.717   0.206
14242TIP3    H242670   1.462   7.569   0.238
14243TIP3   OH242671   5.554   4.330   3.413
14243TIP3    H142672   5.612   4.334   3.489
14243TIP3    H242673   5.466   4.336   3.450
14244TIP3   OH242674   1.178   5.032   1.597
14244TIP3    H142675   1.250   5.024   1.534
14244TIP3    H242676   1.107   5.071   1.546
14245TIP3   OH242677   5.293   6.495   6.332
14245TIP3    H142678   5.321   6.414   6.374
14245TIP3    H242679   5.233   6.467   6.263
14246TIP3   OH242680   5.545   3.952   1.746
14246TIP3    H142681   5.625   3.904   1.724
14246TIP3    H242682   5.574   4.020   1.807
14247TIP3   OH242683   5.704   2.214   3.790
14247TIP3    H142684   5.663   2.146   3.736
14247TIP3    H242685   5.640   2.231   3.860
14248TIP3   OH242686   7.545   0.863   5.856
14248TIP3    H142687   7.482   0.816   5.802
14248TIP3    H242688   7.545   0.952   5.822
14249TIP3   OH242689   4.643   6.160   2.021
14249TIP3    H142690   4.561   6.112   2.035
14249TIP3    H242691   4.705   6.121   2.083
14250TIP3   OH242692   1.002   0.740   2.203
14250TIP3    H142693   0.907   0.724   2.208
14250TIP3    H242694   1.010   0.821   2.153
14251TIP3   OH242695   0.649   2.082   3.823
14251TIP3    H142696   0.741   2.075   3.849
14251TIP3    H242697   0.650   2.072   3.728
14252TIP3   OH242698   3.394   5.819   3.873
14252TIP3    H142699   3.386   5.897   3.819
14252TIP3    H242700   3.481   5.785   3.854
14253TIP3   OH242701   6.472   0.537   4.692
14253TIP3    H142702   6.427   0.586   4.624
14253TIP3    H242703   6.552   0.587   4.710
14254TIP3   OH242704   4.479   2.822   5.215
14254TIP3    H142705   4.423   2.898   5.234
14254TIP3    H242706   4.512   2.795   5.300
14255TIP3   OH242707   3.448   1.381   3.852
14255TIP3    H142708   3.432   1.434   3.930
14255TIP3    H242709   3.544   1.372   3.849
14256TIP3   OH242710   6.914   2.329   0.409
14256TIP3    H142711   6.907   2.236   0.428
14256TIP3    H242712   6.826   2.364   0.424
14257TIP3   OH242713   2.673   7.128   1.781
14257TIP3    H142714   2.603   7.176   1.825
14257TIP3    H242715   2.628   7.054   1.740
14258TIP3   OH242716   6.013   1.429   3.667
14258TIP3    H142717   6.009   1.446   3.573
14258TIP3    H242718   6.097   1.386   3.680
14259TIP3   OH242719   7.820   3.597   2.267
14259TIP3    H142720   7.734   3.623   2.235
14259TIP3    H242721   7.867   3.564   2.190
14260TIP3   OH242722   0.816   2.954   6.056
14260TIP3    H142723   0.754   2.882   6.066
14260TIP3    H242724   0.833   2.958   5.962
14261TIP3   OH242725   1.602   5.930   2.344
14261TIP3    H142726   1.524   5.980   2.318
14261TIP3    H242727   1.605   5.857   2.282
14262TIP3   OH242728   6.619   1.156   1.659
14262TIP3    H142729   6.678   1.221   1.697
14262TIP3    H242730   6.646   1.073   1.698
14263TIP3   OH242731   1.938   0.260   6.408
14263TIP3    H142732   1.915   0.253   6.501
14263TIP3    H242733   2.033   0.251   6.406
14264TIP3   OH242734   6.888   4.919   2.363
14264TIP3    H142735   6.857   4.920   2.273
14264TIP3    H242736   6.904   4.827   2.382
14265TIP3   OH242737   0.089   7.430   4.666
14265TIP3    H142738   0.168   7.477   4.693
14265TIP3    H242739   0.121   7.347   4.631
14266TIP3   OH242740   8.264   5.166   4.979
14266TIP3    H142741   8.329   5.224   5.018
14266TIP3    H242742   8.199   5.152   5.048
14267TIP3   OH242743   6.685   0.430   0.308
14267TIP3    H142744   6.712   0.421   0.217
14267TIP3    H242745   6.696   0.523   0.328
14268TIP3   OH242746   0.812   3.430   2.884
14268TIP3    H142747   0.901   3.431   2.919
14268TIP3    H242748   0.767   3.501   2.930
14269TIP3   OH242749   3.583   7.051   1.151
14269TIP3    H142750   3.586   7.143   1.127
14269TIP3    H242751   3.617   7.048   1.240
14270TIP3   OH242752   3.591   4.437   0.147
14270TIP3    H142753   3.511   4.401   0.184
14270TIP3    H242754   3.661   4.400   0.201
14271TIP3   OH242755   1.032   6.429   1.339
14271TIP3    H142756   1.020   6.391   1.426
14271TIP3    H242757   1.117   6.472   1.343
14272TIP3   OH242758   7.730   3.240   2.445
14272TIP3    H142759   7.813   3.216   2.402
14272TIP3    H242760   7.754   3.310   2.506
14273TIP3   OH242761   7.801   2.504   0.203
14273TIP3    H142762   7.774   2.491   0.294
14273TIP3    H242763   7.727   2.472   0.152
14274TIP3   OH242764   7.117   1.924   5.473
14274TIP3    H142765   7.025   1.897   5.465
14274TIP3    H242766   7.151   1.872   5.546
14275TIP3   OH242767   3.979   2.178   0.738
14275TIP3    H142768   3.961   2.098   0.789
14275TIP3    H242769   3.893   2.214   0.718
14276TIP3   OH242770   2.771   6.351   5.694
14276TIP3    H142771   2.809   6.426   5.740
14276TIP3    H242772   2.699   6.387   5.643
14277TIP3   OH242773   2.222   0.314   3.265
14277TIP3    H142774   2.151   0.332   3.203
14277TIP3    H242775   2.216   0.384   3.329
14278TIP3   OH242776   5.187   3.209   3.972
14278TIP3    H142777   5.219   3.288   3.929
14278TIP3    H242778   5.263   3.172   4.016
14279TIP3   OH242779   5.332   3.395   0.333
14279TIP3    H142780   5.303   3.486   0.333
14279TIP3    H242781   5.333   3.370   0.425
14280TIP3   OH242782   5.514   4.683   6.061
14280TIP3    H142783   5.471   4.765   6.039
14280TIP3    H242784   5.445   4.616   6.053
14281TIP3   OH242785   4.037   6.159   2.491
14281TIP3    H142786   3.989   6.098   2.435
14281TIP3    H242787   4.010   6.137   2.580
14282TIP3   OH242788   3.268   1.801   0.901
14282TIP3    H142789   3.289   1.730   0.961
14282TIP3    H242790   3.177   1.786   0.876
14283TIP3   OH242791   5.667   1.172   1.628
14283TIP3    H142792   5.617   1.253   1.635
14283TIP3    H242793   5.734   1.191   1.563
14284TIP3   OH242794   1.643   5.595   2.320
14284TIP3    H142795   1.691   5.613   2.400
14284TIP3    H242796   1.695   5.530   2.274
14285TIP3   OH242797   0.975   6.239   3.864
14285TIP3    H142798   1.008   6.324   3.834
14285TIP3    H242799   0.922   6.259   3.941
14286TIP3   OH242800   1.856   0.410   5.017
14286TIP3    H142801   1.865   0.324   4.976
14286TIP3    H242802   1.762   0.423   5.025
14287TIP3   OH242803   2.561   7.406   0.835
14287TIP3    H142804   2.604   7.323   0.818
14287TIP3    H242805   2.468   7.383   0.845
14288TIP3   OH242806   4.735   2.790   5.647
14288TIP3    H142807   4.782   2.720   5.692
14288TIP3    H242808   4.668   2.818   5.709
14289TIP3   OH242809   0.376   0.955   6.016
14289TIP3    H142810   0.425   1.012   6.075
14289TIP3    H242811   0.407   0.978   5.928
14290TIP3   OH242812   2.716   6.400   3.975
14290TIP3    H142813   2.788   6.346   4.009
14290TIP3    H242814   2.639   6.344   3.981
14291TIP3   OH242815   4.196   0.641   1.644
14291TIP3    H142816   4.131   0.643   1.573
14291TIP3    H242817   4.277   0.614   1.601
14292TIP3   OH242818   7.071   6.207   4.766
14292TIP3    H142819   7.081   6.266   4.840
14292TIP3    H242820   7.133   6.136   4.784
14293TIP3   OH242821   7.588   4.110   5.305
14293TIP3    H142822   7.589   4.133   5.398
14293TIP3    H242823   7.644   4.033   5.299
14294TIP3   OH242824   5.438   3.290   5.840
14294TIP3    H142825   5.434   3.250   5.927
14294TIP3    H242826   5.364   3.251   5.793
14295TIP3   OH242827   2.756   5.407   6.113
14295TIP3    H142828   2.784   5.462   6.187
14295TIP3    H242829   2.819   5.427   6.044
14296TIP3   OH242830   3.517   4.906   1.827
14296TIP3    H142831   3.499   4.934   1.737
14296TIP3    H242832   3.431   4.887   1.864
14297TIP3   OH242833   6.891   4.948   2.090
14297TIP3    H142834   6.883   4.898   2.009
14297TIP3    H242835   6.822   5.014   2.084
14298TIP3   OH242836   0.699   4.198   3.434
14298TIP3    H142837   0.794   4.190   3.422
14298TIP3    H242838   0.680   4.143   3.509
14299TIP3   OH242839   7.302   7.424   5.416
14299TIP3    H142840   7.239   7.361   5.451
14299TIP3    H242841   7.324   7.392   5.329
14300TIP3   OH242842   2.868   0.025   4.232
14300TIP3    H142843   2.822   0.011   4.150
14300TIP3    H242844   2.842  -0.048   4.288
14301TIP3   OH242845   0.147   0.820   0.156
14301TIP3    H142846   0.096   0.823   0.075
14301TIP3    H242847   0.081   0.810   0.225
14302TIP3   OH242848   5.779   3.487   6.329
14302TIP3    H142849   5.773   3.428   6.404
14302TIP3    H242850   5.717   3.452   6.265
14303TIP3   OH242851   8.253   7.101   1.826
14303TIP3    H142852   8.232   7.174   1.768
14303TIP3    H242853   8.333   7.064   1.789
14304TIP3   OH242854   6.302   0.747   1.853
14304TIP3    H142855   6.339   0.697   1.781
14304TIP3    H242856   6.295   0.684   1.925
14305TIP3   OH242857   1.702   0.092   0.160
14305TIP3    H142858   1.709   0.176   0.204
14305TIP3    H242859   1.781   0.086   0.106
14306TIP3   OH242860   1.882   5.275   4.267
14306TIP3    H142861   1.835   5.327   4.202
14306TIP3    H242862   1.886   5.187   4.230
14307TIP3   OH242863   4.489   6.403   6.553
14307TIP3    H142864   4.397   6.397   6.579
14307TIP3    H242865   4.490   6.472   6.487
14308TIP3   OH242866   2.052   5.909   6.590
14308TIP3    H142867   2.093   5.842   6.645
14308TIP3    H242868   2.043   5.985   6.647
14309TIP3   OH242869   4.855   6.555   0.519
14309TIP3    H142870   4.873   6.561   0.613
14309TIP3    H242871   4.941   6.567   0.478
14310TIP3   OH242872   4.646   7.541   4.419
14310TIP3    H142873   4.720   7.481   4.422
14310TIP3    H242874   4.592   7.517   4.495
14311TIP3   OH242875   8.196   6.116   4.344
14311TIP3    H142876   8.236   6.126   4.430
14311TIP3    H242877   8.246   6.175   4.287
14312TIP3   OH242878   4.382   3.155   0.666
14312TIP3    H142879   4.300   3.123   0.629
14312TIP3    H242880   4.365   3.162   0.760
14313TIP3   OH242881   0.239   1.087   3.284
14313TIP3    H142882   0.296   1.163   3.272
14313TIP3    H242883   0.180   1.090   3.208
14314TIP3   OH242884   3.716   1.522   4.182
14314TIP3    H142885   3.794   1.565   4.216
14314TIP3    H242886   3.677   1.480   4.259
14315TIP3   OH242887   3.916   6.563   4.139
14315TIP3    H142888   3.943   6.581   4.048
14315TIP3    H242889   3.946   6.474   4.156
14316TIP3   OH242890   1.740   5.887   6.209
14316TIP3    H142891   1.788   5.869   6.128
14316TIP3    H242892   1.651   5.855   6.192
14317TIP3   OH242893   0.680   2.100   0.525
14317TIP3    H142894   0.590   2.116   0.497
14317TIP3    H242895   0.719   2.053   0.452
14318TIP3   OH242896   8.150   7.573   2.965
14318TIP3    H142897   8.079   7.517   2.932
14318TIP3    H242898   8.168   7.633   2.893
14319TIP3   OH242899   5.019   5.144   0.228
14319TIP3    H142900   4.960   5.219   0.219
14319TIP3    H242901   5.106   5.181   0.212
14320TIP3   OH242902   5.617   7.525   2.546
14320TIP3    H142903   5.540   7.567   2.585
14320TIP3    H242904   5.653   7.471   2.616
14321TIP3   OH242905   6.088   2.119   3.119
14321TIP3    H142906   6.129   2.140   3.203
14321TIP3    H242907   6.005   2.078   3.143
14322TIP3   OH242908   0.369   2.338   3.522
14322TIP3    H142909   0.333   2.253   3.498
14322TIP3    H242910   0.296   2.399   3.511
14323TIP3   OH242911   2.405   7.470   6.496
14323TIP3    H142912   2.418   7.561   6.521
14323TIP3    H242913   2.493   7.432   6.493
14324TIP3   OH242914   8.021   0.913   2.008
14324TIP3    H142915   7.926   0.914   2.019
14324TIP3    H242916   8.044   0.820   2.008
14325TIP3   OH242917   7.968   3.508   3.748
14325TIP3    H142918   7.973   3.492   3.842
14325TIP3    H242919   7.924   3.592   3.740
14326TIP3   OH242920   6.820   5.493   5.435
14326TIP3    H142921   6.783   5.406   5.419
14326TIP3    H242922   6.871   5.512   5.357
14327TIP3   OH242923   0.012   2.361   6.119
14327TIP3    H142924   0.072   2.358   6.045
14327TIP3    H242925  -0.040   2.281   6.111
14328TIP3   OH242926   5.618   7.446   6.586
14328TIP3    H142927   5.609   7.447   6.681
14328TIP3    H242928   5.531   7.421   6.554
14329TIP3   OH242929   0.236   7.181   2.331
14329TIP3    H142930   0.209   7.115   2.395
14329TIP3    H242931   0.246   7.133   2.249
14330TIP3   OH242932   3.285   6.105   0.011
14330TIP3    H142933   3.220   6.045   0.049
14330TIP3    H242934   3.357   6.049  -0.016
14331TIP3   OH242935   2.115   0.074   2.402
14331TIP3    H142936   2.171   0.148   2.427
14331TIP3    H242937   2.033   0.089   2.449
14332TIP3   OH242938   3.788   5.406   5.729
14332TIP3    H142939   3.757   5.380   5.642
14332TIP3    H242940   3.714   5.450   5.769
14333TIP3   OH242941   6.170   2.441   2.817
14333TIP3    H142942   6.114   2.423   2.892
14333TIP3    H242943   6.168   2.536   2.807
14334TIP3   OH242944   7.355   0.988   1.623
14334TIP3    H142945   7.396   0.930   1.558
14334TIP3    H242946   7.309   1.053   1.571
14335TIP3   OH242947   7.093   5.829   2.918
14335TIP3    H142948   7.140   5.762   2.869
14335TIP3    H242949   7.009   5.788   2.941
14336TIP3   OH242950   1.850   1.818   2.369
14336TIP3    H142951   1.933   1.801   2.415
14336TIP3    H242952   1.871   1.888   2.307
14337TIP3   OH242953   6.361   7.053   4.478
14337TIP3    H142954   6.302   7.102   4.421
14337TIP3    H242955   6.339   7.082   4.567
14338TIP3   OH242956   4.590   2.677   5.431
14338TIP3    H142957   4.540   2.702   5.509
14338TIP3    H242958   4.680   2.700   5.452
14339TIP3   OH242959   7.686   7.328   3.766
14339TIP3    H142960   7.687   7.424   3.775
14339TIP3    H242961   7.726   7.312   3.681
14340TIP3   OH242962   7.617   0.764   6.470
14340TIP3    H142963   7.703   0.771   6.428
14340TIP3    H242964   7.564   0.714   6.408
14341TIP3   OH242965   3.532   4.982   2.138
14341TIP3    H142966   3.583   4.980   2.057
14341TIP3    H242967   3.493   4.895   2.144
14342TIP3   OH242968   7.649   0.446   6.392
14342TIP3    H142969   7.705   0.456   6.469
14342TIP3    H242970   7.696   0.383   6.337
14343TIP3   OH242971   0.469   0.539   0.899
14343TIP3    H142972   0.399   0.505   0.843
14343TIP3    H242973   0.432   0.618   0.938
14344TIP3   OH242974   0.663   1.206   6.657
14344TIP3    H142975   0.615   1.135   6.615
14344TIP3    H242976   0.694   1.261   6.585
14345TIP3   OH242977   5.036   7.575   4.780
14345TIP3    H142978   5.086   7.496   4.800
14345TIP3    H242979   4.960   7.543   4.731
14346TIP3   OH242980   7.262   6.289   3.086
14346TIP3    H142981   7.283   6.196   3.080
14346TIP3    H242982   7.186   6.300   3.029
14347TIP3   OH242983   7.418   6.359   4.128
14347TIP3    H142984   7.393   6.452   4.127
14347TIP3    H242985   7.386   6.326   4.044
14348TIP3   OH242986   2.734   1.388   1.965
14348TIP3    H142987   2.640   1.373   1.976
14348TIP3    H242988   2.758   1.338   1.887
14349TIP3   OH242989   6.842   0.189   0.392
14349TIP3    H142990   6.861   0.140   0.312
14349TIP3    H242991   6.788   0.263   0.363
14350TIP3   OH242992   4.420   2.476   2.444
14350TIP3    H142993   4.439   2.387   2.414
14350TIP3    H242994   4.343   2.502   2.394
14351TIP3   OH242995   5.971   1.546   5.285
14351TIP3    H142996   5.896   1.556   5.344
14351TIP3    H242997   5.934   1.556   5.198
14352TIP3   OH242998   3.911   2.725   6.086
14352TIP3    H142999   3.895   2.686   6.172
14352TIP3    H243000   3.829   2.711   6.038
14353TIP3   OH243001   3.917   1.815   3.639
14353TIP3    H143002   3.922   1.830   3.734
14353TIP3    H243003   3.904   1.902   3.602
14354TIP3   OH243004   4.089   4.046   4.806
14354TIP3    H143005   4.136   4.125   4.779
14354TIP3    H243006   4.038   4.074   4.882
14355TIP3   OH243007   3.711   4.155   2.254
14355TIP3    H143008   3.681   4.234   2.210
14355TIP3    H243009   3.669   4.084   2.206
14356TIP3   OH243010   6.550   7.634   2.378
14356TIP3    H143011   6.600   7.667   2.452
14356TIP3    H243012   6.610   7.574   2.334
14357TIP3   OH243013   0.340   0.276   1.302
14357TIP3    H143014   0.422   0.274   1.253
14357TIP3    H243015   0.367   0.274   1.394
14358TIP3   OH243016   5.720   7.525   1.372
14358TIP3    H143017   5.663   7.505   1.446
14358TIP3    H243018   5.809   7.517   1.407
14359TIP3   OH243019   2.183   2.307   5.642
14359TIP3    H143020   2.256   2.357   5.606
14359TIP3    H243021   2.160   2.245   5.573
14360TIP3   OH243022   4.758   2.317   5.580
14360TIP3    H143023   4.678   2.341   5.627
14360TIP3    H243024   4.825   2.311   5.648
14361TIP3   OH243025   0.659   7.197   2.659
14361TIP3    H143026   0.589   7.237   2.607
14361TIP3    H243027   0.620   7.116   2.692
14362TIP3   OH243028   7.308   2.529   2.906
14362TIP3    H143029   7.373   2.487   2.962
14362TIP3    H243030   7.352   2.541   2.822
14363TIP3   OH243031   0.807   5.868   4.757
14363TIP3    H143032   0.839   5.794   4.809
14363TIP3    H243033   0.799   5.939   4.821
14364TIP3   OH243034   6.795   6.278   5.299
14364TIP3    H143035   6.803   6.329   5.380
14364TIP3    H243036   6.845   6.198   5.316
14365TIP3   OH243037   0.229   3.011   2.546
14365TIP3    H143038   0.134   3.019   2.533
14365TIP3    H243039   0.237   2.965   2.630
14366TIP3   OH243040   1.737   3.538   2.479
14366TIP3    H143041   1.687   3.492   2.546
14366TIP3    H243042   1.677   3.605   2.446
14367TIP3   OH243043   0.617   6.704   5.667
14367TIP3    H143044   0.535   6.754   5.666
14367TIP3    H243045   0.680   6.761   5.623
14368TIP3   OH243046   5.428   5.221   3.461
14368TIP3    H143047   5.497   5.260   3.407
14368TIP3    H243048   5.354   5.282   3.455
14369TIP3   OH243049   2.048   5.608   5.607
14369TIP3    H143050   1.978   5.673   5.614
14369TIP3    H243051   2.080   5.598   5.697
14370TIP3   OH243052   5.390   0.251   2.775
14370TIP3    H143053   5.359   0.213   2.857
14370TIP3    H243054   5.333   0.327   2.760
14371TIP3   OH243055   5.108   2.780   4.433
14371TIP3    H143056   5.175   2.726   4.390
14371TIP3    H243057   5.141   2.869   4.426
14372TIP3   OH243058   7.992   0.250   3.948
14372TIP3    H143059   7.901   0.224   3.931
14372TIP3    H243060   8.008   0.323   3.889
14373TIP3   OH243061   3.842   3.793   4.446
14373TIP3    H143062   3.880   3.862   4.392
14373TIP3    H243063   3.916   3.738   4.471
14374TIP3   OH243064   1.206   0.983   4.575
14374TIP3    H143065   1.211   1.011   4.484
14374TIP3    H243066   1.145   0.909   4.574
14375TIP3   OH243067   7.144   3.162   0.679
14375TIP3    H143068   7.118   3.206   0.760
14375TIP3    H243069   7.141   3.069   0.699
14376TIP3   OH243070   5.587   0.695   0.766
14376TIP3    H143071   5.639   0.646   0.702
14376TIP3    H243072   5.651   0.750   0.811
14377TIP3   OH243073   5.421   6.863   3.967
14377TIP3    H143074   5.362   6.927   3.928
14377TIP3    H243075   5.368   6.819   4.033
14378TIP3   OH243076   6.553   5.413   0.946
14378TIP3    H143077   6.458   5.426   0.946
14378TIP3    H243078   6.590   5.500   0.933
14379TIP3   OH243079   5.117   5.465   0.755
14379TIP3    H143080   5.183   5.507   0.809
14379TIP3    H243081   5.164   5.442   0.674
14380TIP3   OH243082   4.987   6.783   1.867
14380TIP3    H143083   4.895   6.765   1.889
14380TIP3    H243084   4.995   6.758   1.774
14381TIP3   OH243085   1.960   3.329   2.177
14381TIP3    H143086   2.054   3.327   2.159
14381TIP3    H243087   1.945   3.412   2.221
14382TIP3   OH243088   4.633   4.381   6.011
14382TIP3    H143089   4.549   4.343   5.986
14382TIP3    H243090   4.698   4.316   5.983
14383TIP3   OH243091   4.272   0.741   6.302
14383TIP3    H143092   4.248   0.767   6.213
14383TIP3    H243093   4.308   0.820   6.341
14384TIP3   OH243094   3.699   7.443   1.682
14384TIP3    H143095   3.618   7.400   1.711
14384TIP3    H243096   3.769   7.382   1.708
14385TIP3   OH243097   6.725   2.725   5.300
14385TIP3    H143098   6.705   2.741   5.392
14385TIP3    H243099   6.806   2.675   5.301
14386TIP3   OH243100   6.399   0.253   0.325
14386TIP3    H143101   6.447   0.224   0.248
14386TIP3    H243102   6.438   0.337   0.348
14387TIP3   OH243103   4.778   1.224   4.439
14387TIP3    H143104   4.741   1.220   4.351
14387TIP3    H243105   4.827   1.142   4.449
14388TIP3   OH243106   6.034   1.418   0.592
14388TIP3    H143107   5.975   1.348   0.620
14388TIP3    H243108   6.029   1.416   0.496
14389TIP3   OH243109   0.886   6.577   4.833
14389TIP3    H143110   0.864   6.502   4.888
14389TIP3    H243111   0.845   6.651   4.877
14390TIP3   OH243112   7.990   0.442   4.924
14390TIP3    H143113   8.039   0.408   4.999
14390TIP3    H243114   8.049   0.505   4.882
14391TIP3   OH243115   3.528   5.736   5.687
14391TIP3    H143116   3.581   5.657   5.699
14391TIP3    H243117   3.438   5.705   5.696
14392TIP3   OH243118   0.700   3.637   5.622
14392TIP3    H143119   0.648   3.636   5.541
14392TIP3    H243120   0.734   3.726   5.627
14393TIP3   OH243121   6.430   4.586   3.896
14393TIP3    H143122   6.445   4.677   3.871
14393TIP3    H243123   6.337   4.572   3.881
14394TIP3   OH243124   4.857   4.648   1.640
14394TIP3    H143125   4.921   4.654   1.569
14394TIP3    H243126   4.888   4.710   1.706
14395TIP3   OH243127   4.281   4.668   6.548
14395TIP3    H143128   4.233   4.692   6.627
14395TIP3    H243129   4.220   4.612   6.499
14396TIP3   OH243130   0.933   4.959   1.016
14396TIP3    H143131   0.973   4.904   0.949
14396TIP3    H243132   0.996   5.029   1.030
14397TIP3   OH243133   4.811   7.488   2.140
14397TIP3    H143134   4.810   7.505   2.234
14397TIP3    H243135   4.727   7.444   2.123
14398TIP3   OH243136   7.916   6.179   0.140
14398TIP3    H143137   7.885   6.131   0.063
14398TIP3    H243138   7.944   6.110   0.201
14399TIP3   OH243139   0.490   5.740   1.081
14399TIP3    H143140   0.402   5.705   1.093
14399TIP3    H243141   0.517   5.707   0.995
14400TIP3   OH243142   7.379   3.983   1.693
14400TIP3    H143143   7.428   4.065   1.679
14400TIP3    H243144   7.387   3.966   1.786
14401TIP3   OH243145   3.436   1.569   0.508
14401TIP3    H143146   3.411   1.649   0.555
14401TIP3    H243147   3.411   1.498   0.568
14402TIP3   OH243148   8.224   3.045   0.232
14402TIP3    H143149   8.217   3.008   0.320
14402TIP3    H243150   8.300   3.002   0.194
14403TIP3   OH243151   0.436   3.944   5.345
14403TIP3    H143152   0.381   3.874   5.311
14403TIP3    H243153   0.476   3.908   5.424
14404TIP3   OH243154   6.678   3.244   6.232
14404TIP3    H143155   6.725   3.206   6.307
14404TIP3    H243156   6.586   3.242   6.259
14405TIP3   OH243157   5.750   1.793   3.984
14405TIP3    H143158   5.679   1.829   3.930
14405TIP3    H243159   5.711   1.717   4.027
14406TIP3   OH243160   0.682   0.149   5.279
14406TIP3    H143161   0.697   0.150   5.184
14406TIP3    H243162   0.676   0.241   5.303
14407TIP3   OH243163   1.641   4.080   5.356
14407TIP3    H143164   1.595   4.161   5.380
14407TIP3    H243165   1.725   4.086   5.401
14408TIP3   OH243166   3.833   6.110   1.661
14408TIP3    H143167   3.757   6.052   1.668
14408TIP3    H243168   3.887   6.071   1.593
14409TIP3   OH243169   5.349   6.777   1.689
14409TIP3    H143170   5.290   6.783   1.614
14409TIP3    H243171   5.326   6.851   1.744
14410TIP3   OH243172   2.971   4.102   0.440
14410TIP3    H143173   3.027   4.180   0.446
14410TIP3    H243174   2.993   4.051   0.518
14411TIP3   OH243175   8.244   1.675   5.125
14411TIP3    H143176   8.267   1.703   5.037
14411TIP3    H243177   8.283   1.742   5.182
14412TIP3   OH243178   7.809   6.347   5.416
14412TIP3    H143179   7.743   6.278   5.415
14412TIP3    H243180   7.883   6.310   5.464
14413TIP3   OH243181   2.975   6.127   0.637
14413TIP3    H143182   2.903   6.146   0.696
14413TIP3    H243183   2.959   6.181   0.560
14414TIP3   OH243184   1.253   6.121   6.660
14414TIP3    H143185   1.273   6.032   6.687
14414TIP3    H243186   1.338   6.166   6.658
14415TIP3   OH243187   0.843   4.986   5.479
14415TIP3    H143188   0.929   5.000   5.520
14415TIP3    H243189   0.817   4.899   5.508
14416TIP3   OH243190   6.750   4.840   3.098
14416TIP3    H143191   6.679   4.865   3.157
14416TIP3    H243192   6.708   4.825   3.013
14417TIP3   OH243193   1.570   5.785   5.779
14417TIP3    H143194   1.572   5.880   5.762
14417TIP3    H243195   1.538   5.777   5.869
14418TIP3   OH243196   4.847   1.754   5.282
14418TIP3    H143197   4.875   1.701   5.207
14418TIP3    H243198   4.929   1.776   5.327
14419TIP3   OH243199   3.699   2.047   3.394
14419TIP3    H143200   3.622   2.092   3.430
14419TIP3    H243201   3.690   1.957   3.422
14420TIP3   OH243202   2.169   4.234   3.483
14420TIP3    H143203   2.088   4.282   3.465
14420TIP3    H243204   2.216   4.289   3.545
14421TIP3   OH243205   0.520   1.746   6.609
14421TIP3    H143206   0.496   1.835   6.581
14421TIP3    H243207   0.616   1.745   6.602
14422TIP3   OH243208   8.159   1.433   2.686
14422TIP3    H143209   8.245   1.397   2.707
14422TIP3    H243210   8.170   1.528   2.692
14423TIP3   OH243211   6.880   7.087   2.032
14423TIP3    H143212   6.905   7.087   1.939
14423TIP3    H243213   6.790   7.119   2.033
14424TIP3   OH243214   6.578   5.702   2.874
14424TIP3    H143215   6.487   5.671   2.872
14424TIP3    H243216   6.578   5.781   2.821
14425TIP3   OH243217   6.226   6.108   2.548
14425TIP3    H143218   6.262   6.192   2.579
14425TIP3    H243219   6.301   6.050   2.545
14426TIP3   OH243220   7.617   4.038   5.909
14426TIP3    H143221   7.540   4.003   5.863
14426TIP3    H243222   7.615   3.995   5.995
14427TIP3   OH243223   1.241   6.144   5.891
14427TIP3    H143224   1.271   6.214   5.950
14427TIP3    H243225   1.169   6.184   5.842
14428TIP3   OH243226   4.132   0.275   5.233
14428TIP3    H143227   4.211   0.279   5.179
14428TIP3    H243228   4.068   0.328   5.185
14429TIP3   OH243229   5.227   6.217   6.431
14429TIP3    H143230   5.277   6.207   6.513
14429TIP3    H243231   5.146   6.169   6.447
14430TIP3   OH243232   8.035   5.358   4.735
14430TIP3    H143233   7.994   5.279   4.769
14430TIP3    H243234   8.029   5.421   4.807
14431TIP3   OH243235   7.775   0.546   5.187
14431TIP3    H143236   7.856   0.597   5.177
14431TIP3    H243237   7.707   0.602   5.151
14432TIP3   OH243238   1.782   1.765   2.961
14432TIP3    H143239   1.701   1.778   3.009
14432TIP3    H243240   1.762   1.696   2.898
14433TIP3   OH243241   6.611   2.743   0.530
14433TIP3    H143242   6.520   2.721   0.548
14433TIP3    H243243   6.629   2.702   0.445
14434TIP3   OH243244   1.162   2.429   1.799
14434TIP3    H143245   1.182   2.516   1.764
14434TIP3    H243246   1.120   2.447   1.884
14435TIP3   OH243247   6.478   0.936   1.528
14435TIP3    H143248   6.506   0.977   1.446
14435TIP3    H243249   6.461   1.009   1.587
14436TIP3   OH243250   8.146   4.407   4.238
14436TIP3    H143251   8.210   4.477   4.252
14436TIP3    H243252   8.061   4.448   4.257
14437TIP3   OH243253   4.468   0.094   3.067
14437TIP3    H143254   4.438   0.130   2.984
14437TIP3    H243255   4.436   0.157   3.132
14438TIP3   OH243256   5.933   1.253   4.920
14438TIP3    H143257   5.966   1.249   4.831
14438TIP3    H243258   5.841   1.228   4.913
14439TIP3   OH243259   4.377   0.407   5.907
14439TIP3    H143260   4.317   0.436   5.976
14439TIP3    H243261   4.462   0.441   5.935
14440TIP3   OH243262   0.875   6.833   6.624
14440TIP3    H143263   0.888   6.749   6.581
14440TIP3    H243264   0.963   6.863   6.646
14441TIP3   OH243265   3.903   5.141   5.398
14441TIP3    H143266   3.848   5.220   5.400
14441TIP3    H243267   3.975   5.161   5.458
14442TIP3   OH243268   1.739   6.047   1.354
14442TIP3    H143269   1.794   5.980   1.311
14442TIP3    H243270   1.797   6.088   1.417
14443TIP3   OH243271   4.046   4.373   6.114
14443TIP3    H143272   4.076   4.453   6.156
14443TIP3    H243273   3.977   4.340   6.172
14444TIP3   OH243274   3.866   1.225   0.286
14444TIP3    H143275   3.892   1.214   0.378
14444TIP3    H243276   3.776   1.258   0.290
14445TIP3   OH243277   7.890   7.365   1.843
14445TIP3    H143278   7.891   7.272   1.864
14445TIP3    H243279   7.965   7.378   1.784
14446TIP3   OH243280   1.461   4.118   4.451
14446TIP3    H143281   1.518   4.085   4.521
14446TIP3    H243282   1.375   4.129   4.493
14447TIP3   OH243283   6.362   1.746   5.354
14447TIP3    H143284   6.415   1.817   5.391
14447TIP3    H243285   6.367   1.759   5.259
14448TIP3   OH243286   5.085   1.917   4.581
14448TIP3    H143287   5.114   1.865   4.506
14448TIP3    H243288   5.072   1.853   4.651
14449TIP3   OH243289   7.812   1.820   1.725
14449TIP3    H143290   7.768   1.904   1.743
14449TIP3    H243291   7.774   1.790   1.643
14450TIP3   OH243292   0.328   5.029   1.420
14450TIP3    H143293   0.358   5.117   1.441
14450TIP3    H243294   0.278   5.002   1.497
14451TIP3   OH243295   1.030   3.976   2.659
14451TIP3    H143296   1.019   4.068   2.633
14451TIP3    H243297   1.118   3.954   2.630
14452TIP3   OH243298   4.284   2.268   4.466
14452TIP3    H143299   4.290   2.335   4.534
14452TIP3    H243300   4.318   2.189   4.508
14453TIP3   OH243301   0.569   1.886   1.527
14453TIP3    H143302   0.548   1.818   1.464
14453TIP3    H243303   0.571   1.967   1.476
14454TIP3   OH243304   3.433   3.220   3.537
14454TIP3    H143305   3.440   3.283   3.465
14454TIP3    H243306   3.470   3.139   3.501
14455TIP3   OH243307   0.530   5.387   6.152
14455TIP3    H143308   0.459   5.438   6.112
14455TIP3    H243309   0.609   5.415   6.105
14456TIP3   OH243310   7.956   1.661   2.219
14456TIP3    H143311   8.041   1.627   2.194
14456TIP3    H243312   7.895   1.625   2.155
14457TIP3   OH243313   5.593   3.536   5.680
14457TIP3    H143314   5.639   3.459   5.647
14457TIP3    H243315   5.524   3.553   5.616
14458TIP3   OH243316   1.031   3.467   1.061
14458TIP3    H143317   0.993   3.457   1.149
14458TIP3    H243318   0.983   3.540   1.023
14459TIP3   OH243319   4.143   0.327   2.849
14459TIP3    H143320   4.090   0.373   2.784
14459TIP3    H243321   4.139   0.383   2.927
14460TIP3   OH243322   0.695   1.869   0.057
14460TIP3    H143323   0.635   1.872  -0.017
14460TIP3    H243324   0.773   1.825   0.023
14461TIP3   OH243325   1.492   7.849   1.266
14461TIP3    H143326   1.568   7.850   1.207
14461TIP3    H243327   1.529   7.828   1.352
14462TIP3   OH243328   0.332   5.491   1.510
14462TIP3    H143329   0.337   5.521   1.601
14462TIP3    H243330   0.400   5.424   1.503
14463TIP3   OH243331   6.932   1.866   5.803
14463TIP3    H143332   6.904   1.823   5.885
14463TIP3    H243333   6.950   1.956   5.829
14464TIP3   OH243334   3.844   6.053   2.179
14464TIP3    H143335   3.914   5.995   2.210
14464TIP3    H243336   3.821   6.019   2.093
14465TIP3   OH243337   6.392   4.608   2.316
14465TIP3    H143338   6.327   4.561   2.368
14465TIP3    H243339   6.472   4.555   2.324
14466TIP3   OH243340   7.444   0.273   3.655
14466TIP3    H143341   7.522   0.327   3.644
14466TIP3    H243342   7.431   0.268   3.749
14467TIP3   OH243343   2.604   4.667   6.495
14467TIP3    H143344   2.623   4.584   6.537
14467TIP3    H243345   2.636   4.657   6.405
14468TIP3   OH243346   0.823   4.141   5.008
14468TIP3    H143347   0.732   4.167   4.995
14468TIP3    H243348   0.844   4.087   4.931
14469TIP3   OH243349   4.441   6.094   1.236
14469TIP3    H143350   4.365   6.045   1.269
14469TIP3    H243351   4.413   6.130   1.152
14470TIP3   OH243352   4.011   5.863   1.879
14470TIP3    H143353   3.988   5.774   1.905
14470TIP3    H243354   3.928   5.910   1.879
14471TIP3   OH243355   4.934   1.964   4.164
14471TIP3    H143356   4.927   2.022   4.239
14471TIP3    H243357   4.881   2.005   4.096
14472TIP3   OH243358   7.016   0.653   3.405
14472TIP3    H143359   7.058   0.599   3.338
14472TIP3    H243360   7.039   0.610   3.488
14473TIP3   OH243361   1.138   1.263   1.817
14473TIP3    H143362   1.112   1.267   1.725
14473TIP3    H243363   1.067   1.306   1.864
14474TIP3   OH243364   3.559   6.360   4.495
14474TIP3    H143365   3.463   6.354   4.497
14474TIP3    H243366   3.588   6.296   4.560
14475TIP3   OH243367   4.488   4.940   3.840
14475TIP3    H143368   4.430   4.865   3.828
14475TIP3    H243369   4.450   4.988   3.914
14476TIP3   OH243370   4.353   7.423   2.216
14476TIP3    H143371   4.288   7.386   2.276
14476TIP3    H243372   4.304   7.486   2.164
14477TIP3   OH243373   7.060   4.138   4.710
14477TIP3    H143374   7.091   4.096   4.790
14477TIP3    H243375   6.982   4.187   4.737
14478TIP3   OH243376   5.900   0.263   5.017
14478TIP3    H143377   5.911   0.201   4.945
14478TIP3    H243378   5.976   0.248   5.073
14479TIP3   OH243379   1.305   0.040   3.412
14479TIP3    H143380   1.385   0.016   3.366
14479TIP3    H243381   1.305   0.136   3.412
14480TIP3   OH243382   0.086   6.632   1.133
14480TIP3    H143383  -0.003   6.614   1.101
14480TIP3    H243384   0.134   6.551   1.116
14481TIP3   OH243385   3.293   6.442   5.104
14481TIP3    H143386   3.299   6.464   5.011
14481TIP3    H243387   3.269   6.525   5.146
14482TIP3   OH243388   6.251   4.996   5.510
14482TIP3    H143389   6.194   4.919   5.502
14482TIP3    H243390   6.262   5.027   5.420
14483TIP3   OH243391   1.279   1.471   1.394
14483TIP3    H143392   1.274   1.540   1.328
14483TIP3    H243393   1.228   1.504   1.468
14484TIP3   OH243394   4.683   0.508   2.608
14484TIP3    H143395   4.716   0.474   2.525
14484TIP3    H243396   4.713   0.599   2.610
14485TIP3   OH243397   0.197   4.708   6.453
14485TIP3    H143398   0.217   4.628   6.404
14485TIP3    H243399   0.103   4.701   6.473
14486TIP3   OH243400   5.278   5.133   4.498
14486TIP3    H143401   5.237   5.201   4.444
14486TIP3    H243402   5.221   5.056   4.487
14487TIP3   OH243403   0.365   2.059   1.581
14487TIP3    H143404   0.424   1.984   1.589
14487TIP3    H243405   0.424   2.133   1.564
14488TIP3   OH243406   7.154   2.009   0.177
14488TIP3    H143407   7.197   1.959   0.107
14488TIP3    H243408   7.216   2.004   0.250
14489TIP3   OH243409   5.285   5.325   6.605
14489TIP3    H143410   5.249   5.345   6.519
14489TIP3    H243411   5.379   5.311   6.590
14490TIP3   OH243412   8.075   6.582   2.129
14490TIP3    H143413   8.170   6.584   2.144
14490TIP3    H243414   8.063   6.628   2.046
14491TIP3   OH243415   4.443   0.023   3.920
14491TIP3    H143416   4.499  -0.015   3.853
14491TIP3    H243417   4.363  -0.029   3.917
14492TIP3   OH243418   1.069   7.744   4.169
14492TIP3    H143419   1.095   7.811   4.233
14492TIP3    H243420   1.151   7.719   4.127
14493TIP3   OH243421   6.047   1.752   2.838
14493TIP3    H143422   5.971   1.810   2.838
14493TIP3    H243423   6.086   1.765   2.752
14494TIP3   OH243424   5.375   3.512   4.999
14494TIP3    H143425   5.299   3.459   5.022
14494TIP3    H243426   5.400   3.555   5.081
14495TIP3   OH243427   8.282   0.497   2.119
14495TIP3    H143428   8.238   0.427   2.071
14495TIP3    H243429   8.366   0.509   2.074
14496TIP3   OH243430   4.021   3.217   4.985
14496TIP3    H143431   4.062   3.225   4.899
14496TIP3    H243432   4.074   3.151   5.031
14497TIP3   OH243433   7.752   6.350   3.191
14497TIP3    H143434   7.765   6.284   3.123
14497TIP3    H243435   7.750   6.301   3.273
14498TIP3   OH243436   4.167   7.534   6.286
14498TIP3    H143437   4.094   7.595   6.300
14498TIP3    H243438   4.125   7.449   6.273
14499TIP3   OH243439   0.361   2.685   2.978
14499TIP3    H143440   0.361   2.649   3.066
14499TIP3    H243441   0.401   2.616   2.924
14500TIP3   OH243442   6.007   2.707   6.043
14500TIP3    H143443   5.930   2.664   6.081
14500TIP3    H243444   6.081   2.655   6.074
14501TIP3   OH243445   3.589   2.956   4.446
14501TIP3    H143446   3.629   3.020   4.386
14501TIP3    H243447   3.592   2.999   4.531
14502TIP3   OH243448   2.018   6.023   4.728
14502TIP3    H143449   2.107   6.013   4.693
14502TIP3    H243450   2.020   5.976   4.811
14503TIP3   OH243451   6.689   0.882   1.783
14503TIP3    H143452   6.777   0.904   1.814
14503TIP3    H243453   6.684   0.787   1.790
14504TIP3   OH243454   7.744   2.953   1.450
14504TIP3    H143455   7.650   2.946   1.469
14504TIP3    H243456   7.780   3.005   1.523
14505TIP3   OH243457   4.631   1.761   6.056
14505TIP3    H143458   4.543   1.749   6.092
14505TIP3    H243459   4.678   1.811   6.122
14506TIP3   OH243460   4.155   4.791   4.485
14506TIP3    H143461   4.063   4.777   4.459
14506TIP3    H243462   4.185   4.704   4.513
14507TIP3   OH243463   8.148   5.821   1.918
14507TIP3    H143464   8.103   5.847   1.998
14507TIP3    H243465   8.091   5.755   1.879
14508TIP3   OH243466   6.012   2.811   3.422
14508TIP3    H143467   5.930   2.843   3.460
14508TIP3    H243468   6.068   2.888   3.416
14509TIP3   OH243469   6.621   4.557   3.255
14509TIP3    H143470   6.582   4.537   3.340
14509TIP3    H243471   6.643   4.471   3.218
14510TIP3   OH243472   0.245   3.485   2.527
14510TIP3    H143473   0.274   3.400   2.493
14510TIP3    H243474   0.309   3.507   2.595
14511TIP3   OH243475   7.327   0.779   4.567
14511TIP3    H143476   7.373   0.790   4.650
14511TIP3    H243477   7.346   0.860   4.519
14512TIP3   OH243478   1.062   5.973   4.855
14512TIP3    H143479   1.092   5.886   4.827
14512TIP3    H243480   1.027   5.959   4.943
14513TIP3   OH243481   1.333   6.348   2.366
14513TIP3    H143482   1.419   6.322   2.398
14513TIP3    H243483   1.352   6.410   2.295
14514TIP3   OH243484   1.704   1.567   2.768
14514TIP3    H143485   1.754   1.493   2.803
14514TIP3    H243486   1.658   1.532   2.692
14515TIP3   OH243487   1.878   4.828   5.088
14515TIP3    H143488   1.792   4.848   5.126
14515TIP3    H243489   1.864   4.748   5.038
14516TIP3   OH243490   1.463   5.196   4.941
14516TIP3    H143491   1.554   5.193   4.913
14516TIP3    H243492   1.423   5.117   4.905
14517TIP3   OH243493   1.656   4.440   1.508
14517TIP3    H143494   1.577   4.391   1.485
14517TIP3    H243495   1.720   4.413   1.442
14518TIP3   OH243496   0.553   7.372   1.423
14518TIP3    H143497   0.642   7.406   1.412
14518TIP3    H243498   0.518   7.419   1.499
14519TIP3   OH243499   6.705   6.768   2.361
14519TIP3    H143500   6.765   6.693   2.357
14519TIP3    H243501   6.735   6.818   2.437
14520TIP3   OH243502   6.167   3.552   2.419
14520TIP3    H143503   6.114   3.477   2.393
14520TIP3    H243504   6.182   3.600   2.337
14521TIP3   OH243505   5.405   1.352   4.908
14521TIP3    H143506   5.410   1.282   4.972
14521TIP3    H243507   5.316   1.348   4.873
14522TIP3   OH243508   8.042   2.396   0.337
14522TIP3    H143509   7.975   2.447   0.291
14522TIP3    H243510   8.111   2.460   0.357
14523TIP3   OH243511   0.339   4.020   1.606
14523TIP3    H143512   0.310   4.006   1.696
14523TIP3    H243513   0.260   4.048   1.560
14524TIP3   OH243514   7.224   2.021   1.378
14524TIP3    H143515   7.181   2.097   1.418
14524TIP3    H243516   7.237   2.046   1.286
14525TIP3   OH243517   4.344   4.725   0.662
14525TIP3    H143518   4.436   4.749   0.653
14525TIP3    H243519   4.335   4.699   0.754
14526TIP3   OH243520   2.230   7.355   3.258
14526TIP3    H143521   2.298   7.407   3.215
14526TIP3    H243522   2.201   7.293   3.190
14527TIP3   OH243523   6.792   7.629   2.530
14527TIP3    H143524   6.786   7.534   2.525
14527TIP3    H243525   6.886   7.648   2.534
14528TIP3   OH243526   1.654   4.045   3.866
14528TIP3    H143527   1.680   4.031   3.957
14528TIP3    H243528   1.722   4.003   3.815
14529TIP3   OH243529   5.322   0.893   5.431
14529TIP3    H143530   5.415   0.914   5.423
14529TIP3    H243531   5.298   0.923   5.519
14530TIP3   OH243532   0.951   1.528   2.404
14530TIP3    H143533   0.888   1.556   2.471
14530TIP3    H243534   1.017   1.479   2.453
14531TIP3   OH243535   3.915   1.431   6.715
14531TIP3    H143536   3.900   1.490   6.641
14531TIP3    H243537   4.006   1.404   6.707
14532TIP3   OH243538   3.723   5.833   4.075
14532TIP3    H143539   3.710   5.864   3.985
14532TIP3    H243540   3.713   5.738   4.070
14533TIP3   OH243541   6.476   3.477   4.395
14533TIP3    H143542   6.473   3.439   4.308
14533TIP3    H243543   6.541   3.425   4.442
14534TIP3   OH243544   6.628   7.371   4.691
14534TIP3    H143545   6.575   7.375   4.771
14534TIP3    H243546   6.631   7.461   4.660
14535TIP3   OH243547   8.255   7.224   6.521
14535TIP3    H143548   8.192   7.172   6.570
14535TIP3    H243549   8.340   7.195   6.553
14536TIP3   OH243550   2.913   7.593   4.219
14536TIP3    H143551   2.949   7.519   4.170
14536TIP3    H243552   2.920   7.566   4.311
14537TIP3   OH243553   5.931   4.881   1.396
14537TIP3    H143554   5.989   4.868   1.321
14537TIP3    H243555   5.852   4.921   1.359
14538TIP3   OH243556   1.595   7.116   5.278
14538TIP3    H143557   1.584   7.035   5.326
14538TIP3    H243558   1.689   7.120   5.258
14539TIP3   OH243559   2.687   4.669   4.194
14539TIP3    H143560   2.699   4.705   4.106
14539TIP3    H243561   2.730   4.583   4.190
14540TIP3   OH243562   6.766   6.466   5.976
14540TIP3    H143563   6.761   6.397   6.042
14540TIP3    H243564   6.814   6.427   5.903
14541TIP3   OH243565   1.373   0.736   3.285
14541TIP3    H143566   1.285   0.772   3.288
14541TIP3    H243567   1.424   0.800   3.234
14542TIP3   OH243568   1.067   2.400   0.804
14542TIP3    H143569   0.998   2.381   0.740
14542TIP3    H243570   1.145   2.417   0.750
14543TIP3   OH243571   5.874   7.615   4.266
14543TIP3    H143572   5.937   7.543   4.259
14543TIP3    H243573   5.869   7.652   4.177
14544TIP3   OH243574   3.254   7.346   2.395
14544TIP3    H143575   3.302   7.310   2.469
14544TIP3    H243576   3.174   7.381   2.434
14545TIP3   OH243577   7.146   7.211   2.704
14545TIP3    H143578   7.229   7.258   2.698
14545TIP3    H243579   7.170   7.124   2.735
14546TIP3   OH243580   6.044   5.781   3.352
14546TIP3    H143581   6.014   5.867   3.380
14546TIP3    H243582   6.033   5.782   3.256
14547TIP3   OH243583   6.445   0.914   5.755
14547TIP3    H143584   6.444   1.001   5.794
14547TIP3    H243585   6.480   0.857   5.823
14548TIP3   OH243586   1.233   0.889   3.944
14548TIP3    H143587   1.203   0.802   3.918
14548TIP3    H243588   1.311   0.906   3.891
14549TIP3   OH243589   7.655   5.346   1.600
14549TIP3    H143590   7.629   5.432   1.566
14549TIP3    H243591   7.650   5.357   1.695
14550TIP3   OH243592   8.006   2.857   3.700
14550TIP3    H143593   8.041   2.946   3.701
14550TIP3    H243594   8.080   2.803   3.674
14551TIP3   OH243595   6.906   5.489   5.777
14551TIP3    H143596   6.862   5.467   5.695
14551TIP3    H243597   6.941   5.577   5.763
14552TIP3   OH243598   2.169   5.120   5.854
14552TIP3    H143599   2.252   5.167   5.851
14552TIP3    H243600   2.169   5.078   5.940
14553TIP3   OH243601   6.591   5.598   0.082
14553TIP3    H143602   6.625   5.509   0.088
14553TIP3    H243603   6.668   5.654   0.089
14554TIP3   OH243604   5.785   1.475   4.418
14554TIP3    H143605   5.777   1.484   4.323
14554TIP3    H243606   5.864   1.525   4.440
14555TIP3   OH243607   4.111   5.883   3.787
14555TIP3    H143608   4.155   5.812   3.740
14555TIP3    H243609   4.181   5.926   3.836
14556TIP3   OH243610   1.423   4.204   6.699
14556TIP3    H143611   1.514   4.177   6.682
14556TIP3    H243612   1.378   4.189   6.617
14557TIP3   OH243613   6.460   4.453   3.467
14557TIP3    H143614   6.367   4.433   3.477
14557TIP3    H243615   6.495   4.449   3.557
14558TIP3   OH243616   2.699   2.798   2.910
14558TIP3    H143617   2.699   2.755   2.824
14558TIP3    H243618   2.615   2.843   2.915
14559TIP3   OH243619   4.113   4.994   1.545
14559TIP3    H143620   4.053   4.985   1.471
14559TIP3    H243621   4.200   4.986   1.505
14560TIP3   OH243622   3.273   3.995   2.060
14560TIP3    H143623   3.186   4.033   2.071
14560TIP3    H243624   3.262   3.902   2.080
14561TIP3   OH243625   7.196   1.420   5.234
14561TIP3    H143626   7.219   1.512   5.244
14561TIP3    H243627   7.128   1.405   5.300
14562TIP3   OH243628   7.844   4.490   2.699
14562TIP3    H143629   7.812   4.580   2.700
14562TIP3    H243630   7.813   4.452   2.781
14563TIP3   OH243631   4.053   1.603   1.905
14563TIP3    H143632   3.997   1.635   1.976
14563TIP3    H243633   4.091   1.522   1.939
14564TIP3   OH243634   6.299   6.521   3.945
14564TIP3    H143635   6.258   6.600   3.982
14564TIP3    H243636   6.345   6.482   4.019
14565TIP3   OH243637   5.966   0.653   0.236
14565TIP3    H143638   5.900   0.669   0.303
14565TIP3    H243639   6.028   0.593   0.277
14566TIP3   OH243640   0.414   5.219   2.740
14566TIP3    H143641   0.398   5.130   2.708
14566TIP3    H243642   0.382   5.218   2.830
14567TIP3   OH243643   4.674   6.914   2.615
14567TIP3    H143644   4.595   6.937   2.566
14567TIP3    H243645   4.736   6.884   2.549
14568TIP3   OH243646   3.865   0.507   1.935
14568TIP3    H143647   3.926   0.532   1.865
14568TIP3    H243648   3.839   0.417   1.914
14569TIP3   OH243649   0.869   6.726   4.584
14569TIP3    H143650   0.836   6.639   4.609
14569TIP3    H243651   0.854   6.731   4.490
14570TIP3   OH243652   3.448   1.189   3.117
14570TIP3    H143653   3.396   1.237   3.180
14570TIP3    H243654   3.526   1.162   3.165
14571TIP3   OH243655   4.735   0.759   3.980
14571TIP3    H143656   4.793   0.799   3.915
14571TIP3    H243657   4.655   0.811   3.976
14572TIP3   OH243658   7.828   0.703   3.815
14572TIP3    H143659   7.917   0.689   3.783
14572TIP3    H243660   7.833   0.692   3.910
14573TIP3   OH243661   3.615   5.489   2.837
14573TIP3    H143662   3.609   5.572   2.790
14573TIP3    H243663   3.651   5.428   2.773
14574TIP3   OH243664   6.890   5.199   3.538
14574TIP3    H143665   6.871   5.211   3.631
14574TIP3    H243666   6.844   5.119   3.514
14575TIP3   OH243667   7.829   7.661   3.926
14575TIP3    H143668   7.885   7.584   3.930
14575TIP3    H243669   7.745   7.629   3.895
14576TIP3   OH243670   4.429   7.461   3.531
14576TIP3    H143671   4.371   7.446   3.456
14576TIP3    H243672   4.404   7.547   3.564
14577TIP3   OH243673   1.611   3.545   5.155
14577TIP3    H143674   1.602   3.585   5.241
14577TIP3    H243675   1.618   3.619   5.095
14578TIP3   OH243676   3.470   1.970   2.655
14578TIP3    H143677   3.556   2.012   2.665
14578TIP3    H243678   3.448   1.939   2.742
14579TIP3   OH243679   2.655   2.269   6.216
14579TIP3    H143680   2.720   2.277   6.285
14579TIP3    H243681   2.693   2.207   6.153
14580TIP3   OH243682   7.270   5.868   3.250
14580TIP3    H143683   7.190   5.892   3.297
14580TIP3    H243684   7.325   5.825   3.317
14581TIP3   OH243685   5.430   4.736   1.754
14581TIP3    H143686   5.524   4.735   1.774
14581TIP3    H243687   5.426   4.729   1.658
14582TIP3   OH243688   1.315   5.760   2.123
14582TIP3    H143689   1.310   5.737   2.216
14582TIP3    H243690   1.383   5.702   2.088
14583TIP3   OH243691   1.197   2.042   0.506
14583TIP3    H143692   1.110   2.010   0.532
14583TIP3    H243693   1.193   2.050   0.411
14584TIP3   OH243694   1.850   2.549   5.878
14584TIP3    H143695   1.805   2.630   5.900
14584TIP3    H243696   1.911   2.535   5.950
14585TIP3   OH243697   2.670   4.153   5.728
14585TIP3    H143698   2.736   4.158   5.796
14585TIP3    H243699   2.672   4.061   5.699
14586TIP3   OH243700   6.062   6.699   1.664
14586TIP3    H143701   6.042   6.792   1.677
14586TIP3    H243702   6.008   6.674   1.588
14587TIP3   OH243703   0.204   2.535   2.016
14587TIP3    H143704   0.123   2.499   1.980
14587TIP3    H243705   0.184   2.627   2.034
14588TIP3   OH243706   6.084   7.424   1.297
14588TIP3    H143707   6.083   7.458   1.387
14588TIP3    H243708   6.058   7.499   1.243
14589TIP3   OH243709  -0.037   6.285   0.703
14589TIP3    H143710   0.044   6.335   0.716
14589TIP3    H243711  -0.056   6.293   0.609
14590TIP3   OH243712   0.930   7.596   1.158
14590TIP3    H143713   0.997   7.540   1.198
14590TIP3    H243714   0.979   7.652   1.098
14591TIP3   OH243715   1.568   3.520   2.176
14591TIP3    H143716   1.546   3.574   2.252
14591TIP3    H243717   1.627   3.453   2.210
14592TIP3   OH243718   6.621   6.047   2.425
14592TIP3    H143719   6.592   6.137   2.404
14592TIP3    H243720   6.546   5.992   2.402
14593TIP3   OH243721   3.748   6.344   5.601
14593TIP3    H143722   3.818   6.341   5.666
14593TIP3    H243723   3.686   6.277   5.629
14594TIP3   OH243724   4.571   7.758   2.579
14594TIP3    H143725   4.482   7.751   2.613
14594TIP3    H243726   4.597   7.668   2.561
14595TIP3   OH243727   3.738   2.506   1.166
14595TIP3    H143728   3.768   2.558   1.091
14595TIP3    H243729   3.673   2.447   1.129
14596TIP3   OH243730   5.629   4.523   4.902
14596TIP3    H143731   5.659   4.613   4.918
14596TIP3    H243732   5.662   4.473   4.976
14597TIP3   OH243733   0.512   7.260   4.025
14597TIP3    H143734   0.587   7.271   4.084
14597TIP3    H243735   0.485   7.169   4.037
14598TIP3   OH243736   6.209   1.221   0.277
14598TIP3    H143737   6.119   1.222   0.310
14598TIP3    H243738   6.214   1.296   0.218
14599TIP3   OH243739   1.181   5.434   0.680
14599TIP3    H143740   1.226   5.386   0.610
14599TIP3    H243741   1.208   5.390   0.760
14600TIP3   OH243742   5.215   7.540   5.689
14600TIP3    H143743   5.243   7.622   5.730
14600TIP3    H243744   5.277   7.474   5.720
14601TIP3   OH243745   1.759   6.544   4.054
14601TIP3    H143746   1.809   6.601   3.996
14601TIP3    H243747   1.823   6.513   4.118
14602TIP3   OH243748   7.942   3.854   4.155
14602TIP3    H143749   7.921   3.940   4.118
14602TIP3    H243750   8.019   3.871   4.211
14603TIP3   OH243751   2.704   2.970   1.836
14603TIP3    H143752   2.773   2.908   1.810
14603TIP3    H243753   2.639   2.916   1.881
14604TIP3   OH243754   7.260   3.036   3.804
14604TIP3    H143755   7.247   2.954   3.852
14604TIP3    H243756   7.286   3.008   3.716
14605TIP3   OH243757   0.901   5.937   0.469
14605TIP3    H143758   0.985   5.898   0.494
14605TIP3    H243759   0.900   5.931   0.373
14606TIP3   OH243760   6.316   0.899   5.529
14606TIP3    H143761   6.367   0.906   5.610
14606TIP3    H243762   6.252   0.970   5.535
14607TIP3   OH243763   6.999   7.640   1.050
14607TIP3    H143764   7.055   7.691   0.992
14607TIP3    H243765   7.041   7.554   1.055
14608TIP3   OH243766   0.578   4.430   4.004
14608TIP3    H143767   0.629   4.496   3.959
14608TIP3    H243768   0.491   4.435   3.964
14609TIP3   OH243769   0.053   0.078   2.235
14609TIP3    H143770  -0.003   0.005   2.207
14609TIP3    H243771   0.063   0.131   2.156
14610TIP3   OH243772   7.455   4.154   0.022
14610TIP3    H143773   7.395   4.202   0.079
14610TIP3    H243774   7.399   4.117  -0.046
14611TIP3   OH243775   0.547   2.807   5.860
14611TIP3    H143776   0.536   2.890   5.813
14611TIP3    H243777   0.599   2.753   5.800
14612TIP3   OH243778   0.552   5.612   0.834
14612TIP3    H143779   0.609   5.641   0.763
14612TIP3    H243780   0.505   5.536   0.798
14613TIP3   OH243781   7.738   1.532   5.729
14613TIP3    H143782   7.693   1.554   5.811
14613TIP3    H243783   7.738   1.612   5.678
14614TIP3   OH243784   0.179   2.608   0.817
14614TIP3    H143785   0.141   2.520   0.807
14614TIP3    H243786   0.104   2.665   0.833
14615TIP3   OH243787   0.881   4.575   1.254
14615TIP3    H143788   0.820   4.614   1.191
14615TIP3    H243789   0.920   4.501   1.207
14616TIP3   OH243790   7.653   2.534   3.308
14616TIP3    H143791   7.617   2.498   3.227
14616TIP3    H243792   7.739   2.492   3.317
14617TIP3   OH243793   2.117   4.493   3.334
14617TIP3    H143794   2.133   4.549   3.410
14617TIP3    H243795   2.204   4.461   3.309
14618TIP3   OH243796   6.570   6.298   5.635
14618TIP3    H143797   6.542   6.364   5.698
14618TIP3    H243798   6.519   6.318   5.556
14619TIP3   OH243799   5.827   2.013   3.120
14619TIP3    H143800   5.811   2.020   3.214
14619TIP3    H243801   5.741   1.997   3.082
14620TIP3   OH243802   1.135   7.495   0.606
14620TIP3    H143803   1.078   7.564   0.641
14620TIP3    H243804   1.158   7.442   0.681
14621TIP3   OH243805   5.144   4.314   6.568
14621TIP3    H143806   5.094   4.276   6.640
14621TIP3    H243807   5.085   4.379   6.530
14622TIP3   OH243808   6.908   0.538   2.257
14622TIP3    H143809   6.860   0.547   2.339
14622TIP3    H243810   6.993   0.502   2.282
14623TIP3   OH243811   6.401   1.997   5.426
14623TIP3    H143812   6.338   1.999   5.498
14623TIP3    H243813   6.468   2.060   5.453
14624TIP3   OH243814   6.640   5.260   4.768
14624TIP3    H143815   6.717   5.303   4.730
14624TIP3    H243816   6.654   5.167   4.752
14625TIP3   OH243817   6.116   0.955   5.941
14625TIP3    H143818   6.187   0.954   6.005
14625TIP3    H243819   6.116   0.867   5.904
14626TIP3   OH243820   3.635   6.136   4.636
14626TIP3    H143821   3.581   6.136   4.715
14626TIP3    H243822   3.718   6.173   4.664
14627TIP3   OH243823   0.375   3.114   5.465
14627TIP3    H143824   0.457   3.161   5.468
14627TIP3    H243825   0.333   3.142   5.383
14628TIP3   OH243826   5.462   0.351   2.517
14628TIP3    H143827   5.523   0.350   2.443
14628TIP3    H243828   5.460   0.260   2.548
14629TIP3   OH243829   2.079   3.219   1.234
14629TIP3    H143830   2.153   3.163   1.209
14629TIP3    H243831   2.050   3.259   1.152
14630TIP3   OH243832   3.979   4.107   3.869
14630TIP3    H143833   3.894   4.102   3.912
14630TIP3    H243834   3.983   4.195   3.832
14631TIP3   OH243835   2.558   5.386   3.547
14631TIP3    H143836   2.475   5.382   3.595
14631TIP3    H243837   2.558   5.473   3.507
14632TIP3   OH243838   4.105   7.571   5.864
14632TIP3    H143839   4.057   7.650   5.890
14632TIP3    H243840   4.188   7.576   5.911
14633TIP3   OH243841   6.154   6.968   5.993
14633TIP3    H143842   6.209   7.035   5.952
14633TIP3    H243843   6.104   7.015   6.059
14634TIP3   OH243844   7.804   7.251   5.321
14634TIP3    H143845   7.843   7.163   5.327
14634TIP3    H243846   7.776   7.271   5.410
14635TIP3   OH243847   3.966   1.430   3.534
14635TIP3    H143848   3.979   1.514   3.490
14635TIP3    H243849   3.937   1.453   3.623
14636TIP3   OH243850   0.319   0.675   3.502
14636TIP3    H143851   0.303   0.735   3.575
14636TIP3    H243852   0.264   0.599   3.521
14637TIP3   OH243853   7.327   5.608   4.145
14637TIP3    H143854   7.388   5.682   4.147
14637TIP3    H243855   7.305   5.593   4.237
14638TIP3   OH243856   3.052   1.847   3.584
14638TIP3    H143857   3.055   1.753   3.604
14638TIP3    H243858   3.086   1.889   3.663
14639TIP3   OH243859   2.728   7.010   1.026
14639TIP3    H143860   2.771   6.947   1.083
14639TIP3    H243861   2.727   6.967   0.940
14640TIP3   OH243862   2.730   0.097   0.863
14640TIP3    H143863   2.791   0.152   0.814
14640TIP3    H243864   2.711   0.023   0.805
14641TIP3   OH243865   6.472   6.491   3.236
14641TIP3    H143866   6.391   6.542   3.237
14641TIP3    H243867   6.498   6.489   3.143
14642TIP3   OH243868   5.808   3.124   5.126
14642TIP3    H143869   5.775   3.212   5.143
14642TIP3    H243870   5.885   3.116   5.182
14643TIP3   OH243871   0.778   3.993   6.635
14643TIP3    H143872   0.818   3.922   6.586
14643TIP3    H243873   0.844   4.063   6.634
14644TIP3   OH243874   4.975   6.001   4.286
14644TIP3    H143875   5.041   5.932   4.286
14644TIP3    H243876   5.008   6.066   4.347
14645TIP3   OH243877   0.842   6.879   1.225
14645TIP3    H143878   0.879   6.795   1.250
14645TIP3    H243879   0.760   6.856   1.180
14646TIP3   OH243880   1.782   5.711   0.047
14646TIP3    H143881   1.797   5.624   0.010
14646TIP3    H243882   1.783   5.770  -0.028
14647TIP3   OH243883   3.324   2.647   3.964
14647TIP3    H143884   3.313   2.626   3.871
14647TIP3    H243885   3.289   2.570   4.009
14648TIP3   OH243886   1.924   1.479   0.229
14648TIP3    H143887   1.943   1.388   0.205
14648TIP3    H243888   1.837   1.495   0.193
14649TIP3   OH243889   7.470   1.382   5.544
14649TIP3    H143890   7.399   1.402   5.604
14649TIP3    H243891   7.532   1.330   5.596
14650TIP3   OH243892   6.046   6.666   2.038
14650TIP3    H143893   5.998   6.586   2.015
14650TIP3    H243894   6.018   6.686   2.127
14651TIP3   OH243895   4.090   7.597   2.371
14651TIP3    H143896   4.114   7.559   2.286
14651TIP3    H243897   4.004   7.559   2.390
14652TIP3   OH243898   3.277   3.900   5.804
14652TIP3    H143899   3.222   3.896   5.882
14652TIP3    H243900   3.352   3.845   5.825
14653TIP3   OH243901   3.705   3.959   0.954
14653TIP3    H143902   3.783   3.921   0.995
14653TIP3    H243903   3.739   4.022   0.891
14654TIP3   OH243904   7.135   4.851   2.220
14654TIP3    H143905   7.123   4.940   2.252
14654TIP3    H243906   7.123   4.857   2.125
14655TIP3   OH243907   1.419   1.580   4.169
14655TIP3    H143908   1.330   1.555   4.145
14655TIP3    H243909   1.415   1.675   4.177
14656TIP3   OH243910   4.118   1.324   3.880
14656TIP3    H143911   4.155   1.275   3.953
14656TIP3    H243912   4.152   1.281   3.802
14657TIP3   OH243913   1.392   3.974   3.950
14657TIP3    H143914   1.395   4.024   4.032
14657TIP3    H243915   1.479   3.984   3.912
14658TIP3   OH243916   2.152   1.938   0.112
14658TIP3    H143917   2.142   2.013   0.171
14658TIP3    H243918   2.076   1.943   0.054
14659TIP3   OH243919   3.762   6.566   0.512
14659TIP3    H143920   3.804   6.482   0.531
14659TIP3    H243921   3.823   6.632   0.546
14660TIP3   OH243922   1.172   1.387   2.533
14660TIP3    H143923   1.234   1.446   2.577
14660TIP3    H243924   1.220   1.304   2.526
14661TIP3   OH243925   2.936   1.974   1.749
14661TIP3    H143926   3.021   1.970   1.794
14661TIP3    H243927   2.872   1.978   1.819
14662TIP3   OH243928   4.654   7.354   2.885
14662TIP3    H143929   4.676   7.444   2.910
14662TIP3    H243930   4.735   7.320   2.846
14663TIP3   OH243931   6.845   4.661   2.175
14663TIP3    H143932   6.841   4.589   2.113
14663TIP3    H243933   6.868   4.737   2.122
14664TIP3   OH243934   5.978   4.149   0.517
14664TIP3    H143935   5.886   4.156   0.544
14664TIP3    H243936   5.995   4.231   0.470
14665TIP3   OH243937   6.333   7.803   2.696
14665TIP3    H143938   6.410   7.747   2.706
14665TIP3    H243939   6.261   7.750   2.731
14666TIP3   OH243940   1.155   5.340   5.659
14666TIP3    H143941   1.133   5.418   5.711
14666TIP3    H243942   1.223   5.296   5.711
14667TIP3   OH243943   6.482   1.556   4.628
14667TIP3    H143944   6.517   1.483   4.679
14667TIP3    H243945   6.545   1.627   4.640
14668TIP3   OH243946   4.341   6.027   5.153
14668TIP3    H143947   4.394   6.077   5.216
14668TIP3    H243948   4.251   6.041   5.182
14669TIP3   OH243949   1.518   4.987   0.311
14669TIP3    H143950   1.451   4.925   0.282
14669TIP3    H243951   1.588   4.978   0.247
14670TIP3   OH243952   0.913   3.065   6.495
14670TIP3    H143953   0.980   3.043   6.431
14670TIP3    H243954   0.949   3.139   6.544
14671TIP3   OH243955   6.722   1.177   3.693
14671TIP3    H143956   6.768   1.171   3.609
14671TIP3    H243957   6.629   1.182   3.668
14672TIP3   OH243958   1.028   3.697   3.922
14672TIP3    H143959   0.961   3.681   3.988
14672TIP3    H243960   1.055   3.788   3.937
14673TIP3   OH243961   0.525   7.713   1.804
14673TIP3    H143962   0.567   7.721   1.718
14673TIP3    H243963   0.594   7.736   1.866
14674TIP3   OH243964   5.260   5.274   3.760
14674TIP3    H143965   5.175   5.252   3.797
14674TIP3    H243966   5.242   5.293   3.668
14675TIP3   OH243967   2.863   4.043   5.963
14675TIP3    H143968   2.947   4.076   5.931
14675TIP3    H243969   2.866   3.949   5.945
14676TIP3   OH243970   6.163   5.187   6.362
14676TIP3    H143971   6.073   5.196   6.331
14676TIP3    H243972   6.213   5.166   6.283
14677TIP3   OH243973   6.166   7.430   4.881
14677TIP3    H143974   6.144   7.522   4.866
14677TIP3    H243975   6.083   7.384   4.874
14678TIP3   OH243976   6.488   2.180   4.125
14678TIP3    H143977   6.544   2.102   4.116
14678TIP3    H243978   6.474   2.209   4.035
14679TIP3   OH243979   3.721   2.728   0.967
14679TIP3    H143980   3.629   2.743   0.989
14679TIP3    H243981   3.719   2.655   0.905
14680TIP3   OH243982   6.065   3.074   1.611
14680TIP3    H143983   6.045   3.105   1.699
14680TIP3    H243984   6.140   3.016   1.623
14681TIP3   OH243985   6.786   1.381   3.940
14681TIP3    H143986   6.861   1.344   3.893
14681TIP3    H243987   6.711   1.360   3.884
14682TIP3   OH243988   0.156   2.400   2.936
14682TIP3    H143989   0.074   2.451   2.938
14682TIP3    H243990   0.175   2.389   2.843
14683TIP3   OH243991   2.374   2.330   1.340
14683TIP3    H143992   2.313   2.373   1.281
14683TIP3    H243993   2.348   2.238   1.339
14684TIP3   OH243994   2.247   6.484   4.842
14684TIP3    H143995   2.202   6.425   4.902
14684TIP3    H243996   2.239   6.442   4.756
14685TIP3   OH243997   7.426   7.312   3.598
14685TIP3    H143998   7.517   7.289   3.576
14685TIP3    H243999   7.393   7.236   3.645
14686TIP3   OH244000   3.165   3.037   3.936
14686TIP3    H144001   3.170   3.105   3.869
14686TIP3    H244002   3.101   2.974   3.902
14687TIP3   OH244003   2.066   6.285   6.236
14687TIP3    H144004   2.019   6.353   6.188
14687TIP3    H244005   2.089   6.220   6.169
14688TIP3   OH244006   4.475   3.867   0.667
14688TIP3    H144007   4.570   3.867   0.673
14688TIP3    H244008   4.445   3.855   0.757
14689TIP3   OH244009   7.227   7.409   0.756
14689TIP3    H144010   7.195   7.319   0.761
14689TIP3    H244011   7.150   7.463   0.769
14690TIP3   OH244012   6.272   3.675   4.837
14690TIP3    H144013   6.305   3.736   4.903
14690TIP3    H244014   6.298   3.714   4.754
14691TIP3   OH244015   1.065   0.228   0.838
14691TIP3    H144016   1.024   0.252   0.922
14691TIP3    H244017   1.020   0.282   0.773
14692TIP3   OH244018   3.994   0.785   0.136
14692TIP3    H144019   3.935   0.860   0.142
14692TIP3    H244020   4.057   0.809   0.068
14693TIP3   OH244021   7.486   5.954   4.588
14693TIP3    H144022   7.474   5.875   4.536
14693TIP3    H244023   7.557   6.001   4.544
14694TIP3   OH244024   4.078   1.972   5.463
14694TIP3    H144025   3.996   1.966   5.413
14694TIP3    H244026   4.141   1.922   5.412
14695TIP3   OH244027   0.049   7.506   6.662
14695TIP3    H144028   0.039   7.422   6.618
14695TIP3    H244029  -0.018   7.562   6.622
14696TIP3   OH244030   3.067   0.921   6.180
14696TIP3    H144031   3.112   1.006   6.182
14696TIP3    H244032   3.059   0.901   6.087
14697TIP3   OH244033   4.863   3.647   2.908
14697TIP3    H144034   4.956   3.666   2.895
14697TIP3    H244035   4.846   3.674   2.999
14698TIP3   OH244036   5.411   4.613   5.500
14698TIP3    H144037   5.324   4.624   5.463
14698TIP3    H244038   5.442   4.702   5.516
14699TIP3   OH244039   5.119   3.073   1.932
14699TIP3    H144040   5.072   3.107   1.856
14699TIP3    H244041   5.210   3.069   1.904
14700TIP3   OH244042   5.613   4.192   6.694
14700TIP3    H144043   5.555   4.141   6.636
14700TIP3    H244044   5.628   4.274   6.648
14701TIP3   OH244045   1.832   4.785   2.944
14701TIP3    H144046   1.846   4.733   3.023
14701TIP3    H244047   1.892   4.747   2.879
14702TIP3   OH244048   5.797   2.462   3.636
14702TIP3    H144049   5.847   2.401   3.690
14702TIP3    H244050   5.727   2.409   3.599
14703TIP3   OH244051   0.762   6.015   6.147
14703TIP3    H144052   0.820   5.939   6.140
14703TIP3    H244053   0.783   6.054   6.232
14704TIP3   OH244054   4.747   6.101   4.502
14704TIP3    H144055   4.739   6.129   4.593
14704TIP3    H244056   4.747   6.183   4.452
14705TIP3   OH244057   6.993   6.571   1.236
14705TIP3    H144058   7.016   6.624   1.313
14705TIP3    H244059   7.072   6.523   1.215
14706TIP3   OH244060   1.392   3.087   3.689
14706TIP3    H144061   1.323   3.040   3.735
14706TIP3    H244062   1.369   3.180   3.699
14707TIP3   OH244063   5.334   3.950   5.017
14707TIP3    H144064   5.414   3.901   5.038
14707TIP3    H244065   5.315   3.999   5.097
14708TIP3   OH244066   7.606   2.391   6.485
14708TIP3    H144067   7.558   2.444   6.422
14708TIP3    H244068   7.697   2.398   6.458
14709TIP3   OH244069   2.944   6.254   0.221
14709TIP3    H144070   2.910   6.166   0.201
14709TIP3    H244071   2.977   6.286   0.137
14710TIP3   OH244072   2.713   6.019   5.566
14710TIP3    H144073   2.727   6.102   5.520
14710TIP3    H244074   2.761   5.955   5.514
14711TIP3   OH244075   2.872   7.833   0.143
14711TIP3    H144076   2.823   7.790   0.213
14711TIP3    H244077   2.948   7.776   0.127
14712TIP3   OH244078   0.223   4.216   3.761
14712TIP3    H144079   0.186   4.136   3.797
14712TIP3    H244080   0.288   4.187   3.697
14713TIP3   OH244081   4.183   7.488   1.300
14713TIP3    H144082   4.197   7.433   1.223
14713TIP3    H244083   4.088   7.495   1.308
14714TIP3   OH244084   6.798   0.123   1.453
14714TIP3    H144085   6.717   0.171   1.469
14714TIP3    H244086   6.863   0.190   1.433
14715TIP3   OH244087   4.423   5.817   5.872
14715TIP3    H144088   4.509   5.782   5.850
14715TIP3    H244089   4.400   5.872   5.797
14716TIP3   OH244090   3.865   5.752   4.990
14716TIP3    H144091   3.915   5.817   4.942
14716TIP3    H244092   3.858   5.787   5.079
14717TIP3   OH244093   0.085   5.366   1.441
14717TIP3    H144094   0.157   5.427   1.426
14717TIP3    H244095   0.075   5.363   1.536
14718TIP3   OH244096   4.169   5.473   0.629
14718TIP3    H144097   4.208   5.433   0.707
14718TIP3    H244098   4.226   5.547   0.609
14719TIP3   OH244099   3.342   7.714   0.582
14719TIP3    H144100   3.327   7.674   0.496
14719TIP3    H244101   3.363   7.806   0.562
14720TIP3   OH244102   7.628   7.704   1.506
14720TIP3    H144103   7.709   7.653   1.503
14720TIP3    H244104   7.558   7.639   1.497
14721TIP3   OH244105   3.141   6.223   2.690
14721TIP3    H144106   3.182   6.155   2.636
14721TIP3    H244107   3.111   6.177   2.768
14722TIP3   OH244108   8.220   5.399   6.048
14722TIP3    H144109   8.299   5.409   5.995
14722TIP3    H244110   8.195   5.488   6.071
14723TIP3   OH244111   6.285   2.105   2.183
14723TIP3    H144112   6.276   2.200   2.178
14723TIP3    H244113   6.201   2.075   2.217
14724TIP3   OH244114   1.348   5.807   1.606
14724TIP3    H144115   1.406   5.763   1.669
14724TIP3    H244116   1.272   5.833   1.657
14725TIP3   OH244117   1.148   3.454   5.006
14725TIP3    H144118   1.204   3.418   5.075
14725TIP3    H244119   1.128   3.379   4.950
14726TIP3   OH244120   3.932   1.095   4.328
14726TIP3    H144121   3.955   1.154   4.399
14726TIP3    H244122   3.838   1.082   4.336
14727TIP3   OH244123   8.093   0.468   5.383
14727TIP3    H144124   8.020   0.409   5.366
14727TIP3    H244125   8.132   0.436   5.464
14728TIP3   OH244126   3.498   5.272   3.290
14728TIP3    H144127   3.569   5.262   3.353
14728TIP3    H244128   3.444   5.342   3.326
14729TIP3   OH244129   4.893   0.275   5.259
14729TIP3    H144130   4.914   0.347   5.199
14729TIP3    H244131   4.898   0.196   5.205
14730TIP3   OH244132   7.135   3.916   4.548
14730TIP3    H144133   7.097   3.986   4.601
14730TIP3    H244134   7.226   3.911   4.577
14731TIP3   OH244135   8.233   0.006   6.094
14731TIP3    H144136   8.150  -0.034   6.121
14731TIP3    H244137   8.234   0.091   6.137
14732TIP3   OH244138   5.774   4.669   6.101
14732TIP3    H144139   5.774   4.657   6.196
14732TIP3    H244140   5.684   4.692   6.079
14733TIP3   OH244141   5.010   4.083   6.440
14733TIP3    H144142   5.034   4.175   6.452
14733TIP3    H244143   5.015   4.045   6.528
14734TIP3   OH244144   3.086   7.261   3.835
14734TIP3    H144145   3.020   7.207   3.792
14734TIP3    H244146   3.159   7.265   3.773
14735TIP3   OH244147   4.116   2.371   5.710
14735TIP3    H144148   4.170   2.378   5.789
14735TIP3    H244149   4.156   2.432   5.648
14736TIP3   OH244150   0.225   7.263   0.661
14736TIP3    H144151   0.161   7.192   0.672
14736TIP3    H244152   0.284   7.253   0.735
14737TIP3   OH244153   0.436   6.222   5.993
14737TIP3    H144154   0.450   6.310   5.957
14737TIP3    H244155   0.427   6.236   6.087
14738TIP3   OH244156   0.766   2.503   0.754
14738TIP3    H144157   0.802   2.498   0.842
14738TIP3    H244158   0.808   2.580   0.715
14739TIP3   OH244159   7.663   1.056   6.409
14739TIP3    H144160   7.586   1.010   6.443
14739TIP3    H244161   7.633   1.145   6.392
14740TIP3   OH244162   6.421   0.573   1.662
14740TIP3    H144163   6.417   0.611   1.574
14740TIP3    H244164   6.384   0.486   1.652
14741TIP3   OH244165   3.563   5.893   6.175
14741TIP3    H144166   3.550   5.894   6.080
14741TIP3    H244167   3.613   5.813   6.192
14742TIP3   OH244168   1.354   6.357   1.021
14742TIP3    H144169   1.357   6.319   0.933
14742TIP3    H244170   1.444   6.353   1.053
14743TIP3   OH244171   1.389   5.809   0.358
14743TIP3    H144172   1.381   5.848   0.271
14743TIP3    H244173   1.436   5.727   0.344
14744TIP3   OH244174   6.039   5.676   4.990
14744TIP3    H144175   6.002   5.664   4.902
14744TIP3    H244176   6.118   5.727   4.976
14745TIP3   OH244177   1.669   0.393   2.052
14745TIP3    H144178   1.745   0.414   1.997
14745TIP3    H244179   1.595   0.434   2.007
14746TIP3   OH244180   2.736   4.782   1.690
14746TIP3    H144181   2.689   4.860   1.720
14746TIP3    H244182   2.706   4.770   1.600
14747TIP3   OH244183   6.989   4.874   6.049
14747TIP3    H144184   6.978   4.811   6.120
14747TIP3    H244185   6.902   4.883   6.010
14748TIP3   OH244186   3.885   0.772   5.839
14748TIP3    H144187   3.817   0.778   5.773
14748TIP3    H244188   3.851   0.710   5.903
14749TIP3   OH244189   5.901   6.976   3.051
14749TIP3    H144190   5.882   7.053   3.104
14749TIP3    H244191   5.828   6.917   3.067
14750TIP3   OH244192   0.821   6.269   6.632
14750TIP3    H144193   0.762   6.322   6.578
14750TIP3    H244194   0.908   6.285   6.594
14751TIP3   OH244195   0.970   2.735   4.293
14751TIP3    H144196   1.018   2.695   4.366
14751TIP3    H244197   0.946   2.822   4.326
14752TIP3   OH244198   2.297   5.869   2.919
14752TIP3    H144199   2.359   5.841   2.852
14752TIP3    H244200   2.348   5.929   2.974
14753TIP3   OH244201   3.851   2.091   3.161
14753TIP3    H144202   3.843   2.063   3.252
14753TIP3    H244203   3.930   2.046   3.130
14754TIP3   OH244204   6.950   1.176   4.495
14754TIP3    H144205   7.009   1.114   4.538
14754TIP3    H244206   6.862   1.149   4.522
14755TIP3   OH244207   2.270   6.215   3.934
14755TIP3    H144208   2.193   6.219   3.878
14755TIP3    H244209   2.267   6.127   3.973
14756TIP3   OH244210   7.364   5.751   6.392
14756TIP3    H144211   7.315   5.818   6.439
14756TIP3    H244212   7.343   5.669   6.437
14757TIP3   OH244213   2.824   7.649   6.112
14757TIP3    H144214   2.824   7.590   6.036
14757TIP3    H244215   2.832   7.737   6.074
14758TIP3   OH244216   4.882   2.603   1.300
14758TIP3    H144217   4.950   2.634   1.361
14758TIP3    H244218   4.854   2.519   1.337
14759TIP3   OH244219   5.732   1.502   5.702
14759TIP3    H144220   5.672   1.522   5.774
14759TIP3    H244221   5.813   1.549   5.725
14760TIP3   OH244222   1.390   0.879   2.518
14760TIP3    H144223   1.483   0.856   2.518
14760TIP3    H244224   1.347   0.809   2.566
14761TIP3   OH244225   1.246   2.641   0.242
14761TIP3    H144226   1.230   2.710   0.178
14761TIP3    H244227   1.176   2.578   0.226
14762TIP3   OH244228   8.054   1.215   1.868
14762TIP3    H144229   8.010   1.284   1.917
14762TIP3    H244230   8.140   1.251   1.847
14763TIP3   OH244231   6.688   5.076   0.374
14763TIP3    H144232   6.617   5.140   0.375
14763TIP3    H244233   6.698   5.049   0.466
14764TIP3   OH244234   5.090   0.260   1.416
14764TIP3    H144235   5.057   0.343   1.381
14764TIP3    H244236   5.089   0.272   1.511
14765TIP3   OH244237   7.313   2.428   0.972
14765TIP3    H144238   7.242   2.395   0.916
14765TIP3    H244239   7.386   2.369   0.953
14766TIP3   OH244240   1.267   4.008   1.718
14766TIP3    H144241   1.333   4.057   1.668
14766TIP3    H244242   1.216   4.075   1.764
14767TIP3   OH244243   1.532   5.749   3.541
14767TIP3    H144244   1.456   5.785   3.494
14767TIP3    H244245   1.531   5.656   3.520
14768TIP3   OH244246   2.786   3.234   1.782
14768TIP3    H144247   2.748   3.262   1.699
14768TIP3    H244248   2.753   3.146   1.795
14769TIP3   OH244249   0.222   6.447   6.372
14769TIP3    H144250   0.211   6.451   6.277
14769TIP3    H244251   0.271   6.526   6.393
14770TIP3   OH244252   8.182   1.516   6.101
14770TIP3    H144253   8.104   1.507   6.046
14770TIP3    H244254   8.152   1.563   6.178
14771TIP3   OH244255   3.019   5.563   4.995
14771TIP3    H144256   2.942   5.599   4.949
14771TIP3    H244257   3.085   5.632   4.986
14772TIP3   OH244258   4.859   7.221   0.458
14772TIP3    H144259   4.840   7.256   0.546
14772TIP3    H244260   4.941   7.174   0.468
14773TIP3   OH244261   4.626   7.784   4.282
14773TIP3    H144262   4.531   7.789   4.285
14773TIP3    H244263   4.648   7.709   4.337
14774TIP3   OH244264   4.910   2.035   0.789
14774TIP3    H144265   4.926   1.957   0.737
14774TIP3    H244266   4.832   2.013   0.841
14775TIP3   OH244267   6.884   0.760   0.726
14775TIP3    H144268   6.851   0.738   0.639
14775TIP3    H244269   6.909   0.852   0.719
14776TIP3   OH244270   6.978   6.279   6.511
14776TIP3    H144271   6.914   6.348   6.498
14776TIP3    H244272   7.051   6.303   6.453
14777TIP3   OH244273   7.350   4.854   0.263
14777TIP3    H144274   7.332   4.823   0.352
14777TIP3    H244275   7.365   4.948   0.273
14778TIP3   OH244276   3.456   0.933   1.862
14778TIP3    H144277   3.435   0.878   1.787
14778TIP3    H244278   3.452   1.022   1.828
14779TIP3   OH244279   0.909   1.073   1.455
14779TIP3    H144280   0.877   1.027   1.533
14779TIP3    H244281   0.833   1.121   1.422
14780TIP3   OH244282   6.259   7.367   4.023
14780TIP3    H144283   6.280   7.295   3.962
14780TIP3    H244284   6.168   7.351   4.048
14781TIP3   OH244285   8.249   0.637   1.680
14781TIP3    H144286   8.272   0.715   1.630
14781TIP3    H244287   8.154   0.644   1.692
14782TIP3   OH244288   4.295   1.453   4.363
14782TIP3    H144289   4.223   1.464   4.426
14782TIP3    H244290   4.352   1.528   4.380
14783TIP3   OH244291   1.949   3.943   0.535
14783TIP3    H144292   1.937   3.944   0.630
14783TIP3    H244293   1.861   3.929   0.500
14784TIP3   OH244294   5.459   3.863   0.254
14784TIP3    H144295   5.550   3.848   0.226
14784TIP3    H244296   5.444   3.956   0.239
14785TIP3   OH244297   6.377   1.557   4.377
14785TIP3    H144298   6.322   1.635   4.376
14785TIP3    H244299   6.428   1.564   4.458
14786TIP3   OH244300   6.227   2.328   2.582
14786TIP3    H144301   6.221   2.385   2.658
14786TIP3    H244302   6.199   2.242   2.614
14787TIP3   OH244303   1.243   3.721   2.252
14787TIP3    H144304   1.179   3.667   2.297
14787TIP3    H244305   1.200   3.745   2.170
14788TIP3   OH244306   2.454   3.831   4.885
14788TIP3    H144307   2.457   3.830   4.981
14788TIP3    H244308   2.500   3.750   4.860
14789TIP3   OH244309   1.287   0.095   1.975
14789TIP3    H144310   1.372   0.088   1.932
14789TIP3    H244311   1.302   0.061   2.063
14790TIP3   OH244312   0.880   0.075   0.570
14790TIP3    H144313   0.823   0.007   0.534
14790TIP3    H244314   0.938   0.099   0.498
14791TIP3   OH244315   1.820   1.599   3.482
14791TIP3    H144316   1.737   1.630   3.519
14791TIP3    H244317   1.812   1.504   3.480
14792TIP3   OH244318   0.109   3.666   0.300
14792TIP3    H144319   0.087   3.710   0.218
14792TIP3    H244320   0.145   3.736   0.355
14793TIP3   OH244321   1.329   2.460   6.330
14793TIP3    H144322   1.421   2.483   6.342
14793TIP3    H244323   1.290   2.472   6.416
14794TIP3   OH244324   1.689   5.266   0.694
14794TIP3    H144325   1.647   5.338   0.646
14794TIP3    H244326   1.685   5.294   0.785
14795TIP3   OH244327   7.095   5.113   2.903
14795TIP3    H144328   7.110   5.171   2.828
14795TIP3    H244329   7.178   5.068   2.916
14796TIP3   OH244330   1.267   0.366   2.313
14796TIP3    H144331   1.209   0.440   2.298
14796TIP3    H244332   1.345   0.405   2.354
14797TIP3   OH244333   1.045   0.249   0.286
14797TIP3    H144334   0.999   0.175   0.246
14797TIP3    H244335   1.113   0.208   0.339
14798TIP3   OH244336   6.016   0.450   4.656
14798TIP3    H144337   5.978   0.451   4.743
14798TIP3    H244338   6.035   0.358   4.639
14799TIP3   OH244339   4.746   2.360   4.242
14799TIP3    H144340   4.696   2.335   4.164
14799TIP3    H244341   4.681   2.367   4.311
14800TIP3   OH244342   2.533   4.236   4.241
14800TIP3    H144343   2.477   4.308   4.272
14800TIP3    H244344   2.589   4.216   4.316
14801TIP3   OH244345   1.586   1.962   0.860
14801TIP3    H144346   1.516   1.968   0.795
14801TIP3    H244347   1.636   2.042   0.849
14802TIP3   OH244348   6.196   3.523   1.567
14802TIP3    H144349   6.274   3.489   1.610
14802TIP3    H244350   6.226   3.601   1.522
14803TIP3   OH244351   1.549   7.312   1.061
14803TIP3    H144352   1.617   7.356   1.112
14803TIP3    H244353   1.477   7.299   1.123
14804TIP3   OH244354   1.110   5.748   6.294
14804TIP3    H144355   1.186   5.746   6.237
14804TIP3    H244356   1.123   5.824   6.350
14805TIP3   OH244357   1.969   3.360   0.252
14805TIP3    H144358   2.049   3.324   0.290
14805TIP3    H244359   1.936   3.421   0.318
14806TIP3   OH244360   7.752   6.814   0.582
14806TIP3    H144361   7.667   6.818   0.624
14806TIP3    H244362   7.793   6.735   0.617
14807TIP3   OH244363   4.883   6.047   3.796
14807TIP3    H144364   4.824   6.029   3.723
14807TIP3    H244365   4.969   6.021   3.765
14808TIP3   OH244366   6.587   5.895   4.930
14808TIP3    H144367   6.675   5.917   4.901
14808TIP3    H244368   6.599   5.855   5.016
14809TIP3   OH244369   5.806   6.748   4.395
14809TIP3    H144370   5.716   6.715   4.387
14809TIP3    H244371   5.861   6.670   4.386
14810TIP3   OH244372   7.714   3.857   1.519
14810TIP3    H144373   7.645   3.830   1.459
14810TIP3    H244374   7.684   3.940   1.556
14811TIP3   OH244375   0.874   7.689   4.472
14811TIP3    H144376   0.920   7.764   4.509
14811TIP3    H244377   0.804   7.671   4.535
14812TIP3   OH244378   3.761   4.392   3.673
14812TIP3    H144379   3.671   4.423   3.681
14812TIP3    H244380   3.760   4.332   3.599
14813TIP3   OH244381   6.854   3.558   1.068
14813TIP3    H144382   6.831   3.649   1.049
14813TIP3    H244383   6.782   3.507   1.031
14814TIP3   OH244384   1.905   7.423   2.270
14814TIP3    H144385   1.894   7.446   2.362
14814TIP3    H244386   1.955   7.342   2.270
14815TIP3   OH244387   1.388   7.158   2.613
14815TIP3    H144388   1.322   7.107   2.565
14815TIP3    H244389   1.408   7.105   2.690
14816TIP3   OH244390   6.284   1.828   3.972
14816TIP3    H144391   6.228   1.900   4.000
14816TIP3    H244392   6.223   1.759   3.945
14817TIP3   OH244393   1.283   7.421   4.250
14817TIP3    H144394   1.203   7.417   4.303
14817TIP3    H244395   1.349   7.376   4.303
14818TIP3   OH244396   4.545   2.430   4.402
14818TIP3    H144397   4.544   2.525   4.386
14818TIP3    H244398   4.455   2.403   4.388
14819TIP3   OH244399   4.255   0.473   4.016
14819TIP3    H144400   4.219   0.387   4.038
14819TIP3    H244401   4.303   0.458   3.934
14820TIP3   OH244402   7.781   0.126   6.640
14820TIP3    H144403   7.752   0.035   6.640
14820TIP3    H244404   7.826   0.137   6.556
14821TIP3   OH244405   2.197   5.470   3.520
14821TIP3    H144406   2.271   5.530   3.528
14821TIP3    H244407   2.179   5.466   3.426
14822TIP3   OH244408   2.840   6.750   2.953
14822TIP3    H144409   2.884   6.830   2.925
14822TIP3    H244410   2.753   6.755   2.914
14823TIP3   OH244411   0.734   5.554   2.690
14823TIP3    H144412   0.782   5.614   2.747
14823TIP3    H244413   0.658   5.605   2.660
14824TIP3   OH244414   1.140   0.474   3.829
14824TIP3    H144415   1.215   0.473   3.769
14824TIP3    H244416   1.093   0.392   3.809
14825TIP3   OH244417   3.095   0.322   4.883
14825TIP3    H144418   3.136   0.317   4.969
14825TIP3    H244419   3.036   0.247   4.880
14826TIP3   OH244420   6.438   1.633   2.627
14826TIP3    H144421   6.521   1.671   2.599
14826TIP3    H244422   6.429   1.660   2.718
14827TIP3   OH244423   6.679   3.215   1.623
14827TIP3    H144424   6.615   3.166   1.571
14827TIP3    H244425   6.645   3.214   1.712
14828TIP3   OH244426   3.533   1.074   4.817
14828TIP3    H144427   3.524   1.138   4.888
14828TIP3    H244428   3.491   1.115   4.742
14829TIP3   OH244429   3.098   1.378   1.598
14829TIP3    H144430   3.180   1.339   1.568
14829TIP3    H244431   3.061   1.312   1.656
14830TIP3   OH244432   5.673   5.425   3.668
14830TIP3    H144433   5.708   5.494   3.612
14830TIP3    H244434   5.578   5.435   3.663
   8.30612   7.83109   6.78192   0.00000   0.00000  -2.76870   0.00000  -2.76870  -3.91554
