Title
19942
    1ASP      N    1   3.007   3.066   3.613 -0.1096  0.4477  0.5227
    1ASP    HT1    2   2.999   2.964   3.594 -1.7282  0.5518  0.4848
    1ASP    HT2    3   2.983   3.116   3.525 -0.3889  0.1675  0.4382
    1ASP    HT3    4   2.937   3.085   3.688  0.1523 -0.8684  1.1411
    1ASP     CA    5   3.138   3.102   3.665 -0.0694 -0.5500 -0.3735
    1ASP     HA    6   3.196   3.131   3.579  1.7128 -0.2957  0.8667
    1ASP     CB    7   3.121   3.237   3.744 -0.5803 -0.4897  0.3152
    1ASP    HB1    8   3.087   3.210   3.846 -2.4436 -1.7118 -0.5838
    1ASP    HB2    9   3.048   3.307   3.698 -0.4823 -1.0339 -0.6934
    1ASP     CG   10   3.258   3.313   3.758 -0.2661  0.1266 -0.4295
    1ASP    OD1   11   3.356   3.266   3.695  0.3426 -0.2734  0.2976
    1ASP    OD2   12   3.265   3.412   3.830 -0.2995  0.3840 -0.1384
    1ASP      C   13   3.221   2.991   3.739 -0.6445 -0.6158  0.4997
    1ASP      O   14   3.190   2.875   3.722 -0.0770  0.4360 -0.2786
    2ALA      N   15   3.332   3.025   3.801 -0.0096  0.8059 -0.7779
    2ALA     HN   16   3.365   3.119   3.790  0.0249  0.6554 -2.0591
    2ALA     CA   17   3.413   2.922   3.867 -0.5254  0.0021 -0.0274
    2ALA     HA   18   3.443   2.861   3.783 -1.3993  0.4917 -0.6983
    2ALA     CB   19   3.537   2.994   3.922  0.6453  0.3620  0.0584
    2ALA    HB1   20   3.595   3.042   3.841 -0.6105 -0.4545 -1.3739
    2ALA    HB2   21   3.604   2.917   3.967 -0.6907 -1.1359 -0.4182
    2ALA    HB3   22   3.504   3.065   4.001  0.8990  0.8328 -0.2527
    2ALA      C   23   3.346   2.824   3.974 -0.0658 -0.1943  0.0345
    2ALA      O   24   3.267   2.863   4.062  0.6720  0.0689  0.2507
    3ASP      N   25   3.385   2.689   3.970 -0.4177  1.2681  0.0610
    3ASP     HN   26   3.455   2.648   3.914 -1.6003 -2.0025  0.7533
    3ASP     CA   27   3.328   2.585   4.057  0.5866  0.1936  0.0900
    3ASP     HA   28   3.225   2.585   4.024  0.6263  0.4129 -0.0321
    3ASP     CB   29   3.392   2.446   4.034  0.3857 -0.1531 -0.5421
    3ASP    HB1   30   3.352   2.365   4.099 -0.6890 -0.7905 -1.9428
    3ASP    HB2   31   3.503   2.438   4.031  0.2986 -3.3021  0.5853
    3ASP     CG   32   3.340   2.390   3.902 -0.0749 -0.5392 -0.4478
    3ASP    OD1   33   3.408   2.300   3.844  0.5686  0.2707 -0.9440
    3ASP    OD2   34   3.230   2.428   3.853 -0.5134 -0.1315 -0.3054
    3ASP      C   35   3.331   2.611   4.203 -0.3407 -0.5856 -0.2910
    3ASP      O   36   3.428   2.668   4.255 -0.2548  0.3359  0.3352
    4GLY      N   37   3.221   2.576   4.277 -0.3156 -0.0698 -0.3832
    4GLY     HN   38   3.145   2.547   4.220 -2.0053 -1.0458  2.2326
    4GLY     CA   39   3.198   2.591   4.418  0.6723 -0.2375 -0.2853
    4GLY    HA1   40   3.103   2.542   4.436 -0.3329  1.0171 -1.8650
    4GLY    HA2   41   3.205   2.698   4.431  1.5367 -0.1709 -1.1665
    4GLY      C   42   3.294   2.525   4.517 -0.1347 -1.0701  0.1892
    4GLY      O   43   3.370   2.435   4.488  0.0437  0.0285 -0.0712
    5PRO      N   44   3.289   2.569   4.645  0.3762  1.0146 -0.0252
    5PRO     CD   45   3.207   2.681   4.700  0.6079 -0.2473 -0.2039
    5PRO    HD1   46   3.100   2.655   4.681  0.7812  0.8820 -3.4004
    5PRO    HD2   47   3.227   2.768   4.633 -0.8849  0.0040 -0.3598
    5PRO     CA   48   3.379   2.512   4.747 -0.2516 -0.3508 -0.7390
    5PRO     HA   49   3.476   2.505   4.700 -1.7718  1.6823 -4.6775
    5PRO     CB   50   3.363   2.612   4.865  0.1385  0.1397 -0.0531
    5PRO    HB1   51   3.437   2.692   4.844  0.5818 -0.2494  0.0032
    5PRO    HB2   52   3.368   2.575   4.969  0.4375  1.1204  0.2874
    5PRO     CG   53   3.234   2.692   4.849  0.0764  0.3752 -0.5844
    5PRO    HG1   54   3.153   2.648   4.910 -0.9528 -2.0079 -3.4391
    5PRO    HG2   55   3.242   2.797   4.884 -0.5885  0.6919 -1.3591
    5PRO      C   56   3.322   2.372   4.793  0.1095 -0.3695 -0.5099
    5PRO      O   57   3.206   2.362   4.826  0.2190 -0.3904  0.0227
    6GLY      N   58   3.408   2.271   4.800  0.0935 -0.1655  0.4757
    6GLY     HN   59   3.501   2.282   4.767 -0.2849 -0.3383 -0.6903
    6GLY     CA   60   3.368   2.139   4.848  0.6362 -0.3456 -0.3735
    6GLY    HA1   61   3.434   2.066   4.802 -0.6165  0.0189 -2.9713
    6GLY    HA2   62   3.270   2.115   4.807  1.6010 -3.7109 -1.0408
    6GLY      C   63   3.358   2.124   4.997 -0.1887  0.2074  0.0455
    6GLY      O   64   3.288   2.044   5.056  0.5976  0.6773 -0.2253
    7ASP      N   65   3.439   2.206   5.070 -0.2354 -0.3438  0.2907
    7ASP     HN   66   3.491   2.265   5.008  1.1979 -1.6627  0.1876
    7ASP     CA   67   3.451   2.200   5.213 -0.3482 -0.3721 -0.5761
    7ASP     HA   68   3.437   2.096   5.239 -0.6047 -0.3630 -0.6706
    7ASP     CB   69   3.598   2.238   5.254  1.1093 -0.1006  0.5638
    7ASP    HB1   70   3.610   2.342   5.215 -3.6056  0.4185 -0.0480
    7ASP    HB2   71   3.666   2.171   5.197  0.2917 -1.0653  0.6927
    7ASP     CG   72   3.633   2.236   5.401 -0.5744 -0.9409  0.3435
    7ASP    OD1   73   3.740   2.298   5.439 -0.6794  0.6939  0.2235
    7ASP    OD2   74   3.541   2.187   5.474 -0.2427 -0.1575  0.1873
    7ASP      C   75   3.343   2.285   5.290  0.4089  0.1880  0.2557
    7ASP      O   76   3.315   2.396   5.246 -0.3504 -0.0955  0.3762
    8PRO      N   77   3.274   2.230   5.396 -1.3580 -0.7107 -0.1007
    8PRO     CD   78   3.244   2.090   5.415  0.0322  0.1607  0.3678
    8PRO    HD1   79   3.339   2.042   5.444  0.5010 -0.0010 -1.3680
    8PRO    HD2   80   3.227   2.047   5.314  0.1337 -1.4258  1.0103
    8PRO     CA   81   3.182   2.309   5.474 -0.8183  0.2295  0.6340
    8PRO     HA   82   3.107   2.339   5.402 -0.8706  1.8857  1.3348
    8PRO     CB   83   3.137   2.211   5.582 -0.2941 -0.3760  0.3037
    8PRO    HB1   84   3.033   2.230   5.618 -0.1477  0.2597  0.4023
    8PRO    HB2   85   3.205   2.209   5.670 -0.0491 -0.7294  0.1076
    8PRO     CG   86   3.130   2.074   5.515 -0.2499  0.5409  0.3248
    8PRO    HG1   87   3.148   1.989   5.584  1.6534 -1.2259 -2.1409
    8PRO    HG2   88   3.045   2.051   5.448  0.4782  1.5468 -1.0120
    8PRO      C   89   3.221   2.432   5.542 -0.4697 -0.1098  0.1913
    8PRO      O   90   3.142   2.518   5.579  0.2761 -0.2641 -0.2993
    9ASP      N   91   3.351   2.437   5.574  0.1665  0.3142  0.3735
    9ASP     HN   92   3.402   2.352   5.567 -0.4884 -0.1745  1.2836
    9ASP     CA   93   3.417   2.553   5.636 -0.7541 -0.2305  0.2259
    9ASP     HA   94   3.369   2.578   5.728 -2.8909 -0.6553 -0.7231
    9ASP     CB   95   3.559   2.521   5.674 -0.2992  0.3505 -0.1480
    9ASP    HB1   96   3.610   2.602   5.731  2.3160 -1.4196  0.1982
    9ASP    HB2   97   3.620   2.506   5.582 -0.1702 -0.5993  0.0832
    9ASP     CG   98   3.568   2.396   5.760 -0.0326 -0.1465  0.3788
    9ASP    OD1   99   3.674   2.328   5.748  0.2368 -0.3371 -0.0573
    9ASP    OD2  100   3.474   2.370   5.840  0.6441 -0.6003 -0.3647
    9ASP      C  101   3.420   2.675   5.544  0.1590  0.1801 -0.3345
    9ASP      O  102   3.444   2.789   5.592  0.4040  0.0700 -0.4584
   10ALA      N  103   3.385   2.660   5.416 -1.3690 -0.2475 -0.4680
   10ALA     HN  104   3.367   2.572   5.372  1.6044 -0.4038 -1.6353
   10ALA     CA  105   3.394   2.770   5.324  0.7452 -0.1219  0.5006
   10ALA     HA  106   3.408   2.866   5.371  0.0435 -0.0272  0.5249
   10ALA     CB  107   3.500   2.754   5.208  0.2251  0.0857  0.1495
   10ALA    HB1  108   3.507   2.833   5.130  2.2237 -0.1724  0.0213
   10ALA    HB2  109   3.484   2.659   5.153  1.6308  0.3892 -0.8413
   10ALA    HB3  110   3.600   2.744   5.255  0.5428 -1.3440 -0.7852
   10ALA      C  111   3.257   2.798   5.268  0.3386 -0.4432  0.0514
   10ALA      O  112   3.234   2.873   5.172  0.0733  0.3773 -0.4011
   11GLY      N  113   3.148   2.741   5.329 -0.6946  0.1203 -0.4912
   11GLY     HN  114   3.161   2.675   5.402  2.5829 -1.6164 -2.4361
   11GLY     CA  115   3.009   2.766   5.299  0.2080 -0.8014 -0.4708
   11GLY    HA1  116   2.949   2.694   5.351 -1.0180  1.5578  1.5530
   11GLY    HA2  117   3.000   2.762   5.191  0.1265 -0.3584 -0.4824
   11GLY      C  118   2.956   2.899   5.346 -0.2274 -0.7456  0.4790
   11GLY    OT1  119   3.023   2.976   5.424 -0.2288  0.0392  0.0525
   11GLY    OT2  120   2.848   2.943   5.295  0.5493  0.7128 -0.2210
   12LIT    LIT  121   3.243   0.040   3.926 -0.2073  0.0967  0.6457
   13LIT    LIT  122   0.183   5.725   3.007  0.9374  0.0926 -0.4041
   14LIT    LIT  123   4.323   0.518   3.224 -0.0548  0.8775 -0.2721
   15LIT    LIT  124   5.392   4.694   0.458  0.8464 -0.2326 -1.0891
   16LIT    LIT  125   4.277   0.624   0.729  0.3317  0.3576  0.2536
   17LIT    LIT  126   4.656   4.743   2.506  0.3666 -0.1527 -0.5649
   18LIT    LIT  127   3.097   1.681   4.949  0.9130  0.6788  0.6154
   19LIT    LIT  128   5.905   5.339   0.418  0.8139  0.7655  0.2372
   20LIT    LIT  129   3.365   5.751   0.748 -0.1673 -0.6674 -0.0207
   21LIT    LIT  130   3.324   2.250   3.691 -0.6983  1.1351 -0.2536
   22LIT    LIT  131   1.036   1.677   3.150 -0.4158  0.5546 -0.1395
   23LIT    LIT  132   2.432   2.097   1.504  0.0706  0.4484  0.3804
   24LIT    LIT  133   3.958   3.183   3.023  0.4281  0.0732  0.4825
   25LIT    LIT  134   2.528   4.429   1.620  0.2053  0.2517  0.1380
   26LIT    LIT  135   0.998   5.527   1.756 -0.8081 -1.2755 -0.0465
   27LIT    LIT  136   0.087   4.818   1.191  0.7545 -1.2152 -0.6732
   28LIT    LIT  137   4.107   2.376   3.675 -0.7520 -0.8474  0.2407
   29LIT    LIT  138   2.673   4.040   3.035 -0.4489  0.0018  0.2085
   30LIT    LIT  139   4.906   0.619   5.080 -0.2725 -0.5693  0.0084
   31LIT    LIT  140   0.723   0.072   0.249 -0.5313  0.3538  0.1988
   32LIT    LIT  141   2.107   4.868   4.141  1.4144 -1.2268 -0.4435
   33LIT    LIT  142   5.609   5.567   1.036  1.0438 -0.0947 -0.1729
   34CLA    CLA  143   0.278   2.654   3.468 -0.1264 -0.1001  0.2696
   35CLA    CLA  144   5.071   4.737   2.333  0.0519 -0.1326  0.1705
   36CLA    CLA  145   3.765   1.754   2.934  0.1509 -0.0775  0.4621
   37CLA    CLA  146   4.540   2.903   2.721  0.0688  0.2105 -0.0179
   38CLA    CLA  147   6.196   4.834   3.023 -0.2123  0.1625  0.1144
   39CLA    CLA  148   5.204   4.082   0.403  0.1193  0.1235  0.1554
   40CLA    CLA  149   0.101   3.699   5.146 -0.4176  0.0263 -0.6075
   41CLA    CLA  150   3.405   5.638   3.411 -0.1215  0.3838 -0.5825
   42CLA    CLA  151   2.299   1.434   1.405  0.3465  0.4553  0.1171
   43CLA    CLA  152   2.729   4.978   4.053 -0.4539  0.1758  0.5093
   44CLA    CLA  153   6.224   2.991   1.548 -0.0592 -0.4382  0.1156
   45CLA    CLA  154   2.129   1.882   3.095 -0.1895  0.1551 -0.1057
   46CLA    CLA  155   3.128   4.204   2.061 -0.3457 -0.4548 -0.0994
   47CLA    CLA  156   0.625   3.792   5.107 -0.1874 -0.2261  0.0521
   48CLA    CLA  157   4.644   0.393   3.596  0.1856 -0.0118  0.1849
   49CLA    CLA  158   0.875   2.270   2.259 -0.1993  0.1610  0.1758
   50CLA    CLA  159   6.172   1.039   5.061  0.1020  0.1638 -0.1438
   51CLA    CLA  160   4.671   2.844   1.033 -0.0515  0.4856 -0.2439
   52TIP3   OH2  161   2.238   0.952   4.419  0.2941 -0.3996 -0.3236
   52TIP3    H1  162   2.146   0.929   4.404  0.4452 -0.6812 -0.8326
   52TIP3    H2  163   2.238   1.047   4.430 -0.0749 -0.4148 -0.1872
   53TIP3   OH2  164   4.166   1.262   3.897 -0.3224 -1.4276 -0.1103
   53TIP3    H1  165   4.180   1.222   3.811  0.2488 -2.8859  0.6116
   53TIP3    H2  166   4.244   1.237   3.948 -0.4558 -0.2451  0.7061
   54TIP3   OH2  167   0.537   5.665   2.512 -0.0632  0.3438  0.1003
   54TIP3    H1  168   0.522   5.605   2.439 -0.9551  0.1067  0.4676
   54TIP3    H2  169   0.630   5.653   2.533 -0.0057 -0.2231 -0.4304
   55TIP3   OH2  170   5.466   3.846   4.024 -1.1199 -0.2248 -0.7040
   55TIP3    H1  171   5.440   3.801   3.944  1.1248 -0.6663 -1.2403
   55TIP3    H2  172   5.467   3.777   4.091 -0.1194 -0.4784 -0.9699
   56TIP3   OH2  173   5.943   4.102   2.173 -0.5018  0.1634 -0.2097
   56TIP3    H1  174   6.017   4.098   2.111  0.7837  1.6478  1.1279
   56TIP3    H2  175   5.874   4.051   2.131  1.7728 -2.7463 -0.8300
   57TIP3   OH2  176   6.041   5.808   3.324  0.7464  0.6931 -0.4627
   57TIP3    H1  177   6.132   5.808   3.293  0.9698  1.2510  0.1662
   57TIP3    H2  178   6.010   5.897   3.308  0.5634  0.7234  0.0437
   58TIP3   OH2  179   1.201   5.613   0.150  0.2448 -0.5977 -0.0439
   58TIP3    H1  180   1.279   5.667   0.164  1.1504 -1.3230 -1.9816
   58TIP3    H2  181   1.173   5.634   0.061 -0.2902 -2.1883 -0.2850
   59TIP3   OH2  182   4.293   4.175   2.875  0.5535  0.5595 -0.5722
   59TIP3    H1  183   4.198   4.173   2.864  0.5230 -0.3318 -0.1739
   59TIP3    H2  184   4.324   4.231   2.804 -0.2100  0.2936 -1.1234
   60TIP3   OH2  185   4.033   1.146   0.633  0.2555 -0.0704 -0.7844
   60TIP3    H1  186   4.042   1.051   0.647  2.5742 -0.1862 -2.3616
   60TIP3    H2  187   3.943   1.166   0.657  0.2909 -2.2739  1.6645
   61TIP3   OH2  188   4.410   0.607   1.866 -0.1766  0.7964 -0.7314
   61TIP3    H1  189   4.459   0.687   1.883  0.8308  0.3117 -1.2792
   61TIP3    H2  190   4.366   0.623   1.783  0.7478  0.4571 -1.2953
   62TIP3   OH2  191   3.573   2.197   2.953 -0.0690  0.1062 -0.0716
   62TIP3    H1  192   3.662   2.231   2.958 -0.0237 -0.0867  0.5432
   62TIP3    H2  193   3.549   2.181   3.044 -0.6525 -0.0480 -0.2514
   63TIP3   OH2  194   3.452   5.573   3.936  0.3363  0.3825  0.5479
   63TIP3    H1  195   3.444   5.542   3.845  0.7078  1.1301  0.2555
   63TIP3    H2  196   3.475   5.494   3.986  0.9947  0.1275 -0.1422
   64TIP3   OH2  197   4.886   5.827   1.431 -0.5265  0.0920  1.0413
   64TIP3    H1  198   4.807   5.834   1.377 -0.4787  1.0963  1.0910
   64TIP3    H2  199   4.858   5.857   1.518  0.0451  1.0170  0.9156
   65TIP3   OH2  200   4.756   0.159   3.110  0.4528  0.0537  0.2309
   65TIP3    H1  201   4.841   0.118   3.125  0.2084 -0.2323  0.8816
   65TIP3    H2  202   4.718   0.167   3.197 -0.4997 -0.5198 -0.1160
   66TIP3   OH2  203   1.607   5.523   4.421  0.1150 -0.2566  0.6620
   66TIP3    H1  204   1.527   5.478   4.449  0.1720  0.2072  1.6261
   66TIP3    H2  205   1.592   5.615   4.444  0.3610  0.0788 -0.4628
   67TIP3   OH2  206   3.921   2.820   0.793 -0.4248  0.4438 -0.4749
   67TIP3    H1  207   3.935   2.726   0.784 -0.9719  0.2574  0.4489
   67TIP3    H2  208   3.885   2.830   0.881 -0.6861  1.4842 -0.6893
   68TIP3   OH2  209   2.794   3.447   0.271  0.0774  0.0130 -0.4187
   68TIP3    H1  210   2.841   3.365   0.285 -0.5741 -0.1408  1.0208
   68TIP3    H2  211   2.775   3.448   0.177 -1.3850 -2.3268 -0.2339
   69TIP3   OH2  212   4.018   2.111   2.163  0.1150  0.1008 -0.4346
   69TIP3    H1  213   4.048   2.132   2.251  1.8183  2.7777 -1.5057
   69TIP3    H2  214   4.092   2.135   2.106 -1.2954 -0.5044 -2.6736
   70TIP3   OH2  215   3.885   3.004   3.698  0.2145  0.2169  0.1340
   70TIP3    H1  216   3.895   2.921   3.745  1.2331  0.8997  1.1795
   70TIP3    H2  217   3.803   2.995   3.650  0.2805 -1.3705  0.2664
   71TIP3   OH2  218   1.631   5.608   0.890  0.4594 -0.8136  0.4902
   71TIP3    H1  219   1.591   5.649   0.814  0.4575 -0.6979  0.5539
   71TIP3    H2  220   1.560   5.601   0.954  0.8257  0.5854  1.0974
   72TIP3   OH2  221   4.929   2.008   1.204  0.3412  0.5508  0.0588
   72TIP3    H1  222   4.929   2.010   1.108  0.2438 -0.2021  0.0388
   72TIP3    H2  223   4.843   1.972   1.227  1.3047 -1.7167  0.3561
   73TIP3   OH2  224   2.997   1.850   3.356  0.2063 -0.0637 -0.0394
   73TIP3    H1  225   2.970   1.766   3.393  1.1324  0.0517  0.9391
   73TIP3    H2  226   3.092   1.845   3.350  0.1234 -0.1281 -2.5975
   74TIP3   OH2  227   1.407   2.085   3.483  0.2840  0.0848 -0.6909
   74TIP3    H1  228   1.321   2.043   3.488  0.0887  0.5683  0.5455
   74TIP3    H2  229   1.391   2.165   3.433  0.1997 -0.2428 -1.1939
   75TIP3   OH2  230   4.401   3.498   3.700  0.3120 -0.1936 -0.4519
   75TIP3    H1  231   4.415   3.447   3.779  0.8225  1.1771  0.3769
   75TIP3    H2  232   4.359   3.437   3.639  0.4199 -1.4270  0.6661
   76TIP3   OH2  233   3.862   3.268   2.873  0.6927 -0.1171  0.0570
   76TIP3    H1  234   3.869   3.354   2.830  1.2086  0.2324  0.8130
   76TIP3    H2  235   3.768   3.256   2.887  0.5762  0.0982 -0.5012
   77TIP3   OH2  236   4.405   1.128   3.977 -0.0738 -0.1514  0.1978
   77TIP3    H1  237   4.475   1.081   3.933 -0.8567 -1.7741  0.6140
   77TIP3    H2  238   4.377   1.070   4.048 -0.7254  1.1800  1.0795
   78TIP3   OH2  239   1.150   4.103   2.591  0.3650  0.6360  0.0685
   78TIP3    H1  240   1.194   4.089   2.508 -1.3646  0.8500 -0.9193
   78TIP3    H2  241   1.166   4.022   2.641  0.2291 -0.0939 -1.0380
   79TIP3   OH2  242   6.054   0.294   0.752  0.4711  0.2512  0.5487
   79TIP3    H1  243   6.092   0.368   0.799 -0.5064  0.4935  0.9949
   79TIP3    H2  244   6.103   0.218   0.782  0.5283  0.5404  1.2012
   80TIP3   OH2  245   4.435   0.249   1.348 -0.1642 -0.4559 -0.4113
   80TIP3    H1  246   4.482   0.168   1.331  3.3807  1.6826 -1.8595
   80TIP3    H2  247   4.448   0.265   1.442 -1.2351 -1.6609 -0.0267
   81TIP3   OH2  248   4.057   1.937   4.267  0.3769  0.1574  0.1746
   81TIP3    H1  249   4.124   1.934   4.200  0.4541 -1.3622  0.2677
   81TIP3    H2  250   4.105   1.949   4.349  0.4800 -0.1531  0.1624
   82TIP3   OH2  251   2.193   5.423   4.262 -0.0482  0.8527 -0.0370
   82TIP3    H1  252   2.162   5.444   4.350  1.8383  0.3585  0.7909
   82TIP3    H2  253   2.288   5.418   4.270  0.0884 -0.5804 -1.8017
   83TIP3   OH2  254   1.456   4.593   2.707 -0.2488 -0.8793 -0.7657
   83TIP3    H1  255   1.377   4.634   2.672 -2.4797 -2.2571  2.1467
   83TIP3    H2  256   1.508   4.666   2.742 -1.4242 -0.0831 -0.6170
   84TIP3   OH2  257   0.265   0.940   3.205 -0.2590 -0.5732 -0.2814
   84TIP3    H1  258   0.233   0.851   3.223 -2.1587  0.2664  0.7227
   84TIP3    H2  259   0.204   0.974   3.140 -0.6174  0.5942  0.6370
   85TIP3   OH2  260   2.162   2.195   3.266 -0.4612  0.3613 -0.3349
   85TIP3    H1  261   2.129   2.154   3.186  2.0953  0.1228 -1.3827
   85TIP3    H2  262   2.148   2.131   3.335 -2.9457  0.6696 -0.4636
   86TIP3   OH2  263   4.111   5.868   2.293 -0.0497  0.2292 -0.5212
   86TIP3    H1  264   4.059   5.936   2.250 -0.8949 -1.5605 -2.5383
   86TIP3    H2  265   4.066   5.852   2.376 -0.4225  1.4206 -0.4827
   87TIP3   OH2  266   2.249   0.309   4.935  0.0836 -0.2577  0.2790
   87TIP3    H1  267   2.164   0.281   4.968 -0.9653  1.4260 -0.8366
   87TIP3    H2  268   2.244   0.295   4.841  0.9968 -0.0087  0.1833
   88TIP3   OH2  269   5.788   5.865   1.262 -0.0232 -0.7776 -0.2759
   88TIP3    H1  270   5.875   5.847   1.226 -0.1360 -3.4296  0.5752
   88TIP3    H2  271   5.797   5.850   1.356 -0.9882  0.7719  0.0979
   89TIP3   OH2  272   5.318   0.790   3.387  0.4901  0.0835 -0.3727
   89TIP3    H1  273   5.348   0.739   3.462  0.9900 -0.0292 -0.6466
   89TIP3    H2  274   5.396   0.801   3.332  0.1312  0.1742 -0.8709
   90TIP3   OH2  275   2.607   0.949   1.974 -0.0185  0.5634  0.5678
   90TIP3    H1  276   2.554   1.002   1.915 -0.3063 -0.0263  0.2903
   90TIP3    H2  277   2.609   0.862   1.933  0.3919  0.3401  1.0499
   91TIP3   OH2  278   0.224   0.512   3.385  0.4063 -0.6558  0.0004
   91TIP3    H1  279   0.306   0.485   3.346  1.9100  1.1142  1.7039
   91TIP3    H2  280   0.241   0.601   3.417 -2.4897  0.1767 -0.4628
   92TIP3   OH2  281   4.011   1.718   3.273  0.2663  0.0524  0.3852
   92TIP3    H1  282   4.077   1.658   3.238 -1.1145 -1.9174  0.9751
   92TIP3    H2  283   3.932   1.698   3.223 -1.1173 -1.0917  2.8517
   93TIP3   OH2  284   4.586   1.638   0.407 -0.2262  0.0398  0.4078
   93TIP3    H1  285   4.574   1.575   0.337 -0.1458 -0.8155  1.1488
   93TIP3    H2  286   4.524   1.708   0.388 -0.8060 -0.5915 -0.0485
   94TIP3   OH2  287   0.237   5.334   2.387  0.6077  0.5618 -0.4866
   94TIP3    H1  288   0.155   5.321   2.433  0.7663  0.9531 -0.0845
   94TIP3    H2  289   0.279   5.248   2.388  0.3227  0.4217 -0.4643
   95TIP3   OH2  290   5.334   5.883   4.760 -0.0168  0.4159  0.2556
   95TIP3    H1  291   5.420   5.850   4.787 -0.6605  0.1836  2.1569
   95TIP3    H2  292   5.298   5.925   4.838 -1.8962 -0.0455 -0.2932
   96TIP3   OH2  293   4.842   3.420   0.727 -0.4732 -0.4245 -0.0696
   96TIP3    H1  294   4.845   3.468   0.809  0.8840  1.0903 -0.9416
   96TIP3    H2  295   4.790   3.475   0.668  0.4393 -0.3845 -0.8629
   97TIP3   OH2  296   0.339   1.410   3.390 -0.0005  0.1318  0.5379
   97TIP3    H1  297   0.290   1.344   3.440 -3.0203  1.3069 -0.6633
   97TIP3    H2  298   0.346   1.485   3.450  1.0043 -0.2596  0.9378
   98TIP3   OH2  299   3.421   5.647   2.151 -0.5004 -0.1631 -0.2088
   98TIP3    H1  300   3.397   5.706   2.222  1.4142 -1.6129  1.7540
   98TIP3    H2  301   3.337   5.620   2.113 -1.4799  2.4190 -0.0754
   99TIP3   OH2  302   4.595   2.638   0.645  0.1918  0.2166 -0.4366
   99TIP3    H1  303   4.543   2.654   0.724 -1.3867 -0.4009 -1.3062
   99TIP3    H2  304   4.666   2.580   0.674  0.7098  1.4337  0.8675
  100TIP3   OH2  305   2.541   0.061   0.489  0.5232 -0.1472  0.2338
  100TIP3    H1  306   2.594   0.139   0.505 -0.2505  0.1183  1.7813
  100TIP3    H2  307   2.546   0.012   0.572 -1.9531  0.1031  0.5938
  101TIP3   OH2  308   2.346   1.140   3.893 -0.1104 -0.2218  0.2559
  101TIP3    H1  309   2.275   1.194   3.861 -0.1905  0.3224  1.3121
  101TIP3    H2  310   2.392   1.111   3.814  0.4251  2.0350 -0.3201
  102TIP3   OH2  311   4.793   2.875   2.537 -0.1322  0.2997  0.3448
  102TIP3    H1  312   4.837   2.960   2.531  0.8692 -0.2012  0.3765
  102TIP3    H2  313   4.732   2.885   2.610  0.8671  0.6191  1.1648
  103TIP3   OH2  314   0.083   1.844   1.955  0.3731 -0.3281 -0.1932
  103TIP3    H1  315   0.110   1.913   1.894  1.9246 -1.8657 -1.3552
  103TIP3    H2  316   0.001   1.811   1.920 -0.7777  1.3699  0.7911
  104TIP3   OH2  317   2.897   4.714   0.121 -0.4248 -0.1167 -0.5331
  104TIP3    H1  318   2.927   4.787   0.066  1.2423 -0.8908 -0.7098
  104TIP3    H2  319   2.854   4.654   0.060  1.9035 -1.2389 -1.1828
  105TIP3   OH2  320   1.130   2.049   2.304  0.4646 -0.3818 -0.3268
  105TIP3    H1  321   1.067   1.976   2.307  0.9063 -0.7334  1.2241
  105TIP3    H2  322   1.076   2.127   2.312  0.1078 -0.6026 -0.5058
  106TIP3   OH2  323   3.433   2.581   1.122  0.1215 -0.1551  0.1670
  106TIP3    H1  324   3.403   2.514   1.061 -1.8146  0.8746 -0.0979
  106TIP3    H2  325   3.497   2.632   1.073  1.5721 -1.7137  0.3517
  107TIP3   OH2  326   3.676   1.820   2.150 -0.1750 -1.2191 -0.5878
  107TIP3    H1  327   3.689   1.796   2.058 -1.8988 -2.8661 -0.4584
  107TIP3    H2  328   3.581   1.824   2.161 -0.0265 -2.0505  1.3510
  108TIP3   OH2  329   0.111   2.409   1.265 -0.0485 -0.0015  0.0280
  108TIP3    H1  330   0.128   2.493   1.222  2.6821  0.7969  2.3422
  108TIP3    H2  331   0.163   2.345   1.217  0.2471  0.2265  0.0418
  109TIP3   OH2  332   0.317   3.074   3.322 -0.4344 -0.1348 -0.0497
  109TIP3    H1  333   0.395   3.019   3.318  0.1743  0.6871  0.2683
  109TIP3    H2  334   0.278   3.056   3.407 -0.1338  0.0556  0.1302
  110TIP3   OH2  335   3.604   2.657   3.772 -0.2194 -0.2068 -0.2042
  110TIP3    H1  336   3.637   2.741   3.741 -0.4352  0.2526  0.7975
  110TIP3    H2  337   3.602   2.602   3.693 -0.8751  0.9747 -1.0464
  111TIP3   OH2  338   4.842   2.884   0.775  0.0369  0.2368 -0.3087
  111TIP3    H1  339   4.817   2.966   0.735  1.9673  1.6883  1.2561
  111TIP3    H2  340   4.793   2.881   0.857 -0.6700 -0.6397 -0.7358
  112TIP3   OH2  341   2.456   5.334   3.744  0.0937 -0.7167 -0.1242
  112TIP3    H1  342   2.500   5.283   3.812 -0.6699  0.2151  1.1076
  112TIP3    H2  343   2.459   5.278   3.666  1.5052 -1.5624  0.5074
  113TIP3   OH2  344   1.038   4.305   4.187 -0.1563  0.1246 -0.0140
  113TIP3    H1  345   1.078   4.340   4.107  0.5683  1.6378  0.9644
  113TIP3    H2  346   0.965   4.365   4.205 -1.9230 -1.6484 -0.8564
  114TIP3   OH2  347   4.900   5.276   3.373  0.4285  0.4094 -0.0893
  114TIP3    H1  348   4.904   5.335   3.298 -0.5870  1.1757  0.4329
  114TIP3    H2  349   4.988   5.275   3.409  0.1449  2.9304  0.8720
  115TIP3   OH2  350   6.303   4.465   3.227 -0.7458  0.2175 -0.3040
  115TIP3    H1  351   6.295   4.546   3.276 -0.5001 -0.0448  0.1797
  115TIP3    H2  352   6.229   4.466   3.166  0.2584  1.6543 -1.5816
  116TIP3   OH2  353   4.145   2.920   0.451  0.1693  0.5083  0.3733
  116TIP3    H1  354   4.185   2.839   0.419  2.3592  0.9853  1.7180
  116TIP3    H2  355   4.153   2.981   0.377 -1.8102 -0.5103 -0.7744
  117TIP3   OH2  356   0.155   3.167   3.848 -0.2567 -0.6132  0.4230
  117TIP3    H1  357   0.064   3.180   3.823 -0.5507 -0.6178  1.4457
  117TIP3    H2  358   0.173   3.238   3.910  0.2928 -0.8883  0.5837
  118TIP3   OH2  359   3.472   2.031   4.523  0.5132 -0.2881  0.2499
  118TIP3    H1  360   3.477   2.034   4.428  0.3306  0.0152  0.2504
  118TIP3    H2  361   3.382   2.054   4.544  0.5981 -0.1746  0.5043
  119TIP3   OH2  362   4.105   4.492   1.187 -0.5540  0.1219 -0.3873
  119TIP3    H1  363   4.125   4.467   1.097  1.3102  3.1083 -0.9432
  119TIP3    H2  364   4.083   4.585   1.182  1.6088  0.9387  2.3633
  120TIP3   OH2  365   0.104   0.474   2.682 -0.7488  0.3472 -0.2158
  120TIP3    H1  366   0.041   0.541   2.655 -0.9024  0.4667  0.4413
  120TIP3    H2  367   0.170   0.522   2.732  2.4559  1.1601 -4.5598
  121TIP3   OH2  368   3.084   5.466   0.214  0.4310  0.5541 -0.3989
  121TIP3    H1  369   3.115   5.523   0.144  0.9586  0.2622 -0.4125
  121TIP3    H2  370   3.028   5.402   0.169  0.4105  0.6338 -0.4874
  122TIP3   OH2  371   1.352   5.236   1.057 -0.0349  0.0920 -0.2252
  122TIP3    H1  372   1.368   5.307   1.119  0.7272  0.5501 -0.9173
  122TIP3    H2  373   1.436   5.225   1.012 -0.9440  0.7100 -2.1351
  123TIP3   OH2  374   5.989   1.218   1.046  0.2060 -0.1233 -0.0780
  123TIP3    H1  375   5.944   1.227   0.962  1.2717  1.3905 -0.5351
  123TIP3    H2  376   6.028   1.304   1.062  0.7109 -0.6134  1.5790
  124TIP3   OH2  377   2.731   2.954   0.694 -0.1844 -0.5052  0.2412
  124TIP3    H1  378   2.670   2.897   0.648 -0.6005  0.4545 -0.4262
  124TIP3    H2  379   2.718   3.040   0.654  1.9683 -0.3707 -0.2802
  125TIP3   OH2  380   4.405   2.142   5.206 -0.6544  0.2558  0.4184
  125TIP3    H1  381   4.406   2.237   5.216 -0.5923  0.4949 -1.5195
  125TIP3    H2  382   4.438   2.127   5.118  4.0159 -1.8220  2.1742
  126TIP3   OH2  383   5.172   2.445   1.890  0.1380 -0.2482  0.4423
  126TIP3    H1  384   5.148   2.373   1.832 -0.9312 -0.3434  0.9930
  126TIP3    H2  385   5.268   2.451   1.881  0.0780 -0.7764 -0.7108
  127TIP3   OH2  386   2.276   5.226   2.794 -0.2592 -0.0674 -0.1240
  127TIP3    H1  387   2.337   5.160   2.828  0.9838  0.9325 -0.3158
  127TIP3    H2  388   2.307   5.243   2.705 -0.8127  0.4706 -0.2153
  128TIP3   OH2  389   3.021   5.603   3.729  0.1356 -0.0566  0.1288
  128TIP3    H1  390   3.081   5.624   3.657 -0.9887  0.7128 -0.6025
  128TIP3    H2  391   3.000   5.510   3.715 -0.2345  0.1382 -0.6713
  129TIP3   OH2  392   5.216   2.297   1.070 -0.0810  0.1454  0.1310
  129TIP3    H1  393   5.172   2.291   1.154 -0.9105  0.0189 -0.3004
  129TIP3    H2  394   5.148   2.331   1.010  0.8887  1.6596 -0.1764
  130TIP3   OH2  395   3.664   3.687   2.278  0.0584  0.4024 -0.6086
  130TIP3    H1  396   3.607   3.619   2.245 -0.8043  0.9832 -0.3580
  130TIP3    H2  397   3.653   3.684   2.373  0.3171  0.6248 -0.5695
  131TIP3   OH2  398   1.868   1.287   0.035 -0.1620  0.1619  0.2192
  131TIP3    H1  399   1.898   1.359   0.091 -0.7984 -0.2650  1.1289
  131TIP3    H2  400   1.779   1.269   0.064 -0.7155  0.2863 -1.3134
  132TIP3   OH2  401   2.967   1.163   3.079  0.3234  0.3103 -0.2530
  132TIP3    H1  402   2.938   1.181   3.169 -0.7550  1.6218 -0.8313
  132TIP3    H2  403   2.925   1.080   3.057 -0.9197  0.8874 -0.1568
  133TIP3   OH2  404   1.971   0.868   0.499  0.5954  0.1513 -0.0127
  133TIP3    H1  405   1.995   0.959   0.514 -0.3298  0.3891  0.0613
  133TIP3    H2  406   1.882   0.860   0.533  0.2495 -0.4973 -1.0006
  134TIP3   OH2  407   1.921   3.121   0.141  0.3860  0.3778  0.2163
  134TIP3    H1  408   1.843   3.146   0.191 -2.3289 -2.8393 -1.9224
  134TIP3    H2  409   1.895   3.132   0.050  1.7524 -2.2706 -0.6119
  135TIP3   OH2  410   2.198   1.601   1.092  0.1568 -0.0315  0.0830
  135TIP3    H1  411   2.106   1.573   1.093 -0.1796  0.9738 -0.9267
  135TIP3    H2  412   2.235   1.564   1.172 -1.4532  0.6304  1.1882
  136TIP3   OH2  413   4.770   4.108   4.350  0.5119 -0.5591 -0.2522
  136TIP3    H1  414   4.804   4.147   4.269  0.3145 -1.6152 -0.8651
  136TIP3    H2  415   4.796   4.016   4.345 -0.3093 -0.8388  0.4408
  137TIP3   OH2  416   3.333   0.563   1.531 -0.5709 -0.4271 -0.3175
  137TIP3    H1  417   3.352   0.480   1.488 -0.3147 -0.1986 -0.6465
  137TIP3    H2  418   3.243   0.554   1.563 -0.3931 -0.9922  0.0328
  138TIP3   OH2  419   4.257   4.662   4.013 -0.5613 -0.1009 -0.5591
  138TIP3    H1  420   4.216   4.576   3.998  1.4310 -0.9929 -1.2959
  138TIP3    H2  421   4.347   4.651   3.982  0.2802  1.7220  1.0271
  139TIP3   OH2  422   5.588   2.502   4.830  0.3614 -0.3387  0.0050
  139TIP3    H1  423   5.640   2.573   4.867 -1.1940  0.7442  0.2003
  139TIP3    H2  424   5.527   2.545   4.771 -1.0610 -1.4235  0.6249
  140TIP3   OH2  425   5.449   1.381   3.757 -0.1212  0.0748 -0.3330
  140TIP3    H1  426   5.433   1.466   3.717  0.3510 -0.1940 -1.1175
  140TIP3    H2  427   5.520   1.397   3.820  0.9936  0.0068 -1.5150
  141TIP3   OH2  428   3.952   1.962   1.422 -0.4247 -0.3936 -0.7771
  141TIP3    H1  429   3.937   2.016   1.501  0.0458  0.2584 -1.1235
  141TIP3    H2  430   4.014   2.013   1.370 -1.6477 -0.2459 -2.1395
  142TIP3   OH2  431   2.911   1.279   2.061 -0.1630 -0.3008 -0.3828
  142TIP3    H1  432   2.961   1.354   2.029  0.4929 -0.3160  0.5369
  142TIP3    H2  433   2.881   1.234   1.982 -1.3367  1.4043 -0.9602
  143TIP3   OH2  434   2.220   0.961   2.921  0.4237  0.0879  0.4656
  143TIP3    H1  435   2.142   0.906   2.916  0.6346 -0.1908  0.1935
  143TIP3    H2  436   2.283   0.918   2.864  0.2010  1.2640 -0.7011
  144TIP3   OH2  437   3.294   4.499   1.106 -0.2093 -0.2420  0.2427
  144TIP3    H1  438   3.246   4.438   1.049 -0.1941 -0.9149  0.9365
  144TIP3    H2  439   3.386   4.487   1.083 -0.2117 -0.4270  0.3343
  145TIP3   OH2  440   3.718   2.393   1.553  0.2710  0.1299  0.4401
  145TIP3    H1  441   3.667   2.474   1.553 -0.7613 -0.4903  0.1159
  145TIP3    H2  442   3.809   2.421   1.546 -0.1130  1.2421 -0.4051
  146TIP3   OH2  443   0.278   4.130   5.008 -0.6438 -0.5216 -0.0729
  146TIP3    H1  444   0.245   4.051   4.966 -2.3827 -0.3854  0.9445
  146TIP3    H2  445   0.323   4.099   5.087 -2.1482 -0.4830  0.8332
  147TIP3   OH2  446   3.450   2.772   1.358  0.1275 -0.2728 -0.0282
  147TIP3    H1  447   3.411   2.714   1.292  0.9032 -0.0887 -0.6664
  147TIP3    H2  448   3.479   2.849   1.308  1.4262 -0.4656  0.3941
  148TIP3   OH2  449   6.185   0.009   1.506  0.1574  0.2604  0.4682
  148TIP3    H1  450   6.160   0.095   1.472  0.1059  0.0017 -0.1497
  148TIP3    H2  451   6.148   0.007   1.595 -1.1720  0.2779 -0.0638
  149TIP3   OH2  452   3.700   0.433   3.098 -0.3501  0.0559  0.0631
  149TIP3    H1  453   3.606   0.450   3.113 -0.9847 -1.7828 -1.5613
  149TIP3    H2  454   3.730   0.394   3.180 -1.2256 -0.2106  0.2669
  150TIP3   OH2  455   4.010   5.456   0.619 -0.2212 -0.2462 -0.2588
  150TIP3    H1  456   4.040   5.366   0.632  0.1414  0.0492  1.1482
  150TIP3    H2  457   4.077   5.510   0.660 -1.6577  0.5275  1.1817
  151TIP3   OH2  458   2.787   2.574   0.454  0.1704  0.2997  0.7060
  151TIP3    H1  459   2.754   2.653   0.412  0.8869  0.1859 -0.0905
  151TIP3    H2  460   2.756   2.581   0.544 -1.1697  0.6742  0.2414
  152TIP3   OH2  461   5.319   4.360   4.549 -0.0184 -0.0012  0.8032
  152TIP3    H1  462   5.354   4.328   4.466 -2.7739 -1.4096  0.0399
  152TIP3    H2  463   5.247   4.418   4.523 -0.1374  0.5164  2.2092
  153TIP3   OH2  464   3.449   5.876   3.804 -0.4203 -0.0747 -0.4022
  153TIP3    H1  465   3.532   5.830   3.804 -1.0731 -1.3087  0.7799
  153TIP3    H2  466   3.428   5.888   3.896 -1.5384  0.2362 -0.6820
  154TIP3   OH2  467   5.493   4.828   2.519 -0.3483 -0.2205 -0.0832
  154TIP3    H1  468   5.445   4.748   2.540  1.5549 -1.2599  0.5695
  154TIP3    H2  469   5.541   4.807   2.439  0.7949 -0.0279  0.5399
  155TIP3   OH2  470   1.609   0.164   1.568  0.0617  0.4866 -0.5338
  155TIP3    H1  471   1.525   0.207   1.586  0.6397  0.7642  1.8580
  155TIP3    H2  472   1.667   0.236   1.543  0.0688  0.5947 -0.2231
  156TIP3   OH2  473   0.057   1.431   0.748 -0.2144  0.2168 -0.3813
  156TIP3    H1  474   0.099   1.427   0.663 -0.5188 -1.0532 -0.4908
  156TIP3    H2  475   0.109   1.495   0.798  0.7696 -0.0286 -1.0670
  157TIP3   OH2  476   1.724   1.864   3.764 -0.0545 -0.9515  0.2337
  157TIP3    H1  477   1.653   1.923   3.739  1.2482  1.0582  0.9409
  157TIP3    H2  478   1.793   1.880   3.700  0.5748 -1.1819  0.8326
  158TIP3   OH2  479   1.666   0.552   0.792  0.5840  0.1422 -0.0563
  158TIP3    H1  480   1.636   0.519   0.877 -0.4412 -0.0165 -0.4613
  158TIP3    H2  481   1.602   0.518   0.729  1.7479 -0.3749 -1.0085
  159TIP3   OH2  482   4.197   0.131   3.552 -0.5629 -0.0317  0.0997
  159TIP3    H1  483   4.221   0.219   3.580 -0.3687  0.4944 -1.6142
  159TIP3    H2  484   4.259   0.111   3.482 -1.6700 -0.8491 -0.6767
  160TIP3   OH2  485   3.991   4.410   3.384 -0.3438  0.1584 -0.1953
  160TIP3    H1  486   3.941   4.489   3.365  1.3434  2.1075  2.6232
  160TIP3    H2  487   4.051   4.436   3.454  0.8489 -3.4582  0.3464
  161TIP3   OH2  488   6.117   4.117   0.997  0.0925 -0.1287 -0.2777
  161TIP3    H1  489   6.152   4.099   0.909  1.1456 -0.6430  0.2279
  161TIP3    H2  490   6.056   4.046   1.014 -3.6126  2.2128 -2.3082
  162TIP3   OH2  491   0.606   0.899   3.150  0.2730 -0.3036 -0.0895
  162TIP3    H1  492   0.574   0.965   3.212  1.3119  0.1318  0.0069
  162TIP3    H2  493   0.550   0.908   3.073 -0.2094  0.0254  0.2936
  163TIP3   OH2  494   1.745   2.001   1.570  0.2713 -0.2572  0.0532
  163TIP3    H1  495   1.749   1.905   1.566 -1.0698 -0.3343 -0.0157
  163TIP3    H2  496   1.651   2.021   1.564  0.6124  1.1242 -1.3706
  164TIP3   OH2  497   4.915   4.421   1.298  0.7470  0.5284  0.2900
  164TIP3    H1  498   4.920   4.368   1.378 -0.0853 -1.7411 -1.0705
  164TIP3    H2  499   5.006   4.442   1.277  0.9150  3.1034  2.9413
  165TIP3   OH2  500   3.205   2.468   2.863  0.0217  0.0924  0.0001
  165TIP3    H1  501   3.169   2.387   2.825  0.2583 -0.1885  0.3701
  165TIP3    H2  502   3.184   2.536   2.799 -0.6185 -0.1780 -0.0843
  166TIP3   OH2  503   0.154   4.475   1.579 -0.0662 -0.4218 -0.0545
  166TIP3    H1  504   0.190   4.439   1.661 -0.8287 -0.5049  0.2470
  166TIP3    H2  505   0.231   4.506   1.531  0.2679  1.0852  1.3813
  167TIP3   OH2  506   4.573   2.431   5.016  0.1308 -0.2056 -0.0856
  167TIP3    H1  507   4.600   2.491   4.947 -0.1529  0.4977  0.3917
  167TIP3    H2  508   4.651   2.421   5.071  0.1263 -0.1289 -0.0649
  168TIP3   OH2  509   1.430   5.223   1.428 -0.4137 -0.0171 -0.1646
  168TIP3    H1  510   1.441   5.145   1.373  0.4718  1.1673 -1.7375
  168TIP3    H2  511   1.479   5.202   1.508 -0.2346 -1.0783 -0.5293
  169TIP3   OH2  512   4.039   4.972   4.366  0.2376  0.1569  0.4127
  169TIP3    H1  513   4.094   4.960   4.442  0.5988 -2.6708 -0.1722
  169TIP3    H2  514   4.049   4.891   4.316 -2.5743  0.4968 -0.9328
  170TIP3   OH2  515   4.903   5.256   4.221  0.0412  0.2919 -0.0777
  170TIP3    H1  516   4.906   5.225   4.130  0.3771 -0.1447  0.0823
  170TIP3    H2  517   4.823   5.309   4.225 -1.2006 -1.4802 -0.0728
  171TIP3   OH2  518   6.131   2.293   3.196 -0.2972 -0.3026  0.2316
  171TIP3    H1  519   6.080   2.228   3.245 -1.5785  0.2951 -0.2836
  171TIP3    H2  520   6.162   2.246   3.119  1.1510 -1.0529  1.2033
  172TIP3   OH2  521   5.779   3.823   3.689  0.1724  0.2693  0.0399
  172TIP3    H1  522   5.683   3.821   3.684  0.2283  0.3659 -1.3067
  172TIP3    H2  523   5.801   3.916   3.693  0.2526  0.2946 -0.8556
  173TIP3   OH2  524   6.164   3.376   2.046 -0.8025 -0.2263  0.0528
  173TIP3    H1  525   6.100   3.428   2.094 -1.1890 -1.3896  0.8262
  173TIP3    H2  526   6.171   3.420   1.961 -2.2661  0.1943  0.1199
  174TIP3   OH2  527   3.158   1.954   0.701  0.2991 -0.2365  0.1413
  174TIP3    H1  528   3.152   2.048   0.714 -0.1082  0.0568 -1.8389
  174TIP3    H2  529   3.101   1.916   0.768  0.6601  0.8912  1.1124
  175TIP3   OH2  530   4.306   0.597   1.414  0.0192  0.3132  0.2997
  175TIP3    H1  531   4.327   0.509   1.445  0.6717  0.6480  0.8358
  175TIP3    H2  532   4.234   0.626   1.470 -1.3960 -0.5158 -0.9979
  176TIP3   OH2  533   6.070   5.279   4.608 -0.6240 -0.2341 -0.1040
  176TIP3    H1  534   6.114   5.278   4.693  1.3361 -1.8090 -1.0391
  176TIP3    H2  535   6.001   5.213   4.615  0.1586 -1.0596 -0.0018
  177TIP3   OH2  536   5.406   2.151   2.420  0.1365 -0.4563  0.0548
  177TIP3    H1  537   5.355   2.225   2.389 -1.1021 -0.3040  2.2475
  177TIP3    H2  538   5.490   2.159   2.375 -0.4973  1.3794 -0.9107
  178TIP3   OH2  539   0.044   1.914   2.578  0.0563 -0.4855  0.3126
  178TIP3    H1  540   0.096   1.994   2.590  2.1152 -1.2660 -2.3158
  178TIP3    H2  541  -0.035   1.928   2.630  0.9751  2.6287  1.0616
  179TIP3   OH2  542   3.745   0.965   4.904  0.1953  0.2797 -0.1360
  179TIP3    H1  543   3.727   0.879   4.943 -1.7518  1.8961  2.9025
  179TIP3    H2  544   3.675   0.978   4.840 -0.1899  0.0999  0.2523
  180TIP3   OH2  545   4.395   5.124   2.299 -0.6603  0.1227  0.3212
  180TIP3    H1  546   4.350   5.147   2.380 -0.9776  0.1652  0.1333
  180TIP3    H2  547   4.352   5.045   2.268  0.3212 -0.6543  0.8750
  181TIP3   OH2  548   3.643   5.186   2.467 -0.0972 -0.1278 -0.6282
  181TIP3    H1  549   3.732   5.185   2.502 -0.8616 -0.9435  1.5131
  181TIP3    H2  550   3.626   5.277   2.445  0.3875  0.5385  1.5309
  182TIP3   OH2  551   3.508   1.475   0.467  0.1359  0.2262  0.1483
  182TIP3    H1  552   3.447   1.528   0.416 -0.2183  1.3261  1.6666
  182TIP3    H2  553   3.466   1.463   0.551  1.1456 -0.6979  0.5435
  183TIP3   OH2  554   5.547   1.430   0.346 -0.8209 -0.0753  0.0732
  183TIP3    H1  555   5.454   1.440   0.367 -0.1643  2.2561  2.4384
  183TIP3    H2  556   5.581   1.374   0.415 -0.1908  0.3907  0.1461
  184TIP3   OH2  557   1.046   2.858   2.752 -0.0897 -0.0008 -0.4553
  184TIP3    H1  558   0.966   2.812   2.727  0.2428 -0.1007 -1.3611
  184TIP3    H2  559   1.117   2.803   2.719  0.4601 -1.0901  2.2922
  185TIP3   OH2  560   3.909   4.434   4.959  0.1887  0.1258  0.5041
  185TIP3    H1  561   3.937   4.476   5.041 -0.9650  0.3716  0.7879
  185TIP3    H2  562   3.986   4.384   4.931  0.5895 -0.0356  1.7867
  186TIP3   OH2  563   2.056   0.618   3.875  0.3627  0.4578  0.0559
  186TIP3    H1  564   2.117   0.546   3.884  1.6378  1.3961 -0.7213
  186TIP3    H2  565   2.109   0.692   3.846 -1.2559  1.1268 -1.4155
  187TIP3   OH2  566   2.000   0.785   2.919 -0.4554 -0.1565  0.2552
  187TIP3    H1  567   1.912   0.803   2.949 -0.1737  0.9715  0.4402
  187TIP3    H2  568   1.989   0.722   2.847 -1.1808 -2.4075  2.1988
  188TIP3   OH2  569   4.002   1.206   2.928 -0.0597  0.3733  0.1471
  188TIP3    H1  570   3.936   1.172   2.988 -1.2483  0.9096 -0.8231
  188TIP3    H2  571   3.956   1.217   2.845  1.2745  0.6817 -0.5785
  189TIP3   OH2  572   0.443   1.865   1.100  0.0243 -0.4258  0.0388
  189TIP3    H1  573   0.533   1.856   1.068  0.2601 -0.2852  0.6468
  189TIP3    H2  574   0.388   1.846   1.024  0.5687 -0.5782 -0.3195
  190TIP3   OH2  575   5.245   5.194   3.119  0.0511 -0.1361  0.1957
  190TIP3    H1  576   5.202   5.258   3.062  0.5176 -1.3982 -1.6553
  190TIP3    H2  577   5.175   5.133   3.143  0.0082 -0.0216  0.3607
  191TIP3   OH2  578   4.037   2.521   1.478  0.0514  0.3206 -0.1467
  191TIP3    H1  579   4.103   2.475   1.531  1.1841  0.8545 -1.0421
  191TIP3    H2  580   4.074   2.609   1.467 -1.3944  1.0127  0.3196
  192TIP3   OH2  581   2.934   0.769   0.265 -0.5594  0.1759 -0.6604
  192TIP3    H1  582   2.891   0.699   0.313  0.3174 -0.1966 -0.4045
  192TIP3    H2  583   2.920   0.747   0.173 -0.0650 -0.4774 -0.5831
  193TIP3   OH2  584   3.031   4.959   4.129  0.1935  0.3774 -0.0741
  193TIP3    H1  585   2.936   4.958   4.131  0.1618  1.1549 -0.8411
  193TIP3    H2  586   3.054   4.936   4.039  0.8002 -1.9237  0.5888
  194TIP3   OH2  587   2.614   4.296   4.757  0.5817  0.0231  0.2586
  194TIP3    H1  588   2.578   4.217   4.797 -0.3675  0.0285 -0.5373
  194TIP3    H2  589   2.586   4.291   4.666  0.9929  1.0008  0.0700
  195TIP3   OH2  590   4.195   3.890   2.304 -0.0225 -0.0247 -0.1025
  195TIP3    H1  591   4.232   3.810   2.266 -0.5718  0.1534 -1.0612
  195TIP3    H2  592   4.200   3.876   2.399  1.4978 -0.4329 -0.2186
  196TIP3   OH2  593   0.805   2.760   2.678 -0.1868 -0.0291  0.4227
  196TIP3    H1  594   0.733   2.821   2.695  0.4308  0.4626  1.3930
  196TIP3    H2  595   0.774   2.676   2.711 -0.4582  0.0968  0.4904
  197TIP3   OH2  596   2.535   1.264   0.322 -0.2448 -0.0597 -0.1928
  197TIP3    H1  597   2.585   1.213   0.257 -0.8415 -0.9213  0.0040
  197TIP3    H2  598   2.543   1.213   0.403  1.5952  1.6586  0.7999
  198TIP3   OH2  599   1.187   3.259   4.830  0.1824 -0.2673 -0.0238
  198TIP3    H1  600   1.229   3.175   4.811  2.0196  0.1382  1.9302
  198TIP3    H2  601   1.094   3.243   4.813  0.5686 -2.4623 -0.3978
  199TIP3   OH2  602   5.295   3.085   2.741 -0.7372 -0.2988 -0.0970
  199TIP3    H1  603   5.330   3.116   2.658 -1.2110 -1.2088 -0.6491
  199TIP3    H2  604   5.200   3.092   2.731 -0.8047  2.0267  1.3257
  200TIP3   OH2  605   5.563   2.357   4.289  0.3068 -0.3294  0.5167
  200TIP3    H1  606   5.520   2.280   4.251 -0.3342  0.7597 -1.0739
  200TIP3    H2  607   5.497   2.426   4.283  1.1972  0.5915  1.0269
  201TIP3   OH2  608   4.125   0.843   3.474 -0.4138 -0.6515  0.0148
  201TIP3    H1  609   4.159   0.833   3.563 -1.3016 -2.2454  0.2176
  201TIP3    H2  610   4.088   0.931   3.473  3.1025  0.9735 -0.0797
  202TIP3   OH2  611   3.132   1.111   4.024 -0.8371  0.0126  0.2755
  202TIP3    H1  612   3.127   1.082   4.115 -1.4431  1.5044  0.7544
  202TIP3    H2  613   3.186   1.190   4.027  1.0123 -1.1079 -1.0199
  203TIP3   OH2  614   3.241   5.435   4.117  0.2089  1.0215 -0.6312
  203TIP3    H1  615   3.171   5.492   4.084  0.7656  1.9949 -0.1840
  203TIP3    H2  616   3.205   5.399   4.198 -0.0664  0.9107 -0.8011
  204TIP3   OH2  617   2.235   4.387   4.817 -0.2228  0.0750  0.4020
  204TIP3    H1  618   2.268   4.420   4.733  2.1010  0.7568  1.5070
  204TIP3    H2  619   2.247   4.292   4.811 -0.2922  0.0945 -0.1248
  205TIP3   OH2  620   5.348   3.693   2.487 -0.0127  0.1545  0.0215
  205TIP3    H1  621   5.259   3.663   2.504  0.7284 -1.7171  0.8689
  205TIP3    H2  622   5.381   3.720   2.572  0.6471 -0.4521 -0.0280
  206TIP3   OH2  623   2.981   0.283   1.179  0.6868 -0.0510  0.3461
  206TIP3    H1  624   2.991   0.363   1.128  3.7762 -1.5175 -1.6442
  206TIP3    H2  625   2.934   0.310   1.258  1.3924  3.6268 -0.3439
  207TIP3   OH2  626   6.026   4.861   1.458  0.1135  0.2698 -0.1944
  207TIP3    H1  627   6.032   4.776   1.502  0.7052  1.0084  1.1883
  207TIP3    H2  628   5.938   4.893   1.478  0.7034  1.0360  1.3222
  208TIP3   OH2  629   2.983   0.626   0.678  0.1587 -1.1225 -0.2430
  208TIP3    H1  630   2.954   0.687   0.745  0.6120 -0.6447 -0.4700
  208TIP3    H2  631   3.062   0.587   0.713  1.1244  0.0627 -0.9888
  209TIP3   OH2  632   5.367   5.237   2.449  0.6899  0.1256  0.0123
  209TIP3    H1  633   5.446   5.203   2.491 -0.0151 -1.6680 -0.0187
  209TIP3    H2  634   5.314   5.159   2.430 -0.7435  1.2109 -0.6767
  210TIP3   OH2  635   1.016   2.619   4.691 -0.4096  0.2711 -0.6459
  210TIP3    H1  636   0.957   2.626   4.617 -0.6888  1.5550 -0.3144
  210TIP3    H2  637   1.104   2.620   4.652 -0.5654 -0.3629 -1.0350
  211TIP3   OH2  638   5.302   2.356   2.985 -0.1635  0.7917 -0.8112
  211TIP3    H1  639   5.394   2.356   2.960  0.8976  0.0783  2.6159
  211TIP3    H2  640   5.284   2.266   3.013 -1.1327  1.4763  0.9426
  212TIP3   OH2  641   2.893   0.076   4.929 -0.3979 -0.0497  0.3388
  212TIP3    H1  642   2.834   0.002   4.913 -0.9271  0.6800 -1.1927
  212TIP3    H2  643   2.906   0.075   5.024 -1.4996 -1.2658  0.5093
  213TIP3   OH2  644   5.934   4.335   1.431 -0.2410  0.0915 -0.2480
  213TIP3    H1  645   5.928   4.240   1.441 -2.7847 -0.0402 -2.2096
  213TIP3    H2  646   6.007   4.348   1.370 -0.2874 -0.6619 -0.4754
  214TIP3   OH2  647   1.416   1.819   1.119  0.1702 -0.2501  0.2128
  214TIP3    H1  648   1.431   1.731   1.153  0.2204 -0.9904 -1.5925
  214TIP3    H2  649   1.330   1.814   1.075 -0.1222  0.7855  0.6231
  215TIP3   OH2  650   4.345   5.148   1.540  0.2508 -0.9277 -0.3459
  215TIP3    H1  651   4.296   5.226   1.516 -2.8452 -2.1614  1.4483
  215TIP3    H2  652   4.360   5.102   1.457 -0.8252 -0.0472 -1.0423
  216TIP3   OH2  653   5.293   0.795   4.737 -0.1367  0.6805  0.5350
  216TIP3    H1  654   5.213   0.760   4.699 -0.2999 -1.3778  2.5261
  216TIP3    H2  655   5.264   0.854   4.806  0.0295  0.1487  1.0733
  217TIP3   OH2  656   6.079   4.400   1.799 -0.3246  0.0841  0.2313
  217TIP3    H1  657   6.026   4.320   1.798 -2.5252  1.4652 -0.2607
  217TIP3    H2  658   6.144   4.384   1.868  0.0202 -2.5082 -0.5606
  218TIP3   OH2  659   2.144   3.979   5.162  0.4468 -0.4615  0.6279
  218TIP3    H1  660   2.160   4.023   5.245 -0.2864 -0.5532  0.8275
  218TIP3    H2  661   2.108   4.048   5.105  2.2895 -0.0409 -0.0941
  219TIP3   OH2  662   2.540   3.186   4.249 -0.1402  0.5726  0.0479
  219TIP3    H1  663   2.557   3.279   4.233 -0.7941  0.3572 -2.3442
  219TIP3    H2  664   2.627   3.147   4.259  0.1869  1.3041  0.1315
  220TIP3   OH2  665   0.655   5.075   3.816  0.2488  0.5270  0.5022
  220TIP3    H1  666   0.619   5.025   3.890  1.2927  2.5740  2.5220
  220TIP3    H2  667   0.646   5.016   3.741 -3.0823 -0.7982  1.7146
  221TIP3   OH2  668   2.090   2.209   4.081 -0.4872  0.3610  0.1621
  221TIP3    H1  669   2.095   2.171   4.169  0.7987 -1.5718 -0.6634
  221TIP3    H2  670   2.054   2.138   4.028 -0.1083  1.0931 -1.0862
  222TIP3   OH2  671   5.400   5.672   5.073 -0.1679  0.1404 -0.2473
  222TIP3    H1  672   5.433   5.628   5.151  0.7603  2.2013  0.6047
  222TIP3    H2  673   5.332   5.614   5.039 -0.4098 -0.9346  1.9420
  223TIP3   OH2  674   5.452   1.220   0.517 -0.1759 -0.1870 -0.2505
  223TIP3    H1  675   5.465   1.211   0.612  0.6700  0.5997 -0.2718
  223TIP3    H2  676   5.357   1.227   0.506 -0.2581  0.1928  0.5964
  224TIP3   OH2  677   4.435   4.114   2.604  0.4700  0.5312 -0.0086
  224TIP3    H1  678   4.497   4.171   2.558 -0.2243  1.1323 -0.2121
  224TIP3    H2  679   4.481   4.088   2.684  1.3533  0.1797 -0.6241
  225TIP3   OH2  680   5.969   0.397   2.321 -0.1348  0.0796  0.0610
  225TIP3    H1  681   5.890   0.349   2.345 -0.6450  0.5082 -0.6878
  225TIP3    H2  682   5.948   0.435   2.235  1.0494 -0.1671 -0.3540
  226TIP3   OH2  683   3.649   3.371  -0.023  0.0682 -0.3546  0.0555
  226TIP3    H1  684   3.686   3.304   0.035  1.4018 -0.9671 -1.4352
  226TIP3    H2  685   3.574   3.405   0.025  1.4264 -0.4405  2.3740
  227TIP3   OH2  686   1.932   4.121   4.771 -0.1978 -0.2520 -0.6268
  227TIP3    H1  687   2.009   4.066   4.763 -0.6243 -1.3542  2.0775
  227TIP3    H2  688   1.953   4.198   4.717  3.0788 -0.1671  0.5487
  228TIP3   OH2  689   0.608   0.193   1.261  0.2555 -0.0051 -0.1488
  228TIP3    H1  690   0.526   0.242   1.268  0.5372  0.9642 -2.5683
  228TIP3    H2  691   0.583   0.109   1.222  0.3040 -0.0548 -0.0725
  229TIP3   OH2  692   0.842   1.976   5.200  0.0784  0.4838  0.0087
  229TIP3    H1  693   0.862   1.965   5.107  0.4096  1.1088 -0.0022
  229TIP3    H2  694   0.746   1.979   5.204 -0.1331 -2.9186  0.1009
  230TIP3   OH2  695   0.624   5.326   0.605  0.0236 -0.5896 -0.1123
  230TIP3    H1  696   0.710   5.339   0.564  0.4497  1.3414  1.2530
  230TIP3    H2  697   0.644   5.296   0.694 -0.4302  3.0965  1.4217
  231TIP3   OH2  698   1.046   5.363   2.775 -0.3110 -0.0738  0.0265
  231TIP3    H1  699   1.030   5.310   2.697 -2.7503  0.5085  0.0472
  231TIP3    H2  700   0.963   5.363   2.822  0.4931  1.3070  1.5741
  232TIP3   OH2  701   4.726   2.385   2.049  0.4318  0.2504 -0.0384
  232TIP3    H1  702   4.728   2.478   2.071  0.1455  0.5628 -1.2386
  232TIP3    H2  703   4.782   2.343   2.115 -1.7306  0.8536  2.3271
  233TIP3   OH2  704   6.019   0.097   3.309 -0.3813  0.2351 -0.0459
  233TIP3    H1  705   5.925   0.083   3.296 -0.4401 -0.2130  0.8135
  233TIP3    H2  706   6.031   0.190   3.292 -0.4665 -0.1952 -3.0339
  234TIP3   OH2  707   5.081   3.140   0.506 -0.1610  0.1617  0.2866
  234TIP3    H1  708   5.143   3.068   0.516 -0.9200 -0.7005 -0.8832
  234TIP3    H2  709   5.136   3.216   0.488  0.6051 -0.4271  0.0662
  235TIP3   OH2  710   1.688   1.628   3.891 -0.9838  1.0073 -0.1738
  235TIP3    H1  711   1.695   1.709   3.840 -0.0845  1.0721  0.0388
  235TIP3    H2  712   1.638   1.569   3.835 -3.9083  2.4838  0.6471
  236TIP3   OH2  713   0.328   2.239   1.175  0.3538  0.2901  0.6845
  236TIP3    H1  714   0.418   2.235   1.208  1.8013 -1.4377 -3.0378
  236TIP3    H2  715   0.293   2.152   1.192  0.5455 -0.0744 -0.7142
  237TIP3   OH2  716   3.864   0.063   0.400  0.2741 -0.0516  0.3750
  237TIP3    H1  717   3.939   0.027   0.448 -0.1205 -0.8357  0.4038
  237TIP3    H2  718   3.879   0.038   0.309  0.1834  0.0360  0.3357
  238TIP3   OH2  719   6.162   1.040   0.355  0.6714  0.5649  0.2456
  238TIP3    H1  720   6.205   0.970   0.306  0.2679  0.0775  0.5655
  238TIP3    H2  721   6.080   1.056   0.307  0.7954  0.8656  0.1341
  239TIP3   OH2  722   6.298   2.717   1.326  0.2235 -0.5831 -0.2147
  239TIP3    H1  723   6.221   2.769   1.347  1.2489  0.5498  0.8424
  239TIP3    H2  724   6.305   2.654   1.398 -0.4894 -1.6561 -1.0321
  240TIP3   OH2  725   0.747   2.443   0.015  1.0630 -0.8450  0.6929
  240TIP3    H1  726   0.745   2.348   0.018 -1.9884 -0.8539  2.7546
  240TIP3    H2  727   0.739   2.471   0.106 -0.4461  1.3115 -0.0070
  241TIP3   OH2  728   3.366   4.506   0.365 -0.6738  0.3156  0.0253
  241TIP3    H1  729   3.296   4.539   0.310 -0.2935 -0.2207 -0.8070
  241TIP3    H2  730   3.327   4.433   0.414 -0.2646 -1.2184 -1.8130
  242TIP3   OH2  731   5.354   2.786   0.957 -0.2874  0.5273 -0.0884
  242TIP3    H1  732   5.269   2.796   0.915  0.0514  1.2311 -0.6267
  242TIP3    H2  733   5.369   2.691   0.959 -1.0068  0.4047 -0.1291
  243TIP3   OH2  734   3.664   4.968   2.977  0.1329 -0.1281  0.0583
  243TIP3    H1  735   3.596   4.950   2.913  0.4809  2.2983 -1.1213
  243TIP3    H2  736   3.619   4.963   3.062 -1.1505 -0.0660 -0.5918
  244TIP3   OH2  737   2.843   1.954   1.950 -0.0914  0.3844 -0.2498
  244TIP3    H1  738   2.791   1.925   2.025 -1.3197 -2.9832 -2.1441
  244TIP3    H2  739   2.933   1.929   1.972 -0.3687 -0.1927  0.2664
  245TIP3   OH2  740   2.948   0.142   1.763  0.3254  0.1010 -0.3454
  245TIP3    H1  741   2.856   0.128   1.787  0.4546  0.8346  0.6368
  245TIP3    H2  742   2.996   0.076   1.814  0.2426 -1.3604 -2.0601
  246TIP3   OH2  743   2.758   2.584   2.007 -0.0884  0.4214 -0.0991
  246TIP3    H1  744   2.783   2.676   2.005 -1.0305  0.6907  0.1758
  246TIP3    H2  745   2.838   2.538   2.033  0.2930  1.1940  0.1154
  247TIP3   OH2  746   5.119   3.490   0.524 -0.8448  0.0357  0.2858
  247TIP3    H1  747   5.194   3.437   0.496 -0.2713 -0.3942  2.4440
  247TIP3    H2  748   5.107   3.554   0.454  1.5561  0.1005 -0.1570
  248TIP3   OH2  749   1.633   3.161   2.328  0.4038 -0.3023  0.3635
  248TIP3    H1  750   1.684   3.106   2.388 -0.2962  0.3118  1.5461
  248TIP3    H2  751   1.671   3.143   2.242  0.2974 -2.5381  0.7097
  249TIP3   OH2  752   0.267   0.728   5.163  0.7333  0.6788 -0.2758
  249TIP3    H1  753   0.320   0.800   5.129  1.2291 -0.5398 -2.2617
  249TIP3    H2  754   0.178   0.764   5.167  0.8206  1.1735 -2.0602
  250TIP3   OH2  755   5.202   2.757   4.148 -0.3784  0.1580 -0.3794
  250TIP3    H1  756   5.294   2.751   4.124  0.0555  1.6935  0.6818
  250TIP3    H2  757   5.155   2.759   4.065  0.4292 -1.6904 -0.9213
  251TIP3   OH2  758   1.821   1.123   2.048  0.0326  0.2745  0.0838
  251TIP3    H1  759   1.829   1.209   2.006 -0.5335 -0.0248 -0.6597
  251TIP3    H2  760   1.893   1.121   2.111  1.9552  0.1339 -1.9766
  252TIP3   OH2  761   6.074   1.064   3.496 -0.1390 -0.2637 -0.0692
  252TIP3    H1  762   6.009   1.003   3.531  1.1062 -1.6816 -0.1338
  252TIP3    H2  763   6.145   1.063   3.560  0.5079  0.0562 -0.7596
  253TIP3   OH2  764   3.225   2.229   0.762  0.1439  0.7401  0.2187
  253TIP3    H1  765   3.229   2.212   0.668 -0.4922  0.1343  0.2869
  253TIP3    H2  766   3.293   2.295   0.778  1.7361 -0.7073 -0.3059
  254TIP3   OH2  767   5.472   2.462   1.367 -0.3106  0.4168  0.0389
  254TIP3    H1  768   5.449   2.371   1.348  1.3156  0.3859 -2.2005
  254TIP3    H2  769   5.402   2.513   1.326 -0.6620  0.2158  0.3770
  255TIP3   OH2  770   1.775   0.341   3.552  0.7848 -0.0462  0.0290
  255TIP3    H1  771   1.866   0.313   3.563  0.5668 -0.9893 -0.4708
  255TIP3    H2  772   1.772   0.379   3.465  1.1022  1.6832  0.7448
  256TIP3   OH2  773   1.356   1.253   2.606  0.5245 -0.7662  0.2358
  256TIP3    H1  774   1.401   1.337   2.600  0.6486 -0.8671 -0.2696
  256TIP3    H2  775   1.279   1.263   2.551 -0.0850 -0.5915  1.1076
  257TIP3   OH2  776   3.529   5.683   2.929 -0.5813 -0.2126  0.0705
  257TIP3    H1  777   3.488   5.597   2.932 -0.2785 -0.3695 -0.2368
  257TIP3    H2  778   3.591   5.678   2.857 -0.2463  0.1253  0.3277
  258TIP3   OH2  779   1.907   2.610   0.928 -0.2677  0.2136  0.1182
  258TIP3    H1  780   1.974   2.561   0.975 -0.7489  0.7545  1.4353
  258TIP3    H2  781   1.949   2.693   0.906 -0.1065  0.0438 -0.2132
  259TIP3   OH2  782   5.134   4.078   4.360 -0.0161  0.2936  0.3056
  259TIP3    H1  783   5.114   4.047   4.449  0.7435  1.1636  0.8011
  259TIP3    H2  784   5.109   4.171   4.361  0.0056  0.3133 -0.3924
  260TIP3   OH2  785   5.808   4.094   3.705  0.2484  0.1234 -0.3781
  260TIP3    H1  786   5.769   4.124   3.623  1.1465  0.3983 -0.7238
  260TIP3    H2  787   5.734   4.082   3.764 -0.3311  0.8390 -0.9355
  261TIP3   OH2  788   4.030   2.778   2.767  0.2094  0.5662 -0.1927
  261TIP3    H1  789   4.058   2.764   2.677  1.7276  0.0348  0.3318
  261TIP3    H2  790   4.079   2.714   2.818 -1.7136 -0.1508  0.8626
  262TIP3   OH2  791   5.451   1.412   3.299 -0.0231  0.4966 -0.1198
  262TIP3    H1  792   5.385   1.475   3.327 -0.5428  0.0867 -0.4037
  262TIP3    H2  793   5.526   1.429   3.355 -0.4021  0.9043  0.2692
  263TIP3   OH2  794   6.091   4.059   3.746  0.0155  0.0700 -0.1090
  263TIP3    H1  795   6.090   4.006   3.826 -1.4750 -0.2869 -0.3163
  263TIP3    H2  796   6.001   4.092   3.739  0.0378 -0.1573 -1.7940
  264TIP3   OH2  797   2.029   0.125   0.468 -0.0872 -0.9267  0.2799
  264TIP3    H1  798   2.125   0.122   0.464  0.0636  1.3476  0.9132
  264TIP3    H2  799   2.001   0.104   0.378  1.0694 -0.0931 -0.3009
  265TIP3   OH2  800   1.227   0.481   1.259  0.6893  0.5628  0.4922
  265TIP3    H1  801   1.230   0.572   1.290 -2.3905  0.2803  2.0211
  265TIP3    H2  802   1.223   0.489   1.164  0.5738  2.0272  0.5914
  266TIP3   OH2  803   3.259   0.234   3.180 -0.8498 -0.2372 -0.4252
  266TIP3    H1  804   3.194   0.163   3.180 -2.7622  1.4196 -1.3278
  266TIP3    H2  805   3.207   0.314   3.192  1.0345  1.1701 -1.1987
  267TIP3   OH2  806   1.672   4.559   3.529 -0.4479  0.1493  0.2685
  267TIP3    H1  807   1.645   4.645   3.499 -1.6404 -0.1921  0.3257
  267TIP3    H2  808   1.597   4.502   3.510 -0.0401 -0.6874  1.0871
  268TIP3   OH2  809   6.305   0.820   4.173  0.7542 -0.3590 -0.8791
  268TIP3    H1  810   6.353   0.883   4.226 -1.3160 -1.2277  2.2707
  268TIP3    H2  811   6.300   0.741   4.228 -2.6285 -0.9059 -1.7634
  269TIP3   OH2  812   5.099   4.146   4.666 -0.2184 -0.6685 -0.0700
  269TIP3    H1  813   5.021   4.194   4.640  1.0283  0.5610 -1.7866
  269TIP3    H2  814   5.113   4.171   4.758 -0.5998  0.8876 -0.4067
  270TIP3   OH2  815   2.789   0.360   0.224 -0.5052  0.0221 -0.1373
  270TIP3    H1  816   2.797   0.436   0.167 -3.2029  0.0198 -0.6393
  270TIP3    H2  817   2.755   0.395   0.307  1.1611 -0.2895  0.7276
  271TIP3   OH2  818   1.549   3.933   3.537  0.3479  0.7324 -0.2687
  271TIP3    H1  819   1.482   3.864   3.544  1.0748 -0.0367 -0.6281
  271TIP3    H2  820   1.500   4.013   3.523 -0.5885  0.4797  1.3162
  272TIP3   OH2  821   3.550   3.155   5.032  0.0860 -0.0389  0.0890
  272TIP3    H1  822   3.512   3.243   5.031 -0.0461 -0.0711  1.2107
  272TIP3    H2  823   3.477   3.098   5.008  0.1183  0.1263 -0.4269
  273TIP3   OH2  824   4.851   4.813   4.476  0.0188 -0.1652  0.4238
  273TIP3    H1  825   4.780   4.875   4.466 -0.5844 -1.0151 -0.9497
  273TIP3    H2  826   4.860   4.801   4.570 -1.7687 -0.1528  0.6287
  274TIP3   OH2  827   1.425   0.078   5.026  0.9414 -0.4793  0.4922
  274TIP3    H1  828   1.396   0.129   4.950  2.3234  1.0430  0.9468
  274TIP3    H2  829   1.345   0.064   5.077  0.3452  0.2640 -0.1971
  275TIP3   OH2  830   2.318   3.711   3.993  0.0434 -0.2880  0.5450
  275TIP3    H1  831   2.306   3.678   3.904 -2.1554 -0.6404  0.9181
  275TIP3    H2  832   2.284   3.641   4.049 -0.6755  0.8217  1.5513
  276TIP3   OH2  833   2.752   2.145   3.223  0.4200 -0.3122  0.1284
  276TIP3    H1  834   2.665   2.180   3.202  0.1820 -0.9460  0.0433
  276TIP3    H2  835   2.749   2.054   3.194  1.4537 -0.0729 -0.8363
  277TIP3   OH2  836   5.491   5.395   4.313  0.1586 -0.1729  0.0739
  277TIP3    H1  837   5.432   5.373   4.385  1.1272 -2.5265  0.2467
  277TIP3    H2  838   5.556   5.454   4.352 -2.0055  2.5546 -0.1538
  278TIP3   OH2  839   5.455   5.979   0.950  0.2889  0.3344 -0.0958
  278TIP3    H1  840   5.403   5.915   0.902  1.1656  0.1976 -0.9041
  278TIP3    H2  841   5.400   6.005   1.024  0.0036 -1.5066  0.3873
  279TIP3   OH2  842   6.164   1.919   2.726  0.4097  0.0512 -0.1027
  279TIP3    H1  843   6.083   1.900   2.679  0.8202  0.7315 -1.1363
  279TIP3    H2  844   6.160   1.865   2.804 -1.8367  1.3552  0.7733
  280TIP3   OH2  845   1.942   1.835   1.893 -0.5005  0.3990 -0.0701
  280TIP3    H1  846   1.959   1.925   1.919 -1.5900  0.0346  2.1657
  280TIP3    H2  847   1.848   1.824   1.907 -0.5986 -0.7773 -1.4113
  281TIP3   OH2  848   1.696   2.795   3.460  0.6006  0.2642  0.1553
  281TIP3    H1  849   1.785   2.830   3.452 -0.0361  1.6397 -2.2017
  281TIP3    H2  850   1.647   2.864   3.505  0.5627 -0.2055  0.8523
  282TIP3   OH2  851   2.610   1.547   1.950  0.5578 -0.0408  0.6534
  282TIP3    H1  852   2.515   1.564   1.945  0.7298  0.9589  0.6015
  282TIP3    H2  853   2.622   1.467   1.899  0.0345  1.0869 -1.3949
  283TIP3   OH2  854   4.544   1.649   2.758  0.6145 -0.5017  0.1169
  283TIP3    H1  855   4.563   1.690   2.673  1.6688 -0.5413  0.3164
  283TIP3    H2  856   4.623   1.665   2.810  0.0702 -0.6814  1.0146
  284TIP3   OH2  857   4.304   2.643   1.252 -0.0078 -0.0411 -0.2193
  284TIP3    H1  858   4.283   2.589   1.176 -0.6437  0.1679 -0.1955
  284TIP3    H2  859   4.399   2.636   1.260 -0.0905 -1.2874 -0.1172
  285TIP3   OH2  860   5.500   2.988   3.098  0.4471  0.4565 -0.7337
  285TIP3    H1  861   5.518   2.912   3.042 -0.9985  0.0867 -0.7309
  285TIP3    H2  862   5.405   2.989   3.108  0.5124  1.7451  0.0200
  286TIP3   OH2  863   1.151   2.652   3.843 -0.4174 -0.5621 -0.7919
  286TIP3    H1  864   1.109   2.566   3.845 -0.3281 -0.6035 -0.7117
  286TIP3    H2  865   1.190   2.662   3.930 -0.8415 -0.2372 -0.6321
  287TIP3   OH2  866   4.346   5.721   2.197  0.5173 -0.5601  0.1582
  287TIP3    H1  867   4.254   5.698   2.213  0.0234  0.4539 -1.1345
  287TIP3    H2  868   4.382   5.735   2.284 -0.7678 -0.1505  0.6443
  288TIP3   OH2  869   0.681   1.550   2.871 -0.0736 -0.0390 -0.4165
  288TIP3    H1  870   0.731   1.469   2.879  0.4409  0.3814  0.7393
  288TIP3    H2  871   0.743   1.614   2.838 -0.1542  0.1944 -0.1189
  289TIP3   OH2  872   4.332   5.724   1.916  0.2313 -0.2391  0.5539
  289TIP3    H1  873   4.305   5.760   2.000 -0.4510  0.5338  0.0288
  289TIP3    H2  874   4.421   5.694   1.930  0.8582  1.6962  1.0364
  290TIP3   OH2  875   5.937   1.047   0.191  0.0174  0.3366  0.0236
  290TIP3    H1  876   5.944   0.953   0.175  1.0693  0.3272  0.4753
  290TIP3    H2  877   5.853   1.071   0.152  0.8830 -0.2974 -2.4932
  291TIP3   OH2  878   4.781   3.759   1.685 -0.2199  0.0029  0.6028
  291TIP3    H1  879   4.834   3.681   1.671  1.0565  0.8833  0.2828
  291TIP3    H2  880   4.771   3.765   1.780 -0.0701 -0.3784  0.6424
  292TIP3   OH2  881   4.191   4.134   5.099 -0.1310 -0.1546  0.5131
  292TIP3    H1  882   4.113   4.177   5.135 -1.5777 -0.7760 -1.6798
  292TIP3    H2  883   4.214   4.187   5.022  0.8478 -0.7013  0.4147
  293TIP3   OH2  884   5.067   1.266   1.041 -0.0308 -0.0502  0.6097
  293TIP3    H1  885   5.114   1.185   1.062 -1.1860 -1.2785 -1.2449
  293TIP3    H2  886   4.982   1.256   1.084 -0.9172 -0.7773 -1.2225
  294TIP3   OH2  887   5.894   4.548   3.197 -0.2256 -0.1573 -0.0893
  294TIP3    H1  888   5.906   4.469   3.249  0.9418  0.9478  1.4421
  294TIP3    H2  889   5.802   4.572   3.208 -0.5008 -1.0942 -0.2969
  295TIP3   OH2  890   1.790   3.879   5.017  0.4438  0.4743 -0.0403
  295TIP3    H1  891   1.727   3.842   5.078 -1.3563 -1.8721 -3.0478
  295TIP3    H2  892   1.851   3.808   4.999 -0.0764  0.5139 -2.1708
  296TIP3   OH2  893   1.837   1.633   0.681 -0.5684  0.0425  0.6502
  296TIP3    H1  894   1.829   1.555   0.626 -0.2980  0.7198 -0.3753
  296TIP3    H2  895   1.874   1.700   0.623  0.4695  0.5637  1.8544
  297TIP3   OH2  896   1.427   2.402   0.564  0.1800  0.2734 -0.5269
  297TIP3    H1  897   1.492   2.453   0.612  0.3267  0.1375 -0.5808
  297TIP3    H2  898   1.473   2.322   0.538 -0.6952 -0.9455  1.5178
  298TIP3   OH2  899   0.230   0.030   4.189 -0.6046 -0.0813 -0.7662
  298TIP3    H1  900   0.248   0.084   4.111 -1.2651  0.7338 -0.3668
  298TIP3    H2  901   0.261  -0.057   4.165  1.7324  0.7225 -0.9646
  299TIP3   OH2  902   4.338   5.220   2.583 -0.0406 -0.1630 -0.2912
  299TIP3    H1  903   4.363   5.157   2.651 -0.0213  0.6197  0.4389
  299TIP3    H2  904   4.298   5.293   2.630  0.4183  0.6184 -1.0665
  300TIP3   OH2  905   0.142   2.176   2.627 -0.3840 -0.0025 -0.1005
  300TIP3    H1  906   0.055   2.215   2.641 -1.1976 -1.4416 -0.8468
  300TIP3    H2  907   0.204   2.245   2.652 -1.7193  0.5665  1.8367
  301TIP3   OH2  908   1.582   1.407   3.755 -0.2207 -0.0014 -0.5751
  301TIP3    H1  909   1.603   1.331   3.808  0.8628  1.4325  1.1604
  301TIP3    H2  910   1.490   1.394   3.729 -1.0487 -0.4940  2.2148
  302TIP3   OH2  911   2.270   5.381   0.044 -0.3429 -0.7749  0.3480
  302TIP3    H1  912   2.365   5.383   0.049 -0.1724  0.1828 -2.0294
  302TIP3    H2  913   2.242   5.470   0.066 -0.6531 -0.9345  0.6047
  303TIP3   OH2  914   6.232   0.237   2.099 -0.0733  0.1378  0.3371
  303TIP3    H1  915   6.154   0.217   2.152 -0.7141 -1.2245 -1.0538
  303TIP3    H2  916   6.199   0.243   2.009  1.5569 -1.5488 -0.4375
  304TIP3   OH2  917   0.336   3.255   2.338 -0.1308  0.1703 -0.2562
  304TIP3    H1  918   0.245   3.283   2.334 -0.1770 -0.0209 -0.5038
  304TIP3    H2  919   0.334   3.173   2.387 -0.1107  0.0773 -0.4121
  305TIP3   OH2  920   0.684   5.239   4.535 -0.5935  0.1652  0.2449
  305TIP3    H1  921   0.717   5.192   4.612  0.2250 -0.0729 -0.2373
  305TIP3    H2  922   0.711   5.185   4.461 -1.4188  0.3688 -0.2111
  306TIP3   OH2  923   1.306   1.466   1.471 -0.1076 -0.0290 -0.3327
  306TIP3    H1  924   1.399   1.447   1.483  0.1340  0.2756 -1.5214
  306TIP3    H2  925   1.282   1.521   1.546  0.6493 -0.1730  0.0179
  307TIP3   OH2  926  -0.022   1.189   2.656  0.3455 -0.2053  0.7695
  307TIP3    H1  927   0.071   1.172   2.666  0.5365 -0.9425 -1.5880
  307TIP3    H2  928  -0.027   1.265   2.597 -0.5315 -0.3527  0.6326
  308TIP3   OH2  929   3.277   2.471   0.375 -0.0339 -0.2731 -0.0900
  308TIP3    H1  930   3.304   2.556   0.410  0.7548 -0.6210  0.1663
  308TIP3    H2  931   3.201   2.491   0.320 -1.1490  0.3271  1.5791
  309TIP3   OH2  932   3.027   5.810   0.194 -0.2912 -0.1787 -0.4510
  309TIP3    H1  933   3.034   5.743   0.126  2.4330 -1.0719  0.5813
  309TIP3    H2  934   3.033   5.893   0.147  0.3735 -0.7628 -1.4285
  310TIP3   OH2  935   2.511   2.203   4.191 -0.2530 -0.1958  0.4218
  310TIP3    H1  936   2.595   2.225   4.149 -0.0397 -1.8862 -0.1367
  310TIP3    H2  937   2.536   2.160   4.273 -0.5237 -1.4796 -0.1472
  311TIP3   OH2  938   5.103   2.842   3.905 -0.4424  0.3825 -0.1063
  311TIP3    H1  939   5.149   2.873   3.827  0.3020  0.6035  0.4069
  311TIP3    H2  940   5.048   2.770   3.874 -0.9941  1.1782 -1.0329
  312TIP3   OH2  941   5.463   0.865   2.389 -0.1244  0.1160  0.3093
  312TIP3    H1  942   5.428   0.954   2.396 -0.6610 -0.2426  3.2192
  312TIP3    H2  943   5.387   0.808   2.402  0.3251 -0.7938 -0.8755
  313TIP3   OH2  944   1.564   4.900   2.771 -0.1074 -0.0857  0.0853
  313TIP3    H1  945   1.510   4.979   2.775 -1.6914 -1.1599  1.1392
  313TIP3    H2  946   1.568   4.869   2.861  1.5044 -0.5799 -0.1281
  314TIP3   OH2  947   6.245   2.959   2.566  0.3149  0.3307  0.5801
  314TIP3    H1  948   6.207   2.896   2.627  1.3416 -2.1959 -1.2073
  314TIP3    H2  949   6.319   2.997   2.613  0.0955 -0.3036  1.4659
  315TIP3   OH2  950   0.723   4.260   3.431  0.1675  0.3852 -0.4027
  315TIP3    H1  951   0.739   4.168   3.413 -0.3200  0.3105 -0.4679
  315TIP3    H2  952   0.635   4.263   3.468  1.1583  0.5005  2.1905
  316TIP3   OH2  953   2.106   3.776   4.983  0.1925 -0.8537  0.2168
  316TIP3    H1  954   2.166   3.718   5.030  0.8833 -1.3141 -1.1856
  316TIP3    H2  955   2.113   3.859   5.030 -0.7756 -1.8349  2.2246
  317TIP3   OH2  956   3.026   4.057   2.357  0.1210  0.0464  0.2588
  317TIP3    H1  957   3.005   4.091   2.270 -0.2584  1.2220  0.7848
  317TIP3    H2  958   3.029   3.962   2.345  0.1826  0.1861 -1.0524
  318TIP3   OH2  959   2.574   4.500   2.832  0.4202  0.2165 -0.0620
  318TIP3    H1  960   2.646   4.560   2.811  0.5857  0.6177  1.5262
  318TIP3    H2  961   2.590   4.474   2.922 -0.3813 -1.2193 -0.3027
  319TIP3   OH2  962   5.788   4.842   1.603 -0.0662  0.3178  0.5673
  319TIP3    H1  963   5.702   4.884   1.604 -0.0961  0.4574 -1.6957
  319TIP3    H2  964   5.791   4.790   1.683 -2.5966 -0.3070  0.3376
  320TIP3   OH2  965   1.985   0.465   0.167  0.2600 -0.0032  0.1292
  320TIP3    H1  966   2.058   0.406   0.184  1.3065  0.4227 -2.3898
  320TIP3    H2  967   2.005   0.544   0.217  0.9269 -0.3204  0.3600
  321TIP3   OH2  968   2.439   1.578   3.599 -0.3065  0.1279  0.0414
  321TIP3    H1  969   2.425   1.505   3.538 -1.6423 -0.0786  0.5495
  321TIP3    H2  970   2.520   1.619   3.569  0.2998 -1.3461 -0.4724
  322TIP3   OH2  971   3.618   3.553   0.772  0.1816  0.2058  0.2049
  322TIP3    H1  972   3.533   3.587   0.742  0.1919  0.6841  0.6980
  322TIP3    H2  973   3.629   3.591   0.859 -0.9134 -2.9647  1.8843
  323TIP3   OH2  974   3.779   0.595   4.797 -0.1783  0.5470  0.1422
  323TIP3    H1  975   3.762   0.654   4.724  0.9607 -0.4347 -0.9743
  323TIP3    H2  976   3.780   0.651   4.875  3.0287  2.4632 -1.0789
  324TIP3   OH2  977   1.468   3.646   2.107  0.1423 -0.1571  0.0138
  324TIP3    H1  978   1.553   3.649   2.064  0.4867  0.9728  0.7287
  324TIP3    H2  979   1.411   3.600   2.044  1.1257 -0.4133 -0.7180
  325TIP3   OH2  980   5.491   5.954   1.608 -0.3775  0.0587 -0.0101
  325TIP3    H1  981   5.518   5.918   1.524 -0.2574  2.3908 -1.0568
  325TIP3    H2  982   5.439   5.885   1.648 -1.5522 -0.6878 -2.5891
  326TIP3   OH2  983   2.635   0.660   0.211  0.0714 -0.0700 -0.3041
  326TIP3    H1  984   2.673   0.648   0.124  1.7735  2.4955 -0.0253
  326TIP3    H2  985   2.559   0.717   0.195  0.6914  0.8358 -0.0947
  327TIP3   OH2  986   3.944   1.211   2.396  0.8630  0.0599  0.4111
  327TIP3    H1  987   3.871   1.273   2.397  0.8670  0.0651  0.3691
  327TIP3    H2  988   3.957   1.191   2.303  0.2723 -0.6972  0.4833
  328TIP3   OH2  989   1.002   0.631   4.295  0.2874  0.2436 -0.1014
  328TIP3    H1  990   0.910   0.606   4.284  0.4355 -0.1201 -0.5423
  328TIP3    H2  991   1.016   0.627   4.390 -0.7471  2.5094  0.2170
  329TIP3   OH2  992   0.674   3.502   3.706 -0.4279 -0.1218  0.0476
  329TIP3    H1  993   0.692   3.527   3.615  0.3773  0.1677  0.2807
  329TIP3    H2  994   0.729   3.560   3.758 -1.4412  0.2214  0.7652
  330TIP3   OH2  995   4.814   1.603   4.212  0.1185 -0.3091  0.2778
  330TIP3    H1  996   4.820   1.693   4.180 -0.4729  0.3210  1.8661
  330TIP3    H2  997   4.720   1.583   4.211  0.3058 -1.2803 -0.9665
  331TIP3   OH2  998   4.926   0.122   0.693 -0.0143  0.0055  0.0449
  331TIP3    H1  999   4.976   0.100   0.614  1.1600  0.6198  0.5815
  331TIP3    H2 1000   4.967   0.203   0.725 -0.6014 -0.1242  1.1706
  332TIP3   OH2 1001   4.906   4.064   5.113  0.2487  0.4617 -0.1364
  332TIP3    H1 1002   4.932   4.027   5.028 -0.3866  1.6706 -0.8776
  332TIP3    H2 1003   4.989   4.091   5.153  0.5631 -0.2060 -0.3201
  333TIP3   OH2 1004   5.739   2.562   1.361 -0.6122 -0.2602 -0.3943
  333TIP3    H1 1005   5.652   2.567   1.322  0.0412  0.9703 -1.7987
  333TIP3    H2 1006   5.747   2.472   1.393 -1.1991 -1.3798 -3.1505
  334TIP3   OH2 1007   4.802   0.799   5.090  0.1486 -0.1071 -0.1539
  334TIP3    H1 1008   4.785   0.881   5.043 -0.9834 -0.8852 -1.1846
  334TIP3    H2 1009   4.729   0.790   5.151  0.0433 -0.5444 -0.3399
  335TIP3   OH2 1010   2.726   1.672   4.789  0.1338  0.2210 -0.1976
  335TIP3    H1 1011   2.652   1.710   4.741 -1.1048 -1.6202  0.1306
  335TIP3    H2 1012   2.695   1.585   4.814  2.2915 -0.4420  0.3307
  336TIP3   OH2 1013   0.678   5.068   2.677 -0.3307  0.0505 -0.6805
  336TIP3    H1 1014   0.654   5.086   2.586 -1.6742  1.8424 -0.0230
  336TIP3    H2 1015   0.642   4.981   2.695  0.9497 -0.8261 -2.1664
  337TIP3   OH2 1016   1.985   3.826   4.314  0.0966  0.4488 -0.0833
  337TIP3    H1 1017   1.897   3.794   4.338  0.3731 -0.9283 -0.8203
  337TIP3    H2 1018   2.045   3.763   4.354  0.8115  1.7851  1.0300
  338TIP3   OH2 1019   4.332   0.171   4.120 -0.4932 -0.0579  0.1467
  338TIP3    H1 1020   4.371   0.254   4.148  0.3043 -0.0415 -0.9363
  338TIP3    H2 1021   4.404   0.124   4.077 -1.7639  0.2888 -2.5765
  339TIP3   OH2 1022   1.806   1.201   5.048 -0.2957  0.0515 -0.6641
  339TIP3    H1 1023   1.723   1.248   5.057  0.6501  1.5459  1.0627
  339TIP3    H2 1024   1.840   1.195   5.138  1.2876 -0.8722 -1.2732
  340TIP3   OH2 1025   4.227   3.969   3.277 -0.1267  0.0207  0.1319
  340TIP3    H1 1026   4.290   4.009   3.218  0.4408  0.2704  0.8891
  340TIP3    H2 1027   4.190   4.042   3.327  0.1719 -0.2820  0.8147
  341TIP3   OH2 1028   0.553   2.131   0.520 -0.2999  0.3502  0.1429
  341TIP3    H1 1029   0.631   2.169   0.560 -0.5137 -1.1085  2.0869
  341TIP3    H2 1030   0.583   2.099   0.435  0.6401  1.8297 -0.1199
  342TIP3   OH2 1031   0.832   3.687   3.848 -0.1354  0.0767  0.8701
  342TIP3    H1 1032   0.876   3.755   3.900 -1.2448  0.5462  1.2294
  342TIP3    H2 1033   0.829   3.611   3.907  2.6424 -0.9244 -0.1167
  343TIP3   OH2 1034   3.215   2.168   0.076  0.6770  0.7195 -0.2791
  343TIP3    H1 1035   3.157   2.235   0.039 -1.0820  0.0487  1.0976
  343TIP3    H2 1036   3.292   2.216   0.105 -0.2312  2.0495  0.0180
  344TIP3   OH2 1037   5.668   1.480   3.491 -0.0976  0.1637  0.0380
  344TIP3    H1 1038   5.726   1.548   3.457  0.8183 -0.9361 -0.7065
  344TIP3    H2 1039   5.722   1.433   3.555 -0.5511 -0.1687  0.1794
  345TIP3   OH2 1040   1.529   1.186   3.050 -0.2299 -0.2356  0.5744
  345TIP3    H1 1041   1.565   1.195   3.138  0.3281 -1.4694  0.4852
  345TIP3    H2 1042   1.483   1.102   3.050 -0.8878  0.1091 -0.0882
  346TIP3   OH2 1043   0.704   4.817   5.011 -0.0797  0.2048  0.5974
  346TIP3    H1 1044   0.737   4.892   4.961  1.2370 -0.0452  1.0407
  346TIP3    H2 1045   0.703   4.848   5.102  0.8049 -0.4082  0.8286
  347TIP3   OH2 1046   0.958   0.429   5.131  0.2969  0.0895  0.3497
  347TIP3    H1 1047   0.916   0.356   5.176  1.8843 -0.3135  1.2234
  347TIP3    H2 1048   1.011   0.389   5.063  0.4083  0.4961  0.1922
  348TIP3   OH2 1049   0.144   1.261   1.626 -0.4911 -0.0138 -0.3996
  348TIP3    H1 1050   0.060   1.220   1.649 -0.5425  0.0123 -0.5352
  348TIP3    H2 1051   0.187   1.197   1.570  0.0449 -0.4745  0.5263
  349TIP3   OH2 1052   0.365   3.953   0.293 -0.2676 -0.1048  0.3089
  349TIP3    H1 1053   0.333   3.863   0.303  0.7188 -0.3886  1.0330
  349TIP3    H2 1054   0.402   3.975   0.379 -1.2281  1.2998  0.4020
  350TIP3   OH2 1055   2.411   5.577   4.668 -0.4421 -0.1778  0.3990
  350TIP3    H1 1056   2.435   5.640   4.736  0.0617 -0.9699  0.9709
  350TIP3    H2 1057   2.486   5.577   4.608  0.6235 -1.9187  1.6513
  351TIP3   OH2 1058   0.572   4.769   3.690 -0.2460 -0.0047  0.2687
  351TIP3    H1 1059   0.573   4.674   3.703 -0.8618  0.1717  1.7543
  351TIP3    H2 1060   0.660   4.789   3.657  0.8925 -0.7844  2.5857
  352TIP3   OH2 1061   4.784   5.541   4.184 -0.2225  0.0493 -0.7558
  352TIP3    H1 1062   4.805   5.503   4.099 -0.2787  3.0979 -2.2544
  352TIP3    H2 1063   4.694   5.572   4.175 -0.0826  0.7984  0.2678
  353TIP3   OH2 1064   6.092   4.737   0.854  0.0380  0.1705 -0.1308
  353TIP3    H1 1065   6.064   4.770   0.769  0.0213 -0.6451 -0.4482
  353TIP3    H2 1066   6.017   4.753   0.912  0.2509  1.2114 -0.1371
  354TIP3   OH2 1067   5.613   3.457   0.271  0.1956  0.1502  0.5646
  354TIP3    H1 1068   5.609   3.481   0.363  1.1616 -0.4167  0.7740
  354TIP3    H2 1069   5.549   3.513   0.228 -0.3293  0.3589  1.5916
  355TIP3   OH2 1070   2.477   1.307   5.090 -0.0945  0.5071  0.0951
  355TIP3    H1 1071   2.422   1.371   5.135 -1.9480 -2.4147  2.4144
  355TIP3    H2 1072   2.434   1.293   5.006 -3.1866 -1.6846  1.8458
  356TIP3   OH2 1073   3.552   5.180   4.358  0.4337 -0.1703 -0.2130
  356TIP3    H1 1074   3.550   5.264   4.404  0.9074 -0.4865  0.3890
  356TIP3    H2 1075   3.463   5.146   4.366 -0.3913  1.2435 -2.3139
  357TIP3   OH2 1076   2.929   0.909   3.009 -0.0340  0.0166  0.3784
  357TIP3    H1 1077   2.905   0.831   3.058  0.7708  0.0323  0.8189
  357TIP3    H2 1078   2.918   0.884   2.917  1.0295 -0.9174  0.4770
  358TIP3   OH2 1079   5.723   1.117   0.929 -0.2223  0.0613 -0.0298
  358TIP3    H1 1080   5.759   1.134   0.843  1.8852  0.1169  0.8183
  358TIP3    H2 1081   5.722   1.202   0.973 -0.2648 -0.1372  0.3654
  359TIP3   OH2 1082   0.584   4.950   3.144 -0.4621  0.5764  0.2616
  359TIP3    H1 1083   0.551   5.017   3.203  1.7994  0.4565  1.7871
  359TIP3    H2 1084   0.668   4.924   3.181 -0.1944 -1.4788 -1.5467
  360TIP3   OH2 1085   3.867   0.656   2.313  0.0388  0.5531  0.2605
  360TIP3    H1 1086   3.926   0.716   2.358  0.4925 -0.4944  1.1166
  360TIP3    H2 1087   3.924   0.604   2.256 -0.6403  2.5271 -2.3881
  361TIP3   OH2 1088   4.418   4.973   1.781  0.1604 -0.1788 -0.2913
  361TIP3    H1 1089   4.385   5.026   1.709 -0.5242  2.6589  1.8863
  361TIP3    H2 1090   4.340   4.934   1.820  0.4643 -1.2534 -0.7411
  362TIP3   OH2 1091   0.957   3.963   4.481  0.0599 -0.2687 -0.2825
  362TIP3    H1 1092   0.978   3.907   4.556 -1.3222  0.0327  0.3617
  362TIP3    H2 1093   1.012   4.040   4.493  0.7951 -0.7762 -0.3035
  363TIP3   OH2 1094   1.467   4.164   2.854 -0.0258  0.0390  0.0636
  363TIP3    H1 1095   1.430   4.200   2.935  1.9822 -1.2408  1.6444
  363TIP3    H2 1096   1.530   4.229   2.825  0.9122 -0.5049  0.8411
  364TIP3   OH2 1097   0.180   1.807   3.369  0.2608 -0.5185 -0.0637
  364TIP3    H1 1098   0.187   1.859   3.449 -1.3085 -3.7884  2.4918
  364TIP3    H2 1099   0.110   1.850   3.319  0.9880  1.3910  0.4728
  365TIP3   OH2 1100   2.625   4.108   1.762  0.4057  0.6691  0.1568
  365TIP3    H1 1101   2.556   4.107   1.695  0.6041 -0.7629 -0.0767
  365TIP3    H2 1102   2.578   4.103   1.845  0.1950  0.6297  0.0366
  366TIP3   OH2 1103   4.754   0.857   2.875 -0.4804 -0.4540 -0.1927
  366TIP3    H1 1104   4.811   0.789   2.840  0.3285 -0.6158  1.3281
  366TIP3    H2 1105   4.690   0.873   2.806 -0.4111 -2.4182 -0.7806
  367TIP3   OH2 1106   0.954   1.872   2.481 -0.5498 -0.0146 -0.0241
  367TIP3    H1 1107   0.962   1.954   2.529  0.6595  0.3480 -0.8071
  367TIP3    H2 1108   0.881   1.886   2.420  0.5259  0.9959 -1.1236
  368TIP3   OH2 1109   1.246   3.567   4.316 -0.1385 -0.3525  0.0800
  368TIP3    H1 1110   1.308   3.505   4.279 -0.4615 -1.4354  1.2838
  368TIP3    H2 1111   1.206   3.610   4.241  0.8151 -0.8868 -0.7429
  369TIP3   OH2 1112   3.249   4.915   2.736  0.0669  0.1002  0.2850
  369TIP3    H1 1113   3.186   4.986   2.723  0.8324  0.9557  1.1255
  369TIP3    H2 1114   3.334   4.958   2.739  0.4874 -0.7570  1.5053
  370TIP3   OH2 1115   0.037   0.221   4.523 -0.1633  0.0487  0.9883
  370TIP3    H1 1116  -0.055   0.246   4.515 -0.4080 -0.5913  1.7144
  370TIP3    H2 1117   0.038   0.127   4.504  0.4267  0.1624  0.4402
  371TIP3   OH2 1118   3.369   3.216   4.255  0.1674  0.0172  0.3997
  371TIP3    H1 1119   3.359   3.127   4.288  0.5501  0.6843  2.3978
  371TIP3    H2 1120   3.282   3.240   4.223  0.3286 -1.4760 -1.3572
  372TIP3   OH2 1121   2.295   5.623   3.418 -0.1850 -0.5224  0.0650
  372TIP3    H1 1122   2.291   5.686   3.490 -0.6695 -0.7105  0.2038
  372TIP3    H2 1123   2.317   5.540   3.460  0.5161 -0.4406 -0.1263
  373TIP3   OH2 1124   3.378   3.369   3.465  0.4011 -0.0676  0.3092
  373TIP3    H1 1125   3.470   3.341   3.468  0.4345 -0.2106 -1.4071
  373TIP3    H2 1126   3.345   3.350   3.553  2.0842  0.2483  1.0592
  374TIP3   OH2 1127   0.214   1.788   0.309 -0.0849 -0.8586  0.1061
  374TIP3    H1 1128   0.136   1.806   0.256  0.2557 -0.9430 -0.4435
  374TIP3    H2 1129   0.286   1.788   0.245  0.4169 -0.3825  0.6557
  375TIP3   OH2 1130   5.570   1.047   1.247 -0.3326  0.0153  0.2710
  375TIP3    H1 1131   5.596   1.060   1.338 -1.1747 -0.4277  0.5926
  375TIP3    H2 1132   5.652   1.046   1.198  0.3395 -1.9845  1.3173
  376TIP3   OH2 1133   3.320   5.133   4.184  0.6119  0.0236 -0.5792
  376TIP3    H1 1134   3.366   5.183   4.117  1.1792  1.1510  0.6034
  376TIP3    H2 1135   3.274   5.199   4.236  1.9458 -0.5621  1.4634
  377TIP3   OH2 1136   5.748   5.565   3.571 -0.3106  0.2994 -0.0127
  377TIP3    H1 1137   5.829   5.562   3.520 -0.3206  0.5231 -0.0427
  377TIP3    H2 1138   5.764   5.633   3.637 -0.5234  0.4375 -0.1024
  378TIP3   OH2 1139   3.879   4.085   2.567 -0.9076 -0.4168 -0.2853
  378TIP3    H1 1140   3.790   4.117   2.553  0.1342  2.5434 -0.8541
  378TIP3    H2 1141   3.882   4.002   2.519 -3.7304 -1.4530  1.0538
  379TIP3   OH2 1142   4.900   5.241   0.295 -0.4642  0.1890 -0.1560
  379TIP3    H1 1143   4.814   5.202   0.276 -0.5755 -0.3632  1.3746
  379TIP3    H2 1144   4.962   5.171   0.278 -0.2400  0.7011 -1.6348
  380TIP3   OH2 1145   4.387   1.631   0.050  0.1101 -0.5724 -0.0381
  380TIP3    H1 1146   4.324   1.673  -0.009  0.1103 -1.1324 -0.4508
  380TIP3    H2 1147   4.422   1.557  -0.001  1.2112 -0.1886  0.1364
  381TIP3   OH2 1148   2.202   1.895   4.730 -0.1543  0.1095  0.0566
  381TIP3    H1 1149   2.294   1.917   4.722 -0.1554  0.7007  1.4197
  381TIP3    H2 1150   2.165   1.912   4.643  1.0397 -0.2866 -0.5390
  382TIP3   OH2 1151   1.173   2.805   1.583  0.1904 -0.0813 -0.0096
  382TIP3    H1 1152   1.196   2.734   1.523 -0.7135 -0.6770  0.3227
  382TIP3    H2 1153   1.159   2.762   1.667  0.7843  0.6594  0.4862
  383TIP3   OH2 1154   4.848   1.205   4.129 -0.6560 -0.2530 -0.2127
  383TIP3    H1 1155   4.772   1.227   4.074 -1.4493 -1.6373  0.2646
  383TIP3    H2 1156   4.885   1.127   4.088 -1.7457 -1.8028  1.5884
  384TIP3   OH2 1157   1.199   4.129   1.394 -0.4967 -0.4417  0.4896
  384TIP3    H1 1158   1.257   4.084   1.332  0.6734 -0.2192  1.3731
  384TIP3    H2 1159   1.188   4.216   1.357 -0.5071 -0.5732  0.1726
  385TIP3   OH2 1160   2.407   2.563   4.784 -0.7027  0.2095  0.2454
  385TIP3    H1 1161   2.429   2.535   4.695 -1.0336  0.2520  0.1471
  385TIP3    H2 1162   2.480   2.532   4.838 -0.1807  0.7533 -0.1364
  386TIP3   OH2 1163   4.492   0.657   3.579  0.1599 -0.3942 -0.0145
  386TIP3    H1 1164   4.561   0.599   3.610  1.4473  1.1466  0.1110
  386TIP3    H2 1165   4.430   0.661   3.652  0.5408 -0.8678  0.3392
  387TIP3   OH2 1166   0.697   2.083   2.664 -0.0026 -0.2125 -0.2460
  387TIP3    H1 1167   0.667   2.160   2.711 -2.2594 -1.7818  1.0498
  387TIP3    H2 1168   0.792   2.094   2.658 -0.2567  2.6394 -0.1623
  388TIP3   OH2 1169   4.621   3.418   1.528  0.0621 -0.5833  0.0774
  388TIP3    H1 1170   4.688   3.379   1.471  0.1913  0.9526 -0.8652
  388TIP3    H2 1171   4.548   3.355   1.524  1.8822 -3.0842  2.3400
  389TIP3   OH2 1172   4.495   1.638   3.604  0.3051 -0.1030  0.2879
  389TIP3    H1 1173   4.540   1.722   3.612 -0.7462  0.4650  0.5059
  389TIP3    H2 1174   4.508   1.595   3.688 -0.2878  0.4469  0.6725
  390TIP3   OH2 1175   0.488   4.341   0.158 -0.5555  0.2887 -0.5083
  390TIP3    H1 1176   0.523   4.423   0.124 -1.9933  0.1485 -2.4721
  390TIP3    H2 1177   0.443   4.367   0.239 -0.6690  1.3765 -0.8993
  391TIP3   OH2 1178   4.032   4.880   4.845  0.2045  0.4712  0.6888
  391TIP3    H1 1179   3.942   4.894   4.816  0.4377  3.7353  1.1137
  391TIP3    H2 1180   4.029   4.893   4.940  0.8215 -1.5626  1.0246
  392TIP3   OH2 1181   3.694   2.368   4.624  0.7109  0.0588 -0.3956
  392TIP3    H1 1182   3.713   2.427   4.696 -0.0140 -1.4783  1.1460
  392TIP3    H2 1183   3.761   2.300   4.630  0.4437 -0.2622 -0.9549
  393TIP3   OH2 1184   2.301   5.019   1.417 -0.4714 -0.6458  0.5038
  393TIP3    H1 1185   2.340   4.965   1.348  1.9860  1.1768  0.3622
  393TIP3    H2 1186   2.289   5.105   1.377  4.7236  1.7259  3.1185
  394TIP3   OH2 1187   2.517   2.514   3.895 -0.2519 -0.0940  0.6227
  394TIP3    H1 1188   2.432   2.482   3.865  0.0758 -0.0660 -0.4004
  394TIP3    H2 1189   2.579   2.448   3.864  0.4699  1.5484 -1.7366
  395TIP3   OH2 1190   6.000   4.069   4.744 -0.3036 -0.4411  0.2504
  395TIP3    H1 1191   5.989   4.108   4.658 -1.8774 -0.0494  0.5969
  395TIP3    H2 1192   6.050   4.133   4.795 -0.1223 -0.2973 -0.1108
  396TIP3   OH2 1193   4.021   4.700   4.603 -0.4099 -0.8720  0.2164
  396TIP3    H1 1194   4.060   4.735   4.683 -0.4281 -0.2944 -0.0201
  396TIP3    H2 1195   3.931   4.735   4.603 -0.3043 -0.5879 -0.2208
  397TIP3   OH2 1196   1.574   1.427   3.318  0.0349 -0.9520  0.3831
  397TIP3    H1 1197   1.577   1.473   3.402 -0.4924 -0.6029  0.2138
  397TIP3    H2 1198   1.492   1.455   3.278  0.8079 -0.1893 -0.7649
  398TIP3   OH2 1199   3.994   5.818   0.193  0.1141 -0.0252 -0.2185
  398TIP3    H1 1200   4.068   5.851   0.143  0.8527 -0.0946  0.7978
  398TIP3    H2 1201   3.928   5.794   0.127  1.3393 -0.8201 -1.1905
  399TIP3   OH2 1202   2.240   0.414   3.869  0.0457  0.3550 -0.0224
  399TIP3    H1 1203   2.278   0.371   3.792  0.3805 -2.3775  1.5400
  399TIP3    H2 1204   2.315   0.454   3.914 -0.2941  3.0421 -1.5972
  400TIP3   OH2 1205   4.634   4.880   2.074 -0.0923 -0.2323  0.2204
  400TIP3    H1 1206   4.676   4.848   1.995  0.3423  0.2251  0.2616
  400TIP3    H2 1207   4.553   4.830   2.080  0.3186 -0.9509  0.0027
  401TIP3   OH2 1208   0.295   0.146   3.946  0.0526 -0.0913 -0.3917
  401TIP3    H1 1209   0.372   0.196   3.920  0.8430 -1.9521 -1.8394
  401TIP3    H2 1210   0.232   0.160   3.876  0.3313 -1.2051 -0.8738
  402TIP3   OH2 1211   1.866   1.357   3.542 -0.0768  0.0058 -0.1571
  402TIP3    H1 1212   1.859   1.431   3.602  1.1095 -0.4907  0.6266
  402TIP3    H2 1213   1.877   1.397   3.455  2.7742  0.8457  0.4930
  403TIP3   OH2 1214   5.451   1.127   3.665 -0.1360  0.7056  0.1605
  403TIP3    H1 1215   5.544   1.125   3.643 -0.1995  1.0973 -0.1739
  403TIP3    H2 1216   5.434   1.219   3.687  0.0242  0.2588  2.3826
  404TIP3   OH2 1217   3.434   5.219   2.824 -0.2988 -0.1700  0.4602
  404TIP3    H1 1218   3.411   5.194   2.735 -1.3013 -0.2719  0.7373
  404TIP3    H2 1219   3.529   5.215   2.826 -0.0902  1.7790 -1.1873
  405TIP3   OH2 1220   1.014   2.689   2.435  0.2293  0.2908 -0.1683
  405TIP3    H1 1221   0.942   2.690   2.372 -0.0319 -1.4909  0.0400
  405TIP3    H2 1222   0.973   2.710   2.519 -0.4624 -2.3984  0.2587
  406TIP3   OH2 1223   0.676   1.977   0.298  0.2062 -0.1548  0.1582
  406TIP3    H1 1224   0.665   1.882   0.307 -2.4396  0.2609  2.7382
  406TIP3    H2 1225   0.611   2.002   0.232  1.3050 -0.1199 -0.9620
  407TIP3   OH2 1226   0.441   3.103   0.312  0.0058 -0.0198 -0.1041
  407TIP3    H1 1227   0.368   3.073   0.366 -0.9763  1.0758 -0.7994
  407TIP3    H2 1228   0.408   3.101   0.223  0.6539  0.9802 -0.3825
  408TIP3   OH2 1229   0.911   1.153   3.631  0.0348 -0.4114  0.1560
  408TIP3    H1 1230   0.968   1.141   3.707 -0.7367  0.8971  0.9803
  408TIP3    H2 1231   0.859   1.073   3.627  2.3654 -1.9603 -1.0563
  409TIP3   OH2 1232   2.723   1.021   0.282 -0.2826 -0.5167 -0.0525
  409TIP3    H1 1233   2.701   0.988   0.369  0.9539  0.7705  0.8020
  409TIP3    H2 1234   2.814   0.995   0.269 -0.5937 -1.1032 -1.1840
  410TIP3   OH2 1235   5.952   3.594   1.967  0.2435  0.0402  0.9528
  410TIP3    H1 1236   5.966   3.510   1.922  1.9235  0.0809  1.3272
  410TIP3    H2 1237   5.867   3.624   1.936  0.5176 -0.8241 -0.7785
  411TIP3   OH2 1238   3.268   1.990   2.462 -0.2285  0.2198 -0.0612
  411TIP3    H1 1239   3.324   1.985   2.384  0.6021 -0.1896  0.5451
  411TIP3    H2 1240   3.289   2.075   2.501  0.7900 -0.3687  0.7415
  412TIP3   OH2 1241   3.397   2.017   2.217  1.2019  0.0035  0.8625
  412TIP3    H1 1242   3.355   2.057   2.140 -0.0597 -0.9713  1.0156
  412TIP3    H2 1243   3.445   1.943   2.181  0.5448 -0.5012  1.0160
  413TIP3   OH2 1244   3.824   1.913   5.137 -0.1078 -0.1499  0.0936
  413TIP3    H1 1245   3.911   1.906   5.099 -0.0333  2.2752 -0.3604
  413TIP3    H2 1246   3.833   1.980   5.205 -1.1720 -1.4210  1.5711
  414TIP3   OH2 1247   4.478   4.698   2.429  0.1679 -0.4573 -0.0784
  414TIP3    H1 1248   4.478   4.617   2.377  0.4101  1.0300 -2.5408
  414TIP3    H2 1249   4.406   4.750   2.394  0.0514  0.4753  1.4226
  415TIP3   OH2 1250   3.525   4.672   4.961  0.0970 -0.2761 -0.1881
  415TIP3    H1 1251   3.459   4.687   5.028 -0.2647 -0.6700 -0.4483
  415TIP3    H2 1252   3.509   4.741   4.897  0.1926 -0.1323 -0.0563
  416TIP3   OH2 1253   1.095   1.293   0.963 -0.1035  0.1381  0.5749
  416TIP3    H1 1254   1.135   1.321   1.046  0.1899  0.0249  0.4698
  416TIP3    H2 1255   1.110   1.199   0.959  0.0181  0.1676  0.3176
  417TIP3   OH2 1256   3.484   4.662   3.788  0.3109  0.3036  0.8208
  417TIP3    H1 1257   3.501   4.732   3.724  0.4424 -0.3243  0.1540
  417TIP3    H2 1258   3.390   4.647   3.782  0.4909 -0.6100 -0.1654
  418TIP3   OH2 1259   1.697   1.972   4.565  0.4865  0.1252  0.4999
  418TIP3    H1 1260   1.751   1.894   4.551 -0.3015 -0.5726  1.1974
  418TIP3    H2 1261   1.614   1.952   4.523 -0.2605 -0.0722  2.0118
  419TIP3   OH2 1262   0.993   1.242   4.749 -0.1081 -0.0534 -0.0087
  419TIP3    H1 1263   0.954   1.196   4.823 -1.7453  2.7805  1.0747
  419TIP3    H2 1264   1.056   1.302   4.789 -0.6495  1.1623 -0.9035
  420TIP3   OH2 1265   3.296   0.789   2.421 -0.1934  0.0882  0.3069
  420TIP3    H1 1266   3.316   0.710   2.471 -0.1640  0.3130  0.6501
  420TIP3    H2 1267   3.312   0.861   2.482 -3.2483  0.2614  1.0475
  421TIP3   OH2 1268   3.106   5.436   2.722  0.4834  0.4145  0.3722
  421TIP3    H1 1269   3.067   5.449   2.635  0.0736  0.7127  0.5962
  421TIP3    H2 1270   3.067   5.505   2.776 -1.1208 -1.2123  1.4204
  422TIP3   OH2 1271   1.194   1.036   1.137 -0.9889 -0.4645 -0.2344
  422TIP3    H1 1272   1.197   0.953   1.089 -1.7164 -0.6920  0.0984
  422TIP3    H2 1273   1.193   1.010   1.229 -1.9351 -0.1124 -0.1444
  423TIP3   OH2 1274   5.831   5.435   3.033  0.2353  0.3351  0.4389
  423TIP3    H1 1275   5.863   5.522   3.010  0.5247  0.2098  0.3607
  423TIP3    H2 1276   5.854   5.380   2.958 -1.2124  0.4824 -0.1383
  424TIP3   OH2 1277   4.712   3.963   3.985  0.6111 -0.2279  0.1867
  424TIP3    H1 1278   4.798   3.921   3.974  2.2905  2.5849  1.3532
  424TIP3    H2 1279   4.688   3.944   4.075  0.2617 -0.5784  0.0199
  425TIP3   OH2 1280   0.101   2.864   3.312  0.2400  0.6690 -0.1210
  425TIP3    H1 1281   0.066   2.926   3.376 -0.7120  0.8110 -0.7427
  425TIP3    H2 1282   0.157   2.806   3.362  0.3737  1.4392  0.6460
  426TIP3   OH2 1283   4.059   2.536   3.798  0.4004  0.1693  0.4364
  426TIP3    H1 1284   3.978   2.538   3.849  0.3720  0.5953  0.3820
  426TIP3    H2 1285   4.115   2.601   3.840  0.4956  0.2935  0.1200
  427TIP3   OH2 1286   4.485   0.859   3.400 -0.5442 -0.1519 -0.1688
  427TIP3    H1 1287   4.502   0.787   3.461  1.6900  0.9593  0.6463
  427TIP3    H2 1288   4.500   0.822   3.313 -0.9726 -1.0593  0.1392
  428TIP3   OH2 1289   2.776   2.253   2.926 -0.0321  0.4962 -0.0076
  428TIP3    H1 1290   2.764   2.158   2.932  1.2686  0.1910 -1.6272
  428TIP3    H2 1291   2.695   2.284   2.884 -0.7584  0.2242  1.1424
  429TIP3   OH2 1292   5.298   3.735   2.043 -0.6096 -0.0491 -0.0727
  429TIP3    H1 1293   5.244   3.682   2.102  0.2895 -0.4663  0.4038
  429TIP3    H2 1294   5.355   3.672   1.999 -0.5627  0.3722 -0.6306
  430TIP3   OH2 1295   3.578   3.739   1.601 -0.2699 -0.0793  0.0827
  430TIP3    H1 1296   3.548   3.791   1.526  3.8661  1.0625 -1.0638
  430TIP3    H2 1297   3.606   3.804   1.665  0.3355 -0.9903  0.7613
  431TIP3   OH2 1298   6.007   4.611   2.555 -0.3269 -0.2517 -0.0979
  431TIP3    H1 1299   5.933   4.588   2.499  0.5078 -0.4629 -1.1508
  431TIP3    H2 1300   6.051   4.528   2.574  1.4879  0.1366 -2.1860
  432TIP3   OH2 1301   1.947   4.990   0.006 -0.1561 -0.5256 -0.8528
  432TIP3    H1 1302   2.011   5.060  -0.008  0.7047 -0.9005  1.0653
  432TIP3    H2 1303   1.971   4.950   0.089 -4.0206  0.6337  1.0813
  433TIP3   OH2 1304   5.204   0.829   3.803 -0.0406  0.3592 -0.2222
  433TIP3    H1 1305   5.194   0.745   3.759  0.4488  0.2862 -0.2022
  433TIP3    H2 1306   5.186   0.894   3.734  1.7578  0.2605 -0.8495
  434TIP3   OH2 1307   3.764   3.796   2.019  0.2828  0.1721 -0.4116
  434TIP3    H1 1308   3.728   3.767   2.102 -1.7515  0.8478 -0.9761
  434TIP3    H2 1309   3.858   3.784   2.027 -0.0874 -2.7419  0.8165
  435TIP3   OH2 1310   0.036   5.316   1.543 -0.4765 -0.1304  0.0174
  435TIP3    H1 1311   0.104   5.341   1.480 -0.6952  1.1109  0.2438
  435TIP3    H2 1312  -0.033   5.381   1.531 -1.3900 -1.0368  0.1899
  436TIP3   OH2 1313   0.093   4.483   0.191 -0.3456  0.0391 -0.3623
  436TIP3    H1 1314   0.054   4.564   0.224 -0.9107 -0.1586 -0.5228
  436TIP3    H2 1315   0.136   4.508   0.110 -1.4487 -0.0136 -0.9832
  437TIP3   OH2 1316   6.076   0.066   4.607 -0.6691  0.7002 -1.1323
  437TIP3    H1 1317   6.012   0.005   4.643  0.2770 -0.4370 -1.2981
  437TIP3    H2 1318   6.161   0.028   4.631  0.0018  3.0850  0.6607
  438TIP3   OH2 1319   5.477   0.740   0.760  0.3442 -0.0940 -0.5135
  438TIP3    H1 1320   5.550   0.791   0.795  0.7075  0.3826 -1.9353
  438TIP3    H2 1321   5.399   0.784   0.794  0.6813  0.5114 -0.5170
  439TIP3   OH2 1322   2.271   5.046   3.203 -0.1258 -0.1537 -0.8106
  439TIP3    H1 1323   2.271   4.981   3.274 -2.4328  0.2677 -0.3589
  439TIP3    H2 1324   2.363   5.056   3.180  0.4117 -2.7803 -0.1532
  440TIP3   OH2 1325   1.150   2.118   1.208 -0.0087  0.1457 -0.1400
  440TIP3    H1 1326   1.187   2.082   1.288  0.5963 -0.0644 -0.5034
  440TIP3    H2 1327   1.214   2.182   1.178 -0.5726  0.7524 -0.0747
  441TIP3   OH2 1328   3.555   0.747   1.599 -1.0964  0.0195 -0.4884
  441TIP3    H1 1329   3.519   0.836   1.600 -2.1422 -0.3678  1.7457
  441TIP3    H2 1330   3.491   0.695   1.648  0.2471 -1.6701 -0.4565
  442TIP3   OH2 1331   3.466   5.807   3.171  0.4089  0.2641 -0.2722
  442TIP3    H1 1332   3.483   5.755   3.092 -4.2542 -0.6247 -1.0070
  442TIP3    H2 1333   3.451   5.743   3.240 -1.7288  0.6720 -0.2868
  443TIP3   OH2 1334   3.883   2.326   0.976 -0.0218 -0.2029  0.5474
  443TIP3    H1 1335   3.952   2.289   0.921 -0.1635  0.3851 -0.0345
  443TIP3    H2 1336   3.924   2.336   1.062  0.4537 -0.3525  0.3422
  444TIP3   OH2 1337   4.548   1.491   4.444  0.0241  0.2042 -0.3507
  444TIP3    H1 1338   4.544   1.433   4.368  1.8870  0.5252 -0.7301
  444TIP3    H2 1339   4.542   1.579   4.407  1.6903  0.3907 -0.2350
  445TIP3   OH2 1340   6.099   4.091   4.445 -0.5548 -0.3480 -0.2058
  445TIP3    H1 1341   6.169   4.027   4.458 -1.0919 -0.7898  0.6093
  445TIP3    H2 1342   6.081   4.088   4.351 -0.9514 -1.8299 -0.1130
  446TIP3   OH2 1343   3.634   0.151   3.408  0.3872  0.6101  0.1805
  446TIP3    H1 1344   3.680   0.184   3.485  0.4528  2.4375 -0.5974
  446TIP3    H2 1345   3.547   0.190   3.413  0.3721  0.6916 -0.6315
  447TIP3   OH2 1346   6.069   0.782   1.705 -0.5350 -0.2914  0.2993
  447TIP3    H1 1347   6.073   0.756   1.613 -0.0371 -1.2871  0.5880
  447TIP3    H2 1348   6.153   0.826   1.721 -1.1040  0.9499 -0.0143
  448TIP3   OH2 1349   1.976   1.751   2.299 -0.6722 -0.0774  0.1140
  448TIP3    H1 1350   1.953   1.671   2.252 -0.9810  0.5892 -0.9130
  448TIP3    H2 1351   2.024   1.721   2.376 -2.3526 -1.3347  0.7119
  449TIP3   OH2 1352   2.247   5.895   1.865  0.0569 -0.1063 -0.2439
  449TIP3    H1 1353   2.173   5.927   1.814  0.6030 -1.9186 -2.3015
  449TIP3    H2 1354   2.211   5.826   1.920 -0.0076 -0.1142 -0.2965
  450TIP3   OH2 1355   5.171   2.667   1.394  0.0981  0.0486 -0.2522
  450TIP3    H1 1356   5.238   2.715   1.443  0.3476  0.0894 -0.6238
  450TIP3    H2 1357   5.149   2.593   1.450 -0.4298  0.7011  0.4116
  451TIP3   OH2 1358   2.910   0.618   3.543  0.2591 -0.5036 -0.0832
  451TIP3    H1 1359   2.887   0.567   3.621  0.9074 -1.7831 -0.7068
  451TIP3    H2 1360   2.929   0.553   3.476  1.9347  0.5309 -0.6751
  452TIP3   OH2 1361   4.957   3.161   1.844 -0.2244 -0.3130 -0.0069
  452TIP3    H1 1362   4.913   3.151   1.760 -1.0528 -0.5307  0.4389
  452TIP3    H2 1363   4.910   3.101   1.903  1.8439 -1.9864  0.0644
  453TIP3   OH2 1364   2.135   4.345   0.696 -0.3083 -0.6070 -0.5245
  453TIP3    H1 1365   2.129   4.253   0.721  0.2632 -0.2844  0.9676
  453TIP3    H2 1366   2.048   4.380   0.714  0.3029 -0.1992  2.0398
  454TIP3   OH2 1367   4.363   2.447   0.278  0.0716  0.5780  0.4463
  454TIP3    H1 1368   4.334   2.396   0.354  0.7954 -1.3014 -0.4837
  454TIP3    H2 1369   4.418   2.515   0.315 -0.8215  0.6513  1.7275
  455TIP3   OH2 1370   5.417   0.706   3.624 -0.0418 -0.2604 -0.2517
  455TIP3    H1 1371   5.411   0.792   3.666  1.6043 -0.4170  0.3875
  455TIP3    H2 1372   5.406   0.644   3.696 -1.2609 -0.6088 -0.7146
  456TIP3   OH2 1373   1.701   1.743   2.160  0.3142 -0.1170 -0.2317
  456TIP3    H1 1374   1.786   1.778   2.188  1.0516 -2.0679  0.1084
  456TIP3    H2 1375   1.704   1.745   2.064  0.9255 -0.5382 -0.2279
  457TIP3   OH2 1376   5.418   3.167   4.529 -0.1280  0.1069 -0.3245
  457TIP3    H1 1377   5.453   3.181   4.441 -1.9655  0.3837 -1.0642
  457TIP3    H2 1378   5.400   3.256   4.562  1.4665  0.0708  0.7727
  458TIP3   OH2 1379   0.374   4.167   1.717  0.2228  0.1578  0.5283
  458TIP3    H1 1380   0.420   4.139   1.638  0.6440  1.5420  0.2481
  458TIP3    H2 1381   0.442   4.177   1.783  0.1262  0.6713  0.5605
  459TIP3   OH2 1382   0.629   5.191   2.423 -0.0013  0.1623 -0.1240
  459TIP3    H1 1383   0.638   5.281   2.453 -0.8434  0.6982 -1.4047
  459TIP3    H2 1384   0.718   5.165   2.398  0.5365  0.0512  1.7172
  460TIP3   OH2 1385   1.408   4.014   4.396 -0.0948 -0.9727  0.0020
  460TIP3    H1 1386   1.337   4.078   4.402  1.4803  0.8006  0.7828
  460TIP3    H2 1387   1.392   3.954   4.469 -1.6626 -1.6012 -0.8147
  461TIP3   OH2 1388   0.145   2.743   4.722 -0.0570  0.3563  0.4896
  461TIP3    H1 1389   0.057   2.776   4.737 -0.3265 -0.6000  1.1399
  461TIP3    H2 1390   0.203   2.808   4.761 -0.5180  0.5489  0.8526
  462TIP3   OH2 1391   4.913   5.549   3.910  0.0409 -0.1745 -0.0324
  462TIP3    H1 1392   5.001   5.520   3.888  0.3928  0.1304  0.8967
  462TIP3    H2 1393   4.890   5.612   3.841  0.9822  0.5462  0.2808
  463TIP3   OH2 1394   5.847   3.284   3.422 -0.0368 -0.0473 -0.2684
  463TIP3    H1 1395   5.855   3.258   3.330  1.3023 -1.7545  0.2732
  463TIP3    H2 1396   5.871   3.205   3.471  0.1924  1.1049  1.5569
  464TIP3   OH2 1397   1.017   3.740   0.986  0.4440 -0.2019  0.1017
  464TIP3    H1 1398   0.990   3.809   0.926 -0.4106  0.5590  1.3160
  464TIP3    H2 1399   1.000   3.658   0.939  1.3602  0.3935 -1.3098
  465TIP3   OH2 1400   3.978   2.349   1.253 -0.0039  0.2001 -0.6421
  465TIP3    H1 1401   4.011   2.260   1.264 -1.5460 -0.3812 -0.4781
  465TIP3    H2 1402   4.000   2.393   1.335  1.2668  0.1474 -0.9449
  466TIP3   OH2 1403   1.554   3.443   1.644 -0.3136  0.5604 -0.2087
  466TIP3    H1 1404   1.500   3.459   1.567 -0.7665 -1.5190 -0.3641
  466TIP3    H2 1405   1.637   3.488   1.625  0.0621 -0.9422 -2.4924
  467TIP3   OH2 1406   2.363   2.979   4.864  0.4914 -0.2367  0.2545
  467TIP3    H1 1407   2.296   2.933   4.813  1.5204  1.3427 -2.8041
  467TIP3    H2 1408   2.315   3.018   4.937 -1.9265  0.4276 -1.5459
  468TIP3   OH2 1409   3.327   4.758   0.491  0.0568 -0.0532 -0.4602
  468TIP3    H1 1410   3.272   4.786   0.418 -0.5543  1.4206  0.5379
  468TIP3    H2 1411   3.371   4.679   0.458 -3.7138 -2.2359 -0.8350
  469TIP3   OH2 1412   1.938   0.328   4.114 -0.2018  0.0747 -0.1937
  469TIP3    H1 1413   1.876   0.268   4.154 -1.4214  0.0508 -2.0424
  469TIP3    H2 1414   1.896   0.414   4.121  0.4439  0.3720  0.2432
  470TIP3   OH2 1415   5.093   3.062   1.022  0.1587  0.3616  0.0407
  470TIP3    H1 1416   5.083   2.979   0.976  0.7890  0.3344 -0.0438
  470TIP3    H2 1417   5.004   3.082   1.054  0.3255 -1.2744  1.7013
  471TIP3   OH2 1418   1.661   5.318   0.246 -0.1961  0.3571 -0.0336
  471TIP3    H1 1419   1.601   5.365   0.188  0.7611  0.5928 -0.8506
  471TIP3    H2 1420   1.747   5.352   0.225  0.3561 -0.7496  0.3732
  472TIP3   OH2 1421   2.579   1.145   4.781 -0.0141 -0.3988 -1.1004
  472TIP3    H1 1422   2.577   1.099   4.864  1.0012  1.7198  0.1712
  472TIP3    H2 1423   2.490   1.178   4.769 -0.4615 -1.6831 -1.4832
  473TIP3   OH2 1424   5.035   4.734   0.992  0.0381 -0.2082 -0.5071
  473TIP3    H1 1425   5.057   4.827   1.003 -0.9146  0.1725 -1.5531
  473TIP3    H2 1426   5.087   4.689   1.058  1.4803  0.9437 -0.7975
  474TIP3   OH2 1427   5.325   0.758   1.555  0.0880  0.1405  0.4711
  474TIP3    H1 1428   5.420   0.762   1.539  0.2025  0.8331  1.2372
  474TIP3    H2 1429   5.294   0.846   1.535 -0.2359  0.1818  1.1256
  475TIP3   OH2 1430   0.231   1.822   0.589  0.1043 -0.1855 -0.1202
  475TIP3    H1 1431   0.265   1.812   0.500  0.8347 -0.4480  0.1802
  475TIP3    H2 1432   0.187   1.739   0.608  0.9093 -0.5492  0.1649
  476TIP3   OH2 1433   0.848   4.893   1.444 -0.1843  0.1125 -0.1709
  476TIP3    H1 1434   0.919   4.834   1.469 -0.1888 -0.7222 -1.9772
  476TIP3    H2 1435   0.776   4.871   1.503  1.2282  1.5037  2.2082
  477TIP3   OH2 1436   5.956   1.045   1.694  0.3547  0.1623  0.2663
  477TIP3    H1 1437   5.979   0.986   1.765  0.3525 -0.3374 -0.1462
  477TIP3    H2 1438   6.020   1.028   1.625 -0.4204 -0.2907 -0.3643
  478TIP3   OH2 1439   1.721   0.319   2.301  0.1677  0.5608  0.3322
  478TIP3    H1 1440   1.627   0.328   2.313  0.3979  2.3555  1.0438
  478TIP3    H2 1441   1.739   0.362   2.217  0.2912 -0.3363 -0.1148
  479TIP3   OH2 1442   5.103   1.273   4.549 -0.1086  0.2721  0.7367
  479TIP3    H1 1443   5.158   1.310   4.480  0.9030  1.5135  2.1503
  479TIP3    H2 1444   5.016   1.265   4.509  0.5274  0.6399 -0.7677
  480TIP3   OH2 1445   5.690   3.907   0.891 -0.8990 -0.6266  0.1196
  480TIP3    H1 1446   5.621   3.972   0.879  0.1726  0.4255 -0.5554
  480TIP3    H2 1447   5.644   3.828   0.919 -2.6086 -0.5447 -2.1742
  481TIP3   OH2 1448   1.664   2.756   4.514 -0.3737 -0.6619 -0.5142
  481TIP3    H1 1449   1.756   2.730   4.510 -0.1756  0.1100 -1.5985
  481TIP3    H2 1450   1.661   2.841   4.470 -1.7256 -1.0395 -1.2356
  482TIP3   OH2 1451   1.149   0.074   1.309 -0.0873  0.7735  0.1627
  482TIP3    H1 1452   1.241   0.095   1.323  0.2175  0.7134 -1.4939
  482TIP3    H2 1453   1.136  -0.008   1.356  0.3375  1.4660  1.5296
  483TIP3   OH2 1454   0.151   4.569   2.435 -0.1048 -0.8759  0.7340
  483TIP3    H1 1455   0.148   4.541   2.344  1.4539 -1.3526  0.7976
  483TIP3    H2 1456   0.094   4.645   2.439 -0.7720 -1.2896 -0.4686
  484TIP3   OH2 1457   3.786   0.861   0.162 -0.3615  0.0707 -0.2553
  484TIP3    H1 1458   3.845   0.936   0.165  0.8247 -0.8653  0.8957
  484TIP3    H2 1459   3.735   0.874   0.082  0.2629  1.7527 -0.4156
  485TIP3   OH2 1460   0.665   4.924   1.154  0.0236  0.2469  0.4080
  485TIP3    H1 1461   0.646   4.832   1.172 -1.3837  0.0889 -1.5643
  485TIP3    H2 1462   0.709   4.955   1.233 -1.5187 -1.5214  2.0753
  486TIP3   OH2 1463   4.100   4.594   5.152  0.2975  0.1389  0.8904
  486TIP3    H1 1464   4.192   4.573   5.140  0.0716  0.1421 -1.1723
  486TIP3    H2 1465   4.092   4.685   5.124 -0.6914 -0.5625 -1.4052
  487TIP3   OH2 1466   0.994   2.906   0.540 -0.1224 -0.1292  0.3875
  487TIP3    H1 1467   1.060   2.888   0.472  1.9893  1.0719  1.9932
  487TIP3    H2 1468   0.946   2.824   0.548 -1.8149  0.1989 -3.8090
  488TIP3   OH2 1469   0.729   2.253   4.199 -0.4408 -0.0759 -0.2383
  488TIP3    H1 1470   0.713   2.325   4.137 -1.1835  0.3163  0.3913
  488TIP3    H2 1471   0.821   2.264   4.224 -0.0292 -0.4306 -1.4921
  489TIP3   OH2 1472   4.722   2.979   1.346 -0.3339  0.1089  0.3868
  489TIP3    H1 1473   4.672   2.951   1.269  0.5668  0.9326 -0.5128
  489TIP3    H2 1474   4.691   3.068   1.364 -1.2296 -0.4067  1.5961
  490TIP3   OH2 1475   1.021   3.269   4.432 -0.3704 -0.1444 -0.0442
  490TIP3    H1 1476   0.950   3.272   4.496 -0.4254 -1.4353 -0.0324
  490TIP3    H2 1477   1.048   3.361   4.423 -1.3942  0.2478  0.6566
  491TIP3   OH2 1478   0.076   3.422   3.057 -0.2518 -0.6246 -0.5862
  491TIP3    H1 1479   0.063   3.368   2.979 -1.3920  1.0232 -1.5943
  491TIP3    H2 1480   0.165   3.455   3.049 -0.6743  0.2904 -1.7128
  492TIP3   OH2 1481   3.159   4.595   4.720 -0.4498 -0.4130  0.3092
  492TIP3    H1 1482   3.252   4.618   4.715 -0.7402  1.3989  1.8904
  492TIP3    H2 1483   3.116   4.664   4.669 -1.1381  1.1354  2.7738
  493TIP3   OH2 1484   2.179   1.055   3.486 -0.7595  0.4643  0.0766
  493TIP3    H1 1485   2.119   1.100   3.426 -1.8312  0.7307  1.2912
  493TIP3    H2 1486   2.262   1.101   3.475 -1.3381  1.5174 -0.0827
  494TIP3   OH2 1487   0.952   5.138   1.103  0.1611 -0.5351  0.5486
  494TIP3    H1 1488   0.940   5.051   1.065  0.2063 -0.5758  0.6263
  494TIP3    H2 1489   0.991   5.190   1.033  0.6781 -0.7339  0.6811
  495TIP3   OH2 1490   1.853   4.586   2.964  0.2999 -0.3371  0.3196
  495TIP3    H1 1491   1.940   4.616   2.937 -0.0051  1.3987  1.1102
  495TIP3    H2 1492   1.807   4.666   2.989 -0.4027 -1.5148  3.1812
  496TIP3   OH2 1493   3.882   5.474   3.900  0.7006  0.2042  0.1062
  496TIP3    H1 1494   3.857   5.454   3.810  2.0801 -0.3288 -0.1873
  496TIP3    H2 1495   3.806   5.450   3.952 -0.5142  1.4500 -0.9800
  497TIP3   OH2 1496   3.221   3.230   2.765  0.0971  0.0274  0.7154
  497TIP3    H1 1497   3.144   3.279   2.736 -0.2092 -0.2887  0.9868
  497TIP3    H2 1498   3.207   3.216   2.858  0.9452  0.7933  0.9708
  498TIP3   OH2 1499   2.835   3.987   4.816  0.0306  0.4054  0.3937
  498TIP3    H1 1500   2.882   4.038   4.750 -0.7908 -0.1240 -0.6190
  498TIP3    H2 1501   2.905   3.943   4.865  0.6477  0.7546 -0.1486
  499TIP3   OH2 1502   0.775   3.304   4.294  0.5324 -0.4246  0.1788
  499TIP3    H1 1503   0.862   3.275   4.322  1.2077  0.8100 -0.5631
  499TIP3    H2 1504   0.746   3.364   4.363 -0.2242 -1.6474  0.9657
  500TIP3   OH2 1505   4.544   1.434   3.409 -0.2099 -0.3746  0.7227
  500TIP3    H1 1506   4.638   1.451   3.407 -0.5038  1.3641 -1.4016
  500TIP3    H2 1507   4.515   1.472   3.492  0.5457  1.8763  0.0337
  501TIP3   OH2 1508   0.591   1.550   2.447 -0.1188 -0.4264  0.1968
  501TIP3    H1 1509   0.640   1.473   2.478  1.9460  0.8162  0.2230
  501TIP3    H2 1510   0.520   1.560   2.511  1.0871 -0.8330  1.6703
  502TIP3   OH2 1511   6.352   1.725  -0.013 -0.3745  0.0209  0.4304
  502TIP3    H1 1512   6.387   1.794   0.044  0.2633 -1.1949  1.5464
  502TIP3    H2 1513   6.279   1.687   0.036  1.6749 -2.6610  1.6088
  503TIP3   OH2 1514   0.578   0.328   2.514  0.1780  0.2810  0.3927
  503TIP3    H1 1515   0.602   0.296   2.427  0.1257  0.4233  0.3262
  503TIP3    H2 1516   0.482   0.323   2.515 -0.1412  3.4851 -0.8247
  504TIP3   OH2 1517   0.516   0.978   1.974 -0.3977 -0.2771 -0.2569
  504TIP3    H1 1518   0.519   1.069   1.943 -1.8302 -0.3528 -0.7092
  504TIP3    H2 1519   0.529   0.926   1.895  3.8712 -0.5952  0.3871
  505TIP3   OH2 1520   5.635   2.090   4.934  0.2504  0.2877 -0.4360
  505TIP3    H1 1521   5.654   1.999   4.908  0.5741 -0.1257  1.1044
  505TIP3    H2 1522   5.569   2.082   5.002  2.1697  0.9474  1.6501
  506TIP3   OH2 1523   2.219   4.986   4.225 -0.6689  0.0030 -0.4184
  506TIP3    H1 1524   2.152   5.044   4.263 -1.6023  0.4056 -2.5231
  506TIP3    H2 1525   2.289   5.046   4.198 -0.2281 -0.2265  0.1939
  507TIP3   OH2 1526   5.872   3.055   1.901  0.5678  0.0829 -0.5744
  507TIP3    H1 1527   5.845   3.017   1.984  1.3897 -1.5291 -1.0075
  507TIP3    H2 1528   5.967   3.057   1.905  0.5856  1.0139 -1.0614
  508TIP3   OH2 1529   0.529   0.217   5.064  0.4738 -0.9269  0.2481
  508TIP3    H1 1530   0.591   0.193   4.995 -0.1525 -0.7870 -0.3810
  508TIP3    H2 1531   0.443   0.195   5.027 -0.0392  1.1040  0.1230
  509TIP3   OH2 1532   2.479   3.961   2.422 -0.1431 -0.6464 -0.1610
  509TIP3    H1 1533   2.431   3.884   2.450  2.4759 -2.2610  0.2144
  509TIP3    H2 1534   2.522   3.935   2.341  0.0182  0.7616 -0.5530
  510TIP3   OH2 1535   6.127   3.630   3.723 -0.2104 -0.5175 -0.3928
  510TIP3    H1 1536   6.149   3.558   3.781  1.3512 -0.6271 -1.0889
  510TIP3    H2 1537   6.107   3.703   3.782 -0.7751 -1.2061  0.2911
  511TIP3   OH2 1538   4.588   4.128   1.245 -0.6416  0.7982  0.0571
  511TIP3    H1 1539   4.557   4.139   1.155 -0.4312  0.8228 -0.0140
  511TIP3    H2 1540   4.659   4.064   1.239 -0.4609  0.9837  0.1666
  512TIP3   OH2 1541   3.898   2.831   1.436 -0.0212 -0.3123  0.5381
  512TIP3    H1 1542   3.950   2.907   1.408 -1.4053  1.0646  1.5338
  512TIP3    H2 1543   3.962   2.772   1.477  0.8854  1.0049  1.0908
  513TIP3   OH2 1544   0.123   0.367   0.302  0.0618  0.2733 -0.0830
  513TIP3    H1 1545   0.033   0.335   0.300  0.0531  0.3260 -0.7104
  513TIP3    H2 1546   0.176   0.289   0.320 -0.1658  0.3818  1.0907
  514TIP3   OH2 1547   4.779   1.394   0.583 -0.1280 -0.9077  0.2881
  514TIP3    H1 1548   4.827   1.398   0.500  1.2119  2.4201  1.0380
  514TIP3    H2 1549   4.844   1.368   0.648 -0.5349 -1.0380  0.6485
  515TIP3   OH2 1550   0.886   4.132   1.870 -0.0302 -0.3659 -0.3263
  515TIP3    H1 1551   0.934   4.133   1.787  0.8602 -0.4155  0.1810
  515TIP3    H2 1552   0.833   4.052   1.866  2.0329 -1.8393  0.2741
  516TIP3   OH2 1553   2.070   4.867   4.668 -0.4047 -0.4936 -0.3721
  516TIP3    H1 1554   2.056   4.813   4.746 -0.6439 -1.0246 -0.7766
  516TIP3    H2 1555   2.088   4.954   4.703  0.4703 -0.9303  0.3031
  517TIP3   OH2 1556   3.018   2.501   1.192 -0.0789  0.4171 -0.3739
  517TIP3    H1 1557   3.059   2.551   1.262  0.4580 -0.8766  0.2805
  517TIP3    H2 1558   3.051   2.411   1.205 -0.8310 -0.0574 -1.6184
  518TIP3   OH2 1559   6.056   5.756   0.328  0.1905 -0.5578  0.1604
  518TIP3    H1 1560   6.067   5.796   0.415  0.4297 -0.8029  0.2438
  518TIP3    H2 1561   5.968   5.783   0.301 -0.7635 -2.1857  1.3861
  519TIP3   OH2 1562   1.327   3.609   2.401  0.2111  0.3095 -0.2505
  519TIP3    H1 1563   1.350   3.622   2.493  1.3359  0.5238 -0.5540
  519TIP3    H2 1564   1.410   3.614   2.354 -0.5468  1.9374 -1.4936
  520TIP3   OH2 1565   5.275   4.649   2.569  0.5235  0.4180 -0.2269
  520TIP3    H1 1566   5.240   4.574   2.617  1.4237 -0.4259 -0.8479
  520TIP3    H2 1567   5.206   4.673   2.508  0.1792  0.1794  0.0619
  521TIP3   OH2 1568   1.426   1.647   4.647  0.2786 -0.1159 -0.2103
  521TIP3    H1 1569   1.380   1.654   4.563 -0.8978 -0.5947  0.3619
  521TIP3    H2 1570   1.456   1.556   4.650 -0.6234 -0.4069  0.3380
  522TIP3   OH2 1571   6.207   2.400   2.059  0.2210 -0.2731 -0.3935
  522TIP3    H1 1572   6.277   2.373   2.001 -0.4415  0.2557 -1.4708
  522TIP3    H2 1573   6.145   2.446   2.003 -0.9229 -0.5921  0.5500
  523TIP3   OH2 1574   0.047   1.563   4.994 -0.1774  0.2783 -0.1268
  523TIP3    H1 1575  -0.027   1.616   4.965 -0.1377  0.2837 -0.2173
  523TIP3    H2 1576   0.078   1.519   4.915 -0.2186  0.1092 -0.0507
  524TIP3   OH2 1577   5.318   1.751   2.509  0.1070  0.3005  0.1918
  524TIP3    H1 1578   5.240   1.727   2.560  0.5385 -0.8764  0.3372
  524TIP3    H2 1579   5.288   1.818   2.449 -1.1619 -0.5328 -0.1376
  525TIP3   OH2 1580   5.613   3.956   3.319 -0.4008 -0.0063 -0.0422
  525TIP3    H1 1581   5.649   3.868   3.304  0.9886  0.6579 -0.7423
  525TIP3    H2 1582   5.614   3.997   3.232 -1.5269  0.5416  0.1854
  526TIP3   OH2 1583   4.953   0.106   3.426  0.0479 -0.4468 -0.3330
  526TIP3    H1 1584   4.945   0.042   3.497 -0.5154  0.3321  0.3216
  526TIP3    H2 1585   5.047   0.121   3.418  0.3050 -2.3230 -1.3934
  527TIP3   OH2 1586   0.181   3.910   4.016  0.2150 -0.4931 -0.0280
  527TIP3    H1 1587   0.208   3.827   3.976  0.2701  0.2486 -1.6116
  527TIP3    H2 1588   0.254   3.935   4.072  1.5303 -0.0401 -1.8709
  528TIP3   OH2 1589   3.712   3.938   3.994 -0.2017  0.4294 -0.2029
  528TIP3    H1 1590   3.792   3.971   3.954  1.2830 -2.0347  0.5668
  528TIP3    H2 1591   3.660   3.905   3.921  1.1792 -1.3194 -0.4584
  529TIP3   OH2 1592   3.166   2.260   1.295  0.3212 -0.1671 -0.0807
  529TIP3    H1 1593   3.175   2.218   1.210  0.4548 -1.0454  0.3499
  529TIP3    H2 1594   3.079   2.236   1.325  1.1612 -2.0207  1.1087
  530TIP3   OH2 1595   0.987   3.667   3.206  0.0224 -1.0140 -0.4770
  530TIP3    H1 1596   0.938   3.675   3.288  0.0085 -0.7348 -0.5103
  530TIP3    H2 1597   1.028   3.581   3.210  1.3919 -0.3554  0.5709
  531TIP3   OH2 1598   1.883  -0.007   1.501  0.0051 -0.8600  0.3448
  531TIP3    H1 1599   1.823   0.061   1.532 -0.2429 -0.7559 -0.3496
  531TIP3    H2 1600   1.935  -0.030   1.578  0.0449  0.0656  0.6078
  532TIP3   OH2 1601   4.875   2.113   2.644 -0.6420  0.0336  0.3664
  532TIP3    H1 1602   4.795   2.068   2.673  1.8351 -3.8836  1.9987
  532TIP3    H2 1603   4.910   2.057   2.575  0.3733  2.0692 -0.8397
  533TIP3   OH2 1604   3.309   2.680   0.565 -0.3043  0.1506 -0.2713
  533TIP3    H1 1605   3.377   2.652   0.627 -0.3806  0.5064 -0.0257
  533TIP3    H2 1606   3.228   2.682   0.617 -0.0902  2.1024  0.0696
  534TIP3   OH2 1607   0.802   2.171   0.626 -0.7008  0.0606 -0.0949
  534TIP3    H1 1608   0.856   2.155   0.549  0.4694  0.7693  0.5368
  534TIP3    H2 1609   0.840   2.116   0.694 -0.6664  0.6702  0.3962
  535TIP3   OH2 1610   3.648   1.246   2.059 -0.1630  0.0635  0.0107
  535TIP3    H1 1611   3.553   1.248   2.049 -0.2177  1.0662  0.5242
  535TIP3    H2 1612   3.675   1.162   2.022 -1.3462 -0.6765  0.7643
  536TIP3   OH2 1613   2.647   3.913   2.869 -0.5047  0.0863 -0.1590
  536TIP3    H1 1614   2.676   3.882   2.783 -0.9628 -0.0390 -0.2696
  536TIP3    H2 1615   2.556   3.939   2.856  0.0125  2.0050 -0.1999
  537TIP3   OH2 1616   3.022   1.453   3.206 -0.3457 -0.3856  0.2260
  537TIP3    H1 1617   3.117   1.463   3.199 -0.4497  0.3837 -0.1941
  537TIP3    H2 1618   2.997   1.408   3.125 -0.5819  1.3028 -0.6677
  538TIP3   OH2 1619   1.582   1.261   0.682  0.1253 -0.0893  0.1054
  538TIP3    H1 1620   1.517   1.282   0.749 -0.0236  0.3959 -0.1837
  538TIP3    H2 1621   1.619   1.345   0.658  0.3320 -0.2860 -0.2674
  539TIP3   OH2 1622   0.635   3.218   1.394 -0.4183  0.2050  0.0934
  539TIP3    H1 1623   0.541   3.233   1.388 -0.3204  0.5953 -0.5853
  539TIP3    H2 1624   0.647   3.126   1.371 -0.5908  0.2934 -0.3695
  540TIP3   OH2 1625   0.636   3.454   4.725 -0.1056 -0.1630 -0.2734
  540TIP3    H1 1626   0.627   3.446   4.820  0.3340 -0.7241 -0.2764
  540TIP3    H2 1627   0.678   3.539   4.712 -0.1533 -0.0927  0.0388
  541TIP3   OH2 1628   0.593   4.069   0.153  0.4758 -0.6692  0.3403
  541TIP3    H1 1629   0.521   4.027   0.198  0.6849 -0.5003  0.8334
  541TIP3    H2 1630   0.577   4.163   0.163 -0.3626 -0.5959 -1.3408
  542TIP3   OH2 1631   3.406   4.044   4.189  0.2926 -0.7478  0.1728
  542TIP3    H1 1632   3.449   4.045   4.274  1.5890 -1.4622 -0.4491
  542TIP3    H2 1633   3.346   4.118   4.191 -0.5037 -1.3903  2.1097
  543TIP3   OH2 1634   2.052   4.153   2.584  0.3867  0.5499 -0.5374
  543TIP3    H1 1635   1.994   4.225   2.610 -0.4777  0.0524 -1.0429
  543TIP3    H2 1636   2.007   4.112   2.510  0.1078 -1.4610  0.6988
  544TIP3   OH2 1637   5.953   5.613   2.881  0.3583 -0.4965 -0.0040
  544TIP3    H1 1638   6.001   5.695   2.866  0.7349 -0.7104  0.0160
  544TIP3    H2 1639   5.900   5.602   2.802  0.1334 -0.1188  0.0899
  545TIP3   OH2 1640   2.131   2.445   3.915  0.0720 -0.0344  0.4013
  545TIP3    H1 1641   2.097   2.382   3.979 -1.4126  0.6350  0.3034
  545TIP3    H2 1642   2.160   2.519   3.967  0.0506 -0.0071  0.3739
  546TIP3   OH2 1643   4.319   2.373   0.709  0.0303  0.2555 -0.8669
  546TIP3    H1 1644   4.394   2.328   0.669 -1.2139 -2.0444 -0.7475
  546TIP3    H2 1645   4.322   2.461   0.671  2.0111 -0.1875 -1.8821
  547TIP3   OH2 1646   1.761   1.851   4.219  0.6362 -0.2987 -0.1977
  547TIP3    H1 1647   1.717   1.936   4.233 -1.3921 -1.3247  0.0158
  547TIP3    H2 1648   1.691   1.792   4.195  2.2751 -1.5591 -2.1363
  548TIP3   OH2 1649   4.484   5.909   1.194  0.1923 -0.1621  0.0806
  548TIP3    H1 1650   4.450   5.927   1.282 -0.5400 -1.3287  0.0630
  548TIP3    H2 1651   4.518   5.820   1.199 -0.1966 -0.3832 -0.9115
  549TIP3   OH2 1652   3.016   4.929   1.027  0.1373 -0.5021 -0.4963
  549TIP3    H1 1653   3.104   4.922   0.991  1.3947 -0.2271  2.2512
  549TIP3    H2 1654   2.994   4.840   1.053 -0.5359 -0.6146 -1.4218
  550TIP3   OH2 1655   6.069   3.292   4.674  0.1574 -0.0456 -0.5863
  550TIP3    H1 1656   6.164   3.297   4.661  0.2391 -0.0063  0.0043
  550TIP3    H2 1657   6.054   3.203   4.706  0.2116  0.4931  0.9987
  551TIP3   OH2 1658   3.756   0.948   1.421 -0.1431  0.0794 -0.2447
  551TIP3    H1 1659   3.794   1.014   1.364  1.4430 -0.4205  0.1661
  551TIP3    H2 1660   3.662   0.963   1.417 -0.1068  0.0087 -3.0409
  552TIP3   OH2 1661   6.148   0.429   2.831 -0.2401 -0.1577  0.2336
  552TIP3    H1 1662   6.233   0.426   2.786 -0.5830 -0.2967 -0.4249
  552TIP3    H2 1663   6.161   0.492   2.902  0.3298  0.0490 -0.0407
  553TIP3   OH2 1664   1.391   1.878   4.149  0.1637  0.3773  0.2375
  553TIP3    H1 1665   1.393   1.789   4.113  1.2434  0.4619  0.0458
  553TIP3    H2 1666   1.300   1.891   4.176  0.2549 -1.2997  1.5392
  554TIP3   OH2 1667   5.798   3.592   2.624  0.3094  0.2915 -0.2608
  554TIP3    H1 1668   5.730   3.567   2.686 -1.0954  3.6936 -0.2042
  554TIP3    H2 1669   5.779   3.541   2.545 -0.0818 -1.4219  0.9075
  555TIP3   OH2 1670   4.982   2.284   2.049 -0.4943 -0.1008  0.3708
  555TIP3    H1 1671   5.022   2.285   1.962  0.3336 -0.4838  0.7323
  555TIP3    H2 1672   5.013   2.364   2.091  1.0794 -1.0481  1.1401
  556TIP3   OH2 1673   4.191   4.241   0.867 -0.6350 -0.4664 -0.2735
  556TIP3    H1 1674   4.120   4.198   0.821 -0.6723  0.1174 -0.7696
  556TIP3    H2 1675   4.186   4.333   0.839  0.3741 -0.4418 -0.4035
  557TIP3   OH2 1676   3.890   1.180   4.248  0.0585  0.0102 -0.1135
  557TIP3    H1 1677   3.852   1.262   4.279  2.1806  1.2236 -0.5738
  557TIP3    H2 1678   3.984   1.194   4.250  0.5250 -2.6664  0.4092
  558TIP3   OH2 1679   5.619   1.330   2.104 -0.0902  0.2621 -0.2382
  558TIP3    H1 1680   5.571   1.298   2.028  0.1780  0.7283 -0.6048
  558TIP3    H2 1681   5.705   1.287   2.098  0.0688  0.5993 -0.4186
  559TIP3   OH2 1682   2.312   1.262   4.884 -0.6766  0.0174 -0.6570
  559TIP3    H1 1683   2.256   1.232   4.812 -2.1359 -0.1660  0.5304
  559TIP3    H2 1684   2.285   1.352   4.901  1.8446  1.2537 -2.3773
  560TIP3   OH2 1685   0.830   3.317   1.089 -0.9722 -0.1462 -0.2951
  560TIP3    H1 1686   0.828   3.371   1.167 -0.5597  0.5146 -0.7363
  560TIP3    H2 1687   0.876   3.237   1.116 -0.0095  0.4665 -0.1060
  561TIP3   OH2 1688   3.284   4.267   2.587 -0.5376 -0.3314 -0.2201
  561TIP3    H1 1689   3.275   4.291   2.494 -1.3673  0.1556 -0.0181
  561TIP3    H2 1690   3.266   4.348   2.634 -0.9601 -0.7835  0.4005
  562TIP3   OH2 1691   5.105   4.394   1.010  0.2323  0.9880 -0.4373
  562TIP3    H1 1692   5.025   4.442   1.032  0.7660  1.7888 -0.1963
  562TIP3    H2 1693   5.142   4.368   1.094 -0.5933 -0.7938 -0.5911
  563TIP3   OH2 1694   1.191   2.674   0.488 -0.0888 -0.0153  0.2203
  563TIP3    H1 1695   1.209   2.752   0.540 -0.2228 -0.3806  0.8219
  563TIP3    H2 1696   1.267   2.664   0.431  0.0957  0.3392  0.4056
  564TIP3   OH2 1697   2.481   4.775   4.824 -0.1340 -0.3115 -0.7301
  564TIP3    H1 1698   2.455   4.758   4.914  1.3088  1.4475  0.0730
  564TIP3    H2 1699   2.468   4.869   4.812  3.5160  0.3097 -0.9351
  565TIP3   OH2 1700   2.425   2.805   3.176 -0.3958  0.1380  0.6386
  565TIP3    H1 1701   2.354   2.801   3.240 -0.1879 -1.5827  0.8069
  565TIP3    H2 1702   2.442   2.899   3.164 -3.0048  0.6313  0.2259
  566TIP3   OH2 1703   0.984   5.139   5.119  0.3292  0.5741 -0.3574
  566TIP3    H1 1704   1.025   5.066   5.073  1.3446  0.4277  0.7144
  566TIP3    H2 1705   0.890   5.120   5.116  0.2007  1.1707 -3.3070
  567TIP3   OH2 1706   4.114   4.161   4.007  0.3376 -0.1364  0.1580
  567TIP3    H1 1707   4.078   4.077   4.037 -1.6679  0.6121 -0.0169
  567TIP3    H2 1708   4.209   4.151   4.017  0.2068 -2.5982 -0.2957
  568TIP3   OH2 1709   5.017   3.380   3.475  0.1340 -0.3210 -0.1283
  568TIP3    H1 1710   5.019   3.433   3.395  0.0348  0.1504  0.1801
  568TIP3    H2 1711   5.014   3.444   3.546 -0.1882 -0.7423  0.2404
  569TIP3   OH2 1712   3.549   4.133   2.560  0.8634  0.5204 -0.3317
  569TIP3    H1 1713   3.569   4.199   2.494 -1.1782 -0.6367 -2.2558
  569TIP3    H2 1714   3.467   4.163   2.600 -1.9657 -2.1498 -3.4799
  570TIP3   OH2 1715   1.088   5.534   3.439  0.4771  0.3336  0.0707
  570TIP3    H1 1716   1.133   5.508   3.519  0.9094  0.7911 -0.0200
  570TIP3    H2 1717   1.025   5.601   3.466 -0.5682 -0.7124  0.2891
  571TIP3   OH2 1718   3.147   5.128   0.691  0.4746  0.0197 -0.2888
  571TIP3    H1 1719   3.132   5.221   0.677  0.5207  0.2050  0.8178
  571TIP3    H2 1720   3.091   5.085   0.627 -0.0719  0.8012 -0.3496
  572TIP3   OH2 1721   2.328   4.907   0.392  0.1567 -0.4467 -0.0354
  572TIP3    H1 1722   2.364   4.886   0.306 -2.1658 -0.4601 -1.0837
  572TIP3    H2 1723   2.317   5.002   0.391  0.1090 -0.4490  0.2352
  573TIP3   OH2 1724   0.616   4.885   2.160  1.0154  0.3492  0.0964
  573TIP3    H1 1725   0.530   4.866   2.198  1.1205 -0.5928 -0.1028
  573TIP3    H2 1726   0.674   4.821   2.199  1.0405 -0.9668 -1.9326
  574TIP3   OH2 1727   4.641   1.023   3.852 -0.5195 -0.1257  0.3283
  574TIP3    H1 1728   4.736   1.029   3.848 -0.2334 -3.0843  0.4879
  574TIP3    H2 1729   4.613   1.041   3.762  0.2167  0.1991  0.1532
  575TIP3   OH2 1730   0.520   1.618   0.533  0.9789 -0.0720 -0.1884
  575TIP3    H1 1731   0.615   1.629   0.531  0.9403  0.1887 -1.5341
  575TIP3    H2 1732   0.489   1.661   0.453 -0.1327 -1.4360 -0.5385
  576TIP3   OH2 1733   5.188   1.688   0.175  0.3618  0.6355  0.3000
  576TIP3    H1 1734   5.105   1.642   0.186  1.1989 -0.9982  0.1151
  576TIP3    H2 1735   5.204   1.686   0.081  1.7687 -1.3197  0.5093
  577TIP3   OH2 1736   5.598   3.004   4.219 -0.2139 -0.4674 -0.3681
  577TIP3    H1 1737   5.520   3.010   4.165  0.7941  0.9123 -1.7708
  577TIP3    H2 1738   5.670   3.027   4.160  0.9266  1.2983  1.5615
  578TIP3   OH2 1739   1.137   2.272   2.098  0.3604 -0.4236  0.1410
  578TIP3    H1 1740   1.047   2.271   2.130 -0.9181  1.6937 -2.9184
  578TIP3    H2 1741   1.183   2.334   2.155 -0.9018  0.5996  0.0857
  579TIP3   OH2 1742   2.240   2.613   3.581  0.8616 -0.2990  0.1722
  579TIP3    H1 1743   2.222   2.520   3.573 -0.8845 -0.1954  1.9525
  579TIP3    H2 1744   2.191   2.653   3.509  0.0620 -0.6306  0.5195
  580TIP3   OH2 1745   0.001   3.604   0.378 -0.5083  0.2449 -0.1595
  580TIP3    H1 1746   0.075   3.575   0.325  0.6598  0.2457  1.4004
  580TIP3    H2 1747  -0.051   3.525   0.393 -0.8777  0.2576 -1.3155
  581TIP3   OH2 1748   2.562   2.879   4.134 -0.3801  0.0957 -0.1360
  581TIP3    H1 1749   2.544   2.786   4.149 -0.0113  0.3141  1.8787
  581TIP3    H2 1750   2.633   2.879   4.069 -0.5945 -1.0073 -0.3927
  582TIP3   OH2 1751   3.696   5.653   4.474  0.2622  0.7400  0.1067
  582TIP3    H1 1752   3.601   5.649   4.486  0.2848  1.7738  0.7494
  582TIP3    H2 1753   3.719   5.569   4.433 -0.8543  0.2726  0.4110
  583TIP3   OH2 1754   4.802   1.418   1.968 -0.0915  0.2633  0.0100
  583TIP3    H1 1755   4.723   1.369   1.989  0.5264 -1.2662 -0.9995
  583TIP3    H2 1756   4.822   1.393   1.877  0.6545  1.8562 -0.2939
  584TIP3   OH2 1757   3.770   2.248   3.980  0.2062 -0.2769 -0.0793
  584TIP3    H1 1758   3.784   2.336   4.015  0.7910 -0.6511  0.6481
  584TIP3    H2 1759   3.785   2.190   4.054  1.9984 -1.1394 -1.0483
  585TIP3   OH2 1760   4.713   1.964   2.172 -0.3890  0.6513 -0.4266
  585TIP3    H1 1761   4.767   1.933   2.245  0.2238 -1.5633 -1.7264
  585TIP3    H2 1762   4.776   2.001   2.110 -0.5735 -0.0092 -1.0218
  586TIP3   OH2 1763   0.570   2.002   5.058 -0.3335  0.1813  0.0440
  586TIP3    H1 1764   0.582   2.095   5.039 -0.7073  0.6858  2.0880
  586TIP3    H2 1765   0.475   1.989   5.055 -0.2393 -0.3618 -1.1060
  587TIP3   OH2 1766   2.054   2.849   0.808 -0.3472  0.3419  0.0426
  587TIP3    H1 1767   2.015   2.909   0.744 -0.5353 -1.1531 -1.3029
  587TIP3    H2 1768   2.136   2.821   0.766 -0.8423 -1.2380  0.1028
  588TIP3   OH2 1769   3.174   3.132   2.011  0.0464 -0.1414  0.0870
  588TIP3    H1 1770   3.139   3.221   2.013  0.5605  0.0785 -0.4242
  588TIP3    H2 1771   3.154   3.100   1.923  1.2877  0.0748 -0.3064
  589TIP3   OH2 1772   3.782   5.820   3.021 -0.2243 -0.4280  0.2885
  589TIP3    H1 1773   3.759   5.880   3.091 -0.9923 -0.1712 -0.1716
  589TIP3    H2 1774   3.750   5.862   2.941 -0.1279 -1.1107 -0.1251
  590TIP3   OH2 1775   3.233   2.123   1.520 -0.4245  0.2202 -0.1641
  590TIP3    H1 1776   3.264   2.178   1.448  0.1900  1.1948  0.8114
  590TIP3    H2 1777   3.272   2.161   1.599 -1.3125 -0.6384  0.7350
  591TIP3   OH2 1778   5.423   2.996   1.104 -0.0733 -0.5456  0.4485
  591TIP3    H1 1779   5.417   3.058   1.031 -1.1528  0.9031  1.6795
  591TIP3    H2 1780   5.396   2.912   1.067  1.8594 -0.4258 -1.3920
  592TIP3   OH2 1781   2.701   3.938   1.314 -0.1214 -0.1300  0.3099
  592TIP3    H1 1782   2.719   4.022   1.354 -1.4824  1.5061 -2.2091
  592TIP3    H2 1783   2.768   3.928   1.246  0.3178 -1.3337  0.8943
  593TIP3   OH2 1784   6.182   1.769   1.720  0.0792  0.0548 -0.2563
  593TIP3    H1 1785   6.187   1.862   1.740  0.0347  0.1853 -0.8188
  593TIP3    H2 1786   6.090   1.754   1.698 -0.1063 -0.3222  0.7361
  594TIP3   OH2 1787   2.020   1.042   3.729 -0.2201 -0.2882  0.2381
  594TIP3    H1 1788   2.079   1.048   3.654  2.0948  0.3505  2.0167
  594TIP3    H2 1789   2.017   0.949   3.750  1.6701 -0.1705  1.2149
  595TIP3   OH2 1790   5.806   3.359   3.816  0.3070  0.1280 -0.5151
  595TIP3    H1 1791   5.715   3.372   3.844  0.3135 -0.1134 -0.3783
  595TIP3    H2 1792   5.846   3.446   3.821 -0.1630  0.4125 -1.4692
  596TIP3   OH2 1793   1.626   3.944   1.171  0.0088 -0.2540 -0.4789
  596TIP3    H1 1794   1.686   3.960   1.244 -0.9084 -0.8658  0.4353
  596TIP3    H2 1795   1.541   3.975   1.203 -0.5593 -1.2443 -0.9948
  597TIP3   OH2 1796   1.018   3.935   3.592 -0.0936 -0.1675 -0.6070
  597TIP3    H1 1797   1.013   4.030   3.586 -0.2405 -0.1993 -1.0341
  597TIP3    H2 1798   0.955   3.904   3.528  1.6600 -0.5623 -2.2375
  598TIP3   OH2 1799   1.599   5.613   3.570  0.6669  0.3419 -0.1228
  598TIP3    H1 1800   1.603   5.704   3.543  0.0111  0.1428 -0.9409
  598TIP3    H2 1801   1.600   5.616   3.666  0.4051  1.2152 -0.1410
  599TIP3   OH2 1802   5.848   5.401   1.425 -0.1575 -0.1847  0.2084
  599TIP3    H1 1803   5.901   5.423   1.348  0.2685 -0.4327  0.4216
  599TIP3    H2 1804   5.879   5.314   1.451 -1.2705 -0.6944 -0.1576
  600TIP3   OH2 1805   4.092   5.891   3.325 -0.2922  0.4393 -0.7516
  600TIP3    H1 1806   4.148   5.899   3.247  0.0689  0.9796 -0.4434
  600TIP3    H2 1807   4.040   5.971   3.326  1.6174  1.7865  1.0121
  601TIP3   OH2 1808   3.418   3.205   1.026  0.2835 -0.0854  0.0483
  601TIP3    H1 1809   3.360   3.258   1.080 -1.4144 -0.1042 -1.6140
  601TIP3    H2 1810   3.415   3.247   0.940  2.0229 -0.6655 -0.3319
  602TIP3   OH2 1811   0.810   2.648   2.262 -0.4871 -0.5820 -0.2124
  602TIP3    H1 1812   0.719   2.667   2.282 -0.0152  1.4537  0.2569
  602TIP3    H2 1813   0.810   2.627   2.169 -1.5128 -1.2298 -0.0782
  603TIP3   OH2 1814   2.704   0.541   3.799 -0.1328 -0.0200 -0.2163
  603TIP3    H1 1815   2.708   0.479   3.873  0.5325  0.9950  0.6240
  603TIP3    H2 1816   2.659   0.493   3.730 -1.8106 -0.6395  1.2352
  604TIP3   OH2 1817   3.458   2.037   0.488  0.1221 -0.4711  0.9280
  604TIP3    H1 1818   3.503   1.999   0.563  0.9501 -1.1881  0.0849
  604TIP3    H2 1819   3.407   1.965   0.451 -0.7184  0.0099  1.0977
  605TIP3   OH2 1820   0.791   3.703   4.683  0.3829  0.0641 -1.0303
  605TIP3    H1 1821   0.860   3.702   4.617  0.5554  2.9125 -0.9969
  605TIP3    H2 1822   0.834   3.735   4.763 -0.7866  1.2711 -0.8460
  606TIP3   OH2 1823   0.948   0.648   1.306  0.3617 -0.8242 -0.3905
  606TIP3    H1 1824   0.916   0.632   1.218  0.5206 -0.7566 -0.4602
  606TIP3    H2 1825   0.944   0.562   1.349 -1.7454 -0.4948  0.2107
  607TIP3   OH2 1826   2.795   2.287   0.345 -0.4603  0.6154 -0.0470
  607TIP3    H1 1827   2.826   2.197   0.346 -0.8215  0.4916  0.0679
  607TIP3    H2 1828   2.844   2.331   0.414 -0.4614  0.4466  0.0611
  608TIP3   OH2 1829   3.661   2.924   3.533  0.5880  0.0393 -0.0112
  608TIP3    H1 1830   3.705   2.860   3.477  0.8697  2.9388 -3.4987
  608TIP3    H2 1831   3.599   2.969   3.474  0.6238  3.1212  2.0486
  609TIP3   OH2 1832   3.052   3.308   1.771 -0.3946 -0.2952 -0.1322
  609TIP3    H1 1833   3.019   3.375   1.711  0.3185  1.8795  1.7395
  609TIP3    H2 1834   3.125   3.268   1.725  0.4193  1.6232 -0.6325
  610TIP3   OH2 1835   1.086   5.220   1.549 -0.0816  0.4694 -0.2732
  610TIP3    H1 1836   1.026   5.293   1.531  1.2707  1.5559 -0.5347
  610TIP3    H2 1837   1.097   5.176   1.465 -1.0061 -0.1600 -0.0879
  611TIP3   OH2 1838   3.946   1.180   2.114  0.2533 -0.3673  0.4943
  611TIP3    H1 1839   3.931   1.272   2.093  0.2520 -0.6692 -0.8894
  611TIP3    H2 1840   4.041   1.170   2.109  0.2341 -0.4973  0.3929
  612TIP3   OH2 1841   1.404   0.373   3.058  0.2001 -0.2035 -0.7341
  612TIP3    H1 1842   1.392   0.466   3.076 -0.8476 -0.0288 -2.1370
  612TIP3    H2 1843   1.412   0.333   3.144 -0.2561  1.0700 -0.0667
  613TIP3   OH2 1844   2.715   1.038   2.213 -0.0599 -0.0147  0.3657
  613TIP3    H1 1845   2.709   1.054   2.119  1.5262  2.4465  0.5948
  613TIP3    H2 1846   2.645   1.091   2.251 -0.0082 -0.1306  0.6281
  614TIP3   OH2 1847   5.602   3.348   2.141 -0.5213  0.7268 -0.2904
  614TIP3    H1 1848   5.625   3.298   2.063  0.0561 -0.3582  0.5382
  614TIP3    H2 1849   5.558   3.426   2.108  3.4867  2.5251 -1.9470
  615TIP3   OH2 1850   2.095   4.601   3.324  0.1826  0.0760  0.5024
  615TIP3    H1 1851   2.174   4.561   3.360  1.0884  0.5086 -0.9431
  615TIP3    H2 1852   2.027   4.535   3.336  1.7570 -2.3095 -2.4158
  616TIP3   OH2 1853   4.307   0.406   3.583 -0.3285 -0.5022  0.2277
  616TIP3    H1 1854   4.400   0.431   3.587 -0.2446 -0.8303  0.4258
  616TIP3    H2 1855   4.260   0.488   3.572  0.1389 -0.5050 -2.7325
  617TIP3   OH2 1856   4.187   0.555   4.039 -0.5881  0.0605  0.0461
  617TIP3    H1 1857   4.125   0.494   4.079  0.2474 -1.5407 -1.0154
  617TIP3    H2 1858   4.148   0.642   4.054 -1.5742 -0.6544  2.0015
  618TIP3   OH2 1859   0.335   1.180   0.766 -0.3783 -0.1742 -0.1183
  618TIP3    H1 1860   0.377   1.264   0.748 -1.2609  0.3822  0.3353
  618TIP3    H2 1861   0.357   1.162   0.858  1.6049 -1.5219 -0.8037
  619TIP3   OH2 1862   4.725   5.230   5.117  0.7852 -0.0084  0.4717
  619TIP3    H1 1863   4.781   5.165   5.160 -0.8424 -1.1715  0.9498
  619TIP3    H2 1864   4.770   5.313   5.130  2.2758 -0.8621  1.0040
  620TIP3   OH2 1865   2.579   1.646   3.839 -0.2792 -0.3526 -0.2498
  620TIP3    H1 1866   2.535   1.717   3.887 -1.7403 -1.1274 -0.3727
  620TIP3    H2 1867   2.510   1.611   3.782  1.0227 -0.4186 -1.8490
  621TIP3   OH2 1868   0.228   0.401   0.608 -0.3164  0.7082  0.0109
  621TIP3    H1 1869   0.238   0.418   0.515 -0.7804  0.7422 -0.0357
  621TIP3    H2 1870   0.259   0.481   0.651 -2.4359  1.7078 -0.2044
  622TIP3   OH2 1871   0.033   1.980   0.491 -0.3383  0.1912  0.7340
  622TIP3    H1 1872   0.108   1.937   0.533  1.1920 -0.7789 -2.6732
  622TIP3    H2 1873   0.000   1.915   0.429 -1.2923  2.1284 -0.8655
  623TIP3   OH2 1874   6.006   2.995   4.778  0.1629 -0.0849 -0.2066
  623TIP3    H1 1875   5.932   3.004   4.838  0.7521  2.0237  0.2828
  623TIP3    H2 1876   6.083   3.009   4.832  0.7694  0.6732 -1.2383
  624TIP3   OH2 1877   2.410   5.306   1.828 -0.1163 -0.4264  0.1836
  624TIP3    H1 1878   2.382   5.224   1.870  2.1496 -1.3279  0.0627
  624TIP3    H2 1879   2.421   5.367   1.901 -3.3366  0.3829  0.1609
  625TIP3   OH2 1880   1.743   2.517   3.335  0.5764  0.2196  0.3010
  625TIP3    H1 1881   1.731   2.582   3.404 -0.1689 -0.5509  0.9277
  625TIP3    H2 1882   1.809   2.457   3.370 -1.5279 -1.5784  1.4840
  626TIP3   OH2 1883   0.538   2.097   4.327 -0.3562  0.1503  0.4017
  626TIP3    H1 1884   0.479   2.066   4.258 -1.4215  0.5539  1.1055
  626TIP3    H2 1885   0.601   2.153   4.281 -0.8535  0.1590 -0.2867
  627TIP3   OH2 1886   3.987   2.331   1.974  0.2346  0.3041  0.1166
  627TIP3    H1 1887   3.921   2.400   1.974 -1.3660 -1.1740 -0.2402
  627TIP3    H2 1888   3.977   2.289   2.060  0.1038 -0.4853 -0.2820
  628TIP3   OH2 1889   6.063   5.196   0.112  0.2596  0.3037  0.3312
  628TIP3    H1 1890   6.147   5.208   0.157  0.3417  1.5148 -0.0994
  628TIP3    H2 1891   5.999   5.234   0.172  0.1600  0.4094  0.1574
  629TIP3   OH2 1892   4.164   4.241   1.838  0.6818 -0.1558 -0.0617
  629TIP3    H1 1893   4.141   4.222   1.929  2.1383  1.8057  0.8072
  629TIP3    H2 1894   4.251   4.203   1.826  1.2478  1.0808 -0.0379
  630TIP3   OH2 1895   6.023   0.099   2.179  0.3291 -0.3352 -0.3300
  630TIP3    H1 1896   5.951   0.050   2.220 -0.4839  0.5027 -0.7043
  630TIP3    H2 1897   5.985   0.131   2.097  1.1151  0.1978 -0.4912
  631TIP3   OH2 1898   2.129   3.878   1.266  0.3718 -0.5122 -0.0777
  631TIP3    H1 1899   2.202   3.817   1.258  0.1507 -0.7512 -0.2959
  631TIP3    H2 1900   2.051   3.824   1.252  0.1861 -0.1401 -0.5359
  632TIP3   OH2 1901   0.236   2.498   4.902  0.0740  0.0990 -0.4364
  632TIP3    H1 1902   0.301   2.546   4.850  1.9187 -1.6122  0.1793
  632TIP3    H2 1903   0.224   2.416   4.854  0.8511 -0.9656  1.1165
  633TIP3   OH2 1904   4.875   3.742   0.920 -0.1654 -0.5468  0.4074
  633TIP3    H1 1905   4.949   3.799   0.938  0.2986 -1.6877  2.5165
  633TIP3    H2 1906   4.904   3.655   0.950 -2.1454 -1.1370  0.7597
  634TIP3   OH2 1907   1.737   3.627   3.810  0.8004  0.2945 -0.3406
  634TIP3    H1 1908   1.720   3.695   3.744  1.4289  0.8503  0.0575
  634TIP3    H2 1909   1.702   3.547   3.771 -0.5325  0.9516 -0.5561
  635TIP3   OH2 1910   4.833   0.624   4.332 -0.6586 -0.0596  0.5461
  635TIP3    H1 1911   4.883   0.575   4.397  1.2571  0.8341 -0.1909
  635TIP3    H2 1912   4.836   0.570   4.253 -1.0468 -0.0870  0.5457
  636TIP3   OH2 1913   2.546   2.573   0.969  0.4142 -0.1420 -0.0828
  636TIP3    H1 1914   2.453   2.583   0.991  0.0072 -1.8649 -0.8240
  636TIP3    H2 1915   2.592   2.579   1.053 -0.3540  0.8030  0.2816
  637TIP3   OH2 1916   0.518   2.963   1.257 -0.3709  0.3731 -0.2127
  637TIP3    H1 1917   0.526   2.868   1.244 -0.0876  0.4302 -0.4539
  637TIP3    H2 1918   0.570   3.001   1.187 -0.9364  0.7197 -0.4536
  638TIP3   OH2 1919   3.508   4.274   0.554 -0.1063  0.2239  0.6069
  638TIP3    H1 1920   3.603   4.286   0.557 -0.2600  1.3573  1.7558
  638TIP3    H2 1921   3.496   4.188   0.514  1.4380 -0.3621  1.3258
  639TIP3   OH2 1922   1.404   1.669   0.180 -0.0838  0.1674 -0.5340
  639TIP3    H1 1923   1.428   1.629   0.264 -1.0433 -0.2087 -0.4143
  639TIP3    H2 1924   1.337   1.733   0.203 -0.1661  0.2451 -0.9813
  640TIP3   OH2 1925   0.093   5.485   3.659 -0.3866  0.1329 -0.2609
  640TIP3    H1 1926   0.011   5.436   3.654 -1.0116  1.1514 -0.4472
  640TIP3    H2 1927   0.096   5.517   3.749  0.7932 -1.4926  0.3203
  641TIP3   OH2 1928   2.999   0.337   4.878 -0.5356 -0.5034 -0.6284
  641TIP3    H1 1929   2.988   0.251   4.837 -0.6459 -0.2318 -1.1754
  641TIP3    H2 1930   2.991   0.320   4.972  0.5099 -1.2551 -0.6591
  642TIP3   OH2 1931   4.301   5.257   3.062  0.0474  0.0174 -0.2682
  642TIP3    H1 1932   4.276   5.332   3.117  0.7875 -0.9634  1.4962
  642TIP3    H2 1933   4.358   5.204   3.118  2.8244  0.1066 -2.7617
  643TIP3   OH2 1934   2.960   2.315   3.159  0.1255  0.8011 -0.2880
  643TIP3    H1 1935   2.888   2.264   3.122  0.7104 -0.8601  0.7440
  643TIP3    H2 1936   2.952   2.401   3.118 -1.8159  0.3526 -0.9723
  644TIP3   OH2 1937   2.639   4.790   3.096  0.1650 -0.7560  0.3233
  644TIP3    H1 1938   2.570   4.821   3.037 -1.0884 -2.5747  0.7817
  644TIP3    H2 1939   2.704   4.861   3.094 -1.8145  1.1685  0.1279
  645TIP3   OH2 1940   2.963   3.194   2.404  0.1230 -0.3761  0.9697
  645TIP3    H1 1941   2.916   3.274   2.430 -0.1369  0.7378 -2.4617
  645TIP3    H2 1942   3.051   3.205   2.441 -0.9434 -0.4691  3.8436
  646TIP3   OH2 1943   6.357   0.689   1.061 -0.4476  0.1568  0.6165
  646TIP3    H1 1944   6.333   0.672   1.152  0.6061 -1.1602  0.6746
  646TIP3    H2 1945   6.322   0.776   1.043 -3.1186 -0.6727  1.4033
  647TIP3   OH2 1946   1.922   5.670   4.064  0.2745 -0.2982  0.1937
  647TIP3    H1 1947   2.008   5.701   4.092  0.1383 -0.7196  1.1256
  647TIP3    H2 1948   1.885   5.629   4.143 -0.9734  0.3056 -0.0635
  648TIP3   OH2 1949   0.507   4.772   0.387 -0.1290 -0.3039 -0.1487
  648TIP3    H1 1950   0.543   4.764   0.299 -1.1063  0.4968 -0.6416
  648TIP3    H2 1951   0.414   4.787   0.374 -0.1292  0.8779  0.9788
  649TIP3   OH2 1952   3.260   4.002   2.498 -0.2785  0.3439  0.1919
  649TIP3    H1 1953   3.280   4.092   2.521 -1.6953  0.5036  0.9113
  649TIP3    H2 1954   3.172   4.005   2.460 -0.9262 -0.8851  1.4823
  650TIP3   OH2 1955   5.132   0.343   4.692  0.5145  0.1810  0.2981
  650TIP3    H1 1956   5.206   0.284   4.674  1.3794  1.2042  0.3644
  650TIP3    H2 1957   5.136   0.357   4.787  0.8418  0.9945  0.1716
  651TIP3   OH2 1958   4.761   3.954   4.698 -0.4385 -0.3029  0.4752
  651TIP3    H1 1959   4.764   3.892   4.625 -0.7544 -2.2044  1.9874
  651TIP3    H2 1960   4.670   3.950   4.729 -1.2645  3.0861 -1.0515
  652TIP3   OH2 1961   4.161   1.858   1.151 -0.7511  0.0843  0.4636
  652TIP3    H1 1962   4.127   1.773   1.179 -0.0311 -0.2103  0.4728
  652TIP3    H2 1963   4.116   1.877   1.069 -1.3903  0.0031  0.7884
  653TIP3   OH2 1964   0.173   5.603   1.287 -0.3690  0.0187 -0.4395
  653TIP3    H1 1965   0.104   5.566   1.343  0.2228 -2.2624 -1.1196
  653TIP3    H2 1966   0.219   5.527   1.252  1.2792  1.4511 -1.5532
  654TIP3   OH2 1967   5.844   0.622   1.372  0.0725 -0.4217 -0.9054
  654TIP3    H1 1968   5.801   0.707   1.381 -0.0597 -0.5511 -0.2274
  654TIP3    H2 1969   5.826   0.594   1.283  1.1348  0.8193 -1.5351
  655TIP3   OH2 1970   1.285   2.555   1.425  0.8945 -0.2944  0.0288
  655TIP3    H1 1971   1.380   2.566   1.419  0.8745 -0.6210 -1.0655
  655TIP3    H2 1972   1.272   2.462   1.443  0.8017 -0.0702  1.1947
  656TIP3   OH2 1973   4.028   5.040   1.595  0.5631  0.1404 -0.3521
  656TIP3    H1 1974   4.113   5.048   1.638  0.8667 -0.7847 -0.7600
  656TIP3    H2 1975   3.997   4.953   1.619 -0.9160  0.9650  0.9233
  657TIP3   OH2 1976   2.984   4.498   2.625  0.0918 -0.0797 -0.1409
  657TIP3    H1 1977   3.002   4.539   2.541 -0.6865 -0.7155 -0.6272
  657TIP3    H2 1978   3.008   4.565   2.690  0.9827  0.3010 -0.8424
  658TIP3   OH2 1979   4.159   1.574   4.273  0.5081  0.4626 -0.1816
  658TIP3    H1 1980   4.068   1.548   4.264  0.4216  0.8269 -0.3762
  658TIP3    H2 1981   4.164   1.661   4.232  0.9942  0.3337 -0.4091
  659TIP3   OH2 1982  -0.008   4.205   1.833  0.3657 -1.0429 -0.1242
  659TIP3    H1 1983   0.033   4.289   1.850 -1.0495 -0.3231 -0.0970
  659TIP3    H2 1984   0.060   4.140   1.851  0.9423  0.0083  1.6307
  660TIP3   OH2 1985   5.843   2.890   4.958 -0.0479 -0.1793  0.2700
  660TIP3    H1 1986   5.890   2.807   4.957  0.5724  0.1703  0.1217
  660TIP3    H2 1987   5.756   2.868   4.925  0.7641 -0.3928 -1.8806
  661TIP3   OH2 1988   2.317   5.885   2.185  0.0594  0.7141  0.2728
  661TIP3    H1 1989   2.372   5.946   2.135  0.5299  0.5340  0.5621
  661TIP3    H2 1990   2.286   5.936   2.260  0.2735  0.6621  0.3976
  662TIP3   OH2 1991   1.712   4.237   0.516  0.4530 -0.5026 -0.7512
  662TIP3    H1 1992   1.770   4.271   0.448 -1.5342 -0.4467 -2.5206
  662TIP3    H2 1993   1.630   4.284   0.502  0.1866  0.1222  2.2696
  663TIP3   OH2 1994   4.253   3.277   3.310 -0.1610  0.0142  0.7364
  663TIP3    H1 1995   4.185   3.211   3.294  1.0656 -0.5333 -3.3715
  663TIP3    H2 1996   4.227   3.352   3.256  1.4251  0.6245  0.7684
  664TIP3   OH2 1997   1.668   3.389   0.748 -0.4337 -0.3343  0.5305
  664TIP3    H1 1998   1.645   3.428   0.832  0.8434 -0.1316  0.7966
  664TIP3    H2 1999   1.763   3.383   0.749 -0.5343 -3.4758  0.5112
  665TIP3   OH2 2000   5.981   3.756   3.096 -0.2138 -0.5575 -0.3924
  665TIP3    H1 2001   6.004   3.680   3.150  0.6354  1.6372  2.6031
  665TIP3    H2 2002   6.066   3.795   3.073 -0.6101 -0.7900 -2.4883
  666TIP3   OH2 2003   0.327   2.058   4.143  0.6229 -0.3704 -0.2161
  666TIP3    H1 2004   0.381   1.991   4.101 -2.7268 -3.8875  0.4485
  666TIP3    H2 2005   0.238   2.022   4.139 -1.3038  3.6786  1.1746
  667TIP3   OH2 2006   4.695   4.482   2.027 -0.0324 -0.0682  0.1701
  667TIP3    H1 2007   4.642   4.444   1.957 -0.3782 -3.8030  2.2456
  667TIP3    H2 2008   4.780   4.438   2.020  0.4200  0.5955  1.2100
  668TIP3   OH2 2009   2.771   0.537   1.675 -0.1868 -0.0449  0.1718
  668TIP3    H1 2010   2.693   0.480   1.679 -0.1741 -0.0274  0.7355
  668TIP3    H2 2011   2.804   0.538   1.765  1.4812 -1.4627 -0.3592
  669TIP3   OH2 2012   6.115   0.889   0.939 -0.0668  0.2035  0.6863
  669TIP3    H1 2013   6.104   0.896   0.844 -0.0621 -0.6202  0.6242
  669TIP3    H2 2014   6.197   0.936   0.957 -1.0148  1.9917  0.5309
  670TIP3   OH2 2015   0.251   1.172   2.718 -0.8081  0.5185 -0.1426
  670TIP3    H1 2016   0.293   1.089   2.697 -1.0543 -0.2189  2.1135
  670TIP3    H2 2017   0.324   1.234   2.724 -0.3277 -0.1189  0.8148
  671TIP3   OH2 2018   3.335   4.286   2.303  0.1403 -0.3595 -0.2662
  671TIP3    H1 2019   3.413   4.232   2.290  0.5380 -0.0890  0.8905
  671TIP3    H2 2020   3.274   4.257   2.235  1.1922 -0.6598 -1.1134
  672TIP3   OH2 2021   3.698   1.150   3.824  0.0746  0.3326 -0.1637
  672TIP3    H1 2022   3.744   1.190   3.751  0.4242  1.2780  0.5498
  672TIP3    H2 2023   3.627   1.210   3.844 -1.1261 -0.8199 -0.8637
  673TIP3   OH2 2024   4.734   5.939   5.161  0.1676 -0.4892 -0.4390
  673TIP3    H1 2025   4.782   5.893   5.092  0.8855  0.1279 -0.3707
  673TIP3    H2 2026   4.746   6.032   5.140  1.8830 -0.1947  1.4307
  674TIP3   OH2 2027   0.895   0.990   1.016  0.3587  0.5354 -0.2574
  674TIP3    H1 2028   0.914   0.998   1.109 -1.6183 -2.1451  0.4815
  674TIP3    H2 2029   0.981   0.993   0.974  1.6834 -1.6933  2.0028
  675TIP3   OH2 2030   1.427   3.410   1.270  0.1928  0.0429 -0.0265
  675TIP3    H1 2031   1.342   3.406   1.315 -0.8891  2.1039 -1.7090
  675TIP3    H2 2032   1.488   3.441   1.337 -0.5751 -0.5060  0.9562
  676TIP3   OH2 2033   4.228   0.244   1.860  0.2102  0.3722  0.7713
  676TIP3    H1 2034   4.165   0.173   1.867 -1.3129  1.7117  1.0999
  676TIP3    H2 2035   4.176   0.322   1.843  1.6654  1.7434  2.1909
  677TIP3   OH2 2036   2.622   1.090   5.035 -0.3445 -0.3297  0.1205
  677TIP3    H1 2037   2.677   1.087   5.114  0.6955 -1.1951 -0.6099
  677TIP3    H2 2038   2.576   1.174   5.041 -0.3406 -0.4015  1.6702
  678TIP3   OH2 2039   1.424   1.846   3.314 -0.4489 -0.2167 -0.4419
  678TIP3    H1 2040   1.461   1.922   3.360 -0.8608 -0.3002  0.0309
  678TIP3    H2 2041   1.488   1.827   3.245 -0.4634  0.7117 -0.7234
  679TIP3   OH2 2042   5.920   0.133   1.335 -0.4156  0.4629  0.2033
  679TIP3    H1 2043   5.830   0.108   1.355 -0.6623 -2.1304 -3.2279
  679TIP3    H2 2044   5.911   0.200   1.267  0.1476 -0.5527 -0.9141
  680TIP3   OH2 2045   6.118   3.371   5.023  0.2987 -0.1257  0.5661
  680TIP3    H1 2046   6.122   3.339   5.113  1.7154 -0.5040  0.3872
  680TIP3    H2 2047   6.026   3.363   4.998  0.2130 -1.8007  1.3366
  681TIP3   OH2 2048   0.941   2.034   4.384 -0.1340 -0.1286 -0.0580
  681TIP3    H1 2049   0.938   2.099   4.314  0.5753  0.5958  0.5507
  681TIP3    H2 2050   0.914   2.082   4.463  2.8403  0.1915  0.8956
  682TIP3   OH2 2051   2.524   4.780   4.413  0.0221 -0.0228  0.0331
  682TIP3    H1 2052   2.605   4.821   4.384  0.9799 -1.8779 -0.0545
  682TIP3    H2 2053   2.552   4.701   4.460 -1.7516 -1.3560 -1.0119
  683TIP3   OH2 2054   2.710   1.941   2.234  0.4039  0.4752  0.1514
  683TIP3    H1 2055   2.733   1.877   2.302  2.4245 -0.0800 -1.0078
  683TIP3    H2 2056   2.623   1.973   2.261 -0.7031 -2.7266  0.7694
  684TIP3   OH2 2057   0.811   3.486   1.323  0.1363 -0.1788  0.1315
  684TIP3    H1 2058   0.857   3.569   1.306  0.2912 -0.5761 -1.6627
  684TIP3    H2 2059   0.861   3.444   1.393  1.3472  0.2930 -0.4174
  685TIP3   OH2 2060   0.150   2.924   3.047  0.1178 -0.0784  0.8074
  685TIP3    H1 2061   0.166   3.018   3.033  0.4352 -0.3270 -0.6155
  685TIP3    H2 2062   0.141   2.916   3.142  2.8475  0.9958  1.2794
  686TIP3   OH2 2063   4.151   0.992   4.225 -0.1303 -0.0867 -0.0197
  686TIP3    H1 2064   4.246   1.003   4.231 -0.3662  1.4616  1.2166
  686TIP3    H2 2065   4.133   0.995   4.131  1.0993 -1.0804 -0.3129
  687TIP3   OH2 2066   5.013   0.999   0.525 -0.3651  0.1433  0.4185
  687TIP3    H1 2067   5.054   0.997   0.612 -1.8292  0.7611  1.1665
  687TIP3    H2 2068   5.044   1.081   0.486 -0.5083  0.3884  0.8024
  688TIP3   OH2 2069   1.516   4.477   3.203 -0.1869  0.0450 -0.4779
  688TIP3    H1 2070   1.561   4.520   3.130 -0.0015 -1.8235 -1.5312
  688TIP3    H2 2071   1.445   4.537   3.227  1.0436  1.6704 -0.7515
  689TIP3   OH2 2072   6.276   3.218   1.733  0.2061  0.1318 -0.2521
  689TIP3    H1 2073   6.267   3.146   1.670 -1.4089  1.7085 -1.9541
  689TIP3    H2 2074   6.263   3.297   1.680 -4.2113  1.5259  2.4096
  690TIP3   OH2 2075   4.259   2.703   3.866 -0.2626 -0.0394  0.3686
  690TIP3    H1 2076   4.332   2.766   3.872 -1.1717  1.0240  0.7030
  690TIP3    H2 2077   4.299   2.619   3.887  0.7606  0.6049  1.1507
  691TIP3   OH2 2078   5.992   5.855   1.052  0.3446 -0.2468  0.3796
  691TIP3    H1 2079   5.925   5.839   0.985 -0.6812 -1.0240  1.5642
  691TIP3    H2 2080   6.039   5.932   1.019  0.2088 -0.8972 -1.4788
  692TIP3   OH2 2081   5.833   3.957   1.976  0.2161  0.3600  0.2072
  692TIP3    H1 2082   5.829   3.883   1.915 -0.2850  1.0021 -0.5616
  692TIP3    H2 2083   5.744   3.965   2.009  0.1164  0.9999 -0.1946
  693TIP3   OH2 2084   1.757   2.741   0.085 -0.5853 -0.1112  0.3244
  693TIP3    H1 2085   1.786   2.810   0.024  1.8120 -1.9109 -0.7547
  693TIP3    H2 2086   1.712   2.788   0.155  0.4161  2.4907 -0.6496
  694TIP3   OH2 2087   4.307   2.602   0.557 -0.1689  0.2409 -0.2841
  694TIP3    H1 2088   4.319   2.673   0.620 -1.5932 -1.0121  1.4632
  694TIP3    H2 2089   4.375   2.618   0.491  0.6537  2.2343  0.9486
  695TIP3   OH2 2090   1.318   5.286   3.542 -0.4766  0.2820  0.3388
  695TIP3    H1 2091   1.289   5.368   3.581  0.8928  0.5399  0.8674
  695TIP3    H2 2092   1.408   5.303   3.514  0.1876 -1.3249  1.3526
  696TIP3   OH2 2093   2.744   4.470   0.018 -0.1427 -0.5774 -0.0021
  696TIP3    H1 2094   2.706   4.423   0.092 -0.2726 -0.9637 -0.3117
  696TIP3    H2 2095   2.730   4.412  -0.057 -0.2980 -0.0518 -0.3877
  697TIP3   OH2 2096   6.048   4.404   4.187  0.2789  0.1709 -0.4211
  697TIP3    H1 2097   6.007   4.455   4.118  1.2306  0.2180 -0.9680
  697TIP3    H2 2098   6.048   4.463   4.263 -1.3580 -0.1161 -0.1751
  698TIP3   OH2 2099   3.570   4.712   1.707  0.0465  0.4986  0.2129
  698TIP3    H1 2100   3.596   4.767   1.633 -0.1230 -0.1238 -0.3206
  698TIP3    H2 2101   3.493   4.756   1.744 -0.3128  0.4318 -0.4363
  699TIP3   OH2 2102   1.557  -0.019   4.717  0.5416 -0.4971 -0.0448
  699TIP3    H1 2103   1.535  -0.001   4.808 -0.2491  0.6639 -0.4335
  699TIP3    H2 2104   1.531   0.060   4.670 -0.1308 -1.4974 -1.4378
  700TIP3   OH2 2105   3.859   2.695   4.534 -0.6936  0.7153  0.8157
  700TIP3    H1 2106   3.817   2.777   4.561 -0.8420  0.8686  0.1496
  700TIP3    H2 2107   3.791   2.649   4.485  0.1158  1.2909 -0.9205
  701TIP3   OH2 2108   3.540   0.282   3.729 -0.3519 -0.1099  0.5527
  701TIP3    H1 2109   3.556   0.275   3.823 -0.1800  0.9273  0.6095
  701TIP3    H2 2110   3.627   0.297   3.691 -0.7801  3.6702  0.6737
  702TIP3   OH2 2111   3.722   1.450   1.862  0.2131  0.1325  0.0910
  702TIP3    H1 2112   3.732   1.403   1.779  1.6471 -1.3169  1.0390
  702TIP3    H2 2113   3.689   1.384   1.923 -0.8755  1.1990  0.6949
  703TIP3   OH2 2114   3.671   4.482   1.370 -0.1244 -0.0155  0.3879
  703TIP3    H1 2115   3.742   4.526   1.417  1.4016 -1.9988  0.0963
  703TIP3    H2 2116   3.708   4.461   1.284 -1.6201  0.2777 -0.3598
  704TIP3   OH2 2117   6.110   0.705   1.437  0.2659 -0.0828  0.2869
  704TIP3    H1 2118   6.041   0.638   1.436 -0.2424  0.4086 -1.6135
  704TIP3    H2 2119   6.107   0.744   1.349  4.2735 -1.3851 -0.6646
  705TIP3   OH2 2120   5.352   1.770   5.046  0.1726 -0.6644  0.2957
  705TIP3    H1 2121   5.368   1.833   4.976  1.4078 -2.8383 -1.4828
  705TIP3    H2 2122   5.257   1.774   5.061  0.1694  1.3468  0.0517
  706TIP3   OH2 2123   3.734   4.771   2.359  0.2036  0.0852 -0.5416
  706TIP3    H1 2124   3.772   4.697   2.312  2.2290  0.4742  0.3894
  706TIP3    H2 2125   3.650   4.786   2.316  0.8692 -1.1488 -2.3857
  707TIP3   OH2 2126   3.585   5.881   2.008  0.4320 -0.2238  0.3258
  707TIP3    H1 2127   3.668   5.895   1.963  0.5089  1.1781  0.8698
  707TIP3    H2 2128   3.569   5.787   2.000  1.4351 -0.3181 -0.8708
  708TIP3   OH2 2129   3.917   0.577   3.004 -0.6028  0.2765 -0.0308
  708TIP3    H1 2130   3.917   0.640   3.076 -1.2528 -1.2374  1.3771
  708TIP3    H2 2131   3.845   0.517   3.026  0.5614 -1.4683 -0.8059
  709TIP3   OH2 2132   2.200   0.875   4.019  0.2353 -0.5788 -0.0886
  709TIP3    H1 2133   2.254   0.954   4.022  0.2007 -0.5067 -1.0441
  709TIP3    H2 2134   2.240   0.821   3.950 -1.2434 -0.2596 -1.2408
  710TIP3   OH2 2135   3.696   5.897   1.731 -0.0280  0.6289  0.2416
  710TIP3    H1 2136   3.777   5.855   1.703  0.6009  0.7827  1.7177
  710TIP3    H2 2137   3.631   5.870   1.667  0.7737 -1.0605  0.0988
  711TIP3   OH2 2138   3.595   5.727   1.065  0.4322 -0.0853  0.2558
  711TIP3    H1 2139   3.685   5.752   1.084  0.6577 -1.0351  0.4553
  711TIP3    H2 2140   3.555   5.715   1.152 -1.4116  5.2763  0.5690
  712TIP3   OH2 2141   4.726   1.920   4.988 -0.1360 -0.2479  0.1336
  712TIP3    H1 2142   4.714   1.872   4.906 -0.5659  1.1571 -0.6575
  712TIP3    H2 2143   4.663   1.992   4.984  0.6951  0.5829  1.1320
  713TIP3   OH2 2144   3.830   4.053   3.118 -0.6697  0.1344 -0.1500
  713TIP3    H1 2145   3.871   4.101   3.191  1.8498 -0.2043 -1.2279
  713TIP3    H2 2146   3.800   4.121   3.059  0.1789  0.4263 -0.2643
  714TIP3   OH2 2147   3.119   4.611   0.575 -0.0927 -0.2832 -0.0863
  714TIP3    H1 2148   3.185   4.680   0.571  0.1918 -0.5533 -0.0571
  714TIP3    H2 2149   3.165   4.535   0.612 -1.2108  0.4555  3.1609
  715TIP3   OH2 2150   2.461   1.517   2.761  0.4107 -0.2863 -0.5023
  715TIP3    H1 2151   2.520   1.455   2.804  0.7755 -0.0200 -0.6056
  715TIP3    H2 2152   2.452   1.589   2.823  0.7008 -0.0385 -0.7391
  716TIP3   OH2 2153   5.752   0.617   1.108 -0.0824  0.0829 -0.0882
  716TIP3    H1 2154   5.738   0.547   1.044  0.3226  0.4480 -0.5837
  716TIP3    H2 2155   5.733   0.697   1.060 -0.5497  0.3184  0.4842
  717TIP3   OH2 2156   0.613   3.498   1.888  0.0105  0.3880  0.3887
  717TIP3    H1 2157   0.541   3.467   1.834 -0.6563  1.5161  0.5955
  717TIP3    H2 2158   0.685   3.513   1.826  0.3917 -1.5608  0.2948
  718TIP3   OH2 2159   3.083   1.480   0.078 -0.3393 -0.3560  0.3442
  718TIP3    H1 2160   3.032   1.513   0.004 -0.1917  0.2285  0.4951
  718TIP3    H2 2161   3.025   1.490   0.153  0.0537  0.4814  0.5448
  719TIP3   OH2 2162   2.649   5.570   4.523 -0.7416 -0.0410  0.0082
  719TIP3    H1 2163   2.684   5.644   4.574  1.0977 -1.2337  0.5953
  719TIP3    H2 2164   2.670   5.592   4.432  0.9913 -0.3966  0.2898
  720TIP3   OH2 2165   0.441   2.231   4.562  0.0362  0.6279  0.5267
  720TIP3    H1 2166   0.368   2.276   4.519  1.2881  0.5338 -1.8706
  720TIP3    H2 2167   0.476   2.173   4.495  1.3575 -0.4868  2.1101
  721TIP3   OH2 2168   4.645   1.631   3.254 -0.3090 -0.2510 -0.1737
  721TIP3    H1 2169   4.624   1.555   3.309 -0.0367  0.0720  0.3786
  721TIP3    H2 2170   4.562   1.678   3.245 -0.0968  0.4073  1.0649
  722TIP3   OH2 2171   1.933   2.947   1.086 -0.6829 -0.1648 -0.1125
  722TIP3    H1 2172   2.011   2.899   1.056  0.4835  1.3303  0.3849
  722TIP3    H2 2173   1.886   2.968   1.006 -0.1670 -0.4082 -0.4895
  723TIP3   OH2 2174   1.978   2.957   1.375  0.0948 -0.8269 -0.7724
  723TIP3    H1 2175   1.906   2.969   1.437  0.2178  0.6300 -0.8867
  723TIP3    H2 2176   1.937   2.962   1.289  0.3546  0.2698 -0.8423
  724TIP3   OH2 2177   3.158   1.844   3.692 -0.2476  0.0886 -0.5133
  724TIP3    H1 2178   3.116   1.759   3.707  0.6472 -0.3752 -0.5553
  724TIP3    H2 2179   3.087   1.908   3.700 -1.1088 -0.7343 -1.3973
  725TIP3   OH2 2180   0.722   5.061   5.146  0.1988 -0.1568 -0.5855
  725TIP3    H1 2181   0.676   5.103   5.219  1.5268  0.4449 -0.0617
  725TIP3    H2 2182   0.653   5.039   5.083 -0.6593  2.2143 -0.5777
  726TIP3   OH2 2183   0.619   3.155   4.111  0.2861  0.3462  0.4054
  726TIP3    H1 2184   0.616   3.070   4.157  0.0028  0.5394  0.7502
  726TIP3    H2 2185   0.640   3.218   4.180 -0.4584  0.6860  0.3311
  727TIP3   OH2 2186   3.933   5.569   2.197  0.0156 -0.5399  0.5230
  727TIP3    H1 2187   3.930   5.599   2.287  0.9543 -0.8711  0.6763
  727TIP3    H2 2188   3.971   5.481   2.202 -0.2663 -0.7084 -0.1562
  728TIP3   OH2 2189   2.681   3.219   0.459 -0.5770 -0.0828 -0.1572
  728TIP3    H1 2190   2.675   3.233   0.554  2.4742  0.0747  0.1152
  728TIP3    H2 2191   2.650   3.301   0.421  1.0150  1.0624  0.8692
  729TIP3   OH2 2192   5.760   1.155   3.657  0.2082  0.7217  0.0276
  729TIP3    H1 2193   5.749   1.176   3.749 -1.0812 -0.5093  0.2021
  729TIP3    H2 2194   5.834   1.094   3.654 -2.4249 -2.8596  0.9570
  730TIP3   OH2 2195   4.819   5.133   3.086  0.2296 -0.5632  0.1538
  730TIP3    H1 2196   4.887   5.109   3.150 -0.4915 -0.9362  0.8042
  730TIP3    H2 2197   4.860   5.200   3.032  0.1191  1.5795  2.5300
  731TIP3   OH2 2198   0.411   4.600   4.410 -0.3892  0.0912 -0.2341
  731TIP3    H1 2199   0.317   4.586   4.407 -0.3438 -0.4825  0.7503
  731TIP3    H2 2200   0.423   4.691   4.384 -1.1132 -0.1551 -1.5071
  732TIP3   OH2 2201   4.090   2.253   4.262  0.0844 -0.3662  0.2464
  732TIP3    H1 2202   4.072   2.336   4.219  0.9084  0.0292  0.6362
  732TIP3    H2 2203   4.026   2.192   4.226 -1.4861  0.7643  1.0075
  733TIP3   OH2 2204   1.969   5.157   0.630 -0.6090 -0.1715  0.6522
  733TIP3    H1 2205   2.045   5.109   0.663  0.6064  0.0742 -1.5632
  733TIP3    H2 2206   1.985   5.248   0.654  0.3220  0.0224 -0.5934
  734TIP3   OH2 2207   4.867   2.262   5.078  0.1516 -0.3431 -0.2338
  734TIP3    H1 2208   4.854   2.274   4.984  0.2658 -0.4670 -0.2666
  734TIP3    H2 2209   4.837   2.343   5.117 -0.5654 -0.5655 -0.3210
  735TIP3   OH2 2210   4.601   0.491   3.893  0.1352 -0.1006  0.3137
  735TIP3    H1 2211   4.667   0.452   3.949 -1.6333 -2.5094  0.8970
  735TIP3    H2 2212   4.607   0.443   3.810  0.4223  1.0368 -0.3444
  736TIP3   OH2 2213   4.175   5.849   5.005  0.4716 -0.1111  0.0664
  736TIP3    H1 2214   4.263   5.871   4.975  0.4248  0.1969  0.1614
  736TIP3    H2 2215   4.157   5.764   4.964  0.3273  0.3999 -0.9669
  737TIP3   OH2 2216   5.415   1.578   1.913 -0.1442  0.1298  0.3229
  737TIP3    H1 2217   5.502   1.617   1.907  0.5267 -0.9894  1.8727
  737TIP3    H2 2218   5.427   1.488   1.882 -1.1598  0.4515 -1.0773
  738TIP3   OH2 2219   5.540   0.006   4.065 -0.3825 -0.1862 -0.0859
  738TIP3    H1 2220   5.622   0.020   4.113  0.1148 -1.5300 -0.5037
  738TIP3    H2 2221   5.489   0.086   4.081 -0.4628 -0.7473  3.1281
  739TIP3   OH2 2222   4.846   0.911   3.490  0.0883  0.6785  0.4413
  739TIP3    H1 2223   4.817   0.826   3.456 -1.4790  0.8108  1.3599
  739TIP3    H2 2224   4.878   0.957   3.413  0.1899 -0.4442 -0.2136
  740TIP3   OH2 2225   4.396   1.987   0.871  0.5531 -0.3165 -0.1301
  740TIP3    H1 2226   4.439   1.908   0.903  1.8941  1.1009  1.7813
  740TIP3    H2 2227   4.404   1.982   0.776  0.8550 -2.3109 -0.0458
  741TIP3   OH2 2228   2.454   0.484   3.048  0.0437 -0.3106  0.2335
  741TIP3    H1 2229   2.388   0.459   2.983 -0.9745  1.7268  0.4021
  741TIP3    H2 2230   2.498   0.559   3.010  1.6148 -1.0107  0.5837
  742TIP3   OH2 2231   2.905   3.234   0.040 -0.0904  0.5012 -0.2764
  742TIP3    H1 2232   2.952   3.179   0.103  0.0938  1.9767  0.9212
  742TIP3    H2 2233   2.823   3.188   0.026  0.0346 -0.0776  0.7358
  743TIP3   OH2 2234   5.483   2.074   4.603  0.4360  0.0808  0.4156
  743TIP3    H1 2235   5.475   2.163   4.638  1.1182  1.2535 -2.1427
  743TIP3    H2 2236   5.559   2.078   4.545 -1.0807 -1.3860 -1.8311
  744TIP3   OH2 2237   0.959   4.712   2.564  0.0371 -0.3520 -0.4086
  744TIP3    H1 2238   0.884   4.732   2.508 -0.0839  0.7798  0.1458
  744TIP3    H2 2239   0.970   4.789   2.619  3.1693  0.6372 -2.1525
  745TIP3   OH2 2240   3.050   3.673   1.123  0.0539  0.1220  0.2861
  745TIP3    H1 2241   3.016   3.589   1.155 -1.1720  0.0693 -1.0582
  745TIP3    H2 2242   3.083   3.654   1.036  0.7637  0.8313  0.3902
  746TIP3   OH2 2243   6.051   2.696   5.016 -0.3447 -0.4114  0.3239
  746TIP3    H1 2244   5.991   2.624   4.997  2.9349 -3.5703  0.8850
  746TIP3    H2 2245   6.112   2.696   4.942 -0.3193  1.9996  0.2564
  747TIP3   OH2 2246   5.794   3.765   0.162 -0.4043 -0.6441  0.6701
  747TIP3    H1 2247   5.732   3.771   0.235 -0.4804 -0.9728  0.6367
  747TIP3    H2 2248   5.810   3.855   0.136 -1.1668 -0.5769  0.4314
  748TIP3   OH2 2249   5.012   0.902   0.243 -0.4573 -0.2128  0.2554
  748TIP3    H1 2250   4.971   0.941   0.320 -1.9181 -1.5640  0.2145
  748TIP3    H2 2251   4.942   0.850   0.202  0.3351  0.2831 -1.8601
  749TIP3   OH2 2252   2.371   5.953   1.343  0.1058 -0.2918 -0.6412
  749TIP3    H1 2253   2.379   5.858   1.331  1.6395  0.0287 -2.7351
  749TIP3    H2 2254   2.432   5.973   1.414  0.6341 -0.7459 -0.9594
  750TIP3   OH2 2255   5.906   4.890   2.929 -0.2632 -0.9802  0.0370
  750TIP3    H1 2256   5.848   4.814   2.936  0.4538 -1.8213 -2.2836
  750TIP3    H2 2257   5.983   4.866   2.981  0.7470 -2.7224 -2.0983
  751TIP3   OH2 2258   1.748   2.300   4.536 -0.4196 -0.0700 -0.0082
  751TIP3    H1 2259   1.733   2.211   4.505 -0.9431  0.2275 -0.6292
  751TIP3    H2 2260   1.782   2.289   4.625 -0.6126 -0.8809 -0.0257
  752TIP3   OH2 2261   1.427   3.066   2.750 -0.2758 -0.6298  0.5491
  752TIP3    H1 2262   1.422   2.988   2.695  0.4006 -0.8211  0.7442
  752TIP3    H2 2263   1.379   3.043   2.829 -5.2464  1.1419 -1.5617
  753TIP3   OH2 2264   0.745   0.585   2.373  0.2118 -0.2255  0.0340
  753TIP3    H1 2265   0.820   0.640   2.350  0.1062 -0.0339  0.1376
  753TIP3    H2 2266   0.701   0.566   2.290  0.7371 -0.8713 -0.0977
  754TIP3   OH2 2267   3.138   0.377   2.917 -0.3212  0.5763  0.2765
  754TIP3    H1 2268   3.048   0.409   2.928 -0.9565 -1.2454  0.7756
  754TIP3    H2 2269   3.186   0.413   2.991 -0.7874  1.0576  0.3502
  755TIP3   OH2 2270   1.399   1.212   0.431  0.0005 -0.0677 -0.1427
  755TIP3    H1 2271   1.477   1.247   0.474 -0.7294  2.3326 -0.6148
  755TIP3    H2 2272   1.326   1.260   0.470 -1.1939 -1.6637 -0.3012
  756TIP3   OH2 2273   0.612   0.235   2.209  0.1748  0.0771  0.6443
  756TIP3    H1 2274   0.702   0.202   2.216  0.5720  0.6073 -1.3742
  756TIP3    H2 2275   0.622   0.329   2.195 -0.7426  0.2690  1.2506
  757TIP3   OH2 2276   1.176   0.206   0.788  0.0057 -0.1326  0.3659
  757TIP3    H1 2277   1.197   0.121   0.827  0.0568 -0.6235 -0.6969
  757TIP3    H2 2278   1.100   0.237   0.836 -0.4306 -1.1064  0.3143
  758TIP3   OH2 2279   1.717   3.986   3.738  0.2718 -0.3995  0.1013
  758TIP3    H1 2280   1.669   3.954   3.815  0.5883 -3.1738 -0.7490
  758TIP3    H2 2281   1.658   3.969   3.664 -0.1152  2.4011 -0.3590
  759TIP3   OH2 2282   5.679   1.418   0.109  0.3665  0.2853 -0.0703
  759TIP3    H1 2283   5.645   1.427   0.198  0.3509  0.5439 -0.1013
  759TIP3    H2 2284   5.605   1.386   0.058  0.5888 -0.6509  0.1645
  760TIP3   OH2 2285   2.421   4.088   0.916  0.2731  0.1329  0.6314
  760TIP3    H1 2286   2.515   4.070   0.922  0.1089 -0.3977  1.9090
  760TIP3    H2 2287   2.406   4.160   0.976 -0.2291 -0.1734  0.8856
  761TIP3   OH2 2288   2.060   3.551   4.080  0.4432  0.5460  0.2054
  761TIP3    H1 2289   2.004   3.623   4.052 -0.4555  0.5645  1.9046
  761TIP3    H2 2290   2.047   3.546   4.175  2.5167 -0.1523  0.5122
  762TIP3   OH2 2291   0.313   4.662   4.935 -0.7000  0.5021 -0.3644
  762TIP3    H1 2292   0.255   4.736   4.919 -1.3510  0.1846  0.4255
  762TIP3    H2 2293   0.287   4.597   4.870 -0.1039  0.9667 -1.0807
  763TIP3   OH2 2294   4.753   5.747   0.148  0.0956 -0.5827  0.4715
  763TIP3    H1 2295   4.831   5.803   0.140  0.1542 -0.9399 -3.5728
  763TIP3    H2 2296   4.788   5.658   0.157  0.1746 -0.6857 -0.7685
  764TIP3   OH2 2297   1.452   0.234   3.772 -0.0383 -0.4621  0.0771
  764TIP3    H1 2298   1.425   0.148   3.806  2.7071 -1.7436 -0.7173
  764TIP3    H2 2299   1.524   0.260   3.829 -1.1815  1.6595  0.6468
  765TIP3   OH2 2300   5.516   1.905   2.898  0.1574 -0.0497  0.0402
  765TIP3    H1 2301   5.492   1.951   2.818  0.3126  0.2931  0.1886
  765TIP3    H2 2302   5.526   1.974   2.963  0.3587 -0.2976  0.2736
  766TIP3   OH2 2303   5.260   0.068   4.937  0.3883  0.5955 -0.6993
  766TIP3    H1 2304   5.328   0.018   4.982  1.1743  0.7915 -1.6355
  766TIP3    H2 2305   5.249   0.023   4.853 -0.2482  0.8911 -0.7759
  767TIP3   OH2 2306   2.236   4.129   1.532 -0.1408  0.1782 -0.9028
  767TIP3    H1 2307   2.184   4.050   1.550  0.1365 -0.1015 -1.3108
  767TIP3    H2 2308   2.186   4.177   1.467 -0.0430  0.0622 -1.0654
  768TIP3   OH2 2309   4.636   3.493   2.225 -0.0022  0.6915  0.1971
  768TIP3    H1 2310   4.598   3.431   2.287  0.8267 -1.1030 -0.9977
  768TIP3    H2 2311   4.729   3.498   2.249  0.0543  1.0175 -0.0763
  769TIP3   OH2 2312   1.544   2.015   1.268 -0.0953 -0.1727 -0.3973
  769TIP3    H1 2313   1.483   1.953   1.229 -1.2367  0.2907  0.6093
  769TIP3    H2 2314   1.491   2.092   1.291  0.6723 -0.0727  1.2412
  770TIP3   OH2 2315   5.079   1.142   2.118 -0.3782 -0.6139  0.2133
  770TIP3    H1 2316   5.025   1.086   2.062  1.8595 -3.0514  0.2857
  770TIP3    H2 2317   5.087   1.224   2.070 -1.0403 -1.5458 -1.5710
  771TIP3   OH2 2318   5.593   5.786   3.991 -0.0801  0.1392 -0.1653
  771TIP3    H1 2319   5.688   5.775   3.987  0.2211  2.4257 -0.5138
  771TIP3    H2 2320   5.572   5.781   4.084  0.2866 -0.8768 -0.1253
  772TIP3   OH2 2321   4.795   2.959   3.976 -0.1059 -0.2680  0.5803
  772TIP3    H1 2322   4.791   2.978   4.070 -1.6723 -1.0691  0.6959
  772TIP3    H2 2323   4.859   3.022   3.943  0.4015  0.1086  2.1555
  773TIP3   OH2 2324   0.172   3.501   0.157 -0.6844 -0.1001  0.3459
  773TIP3    H1 2325   0.251   3.472   0.112 -1.4680 -0.8543 -0.6081
  773TIP3    H2 2326   0.100   3.463   0.106 -1.7141  1.7357  0.3438
  774TIP3   OH2 2327   3.084   5.175   2.455 -0.4596  0.1424  0.2603
  774TIP3    H1 2328   3.152   5.150   2.392 -0.5378  0.3767  0.0820
  774TIP3    H2 2329   3.071   5.269   2.441 -0.6487  0.1485  0.4617
  775TIP3   OH2 2330   0.298   2.219   4.811 -0.7682 -0.2208  0.0724
  775TIP3    H1 2331   0.362   2.210   4.740 -2.4514  2.1088 -1.8744
  775TIP3    H2 2332   0.229   2.157   4.788 -0.5585 -0.6770  0.6394
  776TIP3   OH2 2333   3.109   2.891   1.123 -0.4521  0.1994 -0.0764
  776TIP3    H1 2334   3.061   2.973   1.110 -0.7106 -0.1353 -1.3896
  776TIP3    H2 2335   3.055   2.825   1.080  0.5984 -0.3753 -0.5431
  777TIP3   OH2 2336   2.088   0.299   3.611 -0.2646  0.1618  0.1976
  777TIP3    H1 2337   2.180   0.317   3.627  0.0235 -1.1480  0.1216
  777TIP3    H2 2338   2.083   0.203   3.605 -2.0175  0.0115  2.6330
  778TIP3   OH2 2339   6.262   4.685   5.083 -0.0095 -0.0431 -0.2780
  778TIP3    H1 2340   6.234   4.640   5.163 -1.9371  1.0164 -0.3027
  778TIP3    H2 2341   6.221   4.636   5.012  0.8545 -0.3670 -0.5632
  779TIP3   OH2 2342   6.236   2.960   0.928  0.0424 -0.2189  0.0372
  779TIP3    H1 2343   6.200   2.882   0.971  0.2698 -0.6092 -0.4631
  779TIP3    H2 2344   6.330   2.957   0.948 -0.0343  0.2249  0.4686
  780TIP3   OH2 2345   5.566   5.781   4.864  0.3295  0.4497  0.2308
  780TIP3    H1 2346   5.519   5.752   4.942  0.7585  0.0701  0.3523
  780TIP3    H2 2347   5.629   5.711   4.846  0.3510  0.6120 -0.3561
  781TIP3   OH2 2348   1.498   4.383   3.451 -0.0149  0.6029 -0.4287
  781TIP3    H1 2349   1.455   4.298   3.444 -0.5113  0.6691  1.3684
  781TIP3    H2 2350   1.495   4.419   3.362 -0.7148 -0.7978 -1.0042
  782TIP3   OH2 2351   6.287   1.280   0.400  0.0825  0.3440  0.7272
  782TIP3    H1 2352   6.336   1.246   0.474  0.0501  0.4892  0.8156
  782TIP3    H2 2353   6.219   1.215   0.383  0.7897 -0.2516  0.1042
  783TIP3   OH2 2354   1.461   5.290   3.193  0.1719  0.9865 -0.1261
  783TIP3    H1 2355   1.515   5.324   3.264  0.4024 -0.1872  0.2761
  783TIP3    H2 2356   1.389   5.352   3.186  0.2526  1.2239  1.0012
  784TIP3   OH2 2357   4.698   4.943   0.364 -0.1098 -0.0285  0.1420
  784TIP3    H1 2358   4.656   4.986   0.439  0.3283 -0.9982  0.9711
  784TIP3    H2 2359   4.761   4.883   0.404  0.4318 -0.2541 -1.0277
  785TIP3   OH2 2360   0.018   4.641   3.725  0.9426 -0.7924  0.2325
  785TIP3    H1 2361  -0.005   4.721   3.677 -0.0513 -0.7828  0.6982
  785TIP3    H2 2362   0.005   4.664   3.817 -0.6249 -1.8667  0.3138
  786TIP3   OH2 2363   3.997   4.890   0.730  0.0589 -0.3928  0.3422
  786TIP3    H1 2364   3.970   4.942   0.806  0.3996 -0.7573  0.7168
  786TIP3    H2 2365   3.918   4.842   0.704  0.1781 -0.9934  1.0576
  787TIP3   OH2 2366   3.550   5.948   0.414  0.1992 -0.6465  0.7592
  787TIP3    H1 2367   3.547   5.955   0.510  3.0352  0.2887  0.8725
  787TIP3    H2 2368   3.527   6.035   0.382 -0.2533 -0.8231  0.5934
  788TIP3   OH2 2369   3.986   5.072   1.337 -0.8278  0.0467  0.4278
  788TIP3    H1 2370   4.057   5.020   1.298 -1.4812 -1.0951  0.7063
  788TIP3    H2 2371   4.003   5.069   1.431  0.6040  2.5877  0.3243
  789TIP3   OH2 2372   4.655   4.540   3.486  0.1984 -0.2230 -0.4300
  789TIP3    H1 2373   4.580   4.585   3.526  0.7212  1.3967 -1.2261
  789TIP3    H2 2374   4.656   4.571   3.395  0.3920 -2.1062 -1.1123
  790TIP3   OH2 2375   3.991   1.651   3.546  0.0186  0.4824  0.0599
  790TIP3    H1 2376   3.953   1.711   3.481 -1.4528 -0.1655  0.2946
  790TIP3    H2 2377   4.061   1.606   3.499 -0.6844  0.3995 -0.9371
  791TIP3   OH2 2378   1.328   1.005   2.783  0.2761  0.0896 -0.2250
  791TIP3    H1 2379   1.252   1.055   2.813 -0.7914 -0.9229 -1.1465
  791TIP3    H2 2380   1.365   1.057   2.712  0.2687  0.4230  0.0106
  792TIP3   OH2 2381   0.703   1.499   4.870 -0.0986  0.2242 -0.2230
  792TIP3    H1 2382   0.772   1.528   4.810 -1.7098  2.2316 -1.2438
  792TIP3    H2 2383   0.672   1.579   4.912 -1.2033 -0.7338  0.8728
  793TIP3   OH2 2384   0.564   1.765   4.631 -0.0071 -0.2279 -0.0596
  793TIP3    H1 2385   0.569   1.704   4.705 -0.5591  0.0134  0.1840
  793TIP3    H2 2386   0.571   1.852   4.671 -0.7929 -0.0801 -0.2302
  794TIP3   OH2 2387   4.102   1.369   3.538  0.4180 -0.7614 -0.2813
  794TIP3    H1 2388   4.177   1.428   3.530 -0.3327  0.3624  0.5759
  794TIP3    H2 2389   4.138   1.289   3.577  0.7936  0.8160  3.0187
  795TIP3   OH2 2390   6.008   1.481   4.511  0.4812 -0.0763 -0.2551
  795TIP3    H1 2391   5.939   1.418   4.532  1.0704 -0.2784  1.1873
  795TIP3    H2 2392   6.037   1.514   4.596  2.5171 -0.3769 -0.7908
  796TIP3   OH2 2393   4.194   2.259   5.008  0.1385  0.7821 -0.1277
  796TIP3    H1 2394   4.257   2.260   4.936 -0.6646  1.8085 -0.8468
  796TIP3    H2 2395   4.221   2.332   5.064 -0.7993  1.6646 -0.8030
  797TIP3   OH2 2396   3.684   0.985   4.138  0.5823 -0.3644  0.2220
  797TIP3    H1 2397   3.739   1.052   4.179 -0.9386  0.0552  1.6868
  797TIP3    H2 2398   3.598   1.026   4.131 -0.2671 -1.9881  0.6891
  798TIP3   OH2 2399   3.095   4.341   4.732  0.0404  0.4451  0.2699
  798TIP3    H1 2400   3.104   4.436   4.725 -1.4663  0.6055  0.1533
  798TIP3    H2 2401   3.142   4.319   4.812  1.3671  1.1218 -0.2969
  799TIP3   OH2 2402   4.031   3.812   2.082  0.4733  0.6028 -0.9306
  799TIP3    H1 2403   4.106   3.801   2.023  1.2803 -1.4433  0.3605
  799TIP3    H2 2404   4.065   3.868   2.152  1.4546 -1.6683  0.5338
  800TIP3   OH2 2405   0.673   5.367   1.733 -0.4666 -0.5593  0.3999
  800TIP3    H1 2406   0.696   5.447   1.686 -0.9347 -0.6397  0.0265
  800TIP3    H2 2407   0.660   5.395   1.824 -0.8512 -0.1711  0.2302
  801TIP3   OH2 2408   2.789   2.295   4.782  0.1938  0.1374  0.1140
  801TIP3    H1 2409   2.729   2.353   4.830  0.9399 -0.2584  1.6007
  801TIP3    H2 2410   2.746   2.210   4.784  0.4465  0.0166  0.5211
  802TIP3   OH2 2411   6.265   2.353   3.462 -0.0418 -0.4501  0.5119
  802TIP3    H1 2412   6.218   2.315   3.387 -1.6613 -0.1556  1.3451
  802TIP3    H2 2413   6.346   2.301   3.468 -0.5512 -1.4136 -0.5618
  803TIP3   OH2 2414   1.548   0.461   1.023 -0.0147 -0.4412  0.0094
  803TIP3    H1 2415   1.562   0.367   1.028 -1.9879 -0.7037  2.9004
  803TIP3    H2 2416   1.453   0.471   1.015  0.1342  1.3230 -0.0010
  804TIP3   OH2 2417   6.167   1.778   2.972 -0.4200  0.9297  0.3272
  804TIP3    H1 2418   6.071   1.779   2.973 -0.4184  1.3746  0.2923
  804TIP3    H2 2419   6.190   1.695   3.013 -0.8691 -1.0177 -2.9400
  805TIP3   OH2 2420   3.457   4.834   0.704  0.3940  0.1741 -0.2219
  805TIP3    H1 2421   3.494   4.747   0.720  0.0881  0.0873  0.0117
  805TIP3    H2 2422   3.399   4.823   0.629  1.7734  0.5681 -1.4011
  806TIP3   OH2 2423   6.177   4.303   4.581 -0.7733  1.0921  0.2491
  806TIP3    H1 2424   6.152   4.222   4.537  1.4253  0.8815 -0.7213
  806TIP3    H2 2425   6.152   4.372   4.520  0.6815  0.8994 -0.6022
  807TIP3   OH2 2426   2.007   3.861   1.788  0.4721 -0.5655  0.6083
  807TIP3    H1 2427   1.922   3.825   1.763 -0.2180  0.6732  1.0858
  807TIP3    H2 2428   2.068   3.825   1.724 -0.4409 -1.2821  0.1125
  808TIP3   OH2 2429   4.778   3.190   3.569  0.2319 -0.3770  0.2187
  808TIP3    H1 2430   4.843   3.251   3.534  0.0974  0.4547  1.3352
  808TIP3    H2 2431   4.800   3.106   3.530  2.0118 -0.1256  0.5894
  809TIP3   OH2 2432   3.706   1.634   2.352  0.0453  0.0636  0.6878
  809TIP3    H1 2433   3.675   1.689   2.424  0.0760 -0.8346  1.3971
  809TIP3    H2 2434   3.734   1.697   2.285 -1.2864  0.9004  0.8791
  810TIP3   OH2 2435   4.885   3.586   3.633  0.4158 -0.0126 -0.1871
  810TIP3    H1 2436   4.964   3.596   3.686  0.5983  1.6536 -0.7051
  810TIP3    H2 2437   4.815   3.621   3.689  0.2908 -0.0828 -0.3003
  811TIP3   OH2 2438   1.902   5.545   0.936  0.0159 -0.1870 -0.1540
  811TIP3    H1 2439   1.807   5.555   0.942  0.0622  1.0850 -1.0815
  811TIP3    H2 2440   1.937   5.595   1.009 -0.0342 -1.6757  0.9357
  812TIP3   OH2 2441   0.303   2.211   0.593  0.3836  0.2641 -0.3620
  812TIP3    H1 2442   0.394   2.185   0.576  0.1315 -1.2293  0.3493
  812TIP3    H2 2443   0.311   2.283   0.656  1.1341  2.5142 -2.8855
  813TIP3   OH2 2444   6.357   0.695   4.869  0.2450  0.3703 -0.3641
  813TIP3    H1 2445   6.264   0.684   4.888 -0.0557  1.0530 -1.3488
  813TIP3    H2 2446   6.399   0.615   4.903 -0.7108 -0.0173 -0.0708
  814TIP3   OH2 2447   1.194   1.077   3.744  0.3922  0.2970 -0.6159
  814TIP3    H1 2448   1.176   0.985   3.723 -1.9724  0.7733 -0.8937
  814TIP3    H2 2449   1.248   1.073   3.823 -2.2260 -1.3658  1.2477
  815TIP3   OH2 2450   0.103   3.151   2.653 -0.2856  0.1248 -0.4939
  815TIP3    H1 2451   0.191   3.154   2.690 -0.3635  1.4709 -0.3951
  815TIP3    H2 2452   0.106   3.210   2.578 -1.4906  1.3292  0.3662
  816TIP3   OH2 2453   4.878   1.469   3.176  0.0406 -0.8262  0.4848
  816TIP3    H1 2454   4.792   1.511   3.181 -1.0479 -3.0571  2.4931
  816TIP3    H2 2455   4.868   1.405   3.105 -0.4284 -1.9633  1.5481
  817TIP3   OH2 2456   5.514   1.560   5.111 -0.2561  0.4652  0.1626
  817TIP3    H1 2457   5.450   1.628   5.091 -0.9335  0.0989  1.0071
  817TIP3    H2 2458   5.551   1.536   5.026 -0.4938  1.4069 -0.2164
  818TIP3   OH2 2459   5.186   4.284   1.264 -0.3846  0.6378 -0.6213
  818TIP3    H1 2460   5.166   4.194   1.236  0.0926 -0.0558  1.1130
  818TIP3    H2 2461   5.265   4.276   1.316 -2.8576  1.1684  3.7387
  819TIP3   OH2 2462   5.666   2.940   1.752 -0.2378  0.3970 -0.0973
  819TIP3    H1 2463   5.702   2.927   1.664  1.8392 -1.5375  0.9700
  819TIP3    H2 2464   5.720   3.009   1.790 -0.6706  0.7103 -0.0299
  820TIP3   OH2 2465   1.871   5.833   4.927  0.4077  0.3090  0.1620
  820TIP3    H1 2466   1.832   5.763   4.875 -0.4296  1.0944 -0.3044
  820TIP3    H2 2467   1.939   5.870   4.872  1.3947 -0.6316  0.7176
  821TIP3   OH2 2468   1.696   4.371   4.588  0.5068 -0.0553  0.0296
  821TIP3    H1 2469   1.739   4.450   4.621 -0.4392  0.5970 -0.2784
  821TIP3    H2 2470   1.669   4.394   4.499 -0.3273 -0.5105  0.1579
  822TIP3   OH2 2471   4.174   0.458   3.123 -0.3831  0.3395 -0.2658
  822TIP3    H1 2472   4.104   0.497   3.071 -0.8620  1.7510  1.3273
  822TIP3    H2 2473   4.145   0.368   3.138  0.2049 -0.4031 -3.0887
  823TIP3   OH2 2474   6.200   1.986   4.402  0.1082 -0.6895 -0.6413
  823TIP3    H1 2475   6.208   1.892   4.420  1.0507 -0.2765  1.3914
  823TIP3    H2 2476   6.275   2.006   4.347  0.2489 -1.0203 -0.5749
  824TIP3   OH2 2477   1.973   5.098   3.809 -0.2243  0.2761 -0.5180
  824TIP3    H1 2478   2.048   5.151   3.835 -0.5459 -0.0158  1.1761
  824TIP3    H2 2479   2.010   5.020   3.769  0.4841 -0.3631  1.2534
  825TIP3   OH2 2480   1.823   4.526   3.778  0.4546  0.0259 -0.3994
  825TIP3    H1 2481   1.774   4.519   3.696 -2.3246 -0.6450  1.1810
  825TIP3    H2 2482   1.864   4.440   3.789  2.8697  0.8411 -2.1304
  826TIP3   OH2 2483   3.834   1.625   4.005 -0.2038 -0.0519  0.1347
  826TIP3    H1 2484   3.850   1.717   4.026  0.1602 -0.1263  0.1974
  826TIP3    H2 2485   3.799   1.627   3.916  0.7510  0.0834 -0.2503
  827TIP3   OH2 2486   1.689   0.511   3.334  0.1089  0.1008 -0.4053
  827TIP3    H1 2487   1.601   0.504   3.371 -0.9344  2.3154 -2.1910
  827TIP3    H2 2488   1.681   0.476   3.245  1.1736 -0.1478 -0.4182
  828TIP3   OH2 2489   3.246   1.696   4.804 -0.2261 -0.2657 -0.4986
  828TIP3    H1 2490   3.249   1.716   4.711 -0.3180 -0.0926 -0.4640
  828TIP3    H2 2491   3.321   1.639   4.818 -0.8265 -1.1721 -0.8819
  829TIP3   OH2 2492   5.402   2.130   4.299  0.1745  0.1386  0.4724
  829TIP3    H1 2493   5.447   2.061   4.348  2.3186  2.0275  1.3437
  829TIP3    H2 2494   5.328   2.154   4.354  0.0266 -0.7273  0.6650
  830TIP3   OH2 2495   2.810   4.503   4.803 -0.0319 -0.1508 -0.3866
  830TIP3    H1 2496   2.840   4.491   4.893 -2.9863  0.1429  0.7553
  830TIP3    H2 2497   2.784   4.416   4.774  0.7869 -0.2221 -0.9551
  831TIP3   OH2 2498   6.044   5.221   0.921  0.3395  0.0414 -0.1330
  831TIP3    H1 2499   5.995   5.303   0.925  0.7603  0.3212 -0.5202
  831TIP3    H2 2500   6.107   5.235   0.850  0.7791 -0.4183  0.1610
  832TIP3   OH2 2501   4.225   2.251   3.993 -0.5259 -0.1310 -0.2505
  832TIP3    H1 2502   4.164   2.243   3.920  1.0026 -0.2900 -1.5641
  832TIP3    H2 2503   4.193   2.327   4.042 -2.1763 -0.6524 -0.4637
  833TIP3   OH2 2504   3.941   0.130   5.035 -0.2909  0.3832 -0.1078
  833TIP3    H1 2505   4.027   0.138   4.994 -0.1199  2.4431  0.5285
  833TIP3    H2 2506   3.892   0.073   4.976  0.9347  0.6879 -1.4866
  834TIP3   OH2 2507   2.841   2.522   5.144  0.8712 -0.2864  0.2207
  834TIP3    H1 2508   2.829   2.603   5.094  1.0580  0.1349  0.8492
  834TIP3    H2 2509   2.933   2.499   5.130  1.5496  1.0581  2.1512
  835TIP3   OH2 2510   2.289   5.432   0.685 -0.1086  0.1911 -0.0811
  835TIP3    H1 2511   2.319   5.372   0.616 -1.3109 -0.5535  0.0066
  835TIP3    H2 2512   2.204   5.397   0.711 -0.2723  1.2397  0.8569
  836TIP3   OH2 2513   6.079   0.451   4.811 -0.1004 -0.1302 -0.1396
  836TIP3    H1 2514   6.119   0.370   4.843  0.4729  0.1501 -0.1254
  836TIP3    H2 2515   6.068   0.505   4.890  0.7637  0.3266 -0.3153
  837TIP3   OH2 2516   0.105   4.652   1.114  0.5029  0.1898 -0.0855
  837TIP3    H1 2517   0.118   4.626   1.023 -0.6901 -1.8007  0.2414
  837TIP3    H2 2518   0.089   4.569   1.160 -1.1417  1.3231  1.5261
  838TIP3   OH2 2519   1.592   0.008   2.647 -0.0295 -0.2428  0.2625
  838TIP3    H1 2520   1.587   0.101   2.670 -3.0019 -0.2707  0.1331
  838TIP3    H2 2521   1.608   0.006   2.553  2.7074  0.0219  0.6534
  839TIP3   OH2 2522   4.854   5.273   2.639 -0.5884  0.3085  0.3699
  839TIP3    H1 2523   4.911   5.267   2.562  0.6076 -0.6255  1.2870
  839TIP3    H2 2524   4.770   5.302   2.605 -0.2491 -0.6460 -1.3663
  840TIP3   OH2 2525   1.955   4.079   3.160  0.1687  0.4012 -0.2907
  840TIP3    H1 2526   1.894   4.149   3.137  0.8561  1.9609  2.2829
  840TIP3    H2 2527   2.042   4.119   3.151  0.5890 -0.2166  0.8308
  841TIP3   OH2 2528   3.133   5.619   4.322 -0.0503 -0.2719  0.2744
  841TIP3    H1 2529   3.212   5.652   4.280  1.2600 -3.1035  0.2680
  841TIP3    H2 2530   3.150   5.628   4.416 -0.4240  0.5417  0.2746
  842TIP3   OH2 2531   3.286   5.046   1.420 -0.2627  0.0270 -0.6101
  842TIP3    H1 2532   3.241   4.976   1.374  0.0677 -0.2387 -0.5329
  842TIP3    H2 2533   3.315   5.106   1.351  1.4425 -1.0701 -0.8974
  843TIP3   OH2 2534   2.362   2.600   1.789  0.1854  0.2724  0.0378
  843TIP3    H1 2535   2.401   2.566   1.869  2.0088  1.8544 -0.0859
  843TIP3    H2 2536   2.344   2.523   1.735  0.5596 -0.6865  1.2616
  844TIP3   OH2 2537   1.551   2.075   2.409 -0.5211 -0.5971  0.1981
  844TIP3    H1 2538   1.636   2.035   2.423 -0.4560 -0.5797 -0.1427
  844TIP3    H2 2539   1.501   2.053   2.488 -0.0176 -0.1188  0.6570
  845TIP3   OH2 2540   6.120   1.558   4.106 -0.3190  0.2169  0.6764
  845TIP3    H1 2541   6.159   1.548   4.019 -0.9167 -2.5851  0.6514
  845TIP3    H2 2542   6.169   1.498   4.162  0.5041  2.4582  2.5085
  846TIP3   OH2 2543   1.408   0.875   4.654 -0.4406  0.1251 -0.3504
  846TIP3    H1 2544   1.371   0.854   4.740 -0.6225  0.3051 -0.3863
  846TIP3    H2 2545   1.391   0.797   4.601 -2.2918  0.8482 -0.8735
  847TIP3   OH2 2546   5.333   3.498   1.728  0.0434 -0.1109 -0.0511
  847TIP3    H1 2547   5.263   3.559   1.752 -0.6909  0.6248 -3.5568
  847TIP3    H2 2548   5.287   3.422   1.692  1.0214 -0.2281 -1.0981
  848TIP3   OH2 2549   2.374   3.267   5.022 -0.8177 -0.2779 -0.4924
  848TIP3    H1 2550   2.402   3.275   4.931  1.0657  0.6283  0.1363
  848TIP3    H2 2551   2.278   3.275   5.018 -1.0766 -2.9273 -2.6374
  849TIP3   OH2 2552   3.055   0.863   0.485  0.0054  0.0404  0.5314
  849TIP3    H1 2553   3.012   0.815   0.414 -0.8345  1.8252 -0.2043
  849TIP3    H2 2554   3.101   0.795   0.535 -0.3406 -1.4012 -1.0287
  850TIP3   OH2 2555   6.334   0.534   0.604 -0.3860 -0.1316  0.0046
  850TIP3    H1 2556   6.412   0.479   0.601 -0.1775  0.0593  1.1522
  850TIP3    H2 2557   6.272   0.491   0.546  0.1941 -0.9025 -0.0651
  851TIP3   OH2 2558   4.899   0.729   3.837 -0.0085 -0.6441 -0.3196
  851TIP3    H1 2559   4.850   0.719   3.755 -0.0507 -0.5157 -0.3102
  851TIP3    H2 2560   4.980   0.681   3.823  1.3305  1.8277 -1.5446
  852TIP3   OH2 2561   4.567   5.252   4.301 -0.0154  0.1621 -0.0884
  852TIP3    H1 2562   4.512   5.184   4.262  1.1490  0.3447 -2.2125
  852TIP3    H2 2563   4.507   5.325   4.318 -0.9657 -0.7595  0.6240
  853TIP3   OH2 2564   6.228   1.470   5.193  0.5425 -0.4762  0.4038
  853TIP3    H1 2565   6.145   1.493   5.151 -0.1577 -1.0272  1.4597
  853TIP3    H2 2566   6.294   1.493   5.128 -0.0702  3.8703  1.0435
  854TIP3   OH2 2567   1.721   0.401   4.954 -0.3529 -0.0401 -0.5072
  854TIP3    H1 2568   1.643   0.397   5.009  0.4244 -2.1979  0.5856
  854TIP3    H2 2569   1.790   0.432   5.013  0.2523 -1.2757 -0.5310
  855TIP3   OH2 2570   0.919   5.467   1.928 -0.4996 -0.0257  0.6218
  855TIP3    H1 2571   0.964   5.394   1.970  1.5412  0.3909 -0.6693
  855TIP3    H2 2572   0.888   5.521   2.001  1.1370 -0.3483  1.6132
  856TIP3   OH2 2573   4.345   0.900   1.080 -0.1232  0.2667 -0.0056
  856TIP3    H1 2574   4.367   0.935   1.167  0.5683  1.8055 -0.7656
  856TIP3    H2 2575   4.345   0.805   1.092  1.2737  0.3934  1.3915
  857TIP3   OH2 2576   0.539   4.302   4.135  0.3458 -0.2554  0.1274
  857TIP3    H1 2577   0.463   4.316   4.078  0.2267 -0.2480  0.2880
  857TIP3    H2 2578   0.556   4.208   4.130  0.3792 -0.2441  0.0251
  858TIP3   OH2 2579   3.198   3.136   4.990  0.0432  0.0068 -0.1680
  858TIP3    H1 2580   3.175   3.068   4.926 -1.8864  0.0825  0.4013
  858TIP3    H2 2581   3.178   3.218   4.947 -0.8803  0.0734  0.3658
  859TIP3   OH2 2582   0.695   4.165   2.963 -0.2033 -0.6174  1.2324
  859TIP3    H1 2583   0.609   4.187   2.928  0.7371  1.3397 -0.0332
  859TIP3    H2 2584   0.694   4.070   2.970 -1.6666 -0.8634 -1.0499
  860TIP3   OH2 2585   3.064   5.419   1.317 -0.3727 -0.6171  0.0224
  860TIP3    H1 2586   2.988   5.477   1.326  1.0646  1.3076  0.3378
  860TIP3    H2 2587   3.124   5.467   1.260  1.2845 -1.3430  1.0944
  861TIP3   OH2 2588   6.310   2.802   3.661  0.2722  1.1227 -0.1151
  861TIP3    H1 2589   6.255   2.828   3.735 -0.1368  0.7554 -0.2822
  861TIP3    H2 2590   6.290   2.866   3.593 -0.7339  0.4057 -0.5258
  862TIP3   OH2 2591   1.730   3.450   2.479 -0.6884 -0.0189  0.4789
  862TIP3    H1 2592   1.679   3.384   2.527 -0.3517 -0.3335  0.4127
  862TIP3    H2 2593   1.666   3.492   2.421 -1.0754  0.2877  1.1190
  863TIP3   OH2 2594   0.622   1.826   1.567 -0.4498  0.0036 -0.5821
  863TIP3    H1 2595   0.588   1.858   1.650 -0.8306  0.2680 -0.8360
  863TIP3    H2 2596   0.546   1.789   1.522 -0.3049  0.1277 -0.9350
  864TIP3   OH2 2597   2.533   5.393   1.531  0.1391 -0.2304 -0.2427
  864TIP3    H1 2598   2.592   5.465   1.551  0.0008 -0.5404  1.4210
  864TIP3    H2 2599   2.514   5.353   1.616 -0.0865 -1.9877 -1.0703
  865TIP3   OH2 2600   2.155   1.192   4.672 -0.0645 -0.0539  0.1909
  865TIP3    H1 2601   2.081   1.253   4.677 -0.0795 -0.1804  2.0522
  865TIP3    H2 2602   2.124   1.114   4.718  1.8741  0.6421  2.9050
  866TIP3   OH2 2603   4.812   0.687   1.620 -0.4764  0.1955 -0.4996
  866TIP3    H1 2604   4.729   0.696   1.574 -0.8591 -0.7513 -0.0153
  866TIP3    H2 2605   4.793   0.630   1.694  1.3089 -3.1219 -2.3433
  867TIP3   OH2 2606   6.261   3.994   2.394 -0.2346  0.0206  0.1821
  867TIP3    H1 2607   6.170   3.997   2.422  0.3527 -1.1842  2.4589
  867TIP3    H2 2608   6.281   3.901   2.383  1.2224  0.0843  1.7685
  868TIP3   OH2 2609   6.044   2.546   1.849 -0.2031  0.4770  0.1250
  868TIP3    H1 2610   6.095   2.624   1.826 -0.4097  0.3907 -0.6557
  868TIP3    H2 2611   6.041   2.495   1.768 -0.1328 -0.3092  0.6124
  869TIP3   OH2 2612   2.027   1.510   4.442  0.3210  0.1207  0.1531
  869TIP3    H1 2613   1.999   1.599   4.459  1.4523  0.5512 -0.1420
  869TIP3    H2 2614   1.986   1.488   4.358  0.4033  0.5290  0.0043
  870TIP3   OH2 2615   3.702   5.232   2.858  0.5365  0.1594  0.1392
  870TIP3    H1 2616   3.688   5.261   2.948 -0.1849  1.3944 -0.3361
  870TIP3    H2 2617   3.752   5.150   2.866 -1.4304 -0.9671  1.7253
  871TIP3   OH2 2618   2.590   1.974   3.431 -0.0763 -0.6349 -0.0518
  871TIP3    H1 2619   2.597   2.043   3.364  0.7708  0.0172  0.6764
  871TIP3    H2 2620   2.498   1.948   3.430 -0.3917  0.4554 -0.3926
  872TIP3   OH2 2621   3.548   4.128   2.977 -0.5217 -0.0818 -0.6484
  872TIP3    H1 2622   3.484   4.191   2.941 -0.3008  0.3400 -0.3172
  872TIP3    H2 2623   3.501   4.045   2.978 -0.9946  0.1768 -0.6287
  873TIP3   OH2 2624   0.384   2.028   3.457  0.0805  0.1628  0.4069
  873TIP3    H1 2625   0.451   2.095   3.448  0.0691 -0.0964 -2.1650
  873TIP3    H2 2626   0.418   1.953   3.407 -0.7381 -1.1225  1.6831
  874TIP3   OH2 2627   0.733   0.515   1.761 -0.3179 -0.2604 -0.2038
  874TIP3    H1 2628   0.792   0.526   1.836 -2.8583  0.5003  1.8280
  874TIP3    H2 2629   0.646   0.525   1.798 -1.7291 -0.3742 -3.2414
  875TIP3   OH2 2630   0.285   1.332   2.980  0.3794  0.4072 -0.2169
  875TIP3    H1 2631   0.205   1.385   2.976  0.5083  0.5349 -1.2821
  875TIP3    H2 2632   0.352   1.385   2.936  0.4247 -0.7681 -1.6550
  876TIP3   OH2 2633   0.136   0.701   3.164  0.2343  0.3832 -0.1673
  876TIP3    H1 2634   0.075   0.635   3.196  2.0428 -0.3685  2.0097
  876TIP3    H2 2635   0.179   0.660   3.088 -0.9514  0.4053 -0.8761
  877TIP3   OH2 2636   2.434   1.859   3.990  0.4321  0.2242  0.6494
  877TIP3    H1 2637   2.378   1.937   3.994  0.4960  0.4369 -1.3287
  877TIP3    H2 2638   2.517   1.887   4.028  0.2430  0.9288  0.5556
  878TIP3   OH2 2639   6.249   3.439   1.533 -0.2386 -0.4419  0.4596
  878TIP3    H1 2640   6.223   3.369   1.473 -0.4760  0.0348 -0.0035
  878TIP3    H2 2641   6.242   3.519   1.481 -3.8331  0.4439  2.0329
  879TIP3   OH2 2642   0.251   3.476   1.050  0.6747  0.0584  0.5980
  879TIP3    H1 2643   0.225   3.394   1.009 -1.0040  0.2289  1.2297
  879TIP3    H2 2644   0.317   3.451   1.114  3.3284 -0.2264 -2.0180
  880TIP3   OH2 2645   5.852   2.993   0.058  0.2534 -0.2886 -0.5450
  880TIP3    H1 2646   5.939   3.024   0.035 -0.5980  2.4381 -0.4281
  880TIP3    H2 2647   5.793   3.037  -0.003 -1.3019  0.6585  1.5136
  881TIP3   OH2 2648   1.017   0.175   1.071  0.1674  0.5323  0.6205
  881TIP3    H1 2649   1.045   0.123   1.146  0.6927 -0.0065  0.0745
  881TIP3    H2 2650   0.952   0.235   1.105  3.7354  3.7110  2.5595
  882TIP3   OH2 2651   2.563   4.855   2.075  0.2081 -0.5141  0.1338
  882TIP3    H1 2652   2.637   4.795   2.083  1.3725  0.7350 -0.7688
  882TIP3    H2 2653   2.597   4.939   2.104 -0.7382  0.1749 -0.6965
  883TIP3   OH2 2654   1.058   4.125   5.026 -0.3769  0.2041 -0.2551
  883TIP3    H1 2655   1.014   4.062   4.969 -0.6131  1.2862 -1.3144
  883TIP3    H2 2656   1.098   4.072   5.094  1.4196 -1.3433 -2.3881
  884TIP3   OH2 2657   1.283   1.076   4.894  0.0880  0.3155 -0.2206
  884TIP3    H1 2658   1.366   1.044   4.928  0.6923  0.5842 -1.3893
  884TIP3    H2 2659   1.307   1.146   4.833 -0.9337 -0.0798 -1.1197
  885TIP3   OH2 2660   1.817   5.676   0.611  0.6000 -0.4667 -0.4419
  885TIP3    H1 2661   1.909   5.691   0.634 -0.3694  0.9388  3.2371
  885TIP3    H2 2662   1.786   5.612   0.676 -1.1503 -0.5077 -1.2601
  886TIP3   OH2 2663   3.512   5.020   2.652  0.1002 -0.4344  0.3427
  886TIP3    H1 2664   3.571   5.071   2.598 -0.6199  2.2176  1.8807
  886TIP3    H2 2665   3.556   4.935   2.662  1.6743  0.0542 -1.7724
  887TIP3   OH2 2666   2.660   2.760   0.278  0.4849 -0.2170 -0.4609
  887TIP3    H1 2667   2.703   2.845   0.272 -0.2687  0.0986 -1.7298
  887TIP3    H2 2668   2.566   2.780   0.281  0.3385 -0.9568  0.6897
  888TIP3   OH2 2669   0.415   5.200   0.404 -0.9992  0.0397  0.1654
  888TIP3    H1 2670   0.415   5.295   0.393 -0.5119  0.1645  1.0917
  888TIP3    H2 2671   0.482   5.184   0.471  0.1677 -1.1161 -1.2179
  889TIP3   OH2 2672   4.714   0.719   0.363 -0.0034  0.2143  0.2935
  889TIP3    H1 2673   4.629   0.677   0.348 -0.2446  0.5180  0.7790
  889TIP3    H2 2674   4.692   0.810   0.381  0.4384  0.3165  0.3123
  890TIP3   OH2 2675   4.950   2.493   1.648 -0.5181 -0.2689 -0.0651
  890TIP3    H1 2676   5.032   2.482   1.599 -0.3581  1.5299 -0.2755
  890TIP3    H2 2677   4.941   2.412   1.698  0.4822 -1.2281 -1.3561
  891TIP3   OH2 2678   0.895   0.772   2.753  0.1899  0.0720  0.4669
  891TIP3    H1 2679   0.903   0.761   2.848 -0.4267  1.2078  0.6682
  891TIP3    H2 2680   0.861   0.688   2.722  0.4506 -0.3310  1.2347
  892TIP3   OH2 2681   0.065   3.676   2.043 -0.0286  0.5924  0.1930
  892TIP3    H1 2682  -0.030   3.672   2.047 -0.0141  0.5399  3.0140
  892TIP3    H2 2683   0.088   3.744   2.107  1.8463 -1.5473  1.9956
  893TIP3   OH2 2684   4.081   5.219   3.695  0.3243 -0.6249  0.1253
  893TIP3    H1 2685   4.140   5.294   3.694 -1.5436  0.9464  0.5941
  893TIP3    H2 2686   4.047   5.213   3.606  1.4560 -1.8354 -0.2751
  894TIP3   OH2 2687   2.192   0.300   1.877 -0.3424 -0.1751 -0.4232
  894TIP3    H1 2688   2.193   0.213   1.837 -0.8405 -0.2091 -0.3647
  894TIP3    H2 2689   2.119   0.346   1.835 -0.6477 -0.0901  0.1861
  895TIP3   OH2 2690   1.147   2.766   1.867 -0.4445  0.4145  0.1052
  895TIP3    H1 2691   1.111   2.834   1.923  1.4943  3.2768 -1.8542
  895TIP3    H2 2692   1.221   2.730   1.917 -2.0089 -1.0115  1.5122
  896TIP3   OH2 2693   1.520   5.039   1.258 -0.4125 -0.3822  0.1036
  896TIP3    H1 2694   1.612   5.061   1.273 -0.4343  0.2378 -0.6315
  896TIP3    H2 2695   1.505   5.058   1.166 -1.2474 -0.5936  0.1863
  897TIP3   OH2 2696   1.045   3.983   0.168  0.0035 -0.2465 -0.5731
  897TIP3    H1 2697   0.993   4.064   0.166 -0.4102 -0.5034 -0.2444
  897TIP3    H2 2698   1.135   4.013   0.153  0.0101  0.3991  0.6326
  898TIP3   OH2 2699   3.242   2.495   3.251 -0.5594  0.0113  0.2242
  898TIP3    H1 2700   3.188   2.426   3.289 -0.4266 -0.4672 -0.4479
  898TIP3    H2 2701   3.292   2.451   3.182 -0.5118  0.7956 -0.2430
  899TIP3   OH2 2702   2.588   5.475   1.146 -0.2354  0.8967  0.2430
  899TIP3    H1 2703   2.669   5.500   1.103 -0.5240  0.0964 -0.8080
  899TIP3    H2 2704   2.605   5.389   1.184 -0.7028  0.5455 -0.3258
  900TIP3   OH2 2705   5.492   1.835   4.329  0.1241 -0.2228 -0.0757
  900TIP3    H1 2706   5.424   1.806   4.268 -1.1503  0.0295  1.1828
  900TIP3    H2 2707   5.525   1.754   4.368 -1.7467 -0.2135  1.6628
  901TIP3   OH2 2708   5.464   3.636   0.605 -0.0773  0.3427  0.0557
  901TIP3    H1 2709   5.434   3.686   0.681 -1.4900  0.1719 -0.3663
  901TIP3    H2 2710   5.416   3.674   0.531  0.9473  0.2186 -0.7034
  902TIP3   OH2 2711   2.893   4.962   0.680  0.5418 -0.3773 -0.3720
  902TIP3    H1 2712   2.822   4.947   0.618  1.3495 -0.4256 -1.3072
  902TIP3    H2 2713   2.929   4.875   0.697  1.1731 -0.2289 -0.8892
  903TIP3   OH2 2714   4.682   1.009   0.399 -0.7295 -0.3327  0.3002
  903TIP3    H1 2715   4.630   1.018   0.479 -0.3387  0.2777  0.4959
  903TIP3    H2 2716   4.674   1.094   0.356 -0.6040 -0.5248 -0.1061
  904TIP3   OH2 2717   6.268   5.182   1.066 -0.0581  0.0923 -0.5387
  904TIP3    H1 2718   6.191   5.167   1.011  0.9554  0.5163 -2.1561
  904TIP3    H2 2719   6.313   5.255   1.023  1.5821 -0.5780 -0.0027
  905TIP3   OH2 2720   4.693   5.467   1.490  0.2365 -0.0641  0.2529
  905TIP3    H1 2721   4.648   5.538   1.535 -2.1164 -0.8811 -0.6343
  905TIP3    H2 2722   4.686   5.490   1.397 -0.2421 -1.2655 -0.0214
  906TIP3   OH2 2723   4.517   2.851   3.950 -0.4281 -0.0771  0.3825
  906TIP3    H1 2724   4.609   2.858   3.926 -0.5054 -0.0598  0.0895
  906TIP3    H2 2725   4.484   2.940   3.943 -0.2459  0.0919  1.4088
  907TIP3   OH2 2726   4.881   0.089   4.165 -0.7091 -0.1402 -0.2188
  907TIP3    H1 2727   4.799   0.084   4.213 -0.1293 -0.5846  0.7565
  907TIP3    H2 2728   4.930   0.159   4.208 -0.5033  0.0123 -0.6869
  908TIP3   OH2 2729   2.345   5.381   2.563 -0.1038 -0.8630 -0.2733
  908TIP3    H1 2730   2.407   5.399   2.493 -0.7034 -1.5618 -0.9962
  908TIP3    H2 2731   2.375   5.435   2.636  1.1936 -0.9979 -0.6952
  909TIP3   OH2 2732   5.251   3.568   4.394 -0.1601  0.6327 -1.1255
  909TIP3    H1 2733   5.285   3.639   4.449 -0.5816  0.2307 -0.3342
  909TIP3    H2 2734   5.303   3.573   4.314  0.2472  1.4306 -0.8211
  910TIP3   OH2 2735   5.904   5.144   4.822 -0.0826 -0.8741 -0.0579
  910TIP3    H1 2736   5.930   5.152   4.914  0.3554  0.5342 -0.2812
  910TIP3    H2 2737   5.812   5.169   4.821  0.4136  1.0742 -0.2566
  911TIP3   OH2 2738   4.172   0.441   2.501  0.0509 -0.2636 -0.4629
  911TIP3    H1 2739   4.174   0.523   2.551  1.3506 -0.7426  0.3242
  911TIP3    H2 2740   4.135   0.378   2.563  0.0350 -0.4939 -0.7107
  912TIP3   OH2 2741   1.970   1.241   0.355  0.4090  0.1768  0.4293
  912TIP3    H1 2742   2.061   1.217   0.370  0.3620  0.4824  1.2415
  912TIP3    H2 2743   1.975   1.314   0.293  0.5348 -2.0682 -2.4513
  913TIP3   OH2 2744   1.123   5.975   0.535  0.0455 -0.3285 -0.2885
  913TIP3    H1 2745   1.090   5.946   0.620 -1.1140  0.9525 -0.2622
  913TIP3    H2 2746   1.181   5.904   0.506  0.2172 -0.9207  1.4154
  914TIP3   OH2 2747   5.831   5.909   0.805 -0.4297 -0.0269  0.7063
  914TIP3    H1 2748   5.823   5.974   0.735  1.7379  0.6255  1.0033
  914TIP3    H2 2749   5.743   5.872   0.812 -1.9985  3.3424  0.9872
  915TIP3   OH2 2750   1.017   5.729   1.779  0.5037  0.2223  0.0888
  915TIP3    H1 2751   0.984   5.802   1.832  1.6141  0.8145 -0.0130
  915TIP3    H2 2752   1.085   5.768   1.724  0.6504 -0.7598 -0.4485
  916TIP3   OH2 2753   3.139   4.764   3.548 -0.2675  0.0652  0.0264
  916TIP3    H1 2754   3.213   4.766   3.487 -0.6562 -0.0689 -0.4581
  916TIP3    H2 2755   3.068   4.722   3.499 -0.3425 -0.8037  0.8479
  917TIP3   OH2 2756   2.386   0.805   1.254  0.0877 -0.0919 -0.2474
  917TIP3    H1 2757   2.339   0.857   1.319  1.7489  0.5256  0.5118
  917TIP3    H2 2758   2.478   0.831   1.263  0.5560 -0.9592 -1.9406
  918TIP3   OH2 2759   2.824   4.108   2.036  0.5328  0.5143  0.2027
  918TIP3    H1 2760   2.774   4.166   2.094  0.3023  1.7073 -1.1494
  918TIP3    H2 2761   2.911   4.147   2.033  0.0871  1.4718 -1.5622
  919TIP3   OH2 2762   6.125   2.110   3.752  0.2541 -0.0493 -0.2802
  919TIP3    H1 2763   6.135   2.205   3.753 -0.4643  0.0507  1.7879
  919TIP3    H2 2764   6.030   2.096   3.757  0.1542 -0.9268 -3.0004
  920TIP3   OH2 2765   3.207   3.638   1.359 -0.2690 -0.6899  0.8703
  920TIP3    H1 2766   3.160   3.678   1.286 -1.1914 -0.3164  1.6462
  920TIP3    H2 2767   3.290   3.685   1.364 -1.7361  1.9459  2.4274
  921TIP3   OH2 2768   4.521   2.708   4.172  0.1355  0.2558 -0.2497
  921TIP3    H1 2769   4.539   2.782   4.231  2.6381 -1.4181  1.2939
  921TIP3    H2 2770   4.518   2.748   4.085  2.1411  2.1695  0.4385
  922TIP3   OH2 2771   2.129   2.561   2.045 -0.0119 -0.6661 -0.4096
  922TIP3    H1 2772   2.225   2.563   2.050  0.0346 -2.6346  0.5142
  922TIP3    H2 2773   2.108   2.607   1.964  1.6778  0.2494 -0.3726
  923TIP3   OH2 2774   4.669   2.577   2.249 -0.2109 -0.1139 -0.0581
  923TIP3    H1 2775   4.613   2.633   2.196 -0.5820  0.4304  0.8917
  923TIP3    H2 2776   4.748   2.629   2.263 -0.2734 -0.0983  0.2447
  924TIP3   OH2 2777   2.581   1.342   1.026 -0.3359  0.1861 -0.2726
  924TIP3    H1 2778   2.538   1.426   1.014  0.6067  0.7793  0.3651
  924TIP3    H2 2779   2.662   1.348   0.975 -0.5282 -0.5397 -0.6751
  925TIP3   OH2 2780   2.631   2.451   4.943  0.5780 -1.0792 -0.6028
  925TIP3    H1 2781   2.683   2.520   4.985 -0.6789  0.4551 -1.4547
  925TIP3    H2 2782   2.598   2.398   5.016 -0.6294  0.8378  0.3171
  926TIP3   OH2 2783   5.814   4.839   1.081 -0.0732 -0.6651 -0.8835
  926TIP3    H1 2784   5.802   4.745   1.092 -0.8622 -0.5966 -1.1576
  926TIP3    H2 2785   5.909   4.849   1.069  0.0785 -1.3690 -0.3804
  927TIP3   OH2 2786   5.063   1.038   1.360  0.0885  0.0069  0.0116
  927TIP3    H1 2787   5.053   1.120   1.409  2.8406 -0.3642  1.3878
  927TIP3    H2 2788   5.157   1.021   1.361 -0.2117 -2.2243 -1.8704
  928TIP3   OH2 2789   5.902   0.905   2.243 -0.2361  0.0683  0.1882
  928TIP3    H1 2790   5.814   0.879   2.216 -0.8100 -0.2962  2.2292
  928TIP3    H2 2791   5.888   0.985   2.295  0.7164  0.3596  0.0187
  929TIP3   OH2 2792   4.951   5.949   2.528  0.2275  0.0290  0.3563
  929TIP3    H1 2793   4.863   5.926   2.500  0.2981  1.3598 -1.0586
  929TIP3    H2 2794   5.007   5.924   2.454  0.8812  0.3740  0.7248
  930TIP3   OH2 2795   1.179   5.871   1.646 -0.6216  0.7772 -0.1426
  930TIP3    H1 2796   1.212   5.895   1.559  0.8178 -0.7811 -0.0914
  930TIP3    H2 2797   1.219   5.934   1.705 -0.1407  0.7399 -0.4242
  931TIP3   OH2 2798   3.094   3.678   4.432  0.7879  0.0460 -0.2890
  931TIP3    H1 2799   3.064   3.748   4.490  0.5544 -1.0877  1.0243
  931TIP3    H2 2800   3.161   3.719   4.377  1.0005  1.1705  0.7673
  932TIP3   OH2 2801   3.978   1.072   0.167  0.6519 -0.5052 -0.2561
  932TIP3    H1 2802   4.036   1.071   0.091  1.8248  0.6809  0.5527
  932TIP3    H2 2803   4.027   1.122   0.233 -0.9583 -0.1693  0.7523
  933TIP3   OH2 2804   3.891   4.072   3.856  0.6203  0.2441 -0.4855
  933TIP3    H1 2805   3.954   4.027   3.800  2.2651  1.3025  0.4289
  933TIP3    H2 2806   3.940   4.147   3.892 -0.1847 -0.5956  2.6580
  934TIP3   OH2 2807   2.166   1.806   2.793 -0.1839  0.4233 -0.1974
  934TIP3    H1 2808   2.159   1.830   2.885  1.2594 -1.2955  0.4044
  934TIP3    H2 2809   2.107   1.733   2.782 -0.7361  0.9423 -0.7853
  935TIP3   OH2 2810   0.785   5.153   1.571 -0.3551  0.2712  0.6450
  935TIP3    H1 2811   0.732   5.086   1.614 -2.0500  1.5128  0.5904
  935TIP3    H2 2812   0.757   5.235   1.610  0.2938  1.1416 -0.6384
  936TIP3   OH2 2813   5.542   2.485   3.328 -0.3932 -0.6463  0.3424
  936TIP3    H1 2814   5.586   2.542   3.265  0.2101 -1.0479  0.3954
  936TIP3    H2 2815   5.612   2.452   3.384 -0.5993 -2.0738 -0.1896
  937TIP3   OH2 2816   1.121   0.203   1.959  0.1694  0.3404  0.1760
  937TIP3    H1 2817   1.096   0.237   1.873 -1.0323 -0.9059 -0.0038
  937TIP3    H2 2818   1.184   0.267   1.993  0.0985  1.2409 -1.3041
  938TIP3   OH2 2819   3.069   4.417   0.187 -0.1486  0.4608  0.0351
  938TIP3    H1 2820   3.073   4.512   0.172 -0.3088  0.3596 -0.6863
  938TIP3    H2 2821   3.086   4.379   0.101  0.0714 -0.1717  0.3545
  939TIP3   OH2 2822   4.492   1.121   2.464 -0.1171 -0.0658 -0.4501
  939TIP3    H1 2823   4.561   1.068   2.505 -0.8051  0.6555  1.7559
  939TIP3    H2 2824   4.419   1.115   2.524 -0.0844  3.7999  0.1951
  940TIP3   OH2 2825   1.157   0.592   0.644  0.0408 -0.0051 -0.0857
  940TIP3    H1 2826   1.061   0.584   0.643 -0.2624  2.4015  1.1747
  940TIP3    H2 2827   1.185   0.562   0.558 -1.9120 -0.1331 -0.7226
  941TIP3   OH2 2828   2.082   5.471   2.627  0.0772  0.4840 -0.4935
  941TIP3    H1 2829   2.008   5.411   2.618  0.6222 -0.2589 -0.1491
  941TIP3    H2 2830   2.153   5.428   2.580  0.3193  1.1357 -0.7253
  942TIP3   OH2 2831   2.377   3.511   4.241  0.2144 -0.5250  0.4483
  942TIP3    H1 2832   2.458   3.468   4.268  0.9933 -0.9622 -2.2152
  942TIP3    H2 2833   2.314   3.440   4.232  0.6974 -0.7956 -1.2045
  943TIP3   OH2 2834   5.138   2.914   1.691  0.3616 -0.2128 -0.1103
  943TIP3    H1 2835   5.222   2.868   1.685 -0.9557 -2.6450 -1.7540
  943TIP3    H2 2836   5.097   2.879   1.770  0.9582  1.2000  0.8621
  944TIP3   OH2 2837   4.880   1.564   5.173 -0.3399 -0.1166 -0.2268
  944TIP3    H1 2838   4.811   1.519   5.124  0.0327 -1.3454  0.3435
  944TIP3    H2 2839   4.941   1.594   5.105 -2.2131  2.5378 -0.9232
  945TIP3   OH2 2840   3.959   0.486   3.689  0.3081 -0.0445 -1.0365
  945TIP3    H1 2841   3.965   0.577   3.661 -1.2208  0.1615 -0.7480
  945TIP3    H2 2842   3.911   0.489   3.771  2.2214 -0.9190  0.1765
  946TIP3   OH2 2843   5.671   1.409   0.986 -0.0862  0.3251  0.9621
  946TIP3    H1 2844   5.719   1.484   0.952  0.6879 -0.3320  0.5555
  946TIP3    H2 2845   5.588   1.410   0.939  0.8606 -0.4236 -0.8551
  947TIP3   OH2 2846   2.076   0.160   3.943  0.0306 -0.3325 -0.5195
  947TIP3    H1 2847   2.123   0.237   3.910  0.6987 -0.4255  0.1928
  947TIP3    H2 2848   2.001   0.196   3.991  0.3178 -0.1262 -0.2245
  948TIP3   OH2 2849   2.059   1.576   1.875 -0.0414 -0.2340 -0.0591
  948TIP3    H1 2850   2.102   1.573   1.789  0.6734  0.9504  0.2365
  948TIP3    H2 2851   2.009   1.658   1.873 -2.0624 -1.4253 -0.2693
  949TIP3   OH2 2852   5.657   4.206   1.323 -0.3397  0.3390 -0.3216
  949TIP3    H1 2853   5.709   4.179   1.248 -0.6286 -1.1297 -0.0304
  949TIP3    H2 2854   5.577   4.154   1.317 -0.9134  1.1253  0.3089
  950TIP3   OH2 2855   4.284   0.214   2.367  0.3186  0.0331 -0.1532
  950TIP3    H1 2856   4.263   0.293   2.415  0.2504 -0.5524  0.7961
  950TIP3    H2 2857   4.282   0.241   2.275  3.7801  1.9962  0.1799
  951TIP3   OH2 2858   6.212   2.352   4.245 -0.4726  0.0626 -0.0637
  951TIP3    H1 2859   6.268   2.363   4.168  0.4538  0.8948  0.7064
  951TIP3    H2 2860   6.141   2.415   4.233  1.2569  2.3705  1.1322
  952TIP3   OH2 2861   3.269   4.115   3.149 -0.2695 -0.4690  0.5979
  952TIP3    H1 2862   3.353   4.114   3.194  1.0922 -0.7586 -1.7844
  952TIP3    H2 2863   3.270   4.037   3.095  0.3625  2.0526 -3.4732
  953TIP3   OH2 2864   3.619   0.292   1.728 -0.3717 -0.2132  0.5735
  953TIP3    H1 2865   3.556   0.269   1.660 -0.7249 -2.7419  1.6254
  953TIP3    H2 2866   3.566   0.303   1.807  0.4231 -2.3869  1.4723
  954TIP3   OH2 2867   4.758   0.396   4.711  0.1839  0.2650 -0.0598
  954TIP3    H1 2868   4.675   0.438   4.686  0.0606  0.5332  0.7631
  954TIP3    H2 2869   4.816   0.413   4.637 -1.1113 -1.8289 -1.6740
  955TIP3   OH2 2870   0.101   0.465   1.489  0.1875 -0.9721 -0.3053
  955TIP3    H1 2871   0.189   0.435   1.513  1.0843  0.4212 -1.6435
  955TIP3    H2 2872   0.074   0.406   1.420 -0.0000 -1.4859  0.1991
  956TIP3   OH2 2873   1.087   1.509   3.053 -0.1463 -0.1262 -0.0308
  956TIP3    H1 2874   1.068   1.416   3.057  1.5554 -0.4960  0.4839
  956TIP3    H2 2875   1.176   1.513   3.018 -0.5188  1.3586 -0.9019
  957TIP3   OH2 2876   2.710   1.308   2.505  0.5760 -0.2010 -0.1334
  957TIP3    H1 2877   2.776   1.358   2.554  0.4312 -0.4350  0.2991
  957TIP3    H2 2878   2.723   1.336   2.414  1.8233 -0.8540 -0.1760
  958TIP3   OH2 2879   1.084   4.693   4.199 -0.5348 -0.3951 -0.5203
  958TIP3    H1 2880   1.035   4.669   4.120 -0.9133 -1.2452 -0.0386
  958TIP3    H2 2881   1.166   4.729   4.167 -0.4895 -1.1685 -1.3011
  959TIP3   OH2 2882   4.665   5.073   1.267  0.3515 -0.2236  0.2737
  959TIP3    H1 2883   4.697   5.123   1.342  0.3222 -0.6019  0.5416
  959TIP3    H2 2884   4.704   4.986   1.278  0.5688 -0.2025 -0.2996
  960TIP3   OH2 2885   1.358   5.022   3.227  0.2539 -0.1461  0.0163
  960TIP3    H1 2886   1.404   5.070   3.295  0.7815  0.7930 -0.9841
  960TIP3    H2 2887   1.272   5.063   3.223  0.2918 -0.0715 -0.0239
  961TIP3   OH2 2888   4.043   0.452   1.140  0.1539  0.1320  0.0411
  961TIP3    H1 2889   4.062   0.362   1.166 -0.6361 -0.0221  0.1246
  961TIP3    H2 2890   4.001   0.491   1.217 -1.5747 -0.1233 -0.7170
  962TIP3   OH2 2891   1.999   2.538   1.419  0.1282 -0.1902  0.0278
  962TIP3    H1 2892   1.911   2.558   1.386  0.2088  0.2435  0.0729
  962TIP3    H2 2893   2.055   2.604   1.379  0.2691  0.1813  0.8242
  963TIP3   OH2 2894   1.227   5.475   3.959  0.8734  0.0491  0.2288
  963TIP3    H1 2895   1.258   5.490   4.049  1.4586 -0.8740  0.1976
  963TIP3    H2 2896   1.225   5.380   3.950 -0.5402  0.1055 -0.2956
  964TIP3   OH2 2897   5.717   0.584   0.317 -0.1976 -1.1688 -0.4099
  964TIP3    H1 2898   5.812   0.579   0.308 -0.1209 -0.1655 -0.3447
  964TIP3    H2 2899   5.683   0.517   0.258  0.5010 -0.2334 -1.9278
  965TIP3   OH2 2900   0.809   4.940   4.098  0.6680  0.5939  0.5947
  965TIP3    H1 2901   0.719   4.946   4.064  0.8399 -0.7860 -0.2115
  965TIP3    H2 2902   0.800   4.890   4.179  0.6744  0.7750  0.7084
  966TIP3   OH2 2903   3.466   0.497   3.188 -0.3115  0.0099 -0.3259
  966TIP3    H1 2904   3.446   0.512   3.280  0.1006 -0.7240 -0.1126
  966TIP3    H2 2905   3.380   0.493   3.146 -0.4972  2.8051 -0.4146
  967TIP3   OH2 2906   2.895   3.563   3.722  0.0252  0.1241  0.6336
  967TIP3    H1 2907   2.849   3.640   3.689  0.6051  0.8363  1.4407
  967TIP3    H2 2908   2.983   3.594   3.743  0.4943 -0.9185  0.3258
  968TIP3   OH2 2909   5.251   0.802   2.140 -0.1707 -0.5284  0.3190
  968TIP3    H1 2910   5.270   0.866   2.071  1.4620 -1.3489 -0.0653
  968TIP3    H2 2911   5.234   0.854   2.218  0.7391  0.3951 -0.0772
  969TIP3   OH2 2912   5.618   2.908   1.457  0.6994 -0.0306 -0.2968
  969TIP3    H1 2913   5.647   2.995   1.486  0.2903  0.3475 -0.9991
  969TIP3    H2 2914   5.586   2.922   1.368  1.3923 -1.0591 -0.7237
  970TIP3   OH2 2915   1.166   5.172   3.988  0.6328 -0.1584 -0.3328
  970TIP3    H1 2916   1.243   5.144   3.938 -0.1147 -1.7143 -0.6997
  970TIP3    H2 2917   1.102   5.102   3.972  0.6466 -1.2404  3.5343
  971TIP3   OH2 2918   4.519   1.317   3.685  0.8192 -0.0756 -0.3423
  971TIP3    H1 2919   4.552   1.233   3.654  0.1195  0.0311 -1.4325
  971TIP3    H2 2920   4.438   1.296   3.732  1.0946 -0.0934  0.1249
  972TIP3   OH2 2921   3.900   5.832   1.350 -0.7320 -0.0114  0.6692
  972TIP3    H1 2922   3.951   5.911   1.366  0.2423 -0.7734  1.4574
  972TIP3    H2 2923   3.848   5.852   1.272  1.6137  0.4075 -0.8752
  973TIP3   OH2 2924   0.360   5.854   1.303 -0.2637  0.1535 -0.2381
  973TIP3    H1 2925   0.305   5.775   1.308  0.5197 -0.3284  1.5125
  973TIP3    H2 2926   0.427   5.841   1.370  0.3791  1.9540 -0.4736
  974TIP3   OH2 2927   0.466   5.157   2.958  1.0456  0.1971 -0.4627
  974TIP3    H1 2928   0.512   5.075   2.977 -0.5467 -0.9460 -1.3034
  974TIP3    H2 2929   0.454   5.157   2.863  0.6640  1.2182 -0.4304
  975TIP3   OH2 2930   3.773   2.512   0.032 -0.2094  0.0794 -0.3852
  975TIP3    H1 2931   3.868   2.520   0.035 -0.2319  1.5660 -1.9902
  975TIP3    H2 2932   3.741   2.572   0.100 -0.0302 -0.9894  0.6824
  976TIP3   OH2 2933   5.669   0.043   0.680  0.1259 -0.0113  0.0096
  976TIP3    H1 2934   5.590   0.090   0.655  0.1451 -0.0857 -0.1937
  976TIP3    H2 2935   5.674   0.052   0.775  1.3130  2.3004 -0.2073
  977TIP3   OH2 2936   3.329   1.497   1.094  0.1087 -0.3895  0.3432
  977TIP3    H1 2937   3.342   1.418   1.042  1.4065  0.1117 -0.1531
  977TIP3    H2 2938   3.240   1.490   1.127 -0.9853 -0.5137 -2.3701
  978TIP3   OH2 2939   1.920   1.153   2.333 -0.0059 -0.2309 -0.5049
  978TIP3    H1 2940   1.877   1.239   2.332 -0.0457 -0.2511 -0.5210
  978TIP3    H2 2941   1.911   1.122   2.423 -0.6243 -0.5372 -0.6647
  979TIP3   OH2 2942   4.466   1.824   0.617  0.1866 -0.7042 -0.0112
  979TIP3    H1 2943   4.402   1.754   0.622  0.3449 -0.8091  0.7399
  979TIP3    H2 2944   4.544   1.788   0.659 -0.4331  0.6653  2.5300
  980TIP3   OH2 2945   1.251   2.907   0.659  0.1072 -0.0635  0.0432
  980TIP3    H1 2946   1.274   2.906   0.752 -0.0474  1.8500  0.1417
  980TIP3    H2 2947   1.160   2.936   0.657  0.6226  1.6172 -0.7469
  981TIP3   OH2 2948   4.640   0.138   0.613 -0.3987 -0.4387  0.7601
  981TIP3    H1 2949   4.663   0.053   0.575  0.9941  1.4967 -3.2565
  981TIP3    H2 2950   4.721   0.168   0.654 -0.1902 -0.0946  0.1089
  982TIP3   OH2 2951   3.426   3.604   3.730 -0.0804  0.4952 -0.0444
  982TIP3    H1 2952   3.460   3.621   3.818  1.7100  2.1836 -0.9882
  982TIP3    H2 2953   3.367   3.530   3.741  0.5698  0.2631  2.4665
  983TIP3   OH2 2954   1.436   3.090   0.229 -0.0598 -0.7090  0.2577
  983TIP3    H1 2955   1.449   3.072   0.322  1.2811 -3.0295 -0.2920
  983TIP3    H2 2956   1.341   3.098   0.219 -0.2435 -0.7517  1.7652
  984TIP3   OH2 2957   1.563   4.794   1.946 -0.1582  0.4014 -0.2724
  984TIP3    H1 2958   1.503   4.854   1.991  0.5342 -0.3739  1.8048
  984TIP3    H2 2959   1.647   4.806   1.990  0.3902 -0.9539 -0.8894
  985TIP3   OH2 2960   0.410   0.080   4.484 -0.2737  0.1581 -0.0959
  985TIP3    H1 2961   0.366   0.141   4.425 -1.0507  0.8218  1.1194
  985TIP3    H2 2962   0.436   0.007   4.428  2.0245  2.2135 -1.9091
  986TIP3   OH2 2963   0.498   0.281   4.188  0.0230 -0.1538 -0.0653
  986TIP3    H1 2964   0.424   0.275   4.247  0.4818 -0.4716  0.4952
  986TIP3    H2 2965   0.490   0.367   4.146 -1.5278 -0.8104 -1.2083
  987TIP3   OH2 2966   5.144   5.968   3.017 -0.5566 -0.3932 -0.2252
  987TIP3    H1 2967   5.069   6.002   3.066 -0.2027 -0.6656  0.5145
  987TIP3    H2 2968   5.219   5.982   3.075 -0.0489 -0.2698 -0.8916
  988TIP3   OH2 2969   2.791   2.907   2.990  0.4161  0.3473 -0.8084
  988TIP3    H1 2970   2.762   2.911   2.899  1.3895  1.3157 -1.0883
  988TIP3    H2 2971   2.802   2.998   3.017  0.5454  0.0667  0.1545
  989TIP3   OH2 2972   0.425   1.364   4.181 -0.3294 -0.1729  0.8748
  989TIP3    H1 2973   0.341   1.396   4.149  0.3978  0.6536 -0.2719
  989TIP3    H2 2974   0.471   1.442   4.210  0.8453 -0.3196 -0.4738
  990TIP3   OH2 2975   6.157   1.376   0.657 -0.0113  0.2078 -0.1338
  990TIP3    H1 2976   6.149   1.406   0.566 -0.5705  0.3678 -0.0335
  990TIP3    H2 2977   6.241   1.413   0.686  2.0584 -2.8179 -1.6955
  991TIP3   OH2 2978   4.295   0.723   4.264  0.2326  0.2304  0.1944
  991TIP3    H1 2979   4.325   0.771   4.341  0.9525 -1.4190  0.9858
  991TIP3    H2 2980   4.269   0.638   4.298 -1.1369  0.0747 -1.1551
  992TIP3   OH2 2981   3.926   5.526   0.376 -0.3402  0.1404 -0.4805
  992TIP3    H1 2982   3.951   5.516   0.469 -1.5257  2.0272  0.0925
  992TIP3    H2 2983   3.977   5.601   0.346 -1.6092  0.9406 -0.6961
  993TIP3   OH2 2984   3.117   1.231   1.507 -0.5198  0.5192 -0.1509
  993TIP3    H1 2985   3.046   1.198   1.452 -0.1079  1.0417 -1.0009
  993TIP3    H2 2986   3.183   1.262   1.446  0.8181 -0.6984  0.6062
  994TIP3   OH2 2987   0.610   3.044   0.553  0.3644 -0.0515 -0.0290
  994TIP3    H1 2988   0.650   3.112   0.500 -0.8024  0.4604 -0.2980
  994TIP3    H2 2989   0.525   3.028   0.511  0.1773 -0.9278  0.6401
  995TIP3   OH2 2990   4.306   1.386   4.790 -0.0931 -0.5111  0.1191
  995TIP3    H1 2991   4.269   1.398   4.877  0.4836  1.4840  0.1416
  995TIP3    H2 2992   4.312   1.291   4.779 -1.6480 -0.8259  1.6003
  996TIP3   OH2 2993   3.969   1.144   4.881  0.0939 -0.3439  0.2945
  996TIP3    H1 2994   3.906   1.073   4.869  0.7345 -0.7474 -0.7528
  996TIP3    H2 2995   3.915   1.220   4.905 -0.6958 -0.8993  0.2983
  997TIP3   OH2 2996   0.624   1.627   3.994  0.1405 -0.4493  0.2751
  997TIP3    H1 2997   0.630   1.598   4.085  0.8455  0.4978  0.5391
  997TIP3    H2 2998   0.685   1.570   3.946  0.5904 -0.2321  0.5834
  998TIP3   OH2 2999   1.429   3.282   3.374 -0.1439  0.0228  0.8343
  998TIP3    H1 3000   1.488   3.209   3.354 -1.3430 -1.6405  2.8597
  998TIP3    H2 3001   1.343   3.240   3.385 -1.5144  2.1855 -0.8282
  999TIP3   OH2 3002   0.104   5.546   2.473 -0.4890 -0.5488 -0.0507
  999TIP3    H1 3003   0.166   5.483   2.438 -0.5097 -0.3835 -0.3966
  999TIP3    H2 3004   0.157   5.611   2.518 -0.3396 -0.0327 -0.9315
 1000TIP3   OH2 3005   1.647   4.310   5.077 -0.5346  0.1996 -0.0104
 1000TIP3    H1 3006   1.629   4.354   5.161 -0.0928 -0.2941  0.3484
 1000TIP3    H2 3007   1.729   4.263   5.092 -1.5415 -1.6568 -0.0217
 1001TIP3   OH2 3008   1.784   2.659   1.329 -0.7568  0.2227  0.6172
 1001TIP3    H1 3009   1.774   2.754   1.325  0.3579  0.3318 -0.0237
 1001TIP3    H2 3010   1.766   2.629   1.240  4.0349  0.4566 -0.7028
 1002TIP3   OH2 3011   3.864   0.152   3.947 -0.0577  0.0474  0.1163
 1002TIP3    H1 3012   3.945   0.124   3.903 -0.2378 -0.9662  0.3966
 1002TIP3    H2 3013   3.843   0.079   4.005  0.3497  1.4734  2.1618
 1003TIP3   OH2 3014   1.393   2.334   2.336 -0.2865  0.6143 -0.0313
 1003TIP3    H1 3015   1.435   2.248   2.340  1.7192  1.5401 -0.0070
 1003TIP3    H2 3016   1.348   2.343   2.420 -1.1300 -0.6823 -0.3239
 1004TIP3   OH2 3017   6.144   3.395   2.410  0.4822  0.1962  0.4366
 1004TIP3    H1 3018   6.180   3.447   2.482 -0.5532  0.1999  0.9606
 1004TIP3    H2 3019   6.090   3.456   2.360 -0.9000 -0.3789  1.1698
 1005TIP3   OH2 3020   1.704   2.083   3.401 -0.3745 -0.3307 -0.3448
 1005TIP3    H1 3021   1.660   2.103   3.318 -2.3333 -0.7251  0.5427
 1005TIP3    H2 3022   1.692   2.162   3.453  1.8063  0.3421 -0.7495
 1006TIP3   OH2 3023   4.732   5.068   3.485  0.1679 -0.2161 -0.4901
 1006TIP3    H1 3024   4.777   4.984   3.473  0.3957 -0.4287  1.4354
 1006TIP3    H2 3025   4.783   5.130   3.434  1.4579 -0.8307 -0.0056
 1007TIP3   OH2 3026   0.347   0.244   0.078 -0.2652  0.2445  0.3015
 1007TIP3    H1 3027   0.277   0.195   0.120 -1.4890  0.7144 -1.0671
 1007TIP3    H2 3028   0.318   0.253  -0.013  0.7124  1.9877  0.1070
 1008TIP3   OH2 3029   0.542   3.491   1.439 -0.5504 -0.2195  0.3101
 1008TIP3    H1 3030   0.483   3.490   1.364 -1.6700  0.5797  1.1522
 1008TIP3    H2 3031   0.614   3.433   1.413 -0.3971  0.8014 -1.7744
 1009TIP3   OH2 3032   4.557   1.784   0.939  0.3984  0.1246 -0.3614
 1009TIP3    H1 3033   4.577   1.748   1.025  1.1093  1.4184  0.0546
 1009TIP3    H2 3034   4.588   1.717   0.877 -0.4768 -0.9852  0.3735
 1010TIP3   OH2 3035   4.506   0.145   1.975 -0.1918  1.0752  0.3195
 1010TIP3    H1 3036   4.533   0.177   1.889 -0.7107 -0.2914 -0.3811
 1010TIP3    H2 3037   4.461   0.063   1.957  3.3255 -1.5330  2.1614
 1011TIP3   OH2 3038   2.513   0.747   3.767 -0.2448 -0.2375  0.2340
 1011TIP3    H1 3039   2.570   0.673   3.786  0.9710  0.9103  1.3690
 1011TIP3    H2 3040   2.560   0.798   3.701 -0.1752  0.4504  0.7953
 1012TIP3   OH2 3041   1.795   4.044   0.138  0.7390  0.2589 -0.4462
 1012TIP3    H1 3042   1.856   4.101   0.185  1.8792 -0.2588 -1.2524
 1012TIP3    H2 3043   1.812   4.061   0.046  0.2208 -0.5003 -0.6897
 1013TIP3   OH2 3044   5.278   2.516   3.341 -0.2912 -0.1183  0.1654
 1013TIP3    H1 3045   5.374   2.521   3.347  0.0455 -3.1160 -1.1942
 1013TIP3    H2 3046   5.260   2.530   3.248 -1.0046 -1.0909  0.1446
 1014TIP3   OH2 3047   4.461   2.965   0.099 -0.5045 -0.3525  0.6522
 1014TIP3    H1 3048   4.485   2.970   0.192 -1.1185 -1.2249  0.8698
 1014TIP3    H2 3049   4.544   2.974   0.053 -0.1897  0.0805  1.2855
 1015TIP3   OH2 3050   5.748   3.673   3.325 -0.1512 -0.1860  0.7401
 1015TIP3    H1 3051   5.766   3.638   3.238  0.7529  1.2047  0.3446
 1015TIP3    H2 3052   5.827   3.721   3.349 -1.7447  2.6949  0.6843
 1016TIP3   OH2 3053   3.121   1.022   4.308 -0.0035 -0.0047 -0.6119
 1016TIP3    H1 3054   3.034   0.984   4.298  0.2372 -0.5813 -0.5599
 1016TIP3    H2 3055   3.112   1.082   4.381 -0.0956 -0.8857  0.1201
 1017TIP3   OH2 3056   1.199   3.183   1.564 -0.2762  0.2024 -0.1484
 1017TIP3    H1 3057   1.269   3.124   1.593 -0.4370  0.6766  1.3278
 1017TIP3    H2 3058   1.128   3.126   1.536  0.1775 -0.2925 -0.2961
 1018TIP3   OH2 3059   0.552   3.564   0.059  0.1098 -0.0971 -0.5516
 1018TIP3    H1 3060   0.541   3.595   0.148  0.9860 -0.9961 -0.1084
 1018TIP3    H2 3061   0.506   3.480   0.057  1.5077 -0.8822 -0.4525
 1019TIP3   OH2 3062   4.063   3.726   4.059  0.0793 -0.1097 -0.4495
 1019TIP3    H1 3063   4.128   3.772   4.006 -0.2586  1.0558  0.0964
 1019TIP3    H2 3064   4.110   3.653   4.098  1.4314  1.4335  0.9655
 1020TIP3   OH2 3065   0.358   3.229   1.399 -0.9448 -0.4731  0.1067
 1020TIP3    H1 3066   0.294   3.292   1.369 -0.1373  0.1345 -0.3753
 1020TIP3    H2 3067   0.306   3.156   1.435 -1.8887 -0.2398 -0.7670
 1021TIP3   OH2 3068   6.144   1.915   3.516 -0.8806  0.0448 -0.7072
 1021TIP3    H1 3069   6.132   1.829   3.556 -0.1296  0.2251 -0.0701
 1021TIP3    H2 3070   6.161   1.974   3.589  1.5673  0.2027 -1.2924
 1022TIP3   OH2 3071   4.723   2.009   2.957  0.1743 -0.4282 -0.4129
 1022TIP3    H1 3072   4.769   1.928   2.936 -1.9072 -2.4211  1.9967
 1022TIP3    H2 3073   4.671   2.028   2.878  0.2694 -1.7865 -0.8320
 1023TIP3   OH2 3074   5.590   2.747   4.289  0.2458  0.5558 -0.4638
 1023TIP3    H1 3075   5.563   2.717   4.202 -0.4006 -0.2327 -0.0099
 1023TIP3    H2 3076   5.594   2.842   4.281 -3.1048  0.8145 -0.5120
 1024TIP3   OH2 3077   1.967   4.501   4.093 -0.1730 -0.0690 -0.0089
 1024TIP3    H1 3078   1.965   4.420   4.145 -1.5599 -0.1968 -0.2406
 1024TIP3    H2 3079   2.016   4.477   4.015  0.2067 -0.4281  0.3285
 1025TIP3   OH2 3080   1.349   4.196   0.496 -0.2247  0.0437  0.0656
 1025TIP3    H1 3081   1.331   4.220   0.587 -0.6587  0.6257 -0.1646
 1025TIP3    H2 3082   1.370   4.279   0.453  2.3500 -0.4863  0.1329
 1026TIP3   OH2 3083   4.318   2.285   2.479  0.1020 -0.6154  0.0990
 1026TIP3    H1 3084   4.315   2.341   2.401  0.9774 -1.7730 -0.8103
 1026TIP3    H2 3085   4.407   2.250   2.480 -0.4422 -2.0636  0.5663
 1027TIP3   OH2 3086   6.267   0.572   4.331 -0.1909 -0.7413  0.7752
 1027TIP3    H1 3087   6.308   0.544   4.412 -0.3710 -0.8981  0.8134
 1027TIP3    H2 3088   6.176   0.542   4.338  0.6670 -4.4706 -1.1982
 1028TIP3   OH2 3089   1.235   4.758   3.557 -0.1596 -0.1488 -0.5810
 1028TIP3    H1 3090   1.223   4.828   3.494  1.4149 -0.0015 -0.7748
 1028TIP3    H2 3091   1.188   4.787   3.635  0.1884  0.9684 -0.7722
 1029TIP3   OH2 3092   0.206   5.832   4.751 -0.3874  0.0554  0.4318
 1029TIP3    H1 3093   0.258   5.832   4.831 -0.4953  0.1747  0.5028
 1029TIP3    H2 3094   0.260   5.786   4.687  0.9819  2.4778 -0.2826
 1030TIP3   OH2 3095   0.764   1.514   4.587 -0.0876 -0.2208 -0.0525
 1030TIP3    H1 3096   0.798   1.603   4.601  0.7457 -0.2526 -1.6428
 1030TIP3    H2 3097   0.670   1.526   4.576 -0.1657  0.2903  1.0581
 1031TIP3   OH2 3098   1.643   3.032   4.395 -0.4485 -0.6400 -0.2341
 1031TIP3    H1 3099   1.558   3.071   4.372 -0.7809 -1.4290 -0.3561
 1031TIP3    H2 3100   1.706   3.083   4.344 -0.9974 -1.0950 -1.4125
 1032TIP3   OH2 3101   1.020   1.042   0.575  0.2567  0.5640 -0.2512
 1032TIP3    H1 3102   1.035   1.057   0.482  2.7272 -1.9476 -0.3731
 1032TIP3    H2 3103   0.954   0.973   0.579  0.3489  0.4789 -0.1678
 1033TIP3   OH2 3104   2.451   5.272   0.439 -0.1224 -0.1654 -0.2271
 1033TIP3    H1 3105   2.386   5.242   0.375  0.9533 -0.4087 -1.2419
 1033TIP3    H2 3106   2.511   5.327   0.388 -0.8010  1.9910  1.1453
 1034TIP3   OH2 3107   5.017   2.252   1.303 -0.1677 -0.1384 -0.4777
 1034TIP3    H1 3108   4.972   2.169   1.288  0.2248 -0.7065  1.2582
 1034TIP3    H2 3109   4.961   2.317   1.261 -1.1632 -1.1293 -0.7553
 1035TIP3   OH2 3110   4.191   3.761   4.588 -0.3357  0.1240 -0.1198
 1035TIP3    H1 3111   4.106   3.801   4.606 -0.7257 -0.5773 -0.3302
 1035TIP3    H2 3112   4.170   3.685   4.534  0.2391 -1.0957  1.2999
 1036TIP3   OH2 3113   6.146   3.254   3.112 -0.3211 -0.1582 -0.2445
 1036TIP3    H1 3114   6.171   3.284   3.025  1.0746  2.5961  1.0059
 1036TIP3    H2 3115   6.215   3.192   3.137 -0.4728 -0.5899 -0.8750
 1037TIP3   OH2 3116   6.336   0.836   3.910 -0.2016  0.2470  0.0916
 1037TIP3    H1 3117   6.330   0.825   4.005  1.9160 -1.7081  0.1162
 1037TIP3    H2 3118   6.250   0.868   3.884 -0.7391  1.1923  2.6867
 1038TIP3   OH2 3119   3.903   4.978   2.866  0.5851 -0.6098  0.5040
 1038TIP3    H1 3120   3.817   4.966   2.907 -0.1359 -0.6316 -0.9210
 1038TIP3    H2 3121   3.951   5.034   2.927 -0.9069  0.4821  0.7588
 1039TIP3   OH2 3122   0.700   5.529   0.885 -0.8937 -0.3990  0.2616
 1039TIP3    H1 3123   0.788   5.542   0.920 -2.0211  0.4342  3.0769
 1039TIP3    H2 3124   0.689   5.434   0.882  0.3915 -0.5426 -1.0908
 1040TIP3   OH2 3125   2.301   2.116   2.995  0.2477  0.0238  0.1625
 1040TIP3    H1 3126   2.228   2.178   2.992  0.0906  0.1113  2.9493
 1040TIP3    H2 3127   2.263   2.036   3.030  0.9392 -0.9376 -1.1955
 1041TIP3   OH2 3128   1.468   1.896   4.408 -0.0119  0.0795 -0.2853
 1041TIP3    H1 3129   1.416   1.817   4.423 -0.8225  0.8087  0.8665
 1041TIP3    H2 3130   1.462   1.912   4.314 -1.4218 -0.1576 -0.2498
 1042TIP3   OH2 3131   3.166   1.311   2.716  0.0008 -0.5567 -0.1039
 1042TIP3    H1 3132   3.244   1.256   2.727  0.3571 -0.1808 -0.6817
 1042TIP3    H2 3133   3.127   1.281   2.634  0.3862  0.2639 -0.6028
 1043TIP3   OH2 3134   2.566   0.393   2.115 -0.9516  0.2711  0.2190
 1043TIP3    H1 3135   2.632   0.446   2.160  1.3543 -3.4249  1.6477
 1043TIP3    H2 3136   2.489   0.399   2.172  0.1794 -0.0363  1.8645
 1044TIP3   OH2 3137   2.801   2.564   4.050  0.3433 -0.5111  0.7452
 1044TIP3    H1 3138   2.893   2.562   4.021  0.7199  1.2236  1.6856
 1044TIP3    H2 3139   2.764   2.642   4.009 -0.1598 -0.1267  1.8955
 1045TIP3   OH2 3140   4.757   4.600   0.381 -0.5392 -0.9032 -0.3978
 1045TIP3    H1 3141   4.818   4.526   0.386 -0.0715 -0.4741  0.5667
 1045TIP3    H2 3142   4.752   4.621   0.288  1.4781 -0.4208 -0.4608
 1046TIP3   OH2 3143   4.553   1.410   1.555 -0.3490  0.3874  0.1020
 1046TIP3    H1 3144   4.471   1.459   1.545 -0.0329  0.6858 -1.3431
 1046TIP3    H2 3145   4.553   1.350   1.480 -0.2720 -1.1860  1.3022
 1047TIP3   OH2 3146   5.652   1.041   1.782  0.5362  0.4233  0.2281
 1047TIP3    H1 3147   5.694   1.081   1.706  1.6667 -1.5511 -0.2552
 1047TIP3    H2 3148   5.673   0.948   1.775 -2.5072 -0.4300  0.9311
 1048TIP3   OH2 3149   4.643   5.202   1.516  0.2326 -0.2652  0.8067
 1048TIP3    H1 3150   4.555   5.218   1.551 -0.7260  0.1796 -1.5764
 1048TIP3    H2 3151   4.682   5.289   1.510  0.1319 -0.2643  0.1607
 1049TIP3   OH2 3152   0.708   3.198   0.134 -0.0799 -0.5051  0.2429
 1049TIP3    H1 3153   0.660   3.235   0.208  0.4178  0.6466  0.0115
 1049TIP3    H2 3154   0.799   3.196   0.163  0.3149  1.1781 -0.7868
 1050TIP3   OH2 3155   5.507   3.637   3.098  0.1030  0.2494 -0.2538
 1050TIP3    H1 3156   5.488   3.594   3.182 -0.5708 -1.1425 -1.0718
 1050TIP3    H2 3157   5.426   3.681   3.074  0.1929  0.3755 -0.3318
 1051TIP3   OH2 3158   1.002   2.668   0.876 -0.0867 -0.0428  0.0762
 1051TIP3    H1 3159   1.086   2.633   0.846  0.1922 -0.0790  0.8628
 1051TIP3    H2 3160   1.018   2.761   0.891  0.0365 -0.1847  0.9287
 1052TIP3   OH2 3161   6.141   2.302   1.359  0.2838 -0.1608 -0.0588
 1052TIP3    H1 3162   6.180   2.215   1.371 -0.1164 -0.2686  0.5056
 1052TIP3    H2 3163   6.174   2.332   1.274 -0.1163 -1.1565 -0.5811
 1053TIP3   OH2 3164   5.292   1.522   4.726 -0.3916 -0.1664 -0.4378
 1053TIP3    H1 3165   5.341   1.479   4.655  1.7441 -0.3305  1.0321
 1053TIP3    H2 3166   5.314   1.615   4.717 -2.8282  0.3423 -1.9574
 1054TIP3   OH2 3167   0.581   4.539   3.998  0.9945 -0.5350  0.3002
 1054TIP3    H1 3168   0.550   4.487   4.072 -0.7830 -2.6179 -1.7673
 1054TIP3    H2 3169   0.524   4.617   3.999  0.0267 -1.2194  0.3378
 1055TIP3   OH2 3170   4.528   1.327   0.815  0.0134  0.4419  0.6810
 1055TIP3    H1 3171   4.584   1.319   0.738  0.4596  1.3379  0.8989
 1055TIP3    H2 3172   4.461   1.259   0.803  1.0254 -0.5209  0.3185
 1056TIP3   OH2 3173   0.412   5.047   1.173 -0.2085  0.2439 -0.1079
 1056TIP3    H1 3174   0.489   4.993   1.154 -0.7770 -0.9046  0.7599
 1056TIP3    H2 3175   0.417   5.119   1.109  0.4019 -1.0004 -1.5141
 1057TIP3   OH2 3176   5.086   1.930   4.316  0.1203  0.0843  0.3638
 1057TIP3    H1 3177   5.086   1.908   4.409 -1.9046  1.1029  0.6709
 1057TIP3    H2 3178   5.088   2.026   4.314 -2.5781  0.2216 -0.4493
 1058TIP3   OH2 3179   4.046   5.698   4.805  0.1933 -1.1005 -0.0805
 1058TIP3    H1 3180   4.030   5.695   4.711 -0.5664  2.4988 -0.2140
 1058TIP3    H2 3181   3.960   5.688   4.845  0.0390  0.4037  0.0285
 1059TIP3   OH2 3182   0.808   1.589   1.325 -0.2623 -0.0757  0.1640
 1059TIP3    H1 3183   0.719   1.570   1.355 -0.4349  0.2808 -0.1248
 1059TIP3    H2 3184   0.815   1.684   1.328 -0.3246 -0.0127 -1.0159
 1060TIP3   OH2 3185   3.504   3.699   0.336  0.6027  0.3165 -0.1654
 1060TIP3    H1 3186   3.575   3.642   0.366  0.5087  0.8004  1.0718
 1060TIP3    H2 3187   3.424   3.649   0.353  0.5527  0.5600  0.3272
 1061TIP3   OH2 3188   6.299   2.180   1.102 -0.1197  0.0678 -0.1060
 1061TIP3    H1 3189   6.391   2.157   1.091  0.1807  1.2516 -0.1886
 1061TIP3    H2 3190   6.263   2.176   1.013 -0.2810 -0.9251  0.0015
 1062TIP3   OH2 3191   6.066   1.507   1.100  0.1048 -0.1858  0.1798
 1062TIP3    H1 3192   6.081   1.536   1.010 -2.9488  0.2424 -0.2995
 1062TIP3    H2 3193   6.074   1.586   1.153 -1.0129  0.1426 -0.1338
 1063TIP3   OH2 3194   0.377   0.501   2.737 -0.0935  0.0573  0.2041
 1063TIP3    H1 3195   0.447   0.529   2.678  0.7657 -1.8306  0.2516
 1063TIP3    H2 3196   0.319   0.449   2.681 -0.9165  0.7459  0.3973
 1064TIP3   OH2 3197   3.966   2.109   0.431  0.2931  0.0784 -0.2965
 1064TIP3    H1 3198   3.888   2.163   0.443  0.7282  0.8196 -0.7011
 1064TIP3    H2 3199   3.952   2.033   0.488 -0.2368  0.7224  0.4534
 1065TIP3   OH2 3200   4.878   3.488   0.990 -0.1005  0.1005 -0.1862
 1065TIP3    H1 3201   4.972   3.469   0.997 -0.2863 -0.5020  0.9287
 1065TIP3    H2 3202   4.836   3.418   1.040 -1.2338 -0.4004 -1.7694
 1066TIP3   OH2 3203   3.546   4.162   4.692 -0.1631  0.1732  0.4467
 1066TIP3    H1 3204   3.640   4.142   4.694 -0.3384 -0.8248 -0.2666
 1066TIP3    H2 3205   3.537   4.238   4.749  0.8011 -0.8936  2.1254
 1067TIP3   OH2 3206   0.250   0.240   2.811  0.6902 -0.3391  0.2690
 1067TIP3    H1 3207   0.307   0.214   2.739  1.3276 -0.2537  0.7291
 1067TIP3    H2 3208   0.286   0.324   2.841 -0.7059  0.5890 -0.5180
 1068TIP3   OH2 3209   0.635   3.473   5.021 -0.1916 -0.3038  0.1298
 1068TIP3    H1 3210   0.635   3.568   5.037 -1.0783  0.0110 -1.5320
 1068TIP3    H2 3211   0.562   3.440   5.073  0.4677 -0.1882  1.1629
 1069TIP3   OH2 3212   2.512   4.710   0.586 -0.1264  0.1733 -0.0160
 1069TIP3    H1 3213   2.427   4.668   0.575 -0.9326  1.6069  0.3794
 1069TIP3    H2 3214   2.564   4.678   0.513 -0.7360 -1.3437  0.1808
 1070TIP3   OH2 3215   3.565   4.258   1.755  0.2267 -0.3230 -0.5802
 1070TIP3    H1 3216   3.535   4.241   1.845 -1.0541  1.3881 -0.6140
 1070TIP3    H2 3217   3.537   4.181   1.705 -2.6341  0.3606 -0.2193
 1071TIP3   OH2 3218   3.732   3.522   0.430  0.3070 -0.2844 -0.7131
 1071TIP3    H1 3219   3.763   3.501   0.518 -0.1172  1.7943 -0.0013
 1071TIP3    H2 3220   3.805   3.569   0.389  0.3456 -0.8640 -1.3252
 1072TIP3   OH2 3221   1.100   5.471   0.519 -0.0950 -0.3875  0.1868
 1072TIP3    H1 3222   1.184   5.446   0.481 -0.0058 -1.4921  1.0638
 1072TIP3    H2 3223   1.037   5.454   0.449  0.5278  1.9756 -1.0700
 1073TIP3   OH2 3224   3.279   1.470   3.131 -0.4596 -0.2283 -0.2246
 1073TIP3    H1 3225   3.322   1.530   3.069 -0.6934 -0.5168 -0.6666
 1073TIP3    H2 3226   3.337   1.471   3.207 -1.1401  1.5999  0.3248
 1074TIP3   OH2 3227   0.101   5.977   4.999 -0.0845  0.2309 -0.0615
 1074TIP3    H1 3228   0.163   5.941   5.063 -0.6354  0.4380  0.5981
 1074TIP3    H2 3229   0.157   6.007   4.927  0.4844 -0.7588 -0.0566
 1075TIP3   OH2 3230   1.749   0.715   0.124  0.1830  0.1980  0.3287
 1075TIP3    H1 3231   1.805   0.792   0.115 -0.7281  0.7835 -0.5122
 1075TIP3    H2 3232   1.660   0.749   0.118 -0.2474 -0.8322  0.6777
 1076TIP3   OH2 3233   3.328   5.852   2.646  0.0807 -0.6687  0.1148
 1076TIP3    H1 3234   3.288   5.932   2.613 -0.6892 -0.0953  2.2400
 1076TIP3    H2 3235   3.324   5.861   2.741  2.7480 -1.8796  0.4277
 1077TIP3   OH2 3236   4.851   1.241   4.447  0.0825  0.3988  0.8895
 1077TIP3    H1 3237   4.780   1.178   4.461 -1.3590  1.6342 -0.4658
 1077TIP3    H2 3238   4.823   1.293   4.372  2.8558  0.3678 -0.3060
 1078TIP3   OH2 3239   4.024   0.466   1.833  0.0638 -0.0675 -0.2332
 1078TIP3    H1 3240   3.980   0.457   1.918  2.2688 -1.6783  0.8458
 1078TIP3    H2 3241   3.954   0.460   1.769 -1.4280 -1.4357  1.4014
 1079TIP3   OH2 3242   4.700   4.714   2.690  0.3300 -0.1906  0.3807
 1079TIP3    H1 3243   4.623   4.719   2.747 -0.0742 -1.1273 -0.0729
 1079TIP3    H2 3244   4.774   4.730   2.749 -0.1269 -0.5133  1.0527
 1080TIP3   OH2 3245   2.168   5.598   1.907 -0.3522  0.6422  0.3327
 1080TIP3    H1 3246   2.134   5.513   1.933 -1.8420  0.8925 -0.6475
 1080TIP3    H2 3247   2.204   5.584   1.820  0.5316  0.7599  0.6721
 1081TIP3   OH2 3248   5.416   1.412   0.902 -0.6732  0.0519 -0.4080
 1081TIP3    H1 3249   5.426   1.504   0.876 -0.4303 -0.1333 -0.9838
 1081TIP3    H2 3250   5.329   1.388   0.869 -0.4878 -0.0978 -0.7892
 1082TIP3   OH2 3251   5.224   2.331   3.922  0.0600  0.2999 -0.9466
 1082TIP3    H1 3252   5.164   2.403   3.901 -2.1463 -0.6384  1.5575
 1082TIP3    H2 3253   5.175   2.277   3.984  3.3763 -0.7924  0.9588
 1083TIP3   OH2 3254   5.789   4.370   4.514  0.2342 -0.2533  0.4816
 1083TIP3    H1 3255   5.793   4.361   4.610 -1.3884  0.3798  0.6558
 1083TIP3    H2 3256   5.710   4.423   4.499 -0.0473 -1.1001 -1.2521
 1084TIP3   OH2 3257   5.686   2.827   1.065 -0.5559 -0.3984 -0.3084
 1084TIP3    H1 3258   5.608   2.846   1.117  1.0889  1.0989  1.7996
 1084TIP3    H2 3259   5.738   2.907   1.070  1.8189 -1.8507 -0.3162
 1085TIP3   OH2 3260   4.830   0.778   0.606 -0.3024  0.3615  0.3808
 1085TIP3    H1 3261   4.850   0.863   0.566  2.1770 -0.6893 -0.8500
 1085TIP3    H2 3262   4.817   0.719   0.532 -1.9184 -0.4035  1.2174
 1086TIP3   OH2 3263   1.551   2.474   4.462 -0.0652 -0.1074 -0.0579
 1086TIP3    H1 3264   1.550   2.559   4.507 -2.1695  0.6598 -1.3714
 1086TIP3    H2 3265   1.627   2.428   4.498  0.8892  2.1543  1.0130
 1087TIP3   OH2 3266   4.163   4.733   1.910 -0.0107 -0.0139  0.6238
 1087TIP3    H1 3267   4.081   4.763   1.948  0.2341  1.0004  0.3858
 1087TIP3    H2 3268   4.137   4.668   1.845 -0.6354  0.4062  0.4471
 1088TIP3   OH2 3269   0.871   1.724   3.058  0.1307  0.1249  0.4831
 1088TIP3    H1 3270   0.780   1.754   3.057  0.1507  0.1891  0.5968
 1088TIP3    H2 3271   0.891   1.706   2.966 -0.8714 -2.5573  0.6845
 1089TIP3   OH2 3272   0.273   1.924   5.001 -0.2909 -0.0544  0.3538
 1089TIP3    H1 3273   0.226   1.928   4.917 -0.0791 -0.3904  0.2165
 1089TIP3    H2 3274   0.289   1.831   5.014 -0.0332  0.0268  0.6087
 1090TIP3   OH2 3275   6.153   5.289   2.725  0.0659  0.3752  0.1712
 1090TIP3    H1 3276   6.063   5.301   2.693 -0.2741  0.1905  1.0347
 1090TIP3    H2 3277   6.201   5.363   2.690 -0.6044  0.8992  0.3409
 1091TIP3   OH2 3278   1.799   4.051   1.396  0.1258  0.0951  0.2962
 1091TIP3    H1 3279   1.862   4.120   1.377 -2.7689  2.8095 -0.2400
 1091TIP3    H2 3280   1.749   4.084   1.470 -1.4628 -1.3612 -0.0664
 1092TIP3   OH2 3281   1.059   4.559   3.085 -0.2857 -0.2197  0.0298
 1092TIP3    H1 3282   1.047   4.653   3.071  0.0824 -0.4393 -1.9935
 1092TIP3    H2 3283   0.973   4.521   3.072 -0.0476 -0.3629 -1.2582
 1093TIP3   OH2 3284   2.905   2.044   0.415 -0.0792  0.5485  0.2464
 1093TIP3    H1 3285   2.970   2.012   0.352 -0.9164  1.3023 -1.0443
 1093TIP3    H2 3286   2.951   2.113   0.463  0.4518  0.2361  0.1973
 1094TIP3   OH2 3287   6.150   2.732   1.036 -0.3480  0.1673  0.1546
 1094TIP3    H1 3288   6.089   2.730   1.110 -0.0240  0.0555  0.4178
 1094TIP3    H2 3289   6.164   2.640   1.014 -0.3893  0.1986 -0.0034
 1095TIP3   OH2 3290   2.518   2.815   1.702  0.0414 -0.1805 -0.3915
 1095TIP3    H1 3291   2.465   2.740   1.729 -0.3405  0.3675  0.4104
 1095TIP3    H2 3292   2.475   2.847   1.623 -2.1820  1.5553  1.3642
 1096TIP3   OH2 3293   0.176   1.072   2.990 -0.5876  0.1879  0.2958
 1096TIP3    H1 3294   0.210   1.160   2.976 -1.4766  0.4336 -0.4440
 1096TIP3    H2 3295   0.081   1.083   2.996 -0.6406 -0.6087  1.1650
 1097TIP3   OH2 3296   5.510   0.690   1.977  0.3852  0.0721 -0.2718
 1097TIP3    H1 3297   5.449   0.762   1.964  2.7946  2.0153 -1.4966
 1097TIP3    H2 3298   5.531   0.692   2.071  0.8488  1.3266 -0.3964
 1098TIP3   OH2 3299   4.768   4.637   0.110 -0.2604  0.3787  0.0300
 1098TIP3    H1 3300   4.807   4.552   0.088  1.6062  1.1840  0.0153
 1098TIP3    H2 3301   4.730   4.668   0.028  1.2894  0.6443 -0.6312
 1099TIP3   OH2 3302   3.099   0.232   4.574 -0.4723  0.3169 -0.1700
 1099TIP3    H1 3303   3.161   0.296   4.537  0.6781  1.0407  2.7687
 1099TIP3    H2 3304   3.013   0.269   4.555  0.1473  2.2270  0.5422
 1100TIP3   OH2 3305   1.403   3.869   3.862 -0.3253 -0.5653 -0.4449
 1100TIP3    H1 3306   1.362   3.784   3.846  3.0177 -2.7603  1.4048
 1100TIP3    H2 3307   1.391   3.884   3.956  0.4233  0.2566 -0.4745
 1101TIP3   OH2 3308   2.723   2.781   3.216  0.2374 -0.1560  0.0330
 1101TIP3    H1 3309   2.737   2.833   3.137  0.1982  0.0408  0.1559
 1101TIP3    H2 3310   2.629   2.763   3.217 -0.1837  1.8591  1.2855
 1102TIP3   OH2 3311   0.400   4.523   1.456 -0.3587  0.1957 -0.1434
 1102TIP3    H1 3312   0.424   4.539   1.364 -0.4898 -1.1926 -0.4415
 1102TIP3    H2 3313   0.480   4.490   1.496 -1.1340 -2.5113 -0.6411
 1103TIP3   OH2 3314   2.407   2.442   3.241  0.5598  0.0048  0.5415
 1103TIP3    H1 3315   2.461   2.425   3.163 -0.3620  2.6880 -0.8037
 1103TIP3    H2 3316   2.321   2.462   3.206 -0.4532 -0.7706  2.4460
 1104TIP3   OH2 3317   4.669   3.461   2.623 -0.7703 -0.1014  0.1518
 1104TIP3    H1 3318   4.650   3.382   2.673  0.1579  0.0276  0.7255
 1104TIP3    H2 3319   4.728   3.512   2.678  0.8552 -0.2766 -1.3293
 1105TIP3   OH2 3320   2.509   1.965   1.392 -0.0438 -0.2342 -0.1770
 1105TIP3    H1 3321   2.474   1.876   1.380 -1.5252  0.3599 -0.4969
 1105TIP3    H2 3322   2.598   1.960   1.358  0.7819 -2.1894  2.0571
 1106TIP3   OH2 3323   3.645   3.164   4.273 -0.5442  0.3606 -0.6852
 1106TIP3    H1 3324   3.562   3.211   4.275  0.1273  1.5501  0.9511
 1106TIP3    H2 3325   3.689   3.190   4.354  2.0718  0.9606 -2.2048
 1107TIP3   OH2 3326   2.141   4.291   1.908  0.5431 -0.5981 -0.4742
 1107TIP3    H1 3327   2.056   4.248   1.901  0.3544 -0.1419 -1.2209
 1107TIP3    H2 3328   2.121   4.384   1.899  0.8071 -0.2112  2.2702
 1108TIP3   OH2 3329   0.315   0.213   1.065  0.5933  0.9764  0.3459
 1108TIP3    H1 3330   0.344   0.196   0.975  1.2087  1.1073  0.5153
 1108TIP3    H2 3331   0.311   0.127   1.105 -1.1583  0.7593 -0.2343
 1109TIP3   OH2 3332   5.895   2.447   0.160 -0.3823  0.4853 -0.2618
 1109TIP3    H1 3333   5.846   2.384   0.213  0.1172 -0.7246 -1.1791
 1109TIP3    H2 3334   5.919   2.516   0.220  0.5268 -1.0362  1.2175
 1110TIP3   OH2 3335   3.526   0.672   2.212  0.7882  0.2827 -0.2420
 1110TIP3    H1 3336   3.574   0.755   2.221 -0.4529  1.0303 -0.3384
 1110TIP3    H2 3337   3.562   0.616   2.281 -0.0123  1.7375  1.4407
 1111TIP3   OH2 3338   2.855   4.764   0.372  0.4986  0.4028 -0.0733
 1111TIP3    H1 3339   2.879   4.744   0.282 -0.6546  0.0584 -0.3216
 1111TIP3    H2 3340   2.791   4.697   0.396 -0.0770  1.1609  0.5947
 1112TIP3   OH2 3341   2.154   1.253   2.152  0.3095  0.7880 -0.1157
 1112TIP3    H1 3342   2.247   1.271   2.169  0.1898  1.4493 -0.1697
 1112TIP3    H2 3343   2.141   1.166   2.190  1.5013 -0.3409 -2.1210
 1113TIP3   OH2 3344   0.114   2.555   2.575  0.5162  0.5958 -0.2599
 1113TIP3    H1 3345   0.112   2.589   2.664  0.7335  0.2965 -0.1371
 1113TIP3    H2 3346   0.024   2.564   2.543 -0.1222 -1.4665  0.8237
 1114TIP3   OH2 3347   3.965   1.961   3.743 -0.0536  0.3810 -0.5412
 1114TIP3    H1 3348   4.044   1.909   3.756 -0.0940  0.3527 -0.4067
 1114TIP3    H2 3349   3.951   1.960   3.648 -0.3734 -0.3385 -0.4933
 1115TIP3   OH2 3350   3.830   0.846   1.078  0.2591 -0.3855  0.0057
 1115TIP3    H1 3351   3.917   0.807   1.086 -0.5952 -2.2282  0.7095
 1115TIP3    H2 3352   3.841   0.935   1.111  2.1522 -0.1270 -1.1525
 1116TIP3   OH2 3353   1.094   3.419   0.033  0.4176  0.2575  0.1068
 1116TIP3    H1 3354   1.074   3.510   0.009  1.7320  0.3382 -0.7960
 1116TIP3    H2 3355   1.058   3.410   0.121 -0.5434  1.3653 -0.1293
 1117TIP3   OH2 3356   3.524   2.237   3.239  0.3004  0.3134  0.7745
 1117TIP3    H1 3357   3.455   2.171   3.239  0.5454  0.0555  1.4168
 1117TIP3    H2 3358   3.478   2.319   3.222 -0.0148  0.0022  0.0369
 1118TIP3   OH2 3359   4.628   4.945   4.028 -0.0786  0.2666 -0.0440
 1118TIP3    H1 3360   4.538   4.977   4.040 -0.8948 -1.5400 -0.9341
 1118TIP3    H2 3361   4.660   4.932   4.117 -0.5341  1.3372  0.2959
 1119TIP3   OH2 3362   1.965   4.527   1.529  0.1455  0.0426  0.3535
 1119TIP3    H1 3363   1.935   4.602   1.478  2.0592  0.4170 -0.2793
 1119TIP3    H2 3364   1.885   4.479   1.549 -0.7158 -0.0971 -2.9399
 1120TIP3   OH2 3365   4.215   1.076   2.440  0.2924 -0.2008  0.8642
 1120TIP3    H1 3366   4.263   1.074   2.357  1.2059 -1.2704  1.3802
 1120TIP3    H2 3367   4.169   1.160   2.439  1.6599  0.5920  0.0395
 1121TIP3   OH2 3368   3.454   4.353   0.108  0.0897  0.0967  0.1512
 1121TIP3    H1 3369   3.407   4.270   0.096 -0.9953  0.9756 -2.1049
 1121TIP3    H2 3370   3.412   4.393   0.185  1.4891 -1.9407  2.0901
 1122TIP3   OH2 3371   3.391   3.884   1.996 -0.4537  0.1145  0.2766
 1122TIP3    H1 3372   3.476   3.843   1.982 -0.3667  0.5346 -0.4863
 1122TIP3    H2 3373   3.387   3.901   2.090  0.0862 -0.3735  0.3893
 1123TIP3   OH2 3374   6.072   1.735   3.262 -0.0750  0.2234  0.0830
 1123TIP3    H1 3375   6.131   1.673   3.305 -0.6109  0.0960  0.6519
 1123TIP3    H2 3376   6.117   1.819   3.266 -0.0329  0.1750  0.7318
 1124TIP3   OH2 3377   6.193   0.997   0.665  0.4150  0.3617  0.5497
 1124TIP3    H1 3378   6.194   0.983   0.570  1.8129 -0.8113  0.7099
 1124TIP3    H2 3379   6.270   1.051   0.682 -0.1943  1.1164  0.9568
 1125TIP3   OH2 3380   1.423   3.571   0.670  0.2024 -0.0154  0.0386
 1125TIP3    H1 3381   1.447   3.630   0.600  2.2028  0.4515  1.0546
 1125TIP3    H2 3382   1.492   3.581   0.736 -0.2685 -2.2499  0.9884
 1126TIP3   OH2 3383   5.646   3.478   2.843 -0.5957  0.3523  0.1584
 1126TIP3    H1 3384   5.662   3.384   2.844  1.3901  0.6343 -0.3157
 1126TIP3    H2 3385   5.618   3.498   2.932  1.9126 -0.3013  1.1912
 1127TIP3   OH2 3386   4.361   5.458   4.347  0.5293 -0.0396 -0.2694
 1127TIP3    H1 3387   4.327   5.476   4.434  0.4488  3.9086 -0.9608
 1127TIP3    H2 3388   4.288   5.415   4.302 -0.9249  1.5138  0.4797
 1128TIP3   OH2 3389   5.082   0.360   1.801 -0.1434 -0.2085  0.6476
 1128TIP3    H1 3390   5.142   0.383   1.872 -0.3436  1.4849  0.2927
 1128TIP3    H2 3391   5.114   0.410   1.726 -0.8588 -0.7897 -0.0550
 1129TIP3   OH2 3392   3.502   3.211   2.802 -0.2745 -0.0764 -0.3701
 1129TIP3    H1 3393   3.420   3.223   2.756 -0.0538  0.8739 -0.5299
 1129TIP3    H2 3394   3.522   3.297   2.839 -0.5394 -0.8346  1.6697
 1130TIP3   OH2 3395   5.857   1.093   2.898 -0.0448  0.1819  0.1357
 1130TIP3    H1 3396   5.768   1.117   2.870 -0.4647  0.1869  1.3786
 1130TIP3    H2 3397   5.849   1.002   2.928  0.0501  0.5856  1.4601
 1131TIP3   OH2 3398   4.514   4.373   0.676  0.1660  0.6658  0.0320
 1131TIP3    H1 3399   4.483   4.374   0.586 -1.5775 -1.9059  0.4856
 1131TIP3    H2 3400   4.541   4.283   0.692  1.0270  1.1946  1.9017
 1132TIP3   OH2 3401   2.289   4.624   3.669  0.6191  0.6380  0.4605
 1132TIP3    H1 3402   2.221   4.647   3.732 -0.5446 -2.0300  0.3186
 1132TIP3    H2 3403   2.365   4.677   3.694 -1.4013  3.6808  0.6621
 1133TIP3   OH2 3404   0.117   1.194   5.097  0.1643 -0.0984 -0.0963
 1133TIP3    H1 3405   0.040   1.144   5.069 -0.9872  0.4519  1.8820
 1133TIP3    H2 3406   0.093   1.228   5.183  1.6533  2.2554 -0.5336
 1134TIP3   OH2 3407   2.900   4.181   4.608 -0.7955  0.1545 -0.3489
 1134TIP3    H1 3408   2.871   4.239   4.538 -1.1763  0.3326 -0.0506
 1134TIP3    H2 3409   2.955   4.236   4.663 -1.8584  0.4970  0.4176
 1135TIP3   OH2 3410   1.825   2.011   1.268 -0.1640 -0.0376 -0.9141
 1135TIP3    H1 3411   1.826   1.933   1.212 -1.3706 -2.2026  1.7963
 1135TIP3    H2 3412   1.739   2.008   1.310  0.6993  1.3790  1.1055
 1136TIP3   OH2 3413   5.929   0.853   1.950  0.4674  0.0160 -0.4644
 1136TIP3    H1 3414   5.934   0.859   2.046 -0.3096 -1.7137 -0.2768
 1136TIP3    H2 3415   5.996   0.788   1.927  1.6438  1.4538 -1.2764
 1137TIP3   OH2 3416   0.211   3.874   0.612 -0.4505 -0.8776 -0.1283
 1137TIP3    H1 3417   0.266   3.950   0.591 -1.3450 -0.0984  0.2352
 1137TIP3    H2 3418   0.243   3.845   0.697  0.2879 -1.2961 -0.5356
 1138TIP3   OH2 3419   4.684   2.887   2.997 -0.0333  0.3753 -0.4460
 1138TIP3    H1 3420   4.643   2.926   2.920 -2.4998  1.0152  1.0913
 1138TIP3    H2 3421   4.690   2.794   2.977  0.7181  0.7043 -1.9267
 1139TIP3   OH2 3422   5.145   3.483   1.002 -0.2866  0.4309 -0.3252
 1139TIP3    H1 3423   5.164   3.565   0.956  1.8239 -0.0474 -0.4280
 1139TIP3    H2 3424   5.221   3.469   1.059 -1.4340 -0.5509  1.0609
 1140TIP3   OH2 3425   5.478   5.669   2.857 -0.0435  0.1326 -0.5898
 1140TIP3    H1 3426   5.537   5.743   2.847 -0.7019  0.3698 -3.3365
 1140TIP3    H2 3427   5.392   5.708   2.872 -0.3842 -0.0235 -1.9906
 1141TIP3   OH2 3428   6.197   4.394   1.019  0.0932  0.1759  0.2517
 1141TIP3    H1 3429   6.152   4.311   1.030  1.5286 -0.6873 -0.1126
 1141TIP3    H2 3430   6.128   4.458   1.000 -1.1967 -0.6180  2.0526
 1142TIP3   OH2 3431   1.931   0.908   1.797  0.2353  0.0465  0.1074
 1142TIP3    H1 3432   1.919   0.923   1.703 -0.3434  2.8723  0.5412
 1142TIP3    H2 3433   1.842   0.908   1.833  0.4927  0.0173  0.7609
 1143TIP3   OH2 3434   6.303   4.661   1.509  0.0964  0.2785  0.1520
 1143TIP3    H1 3435   6.216   4.642   1.544  0.3663  0.8544  1.1924
 1143TIP3    H2 3436   6.358   4.590   1.540  0.5665  1.3443  1.8852
 1144TIP3   OH2 3437   5.142   1.796   0.999  0.1536  0.4747 -0.2685
 1144TIP3    H1 3438   5.228   1.827   1.029 -0.0241  0.1625  0.5903
 1144TIP3    H2 3439   5.132   1.711   1.041  0.5463 -0.6935 -2.4222
 1145TIP3   OH2 3440   4.067   4.501   2.335  0.0413 -0.3902 -0.1247
 1145TIP3    H1 3441   4.013   4.441   2.386  2.1242 -4.2553 -2.0290
 1145TIP3    H2 3442   4.156   4.486   2.366  0.8610  0.2362 -2.0345
 1146TIP3   OH2 3443   0.599   3.240   3.588  0.1456  0.3958 -0.1724
 1146TIP3    H1 3444   0.603   3.334   3.573  1.9548  0.5857  1.1779
 1146TIP3    H2 3445   0.513   3.226   3.627 -0.3668  1.3847 -0.9063
 1147TIP3   OH2 3446   4.995   0.502   0.412  0.7841 -0.0348  0.7431
 1147TIP3    H1 3447   5.041   0.584   0.394  1.3938 -0.1917  1.5094
 1147TIP3    H2 3448   4.931   0.493   0.341  0.7694  1.0581  0.6085
 1148TIP3   OH2 3449   0.843   5.799   0.547 -0.4388 -0.2527  0.6512
 1148TIP3    H1 3450   0.885   5.739   0.608  0.4091 -3.1758 -2.5100
 1148TIP3    H2 3451   0.762   5.755   0.522  0.6287 -0.7406 -2.4447
 1149TIP3   OH2 3452   6.209   1.520   3.350  0.3389 -0.3587  0.2419
 1149TIP3    H1 3453   6.287   1.484   3.393  0.7543 -0.0862 -0.2665
 1149TIP3    H2 3454   6.137   1.465   3.381  0.6717 -0.3475  1.0521
 1150TIP3   OH2 3455   5.018   1.795   2.979 -0.2916  0.4172 -0.2502
 1150TIP3    H1 3456   5.098   1.770   3.026  0.5188  1.0436 -1.2583
 1150TIP3    H2 3457   5.049   1.846   2.904 -1.6806  1.2945 -0.2664
 1151TIP3   OH2 3458   3.653   0.081   2.939  0.1736  0.2757  0.3644
 1151TIP3    H1 3459   3.566   0.092   2.976  0.0908 -0.6836  0.5019
 1151TIP3    H2 3460   3.705   0.044   3.010 -0.1894 -2.3333 -0.5849
 1152TIP3   OH2 3461   4.929   3.139   3.214 -0.3163 -0.2661  0.2857
 1152TIP3    H1 3462   4.946   3.064   3.158 -1.8979 -0.6037  0.2022
 1152TIP3    H2 3463   4.836   3.132   3.235 -0.2106  0.9918  1.2844
 1153TIP3   OH2 3464   1.684   4.778   3.026  0.3061  0.4530  0.2267
 1153TIP3    H1 3465   1.590   4.786   3.045  0.4632  1.5934  0.6065
 1153TIP3    H2 3466   1.727   4.790   3.110  0.8132  0.3531 -0.0138
 1154TIP3   OH2 3467   6.117   1.177   4.077 -0.2931 -0.0500  0.0122
 1154TIP3    H1 3468   6.209   1.165   4.103 -0.1255  1.0358 -0.0150
 1154TIP3    H2 3469   6.084   1.243   4.138 -1.1953 -0.7633  0.3087
 1155TIP3   OH2 3470   3.613   4.940   0.437 -0.4488 -0.1121 -0.6060
 1155TIP3    H1 3471   3.527   4.954   0.478 -0.1638 -0.7282  0.2338
 1155TIP3    H2 3472   3.598   4.870   0.374 -0.6288 -0.0203 -0.6659
 1156TIP3   OH2 3473   1.630   3.168   1.736 -0.3294 -0.8309 -0.3096
 1156TIP3    H1 3474   1.584   3.233   1.683  0.5480  0.2167  0.1511
 1156TIP3    H2 3475   1.722   3.195   1.731 -0.1469 -1.0831  1.2005
 1157TIP3   OH2 3476   0.579   1.817   4.376  0.5644  0.8900  0.3796
 1157TIP3    H1 3477   0.551   1.809   4.468 -1.6925  0.3243 -0.2877
 1157TIP3    H2 3478   0.580   1.911   4.359 -2.5352  0.9697  0.0808
 1158TIP3   OH2 3479   3.619   3.877   3.155  0.0448  0.2426  0.1857
 1158TIP3    H1 3480   3.572   3.960   3.148 -0.9577 -0.1750  1.5210
 1158TIP3    H2 3481   3.711   3.903   3.169 -0.3724  1.1819  1.4685
 1159TIP3   OH2 3482   2.347   5.726   4.921 -0.3447 -0.0382  0.1948
 1159TIP3    H1 3483   2.435   5.762   4.931 -0.3067 -0.7090  3.0278
 1159TIP3    H2 3484   2.352   5.638   4.958 -2.1544 -0.2058  0.1462
 1160TIP3   OH2 3485   5.978   5.372   3.294  0.3431 -0.1439 -0.2518
 1160TIP3    H1 3486   5.963   5.280   3.314 -1.8751  0.2873  0.4182
 1160TIP3    H2 3487   5.942   5.384   3.206 -1.1795  0.4349  0.4160
 1161TIP3   OH2 3488   5.077   5.558   2.054  0.1757 -0.0174  0.6533
 1161TIP3    H1 3489   5.033   5.623   1.998  1.1306  0.8274  0.8535
 1161TIP3    H2 3490   5.006   5.504   2.088 -0.6898  1.1249  0.7265
 1162TIP3   OH2 3491   3.630   2.156   0.307 -0.1396  0.0509  0.7352
 1162TIP3    H1 3492   3.562   2.095   0.336  1.6062 -2.5211 -0.1995
 1162TIP3    H2 3493   3.670   2.188   0.388 -0.3212 -0.9898  1.2427
 1163TIP3   OH2 3494   3.501   5.082   1.068  0.6426  0.0198  0.2513
 1163TIP3    H1 3495   3.530   5.010   1.011  1.5921 -0.9549  1.8841
 1163TIP3    H2 3496   3.567   5.085   1.138 -1.4657 -0.1466  2.3598
 1164TIP3   OH2 3497   3.077   4.876   2.215  0.0632  0.1195  0.1662
 1164TIP3    H1 3498   3.127   4.840   2.142 -0.8843 -0.2590 -0.3203
 1164TIP3    H2 3499   3.119   4.960   2.234  0.4855  0.1010 -0.6459
 1165TIP3   OH2 3500   1.042   3.392   5.067 -0.1536 -0.2087  0.0865
 1165TIP3    H1 3501   1.070   3.483   5.056  1.0993 -0.3976  1.3601
 1165TIP3    H2 3502   0.955   3.398   5.106 -0.0006  0.4577  0.3435
 1166TIP3   OH2 3503   5.036   2.487   2.251  0.0841  0.0742  0.0293
 1166TIP3    H1 3504   4.980   2.429   2.302  0.5354 -0.2947  0.1152
 1166TIP3    H2 3505   4.996   2.573   2.259  0.1120  0.0120  0.9590
 1167TIP3   OH2 3506   3.216   1.433   3.780  0.9895 -0.2930 -0.2648
 1167TIP3    H1 3507   3.216   1.344   3.745 -2.8237 -1.3026  1.7506
 1167TIP3    H2 3508   3.258   1.426   3.865  2.8865  0.4805 -1.0610
 1168TIP3   OH2 3509   5.785   2.033   1.964  0.2436 -0.0428 -0.3536
 1168TIP3    H1 3510   5.823   2.086   1.894  0.5882  1.0340  0.6236
 1168TIP3    H2 3511   5.852   1.968   1.984  0.6253  0.3847 -0.2305
 1169TIP3   OH2 3512   2.406   2.479   2.032  0.7465  0.1271 -0.1160
 1169TIP3    H1 3513   2.373   2.409   1.976  1.5499  0.3941 -0.9421
 1169TIP3    H2 3514   2.422   2.437   2.116  0.8652 -0.6002 -0.4927
 1170TIP3   OH2 3515   2.085   2.499   0.274  0.4041  0.1104 -0.6167
 1170TIP3    H1 3516   2.090   2.495   0.370  0.2288  0.7337 -0.5751
 1170TIP3    H2 3517   2.159   2.447   0.244 -1.0899 -2.4390 -0.1852
 1171TIP3   OH2 3518   1.611   5.156   2.159 -0.4633  0.1893  0.2965
 1171TIP3    H1 3519   1.654   5.083   2.115 -2.9942 -1.4792  0.4252
 1171TIP3    H2 3520   1.628   5.142   2.252 -0.7269 -0.0998  0.3025
 1172TIP3   OH2 3521   3.729   3.932   0.948  0.0888  0.4299 -0.4574
 1172TIP3    H1 3522   3.790   3.950   1.018  0.0218 -1.0872  0.0237
 1172TIP3    H2 3523   3.781   3.886   0.882 -0.3463 -0.1766 -0.3857
 1173TIP3   OH2 3524   1.518   4.512   1.876  0.1533 -0.1599 -0.3465
 1173TIP3    H1 3525   1.544   4.604   1.880  1.0298 -0.3759 -0.6913
 1173TIP3    H2 3526   1.544   4.477   1.961  1.8685 -0.5780 -1.0075
 1174TIP3   OH2 3527   4.230   3.085   0.215 -0.2364 -0.3199 -1.1036
 1174TIP3    H1 3528   4.152   3.070   0.162 -0.9188  0.1244 -0.2358
 1174TIP3    H2 3529   4.302   3.053   0.160 -1.2412 -3.2125 -0.9112
 1175TIP3   OH2 3530   2.050   3.645   4.546  0.2525  0.1343  0.3678
 1175TIP3    H1 3531   1.980   3.594   4.587  0.0958  1.0197  1.2576
 1175TIP3    H2 3532   2.131   3.609   4.581  0.1314  0.6591  1.2319
 1176TIP3   OH2 3533   6.309   4.515   4.114  0.4413 -0.5884 -0.1433
 1176TIP3    H1 3534   6.230   4.471   4.148  0.0218 -0.0101 -0.3535
 1176TIP3    H2 3535   6.352   4.448   4.061 -0.2626 -0.7117 -0.5750
 1177TIP3   OH2 3536   2.211   2.120   2.270  0.0976 -0.0237 -0.0485
 1177TIP3    H1 3537   2.145   2.137   2.203  0.2273 -1.7051 -0.6447
 1177TIP3    H2 3538   2.287   2.171   2.242 -0.4548  0.7669 -0.1454
 1178TIP3   OH2 3539   5.994   4.845   0.309 -0.2571 -0.3673 -0.1329
 1178TIP3    H1 3540   6.017   4.849   0.402  0.6011  0.8325 -0.3658
 1178TIP3    H2 3541   6.041   4.769   0.276  0.7440  0.1304  0.1006
 1179TIP3   OH2 3542   2.321   1.611   1.950  0.0932  0.2262  0.0027
 1179TIP3    H1 3543   2.333   1.669   2.025  0.2397 -0.4908  0.5477
 1179TIP3    H2 3544   2.228   1.586   1.955  0.5207 -1.3043  1.0777
 1180TIP3   OH2 3545   5.879   3.086   3.218 -0.1268  0.3201 -0.2380
 1180TIP3    H1 3546   5.913   2.997   3.211 -0.3163  0.2041  0.2826
 1180TIP3    H2 3547   5.846   3.106   3.131  0.1375 -0.0284 -0.4204
 1181TIP3   OH2 3548   0.494   3.823   2.064  0.7700 -0.3667  0.3679
 1181TIP3    H1 3549   0.588   3.808   2.072  0.9474  1.2868  2.0357
 1181TIP3    H2 3550   0.457   3.793   2.147  0.0402  0.4579  0.3584
 1182TIP3   OH2 3551   6.017   2.429   1.601 -0.4723  0.4695  0.3931
 1182TIP3    H1 3552   5.922   2.426   1.587 -0.8024  0.4570  2.4111
 1182TIP3    H2 3553   6.054   2.407   1.515 -2.2964 -0.6894 -0.1578
 1183TIP3   OH2 3554   1.700   0.516   4.484 -0.4106  0.3456  0.2984
 1183TIP3    H1 3555   1.654   0.514   4.567 -1.6680  0.2059 -0.3744
 1183TIP3    H2 3556   1.742   0.430   4.477 -1.0819  0.0077  0.3723
 1184TIP3   OH2 3557   2.401   5.998   4.012  0.0569  1.2326 -0.0131
 1184TIP3    H1 3558   2.460   5.923   4.002  0.8657  1.8902 -0.2643
 1184TIP3    H2 3559   2.321   5.973   3.965 -0.6958 -0.5083  2.0336
 1185TIP3   OH2 3560   0.992   5.623   3.853 -0.1482  0.0376 -0.2754
 1185TIP3    H1 3561   0.908   5.587   3.825 -0.2841 -0.7411  1.0694
 1185TIP3    H2 3562   1.049   5.546   3.863  0.4284  0.4674 -0.1888
 1186TIP3   OH2 3563   2.471   0.383   5.218 -0.2125 -0.4943 -0.1797
 1186TIP3    H1 3564   2.455   0.319   5.149  0.2447 -0.5787 -0.2089
 1186TIP3    H2 3565   2.515   0.456   5.174 -0.3043 -0.3626 -0.0559
 1187TIP3   OH2 3566   3.219   4.789   2.009 -0.3430 -0.1292 -0.0773
 1187TIP3    H1 3567   3.167   4.776   1.930 -0.4392  0.5506 -0.1296
 1187TIP3    H2 3568   3.281   4.716   2.008 -0.1311  0.0450 -0.9501
 1188TIP3   OH2 3569   1.902   3.993   1.992  0.1917 -0.1304 -0.5418
 1188TIP3    H1 3570   1.958   3.967   1.919 -0.8288  0.4336 -1.5580
 1188TIP3    H2 3571   1.878   3.910   2.033  2.3791 -0.3431  0.4236
 1189TIP3   OH2 3572   0.767   1.849   1.328 -0.2784 -0.0618 -0.7326
 1189TIP3    H1 3573   0.695   1.833   1.388 -1.4788  1.1106 -1.8114
 1189TIP3    H2 3574   0.781   1.943   1.332 -0.9996  0.1911 -2.9235
 1190TIP3   OH2 3575   1.169   2.264   4.502  0.8884 -0.1445  0.2139
 1190TIP3    H1 3576   1.224   2.287   4.428  2.2260 -0.4442  1.0834
 1190TIP3    H2 3577   1.207   2.183   4.537  0.4640  0.1463  1.4005
 1191TIP3   OH2 3578   5.203   5.381   5.178  0.2496 -0.4847  0.1455
 1191TIP3    H1 3579   5.204   5.415   5.088 -3.2527 -1.6018 -0.4774
 1191TIP3    H2 3580   5.156   5.447   5.228 -0.0094 -0.9832  0.5691
 1192TIP3   OH2 3581   4.651   1.300   3.110  0.3971  0.0869  0.1440
 1192TIP3    H1 3582   4.630   1.330   3.022  0.0098 -1.3136 -0.2712
 1192TIP3    H2 3583   4.580   1.334   3.165 -0.0246 -0.0577 -0.3023
 1193TIP3   OH2 3584   1.067   0.371   1.678 -0.0360  0.4064 -0.0505
 1193TIP3    H1 3585   1.161   0.390   1.674  0.6786 -2.5960 -0.1200
 1193TIP3    H2 3586   1.038   0.378   1.588  0.5372 -0.3583 -0.3041
 1194TIP3   OH2 3587   5.829   2.358   3.838 -0.3540 -0.0700  0.0011
 1194TIP3    H1 3588   5.805   2.266   3.835  0.7499 -0.3484 -0.9706
 1194TIP3    H2 3589   5.924   2.359   3.831 -0.2016  1.0872  1.6131
 1195TIP3   OH2 3590   1.963   5.820   3.820 -0.4430 -0.5253 -0.6391
 1195TIP3    H1 3591   1.948   5.796   3.912  0.8920  0.2165 -0.2051
 1195TIP3    H2 3592   1.945   5.739   3.772  1.0308 -1.5925  0.5038
 1196TIP3   OH2 3593   2.014   1.848   0.596 -0.5018  0.4872  0.7135
 1196TIP3    H1 3594   2.080   1.848   0.665  0.7232 -1.1013 -0.3749
 1196TIP3    H2 3595   2.018   1.936   0.559  1.6901  0.1962  0.1050
 1197TIP3   OH2 3596   4.079   3.042   3.281 -0.3667  0.3311 -0.0067
 1197TIP3    H1 3597   4.042   2.972   3.335 -0.2777 -0.2380 -0.6555
 1197TIP3    H2 3598   4.149   2.998   3.231  1.8551  1.5619  1.8724
 1198TIP3   OH2 3599   1.755   3.062   2.090  0.6635 -0.0903  0.2878
 1198TIP3    H1 3600   1.837   3.035   2.130  1.3520 -0.5107 -1.3476
 1198TIP3    H2 3601   1.752   3.016   2.006 -1.4755 -0.4737  0.4975
 1199TIP3   OH2 3602   5.610   1.333   2.508 -0.2440  0.5511  0.2951
 1199TIP3    H1 3603   5.646   1.407   2.556 -0.8828  0.9005  0.2530
 1199TIP3    H2 3604   5.568   1.279   2.576  2.8620 -1.4528  0.8133
 1200TIP3   OH2 3605   5.897   2.070   0.318  0.1342 -0.3396 -0.4162
 1200TIP3    H1 3606   5.967   2.124   0.354  0.0885  0.1228 -0.9922
 1200TIP3    H2 3607   5.824   2.082   0.378  0.1896  0.0922 -0.4300
 1201TIP3   OH2 3608   3.293   4.020   5.005  0.3884 -0.1781 -0.1745
 1201TIP3    H1 3609   3.387   4.029   5.023  0.3534 -0.9435  0.4173
 1201TIP3    H2 3610   3.266   4.108   4.978  1.3610 -0.0505 -0.8075
 1202TIP3   OH2 3611   2.781   5.207   0.391 -0.1945  0.2868  0.4055
 1202TIP3    H1 3612   2.774   5.125   0.341  0.4257  1.1455 -1.1468
 1202TIP3    H2 3613   2.699   5.253   0.372 -1.0747 -0.4151  2.2049
 1203TIP3   OH2 3614   2.530   3.759   3.282 -0.6710 -0.1148  0.3853
 1203TIP3    H1 3615   2.552   3.695   3.349  1.0910  0.3764  0.3157
 1203TIP3    H2 3616   2.481   3.709   3.217 -0.2025 -1.1742  0.8208
 1204TIP3   OH2 3617   1.883   1.647   4.722  0.8897  0.3625  0.1435
 1204TIP3    H1 3618   1.932   1.565   4.729 -2.0056 -1.8371 -2.1534
 1204TIP3    H2 3619   1.901   1.678   4.633 -1.0768 -0.0712 -0.4670
 1205TIP3   OH2 3620   1.041   4.159   1.623  0.6205  0.0733  0.3592
 1205TIP3    H1 3621   1.097   4.152   1.545  1.7484 -1.8505  1.2621
 1205TIP3    H2 3622   1.102   4.178   1.694 -0.4662  2.4518  0.7405
 1206TIP3   OH2 3623   1.271   5.223   5.043 -0.0210  0.3604 -0.2280
 1206TIP3    H1 3624   1.229   5.220   4.957  0.0453 -0.0834 -0.2472
 1206TIP3    H2 3625   1.263   5.134   5.077  0.3199  0.4326  0.0488
 1207TIP3   OH2 3626   2.469   5.157   0.679 -0.1140 -0.6427 -0.2524
 1207TIP3    H1 3627   2.546   5.100   0.670 -0.3368 -0.8732 -0.7090
 1207TIP3    H2 3628   2.462   5.201   0.594  0.7646  0.9841  0.4746
 1208TIP3   OH2 3629   3.065   3.910   4.593  0.4038 -0.7264 -0.0864
 1208TIP3    H1 3630   3.043   3.985   4.538  0.6800 -0.0227  0.7487
 1208TIP3    H2 3631   3.161   3.906   4.590  0.4983  0.0662  1.3035
 1209TIP3   OH2 3632   3.895   4.361   2.501 -0.1388  0.2555  0.2207
 1209TIP3    H1 3633   3.904   4.267   2.513  0.4208  0.4243  1.2148
 1209TIP3    H2 3634   3.856   4.393   2.582  0.0532  0.9346  0.0578
 1210TIP3   OH2 3635   5.034   4.083   3.182  0.2123  0.0074  0.0463
 1210TIP3    H1 3636   5.108   4.039   3.223 -0.1350 -0.2971  0.3535
 1210TIP3    H2 3637   5.068   4.170   3.159  1.2298 -0.7829 -1.5851
 1211TIP3   OH2 3638   5.190   0.772   4.182 -0.7379 -0.7669 -0.2805
 1211TIP3    H1 3639   5.237   0.770   4.099  0.0141 -0.4229  0.1269
 1211TIP3    H2 3640   5.169   0.680   4.199 -0.5982 -0.8786 -0.6808
 1212TIP3   OH2 3641   0.084   4.098   0.365 -0.1526 -0.5534  0.5747
 1212TIP3    H1 3642   0.077   4.140   0.451 -0.2505  1.7724 -0.5146
 1212TIP3    H2 3643   0.178   4.095   0.347 -0.1181 -1.2288  0.8086
 1213TIP3   OH2 3644   0.894   3.314   3.010  0.2254  0.0408  0.0201
 1213TIP3    H1 3645   0.960   3.375   3.043  1.4892 -0.3968 -1.5962
 1213TIP3    H2 3646   0.944   3.243   2.971 -1.2224 -1.5025  0.8427
 1214TIP3   OH2 3647   4.412   2.135   2.812  0.5377  0.1528  0.0043
 1214TIP3    H1 3648   4.392   2.113   2.903 -0.0089  0.8518  0.0648
 1214TIP3    H2 3649   4.347   2.202   2.789  0.9455  0.2947 -0.7609
 1215TIP3   OH2 3650   3.875   5.224   3.457  0.6177 -0.0408  0.2938
 1215TIP3    H1 3651   3.926   5.291   3.412  1.5646  0.5210  2.1332
 1215TIP3    H2 3652   3.832   5.176   3.386  0.4533  2.0472 -1.1174
 1216TIP3   OH2 3653   0.329   2.634   0.549 -0.3830 -0.2147 -0.7862
 1216TIP3    H1 3654   0.256   2.695   0.560 -0.7734 -0.6902 -0.6871
 1216TIP3    H2 3655   0.399   2.687   0.513  0.0667  0.8125  1.4256
 1217TIP3   OH2 3656   1.501   1.828   2.590 -0.1657 -0.5264  0.1144
 1217TIP3    H1 3657   1.580   1.795   2.633 -0.9827 -0.2058  1.9181
 1217TIP3    H2 3658   1.488   1.767   2.517  1.5323 -0.7913 -0.0315
 1218TIP3   OH2 3659   3.886   1.345   1.398 -0.3210  0.1365 -0.7136
 1218TIP3    H1 3660   3.973   1.314   1.372  0.4473  2.3636 -1.0730
 1218TIP3    H2 3661   3.888   1.344   1.493 -0.7044 -1.7561 -0.6833
 1219TIP3   OH2 3662   5.265   0.762   1.849  0.0721 -0.4897  0.2021
 1219TIP3    H1 3663   5.275   0.851   1.882 -2.5333  0.0662 -0.3072
 1219TIP3    H2 3664   5.259   0.772   1.754  0.3298 -1.3028  0.0886
 1220TIP3   OH2 3665   2.739   3.505   0.966  0.1759 -0.3749 -0.0493
 1220TIP3    H1 3666   2.820   3.454   0.966 -0.2472 -1.0824 -1.1479
 1220TIP3    H2 3667   2.670   3.441   0.986  0.0714  0.6881  3.8856
 1221TIP3   OH2 3668   2.919   0.489   4.055  0.3145  0.4168 -0.4611
 1221TIP3    H1 3669   2.858   0.429   4.012 -0.1254  1.0761 -0.7745
 1221TIP3    H2 3670   2.890   0.576   4.028 -0.6581  0.9472  2.0044
 1222TIP3   OH2 3671   3.590   0.794   3.422  0.0802  0.2801 -0.1743
 1222TIP3    H1 3672   3.619   0.795   3.331 -1.3872  0.5896 -0.6696
 1222TIP3    H2 3673   3.548   0.709   3.434  0.1853  0.2753  0.1957
 1223TIP3   OH2 3674   1.038   5.902   0.775 -0.0623 -0.0222 -0.1416
 1223TIP3    H1 3675   1.019   5.810   0.761 -1.5634  0.3350 -0.5513
 1223TIP3    H2 3676   0.968   5.933   0.832  0.7236  0.7510  0.4348
 1224TIP3   OH2 3677   5.877   5.289   1.929  0.6264  0.7660 -0.2409
 1224TIP3    H1 3678   5.819   5.220   1.899 -1.1056  0.3102  3.5955
 1224TIP3    H2 3679   5.961   5.270   1.887 -0.9695 -0.7254 -3.0773
 1225TIP3   OH2 3680   4.350   1.861   5.052  0.3438  0.2988 -0.3566
 1225TIP3    H1 3681   4.405   1.814   4.990 -0.6201 -0.7545 -0.4384
 1225TIP3    H2 3682   4.393   1.849   5.137  1.2997  1.1765 -0.6935
 1226TIP3   OH2 3683   2.353   0.325   3.632  0.0656  0.2681 -0.6537
 1226TIP3    H1 3684   2.430   0.274   3.657  2.3917  4.3677  1.6624
 1226TIP3    H2 3685   2.360   0.335   3.537  1.1532 -1.1493 -0.7526
 1227TIP3   OH2 3686   5.249   1.247   1.698 -0.0950  0.1022 -0.1132
 1227TIP3    H1 3687   5.192   1.272   1.771  1.3532  0.6026  0.8918
 1227TIP3    H2 3688   5.262   1.328   1.649 -0.3471 -0.0358 -0.4079
 1228TIP3   OH2 3689   4.329   1.234   0.114  0.0213 -0.0673  0.2919
 1228TIP3    H1 3690   4.336   1.265   0.024 -2.0350  0.7136  0.3523
 1228TIP3    H2 3691   4.360   1.144   0.110 -0.0831 -0.0672 -1.2017
 1229TIP3   OH2 3692   4.259   2.526   2.075  0.3702 -0.6026 -0.8604
 1229TIP3    H1 3693   4.307   2.471   2.013 -0.5091 -2.3657 -0.0397
 1229TIP3    H2 3694   4.173   2.538   2.034  0.1349 -0.9090 -0.4657
 1230TIP3   OH2 3695   0.820   3.911   4.244  0.3493 -0.8371 -0.1966
 1230TIP3    H1 3696   0.868   3.828   4.239 -0.1375 -1.1950  0.8302
 1230TIP3    H2 3697   0.887   3.975   4.270  0.7085 -0.9065 -0.9088
 1231TIP3   OH2 3698   2.877   5.864   2.816 -0.2519 -0.6399  0.1069
 1231TIP3    H1 3699   2.853   5.956   2.829 -1.2466 -0.9881  0.8345
 1231TIP3    H2 3700   2.803   5.815   2.850  0.5443 -1.7330  0.3118
 1232TIP3   OH2 3701   1.026   0.203   0.095  0.1001 -0.1022 -0.3759
 1232TIP3    H1 3702   1.057   0.155   0.018 -0.8010 -1.1196 -0.1304
 1232TIP3    H2 3703   1.026   0.137   0.165 -1.3319  0.1938 -0.0748
 1233TIP3   OH2 3704   2.702   5.324   3.265 -0.0291 -0.0809  0.0621
 1233TIP3    H1 3705   2.787   5.342   3.225 -0.9767  4.9543 -0.2991
 1233TIP3    H2 3706   2.715   5.341   3.359 -0.4636  0.1263  0.0893
 1234TIP3   OH2 3707   0.804   2.647   4.516 -0.1728  0.6117 -0.3633
 1234TIP3    H1 3708   0.723   2.605   4.543 -0.7503  1.6780 -0.3828
 1234TIP3    H2 3709   0.782   2.740   4.508  1.0418  0.9192 -0.3950
 1235TIP3   OH2 3710   2.511   3.497   2.311  0.5546 -0.2493 -0.2285
 1235TIP3    H1 3711   2.578   3.559   2.280 -0.5635  1.0460 -0.1699
 1235TIP3    H2 3712   2.465   3.471   2.231 -0.3892  0.7511 -0.0448
 1236TIP3   OH2 3713   2.381   2.246   1.887  0.0956 -0.1058  0.3686
 1236TIP3    H1 3714   2.470   2.265   1.858  0.1023 -1.6439 -0.7931
 1236TIP3    H2 3715   2.386   2.156   1.920 -0.9491 -0.0855  0.5940
 1237TIP3   OH2 3716   3.415   2.252   1.687  0.0590 -0.3939  0.2144
 1237TIP3    H1 3717   3.489   2.243   1.627  1.1744  0.0934  1.4552
 1237TIP3    H2 3718   3.447   2.216   1.770 -1.0320 -0.0075  0.8259
 1238TIP3   OH2 3719   4.535   4.134   3.506 -0.6702  0.5276  0.2146
 1238TIP3    H1 3720   4.605   4.185   3.466  0.3865  0.2698  1.6616
 1238TIP3    H2 3721   4.476   4.113   3.434  0.7551  0.7314 -1.0546
 1239TIP3   OH2 3722   2.816   5.906   1.611  0.6051  0.1856 -0.6917
 1239TIP3    H1 3723   2.828   5.952   1.528 -0.9690 -0.4908 -1.3386
 1239TIP3    H2 3724   2.827   5.973   1.678 -0.5380  1.2918 -1.5658
 1240TIP3   OH2 3725   2.006   3.764   3.598 -0.4345 -0.6546  0.5032
 1240TIP3    H1 3726   2.100   3.773   3.615 -0.5870  0.2046  0.9516
 1240TIP3    H2 3727   1.975   3.854   3.587 -1.5255 -0.8012  2.1117
 1241TIP3   OH2 3728   4.284   0.591   2.781 -0.3514  0.4630 -0.1405
 1241TIP3    H1 3729   4.228   0.646   2.727 -1.2523  0.4767  0.7809
 1241TIP3    H2 3730   4.225   0.522   2.814  0.6087 -0.6953 -0.7626
 1242TIP3   OH2 3731   6.045   1.743   4.418 -0.6636  0.1700  0.3451
 1242TIP3    H1 3732   6.027   1.650   4.404 -1.3564  0.2343  0.7491
 1242TIP3    H2 3733   5.962   1.786   4.399 -0.5185  0.6439  0.7588
 1243TIP3   OH2 3734   0.586   2.477   0.317 -0.1819  0.1387 -0.4096
 1243TIP3    H1 3735   0.541   2.427   0.386 -0.9800  1.7187  0.2548
 1243TIP3    H2 3736   0.531   2.465   0.240  0.8913 -1.9170 -0.9387
 1244TIP3   OH2 3737   6.255   3.468   2.700  0.7192 -0.2113  0.0468
 1244TIP3    H1 3738   6.268   3.560   2.726  1.5592  0.0684 -1.2759
 1244TIP3    H2 3739   6.324   3.451   2.636 -0.0789 -1.4620 -0.5195
 1245TIP3   OH2 3740   4.272   1.921   2.383  0.5169  0.4504  0.0345
 1245TIP3    H1 3741   4.194   1.976   2.385  0.2696  0.1349  2.6978
 1245TIP3    H2 3742   4.342   1.979   2.354 -0.1905  1.5084  0.3774
 1246TIP3   OH2 3743   5.891   3.662   0.695  0.4404  0.1443 -0.1952
 1246TIP3    H1 3744   5.926   3.645   0.608  1.4122  1.9436 -0.2130
 1246TIP3    H2 3745   5.841   3.743   0.685 -2.5144 -1.4664  0.1945
 1247TIP3   OH2 3746   5.932   0.266   2.769 -0.1949  0.2690 -0.7545
 1247TIP3    H1 3747   5.900   0.333   2.708  0.9564 -0.4929 -2.2754
 1247TIP3    H2 3748   6.019   0.296   2.795  0.3501 -0.6165 -1.4860
 1248TIP3   OH2 3749   5.144   2.396   1.492 -0.0198 -0.4065  0.0437
 1248TIP3    H1 3750   5.208   2.327   1.510  0.5330  0.0638 -0.0676
 1248TIP3    H2 3751   5.106   2.372   1.407  0.0030 -0.6963  0.1146
 1249TIP3   OH2 3752   0.173   0.023   0.633 -0.2589  0.1337  0.6687
 1249TIP3    H1 3753   0.082   0.050   0.641 -0.5213 -0.2980 -0.6056
 1249TIP3    H2 3754   0.215   0.055   0.712 -1.2747  1.3320  0.7418
 1250TIP3   OH2 3755   2.755   2.932   1.640  0.2256 -0.5938  0.0758
 1250TIP3    H1 3756   2.755   2.990   1.717 -0.8320 -0.5214  0.0359
 1250TIP3    H2 3757   2.687   2.867   1.659  0.4172 -0.9747 -0.5117
 1251TIP3   OH2 3758   0.563   2.936   3.353 -0.2701 -0.0618 -0.3312
 1251TIP3    H1 3759   0.594   2.974   3.435 -1.3810 -0.9540  0.5414
 1251TIP3    H2 3760   0.555   2.842   3.371 -0.4967 -0.2788 -1.4686
 1252TIP3   OH2 3761   5.718   4.924   0.268  0.1472 -0.1832  0.4821
 1252TIP3    H1 3762   5.690   5.015   0.274 -1.2022 -0.5505  0.2598
 1252TIP3    H2 3763   5.812   4.926   0.284  0.2432  1.3105 -0.0904
 1253TIP3   OH2 3764   1.263   0.411   2.100 -0.8516 -0.1710 -0.0947
 1253TIP3    H1 3765   1.259   0.505   2.116  0.7770 -0.3490  1.7723
 1253TIP3    H2 3766   1.244   0.371   2.185 -1.0726 -1.5181 -0.7488
 1254TIP3   OH2 3767   3.757   4.635   0.860  0.0915 -0.2418 -0.0695
 1254TIP3    H1 3768   3.832   4.577   0.850 -0.6415 -1.1824 -0.2724
 1254TIP3    H2 3769   3.757   4.689   0.781  0.3166 -0.5175 -0.2577
 1255TIP3   OH2 3770   5.815   0.859   4.602  0.4031  0.1955 -0.2969
 1255TIP3    H1 3771   5.835   0.935   4.656 -0.9200  2.5514 -2.8229
 1255TIP3    H2 3772   5.725   0.835   4.626  0.9639 -0.9147  0.7940
 1256TIP3   OH2 3773   6.320   3.270   2.860  0.4297 -0.1218  0.0192
 1256TIP3    H1 3774   6.340   3.201   2.797  0.5982  1.4881 -1.8013
 1256TIP3    H2 3775   6.286   3.342   2.806  0.3105  1.2352  1.8197
 1257TIP3   OH2 3776   3.789   5.070   4.460 -0.9553  0.1981  0.3395
 1257TIP3    H1 3777   3.710   5.075   4.407 -1.0299 -1.0808  0.2944
 1257TIP3    H2 3778   3.846   5.009   4.412 -0.7097 -0.3717  1.3278
 1258TIP3   OH2 3779   1.833   1.639   1.334 -0.1596  0.4146 -0.1563
 1258TIP3    H1 3780   1.796   1.559   1.371  0.2941 -0.7547 -2.0748
 1258TIP3    H2 3781   1.894   1.670   1.401 -1.2346 -0.1331  1.1304
 1259TIP3   OH2 3782   0.500   5.330   3.150 -0.3042 -0.0864 -0.0404
 1259TIP3    H1 3783   0.423   5.368   3.192 -0.3716  1.3734 -1.4222
 1259TIP3    H2 3784   0.468   5.292   3.068  0.5100  1.1257 -0.9588
 1260TIP3   OH2 3785   4.194   4.857   0.966  0.0160 -0.0778 -0.2052
 1260TIP3    H1 3786   4.128   4.926   0.956  0.4773  0.5366  0.8119
 1260TIP3    H2 3787   4.275   4.904   0.987  0.3056 -0.9184  0.6593
 1261TIP3   OH2 3788   1.840   1.207   4.211  0.2907  0.2682  0.8411
 1261TIP3    H1 3789   1.820   1.172   4.297  0.7399  0.1902  0.9163
 1261TIP3    H2 3790   1.876   1.133   4.162 -0.8418  0.0701  0.2699
 1262TIP3   OH2 3791   1.870   4.353   0.337 -0.2412  0.0531  0.2979
 1262TIP3    H1 3792   1.946   4.302   0.307  0.1430  0.5481  0.4172
 1262TIP3    H2 3793   1.807   4.346   0.265  1.1248  2.2124 -1.2330
 1263TIP3   OH2 3794   4.473   5.738   0.191 -0.0857 -0.2552 -0.1505
 1263TIP3    H1 3795   4.564   5.742   0.161  0.8585  0.4159  2.5256
 1263TIP3    H2 3796   4.476   5.773   0.280 -3.3184  1.7752 -0.6834
 1264TIP3   OH2 3797   4.350   4.014   3.699 -0.4046  0.0856 -0.2010
 1264TIP3    H1 3798   4.410   4.014   3.624 -1.2351 -2.3826 -0.9876
 1264TIP3    H2 3799   4.403   4.044   3.772  0.4837  2.4645 -1.6938
 1265TIP3   OH2 3800   5.406   4.320   2.030  0.0985 -0.7656  0.6023
 1265TIP3    H1 3801   5.483   4.296   2.081  0.7656 -1.4548 -0.6930
 1265TIP3    H2 3802   5.440   4.374   1.958 -0.9534  1.1229  1.4313
 1266TIP3   OH2 3803   5.883   5.398   2.185 -0.3499 -0.7556 -0.4710
 1266TIP3    H1 3804   5.859   5.359   2.101 -1.3759  2.6092 -1.9291
 1266TIP3    H2 3805   5.803   5.392   2.237 -0.9675  0.4391 -1.2068
 1267TIP3   OH2 3806   2.976   0.128   0.610  0.4964 -0.7463 -0.3350
 1267TIP3    H1 3807   3.012   0.157   0.526  1.1288 -0.8711 -0.1156
 1267TIP3    H2 3808   2.991   0.034   0.612  2.8419 -0.4440  0.9689
 1268TIP3   OH2 3809   5.197   3.801   0.592 -0.4622 -0.5609 -0.0777
 1268TIP3    H1 3810   5.205   3.884   0.547  1.7847 -0.5292  0.2532
 1268TIP3    H2 3811   5.145   3.746   0.534  1.8687 -0.3636 -2.5299
 1269TIP3   OH2 3812   2.167   3.738   2.168  0.4280  0.2052 -0.6521
 1269TIP3    H1 3813   2.191   3.651   2.135 -1.9454 -0.8439  0.0760
 1269TIP3    H2 3814   2.203   3.799   2.105  1.8414 -1.3340 -1.4174
 1270TIP3   OH2 3815   1.485   3.910   2.256 -0.2281 -0.1543  0.2216
 1270TIP3    H1 3816   1.564   3.902   2.310  0.6065  0.5136 -0.8487
 1270TIP3    H2 3817   1.487   3.834   2.198  0.1364  0.3253 -0.4149
 1271TIP3   OH2 3818   2.812   5.903   2.472  0.2802 -0.3397  0.5695
 1271TIP3    H1 3819   2.718   5.914   2.488  0.2528  0.1312  0.1002
 1271TIP3    H2 3820   2.822   5.810   2.453  0.4767 -1.2634  4.4022
 1272TIP3   OH2 3821   0.769   2.770   0.749  0.0138 -0.9139  0.3695
 1272TIP3    H1 3822   0.785   2.864   0.764 -0.3988 -0.7027 -0.4524
 1272TIP3    H2 3823   0.855   2.736   0.722  0.1522 -0.7605  0.6139
 1273TIP3   OH2 3824   0.571   4.410   2.653  0.1888 -0.2552 -0.1983
 1273TIP3    H1 3825   0.529   4.461   2.723 -1.8806 -1.7181 -0.2972
 1273TIP3    H2 3826   0.661   4.396   2.684  1.2596  4.1575 -0.5952
 1274TIP3   OH2 3827   3.957   3.942   4.159 -0.1368 -0.1131  0.2774
 1274TIP3    H1 3828   3.877   3.968   4.114  0.4677  0.1689 -0.6578
 1274TIP3    H2 3829   3.996   3.876   4.103  1.2275  1.0812 -0.2604
 1275TIP3   OH2 3830   6.063   5.710   4.707 -0.1731 -0.5324 -0.2207
 1275TIP3    H1 3831   6.129   5.736   4.771 -1.1155  0.0279  0.5479
 1275TIP3    H2 3832   6.033   5.625   4.738  0.0824 -0.7291 -0.5009
 1276TIP3   OH2 3833   0.592   2.652   3.411 -0.0636  0.1499 -0.7076
 1276TIP3    H1 3834   0.642   2.629   3.488  0.0547  0.5307 -0.6681
 1276TIP3    H2 3835   0.501   2.649   3.439  0.0052  0.8267 -0.4042
 1277TIP3   OH2 3836   5.534   0.998   4.314 -0.1601 -0.1067  0.0825
 1277TIP3    H1 3837   5.464   0.942   4.346 -0.1359 -0.5176 -0.5808
 1277TIP3    H2 3838   5.489   1.068   4.266 -0.2220  0.7475  1.3404
 1278TIP3   OH2 3839   3.043   2.808   3.113 -0.0988 -0.6526 -0.0176
 1278TIP3    H1 3840   3.035   2.723   3.070 -1.1106  0.3379 -1.9047
 1278TIP3    H2 3841   2.956   2.827   3.146  0.1267 -0.3403  0.4129
 1279TIP3   OH2 3842   5.564   2.806   3.812 -0.0872  0.0421 -0.4858
 1279TIP3    H1 3843   5.659   2.812   3.803 -0.2093  3.8275 -0.8904
 1279TIP3    H2 3844   5.535   2.770   3.729  0.8871  2.2502 -1.8830
 1280TIP3   OH2 3845   1.009   3.015   1.507 -0.3341 -0.0707 -0.0498
 1280TIP3    H1 3846   0.948   2.956   1.464  0.2319 -0.2493 -0.6286
 1280TIP3    H2 3847   1.086   2.961   1.525 -0.6218 -0.0393  1.3531
 1281TIP3   OH2 3848   2.885   0.532   1.009 -0.7238 -0.1466 -0.1224
 1281TIP3    H1 3849   2.953   0.496   0.952 -0.5061  0.5080 -0.2947
 1281TIP3    H2 3850   2.934   0.571   1.082 -0.9965 -0.9148  0.4803
 1282TIP3   OH2 3851   2.146   0.792   3.522 -0.7511  0.1413 -0.6854
 1282TIP3    H1 3852   2.117   0.882   3.510 -0.1056  0.3598 -0.6771
 1282TIP3    H2 3853   2.066   0.740   3.519 -1.4504  0.9361  1.8299
 1283TIP3   OH2 3854   6.364   2.414   3.006 -0.2981  0.2539 -0.0992
 1283TIP3    H1 3855   6.283   2.363   2.997 -0.2436  0.1541 -0.0368
 1283TIP3    H2 3856   6.357   2.455   3.092  0.1156 -0.4762  0.2984
 1284TIP3   OH2 3857   4.086   3.947   3.743 -0.1316  0.2299 -0.5434
 1284TIP3    H1 3858   4.157   3.986   3.693 -0.5309  0.2626 -1.0944
 1284TIP3    H2 3859   4.101   3.852   3.736  1.4093  0.2300  1.6200
 1285TIP3   OH2 3860   5.255   1.141   3.475  0.3675  0.6997  0.2128
 1285TIP3    H1 3861   5.328   1.114   3.530 -0.5994  1.4147  1.9456
 1285TIP3    H2 3862   5.192   1.069   3.482  0.5458  0.4519 -0.6091
 1286TIP3   OH2 3863   3.973   4.498   0.795 -0.1243  0.2251 -0.5034
 1286TIP3    H1 3864   3.993   4.483   0.702 -0.7068 -2.0650 -0.2971
 1286TIP3    H2 3865   4.052   4.541   0.829 -0.4141  2.3829 -2.2974
 1287TIP3   OH2 3866   0.518   0.432   1.919 -0.1866  0.2624 -0.3006
 1287TIP3    H1 3867   0.473   0.516   1.924 -2.2828 -0.8365  1.3530
 1287TIP3    H2 3868   0.452   0.371   1.885  1.1507 -0.8121 -1.0925
 1288TIP3   OH2 3869   0.233   5.556   0.708  0.1268  0.5133  0.3431
 1288TIP3    H1 3870   0.178   5.621   0.664  0.9930  1.9249  1.2953
 1288TIP3    H2 3871   0.239   5.587   0.798 -0.6069 -1.6706  1.2124
 1289TIP3   OH2 3872   0.572   4.970   1.647 -0.0149  0.1261 -0.3952
 1289TIP3    H1 3873   0.506   5.016   1.595 -0.4932  0.5433  0.5749
 1289TIP3    H2 3874   0.563   5.006   1.735  0.4940 -0.8953  0.0832
 1290TIP3   OH2 3875   2.493   4.779   0.185  0.2693 -0.2834 -0.4153
 1290TIP3    H1 3876   2.411   4.743   0.152 -1.7828  0.6739  3.0666
 1290TIP3    H2 3877   2.536   4.706   0.229 -1.4938  0.1956  2.3793
 1291TIP3   OH2 3878   1.070   0.140   3.730 -0.4822  0.0804  0.5330
 1291TIP3    H1 3879   0.986   0.138   3.684 -0.0466  0.1500 -0.2900
 1291TIP3    H2 3880   1.106   0.052   3.716 -0.2067  0.2032  0.4766
 1292TIP3   OH2 3881   3.787   2.895   2.668  0.4869  0.1226  0.4926
 1292TIP3    H1 3882   3.871   2.879   2.710 -0.2521 -1.1547  1.5507
 1292TIP3    H2 3883   3.728   2.830   2.706 -1.3133  1.8253  0.7552
 1293TIP3   OH2 3884   1.076   2.801   1.227 -0.2228  0.2522 -0.5350
 1293TIP3    H1 3885   0.983   2.816   1.244 -0.3132  0.1740 -0.9455
 1293TIP3    H2 3886   1.078   2.727   1.167  0.0176  1.3217 -1.8869
 1294TIP3   OH2 3887   2.257   2.477   2.463  0.2832 -0.6791 -0.3782
 1294TIP3    H1 3888   2.164   2.474   2.485 -0.0980 -0.4345 -1.8166
 1294TIP3    H2 3889   2.283   2.567   2.482  0.3407 -0.8645  0.4359
 1295TIP3   OH2 3890   2.870   3.395   2.567 -0.1700  0.4809  0.1292
 1295TIP3    H1 3891   2.864   3.480   2.523  1.9115  1.3832  1.4411
 1295TIP3    H2 3892   2.794   3.392   2.625 -0.8439  0.9486 -0.7169
 1296TIP3   OH2 3893   1.366   5.873   1.154 -0.5462 -0.2851  0.5129
 1296TIP3    H1 3894   1.369   5.777   1.151  0.7744 -0.2658 -2.5998
 1296TIP3    H2 3895   1.327   5.898   1.071  0.9008  1.9130  0.4347
 1297TIP3   OH2 3896   0.972   5.192   0.654  0.2638 -0.4449  0.2029
 1297TIP3    H1 3897   0.981   5.104   0.617 -1.2984 -0.5682  0.0221
 1297TIP3    H2 3898   0.912   5.237   0.594 -0.4112  0.1278  1.2719
 1298TIP3   OH2 3899   4.369   1.316   3.229  0.0866  0.1552 -0.1959
 1298TIP3    H1 3900   4.362   1.229   3.269  0.3110  0.9221  1.6106
 1298TIP3    H2 3901   4.428   1.364   3.286 -0.0507  1.5209 -1.1457
 1299TIP3   OH2 3902   3.099   4.097   2.863 -0.5641 -0.0635 -0.4186
 1299TIP3    H1 3903   3.101   4.002   2.865  1.9259 -0.0772 -0.8639
 1299TIP3    H2 3904   3.034   4.119   2.797  0.4654 -1.5317 -1.9870
 1300TIP3   OH2 3905   2.943   4.666   3.380  0.5858  0.4375  0.1878
 1300TIP3    H1 3906   2.959   4.702   3.293 -0.3461 -0.1143 -0.2298
 1300TIP3    H2 3907   2.937   4.571   3.366  2.0503  0.1737  1.1203
 1301TIP3   OH2 3908   1.543   2.549   1.429  0.4456  0.3883  0.2488
 1301TIP3    H1 3909   1.567   2.476   1.486  0.6998  0.0398 -0.2969
 1301TIP3    H2 3910   1.627   2.585   1.400  0.4050 -1.0649 -1.9624
 1302TIP3   OH2 3911   0.251   0.948   4.262  0.2703  0.3116  0.1589
 1302TIP3    H1 3912   0.325   0.959   4.321  0.9832  0.0537 -0.6549
 1302TIP3    H2 3913   0.180   0.998   4.302  1.0891  1.1548  0.5956
 1303TIP3   OH2 3914   4.302   3.835   1.654 -0.0837  0.3192  0.1044
 1303TIP3    H1 3915   4.389   3.874   1.650 -0.1761  0.5046 -0.1411
 1303TIP3    H2 3916   4.260   3.862   1.572  1.1181 -3.2537 -1.9230
 1304TIP3   OH2 3917   3.663   1.254   2.689 -0.2167  0.0517 -0.2642
 1304TIP3    H1 3918   3.655   1.350   2.696 -1.9994 -0.1808  2.4965
 1304TIP3    H2 3919   3.582   1.227   2.645  0.6485 -0.1998 -1.7761
 1305TIP3   OH2 3920   6.193   3.936   3.082  0.8297 -0.0105 -0.0918
 1305TIP3    H1 3921   6.177   3.974   3.168  0.2260  0.7796 -0.5402
 1305TIP3    H2 3922   6.271   3.982   3.050  0.1253  0.8429 -0.6162
 1306TIP3   OH2 3923   6.069   2.250   0.472  0.5091  0.5315  0.7979
 1306TIP3    H1 3924   6.118   2.281   0.396 -0.2743  0.7101  0.3481
 1306TIP3    H2 3925   6.111   2.293   0.547  0.0155  2.0110  0.2695
 1307TIP3   OH2 3926   6.251   1.650   3.865 -0.1353 -0.0469 -0.5108
 1307TIP3    H1 3927   6.301   1.731   3.876  0.1907 -0.3386  0.2087
 1307TIP3    H2 3928   6.208   1.660   3.780 -0.7655  1.2421 -0.0662
 1308TIP3   OH2 3929   1.991   4.380   4.918 -0.1114 -0.3061 -0.2177
 1308TIP3    H1 3930   2.079   4.388   4.879  0.3799 -0.2766  0.8634
 1308TIP3    H2 3931   1.967   4.289   4.902  0.1218 -0.3210 -0.5037
 1309TIP3   OH2 3932   0.450   3.078   2.682  0.0261 -0.5069  0.0536
 1309TIP3    H1 3933   0.405   3.020   2.744 -0.3650 -0.7417 -0.4468
 1309TIP3    H2 3934   0.531   3.103   2.728  0.7166 -2.2598 -0.0997
 1310TIP3   OH2 3935   2.886   1.659   1.158 -0.1756  0.0600 -0.4233
 1310TIP3    H1 3936   2.857   1.621   1.242  1.2377 -1.9307 -0.7397
 1310TIP3    H2 3937   2.806   1.668   1.107 -0.8191 -0.8140  0.3718
 1311TIP3   OH2 3938   5.668   1.766   3.855  0.1284 -0.1918 -0.5400
 1311TIP3    H1 3939   5.584   1.736   3.821 -0.0230 -1.6981  1.0378
 1311TIP3    H2 3940   5.726   1.691   3.847  0.0834 -0.6372  2.3700
 1312TIP3   OH2 3941   3.617   3.670   2.930 -0.5020  0.6063 -0.0556
 1312TIP3    H1 3942   3.665   3.604   2.980 -1.2561 -1.2513 -1.6959
 1312TIP3    H2 3943   3.620   3.748   2.986  2.7196  0.0474  0.7742
 1313TIP3   OH2 3944   4.573   5.143   1.940  0.9018  0.1870  0.1041
 1313TIP3    H1 3945   4.578   5.082   2.013  0.5775  0.2238  0.1614
 1313TIP3    H2 3946   4.512   5.102   1.878 -2.3958  2.0823  1.7970
 1314TIP3   OH2 3947   2.575   5.663   0.176  0.3895  0.2151  0.6398
 1314TIP3    H1 3948   2.545   5.754   0.171 -0.0429  0.0421 -0.0876
 1314TIP3    H2 3949   2.558   5.637   0.266 -1.0064  0.3541  0.4460
 1315TIP3   OH2 3950   5.438   0.278   2.918  0.1869 -0.5236 -0.3357
 1315TIP3    H1 3951   5.360   0.236   2.954 -0.6147 -0.5835 -2.0319
 1315TIP3    H2 3952   5.468   0.219   2.849  2.7429 -1.3182  1.3217
 1316TIP3   OH2 3953   2.834   3.126   5.095 -0.2401 -0.2199  0.1123
 1316TIP3    H1 3954   2.854   3.090   5.181 -1.6274  0.7732  0.8855
 1316TIP3    H2 3955   2.896   3.082   5.036  1.1841 -0.4387  1.6876
 1317TIP3   OH2 3956   2.950   1.991   3.802  0.4540  0.0821 -0.3226
 1317TIP3    H1 3957   2.863   2.010   3.838  1.2507  2.3767  0.5492
 1317TIP3    H2 3958   2.949   2.032   3.715  0.4351 -0.5242 -0.6111
 1318TIP3   OH2 3959   3.348   3.181   2.217  0.3342  0.2510  0.3624
 1318TIP3    H1 3960   3.420   3.127   2.185  0.3723  0.6647 -0.2649
 1318TIP3    H2 3961   3.274   3.159   2.160 -0.0173 -0.0986  0.9374
 1319TIP3   OH2 3962   4.091   1.976   5.111 -0.0078  0.2172 -0.2670
 1319TIP3    H1 3963   4.121   2.067   5.106 -0.5353  0.4704  0.9261
 1319TIP3    H2 3964   4.168   1.924   5.086 -0.0957  1.0094 -2.3293
 1320TIP3   OH2 3965   4.541   3.046   0.338 -0.2320  0.0286  0.4275
 1320TIP3    H1 3966   4.511   3.116   0.396 -0.7240 -0.4850  0.8017
 1320TIP3    H2 3967   4.558   2.972   0.397  0.7195 -0.0263  0.0881
 1321TIP3   OH2 3968   0.817   1.306   2.893 -0.2093  0.1597 -0.2632
 1321TIP3    H1 3969   0.876   1.296   2.968 -1.2221 -1.1704  0.3943
 1321TIP3    H2 3970   0.761   1.229   2.897 -1.1713  0.7688 -1.6111
 1322TIP3   OH2 3971   5.159   4.580   1.228  0.0169 -0.4611  0.3267
 1322TIP3    H1 3972   5.212   4.535   1.161  0.3675  1.0413 -0.4498
 1322TIP3    H2 3973   5.193   4.547   1.311  1.6114 -0.1792 -0.1744
 1323TIP3   OH2 3974   0.079   2.754   1.637  0.2076 -0.2385 -0.1576
 1323TIP3    H1 3975   0.021   2.695   1.589  0.6673 -0.8444  0.0266
 1323TIP3    H2 3976   0.043   2.842   1.620 -0.8845 -0.6129  0.1140
 1324TIP3   OH2 3977   3.660   2.413   4.909 -0.0817  0.0597  0.1309
 1324TIP3    H1 3978   3.658   2.503   4.940  1.0370  0.2886 -0.4086
 1324TIP3    H2 3979   3.735   2.374   4.954  0.3605 -0.1554 -0.7527
 1325TIP3   OH2 3980   5.390   2.796   1.531 -0.2895 -0.4356  0.3240
 1325TIP3    H1 3981   5.477   2.828   1.505 -0.3440 -0.5850 -0.0542
 1325TIP3    H2 3982   5.408   2.728   1.596 -0.0539 -1.3011 -0.6089
 1326TIP3   OH2 3983   5.337   5.966   4.078 -0.1274  0.2896  0.0292
 1326TIP3    H1 3984   5.399   5.935   4.012 -0.4420  1.8771 -1.0770
 1326TIP3    H2 3985   5.387   5.963   4.160  1.0876  0.5686 -0.6706
 1327TIP3   OH2 3986   6.247   4.039   3.354  0.2264 -0.5828  0.3051
 1327TIP3    H1 3987   6.163   4.040   3.398 -0.3368  0.5750 -0.7407
 1327TIP3    H2 3988   6.307   4.081   3.416 -0.6307  1.3704 -0.0983
 1328TIP3   OH2 3989   1.224   2.812   2.188  0.3751  0.2923 -0.2806
 1328TIP3    H1 3990   1.202   2.764   2.268 -3.0895  3.0390  0.7044
 1328TIP3    H2 3991   1.274   2.887   2.219  1.1268  0.1162 -1.0556
 1329TIP3   OH2 3992   0.713   3.535   4.412  0.6754 -0.0810  0.4708
 1329TIP3    H1 3993   0.623   3.511   4.434  0.5895  1.1962  1.6408
 1329TIP3    H2 3994   0.712   3.630   4.405  2.2125  0.1029  2.0334
 1330TIP3   OH2 3995   4.098   3.093   2.451  0.1854 -0.1411  0.1428
 1330TIP3    H1 3996   4.045   3.172   2.435 -1.3259 -1.0843  0.2635
 1330TIP3    H2 3997   4.039   3.021   2.431  1.3015 -1.2628  0.7769
 1331TIP3   OH2 3998   3.989  -0.018   4.392  0.1860 -0.2595  0.2177
 1331TIP3    H1 3999   4.046   0.008   4.319  0.2531  0.1757  0.4210
 1331TIP3    H2 4000   3.917   0.045   4.390  0.6944  0.3754  1.1260
 1332TIP3   OH2 4001   1.470   0.842   3.789 -0.0873  0.1016 -0.2125
 1332TIP3    H1 4002   1.476   0.799   3.704  0.4816  0.1459 -0.1960
 1332TIP3    H2 4003   1.490   0.773   3.853  0.6755  0.3430 -0.1785
 1333TIP3   OH2 4004   2.236   4.539   1.335  0.1315  0.0029 -0.3368
 1333TIP3    H1 4005   2.174   4.551   1.407 -0.0799 -1.2162 -0.2794
 1333TIP3    H2 4006   2.318   4.517   1.379  0.4917  1.1470 -0.4262
 1334TIP3   OH2 4007   1.063   4.305   2.184 -0.1512  0.4111 -0.3894
 1334TIP3    H1 4008   1.072   4.352   2.266 -0.6038 -0.7990  0.3746
 1334TIP3    H2 4009   1.149   4.267   2.168  0.0104  0.8717 -0.6201
 1335TIP3   OH2 4010   2.765   1.164   1.127 -0.7779  0.2308  0.1392
 1335TIP3    H1 4011   2.758   1.106   1.051 -1.9688 -0.3898  0.6875
 1335TIP3    H2 4012   2.692   1.225   1.117  0.4335  1.6456 -0.4052
 1336TIP3   OH2 4013   0.437   4.335   3.453 -0.0505  0.0264 -0.0789
 1336TIP3    H1 4014   0.427   4.359   3.361  0.2173  0.4946  0.0083
 1336TIP3    H2 4015   0.349   4.340   3.489  0.1432  2.1509  0.2281
 1337TIP3   OH2 4016   1.036   4.915   3.944 -0.2521 -0.0707  0.3261
 1337TIP3    H1 4017   1.042   4.824   3.915 -0.1793 -0.1152  0.4789
 1337TIP3    H2 4018   0.951   4.921   3.986  0.2054 -0.3605  1.3111
 1338TIP3   OH2 4019   2.592   3.233   1.039  0.0160 -0.5080  0.5245
 1338TIP3    H1 4020   2.564   3.278   1.118  1.2166  1.3868 -0.0494
 1338TIP3    H2 4021   2.513   3.190   1.006 -0.9015  0.1687  1.7662
 1339TIP3   OH2 4022   5.100   3.844   1.887  0.6003 -0.4871 -0.2007
 1339TIP3    H1 4023   5.092   3.781   1.815  1.2974 -0.6764 -0.1206
 1339TIP3    H2 4024   5.177   3.815   1.936  0.2135 -0.2807  0.5480
 1340TIP3   OH2 4025   0.762   4.547   0.819 -0.1757 -0.5147  0.1306
 1340TIP3    H1 4026   0.762   4.626   0.764 -2.5184 -2.3545 -2.7787
 1340TIP3    H2 4027   0.847   4.506   0.801  0.2105  0.2861  0.0568
 1341TIP3   OH2 4028   3.428   5.546   4.885  0.2819 -0.1612 -0.0957
 1341TIP3    H1 4029   3.511   5.522   4.926  0.3342 -1.1820 -0.7544
 1341TIP3    H2 4030   3.434   5.641   4.873  0.8371 -0.0422  0.9577
 1342TIP3   OH2 4031   3.844   3.460   3.572 -0.4455  0.1246 -0.3440
 1342TIP3    H1 4032   3.850   3.375   3.529 -1.0494 -0.4901  0.7522
 1342TIP3    H2 4033   3.764   3.500   3.536 -0.8397 -0.3025  0.0460
 1343TIP3   OH2 4034   5.363   4.163   0.966  0.1819  0.0174 -0.5737
 1343TIP3    H1 4035   5.441   4.177   0.914  1.7189 -1.0030  1.3080
 1343TIP3    H2 4036   5.295   4.140   0.903  1.0630  2.0355 -2.3663
 1344TIP3   OH2 4037   1.400   0.646   5.126  0.0476  0.0633  0.8076
 1344TIP3    H1 4038   1.410   0.581   5.056 -0.8501  1.4646 -0.6922
 1344TIP3    H2 4039   1.306   0.665   5.127  0.1844  0.7716  1.7561
 1345TIP3   OH2 4040   2.535   3.687   2.738  0.2671  0.4284 -0.0334
 1345TIP3    H1 4041   2.456   3.699   2.685  0.0988 -2.0607 -0.4780
 1345TIP3    H2 4042   2.600   3.746   2.699 -0.8261  1.1291 -0.8361
 1346TIP3   OH2 4043   6.100   4.531   3.021 -0.1517 -0.6694  0.2764
 1346TIP3    H1 4044   6.125   4.621   3.001 -0.9916 -0.7302 -1.1576
 1346TIP3    H2 4045   6.021   4.540   3.074  0.2865 -0.5710  0.9366
 1347TIP3   OH2 4046   4.878   3.478   2.432 -0.4672  0.4059 -0.1917
 1347TIP3    H1 4047   4.796   3.494   2.480 -0.3692  1.3860 -0.3351
 1347TIP3    H2 4048   4.934   3.552   2.455  0.3052 -0.1436 -0.2755
 1348TIP3   OH2 4049   0.602   0.766   2.158  0.2878  0.5407 -0.2988
 1348TIP3    H1 4050   0.573   0.827   2.091  0.3225  0.4399 -0.4068
 1348TIP3    H2 4051   0.657   0.818   2.217  0.9091  0.4600 -0.7934
 1349TIP3   OH2 4052   5.724   5.179   3.109 -0.8455  0.6983 -0.2276
 1349TIP3    H1 4053   5.764   5.265   3.103  1.1912 -0.0908  0.8924
 1349TIP3    H2 4054   5.631   5.196   3.122 -0.6746  2.6701 -1.2523
 1350TIP3   OH2 4055   4.898   1.211   0.731 -0.0164  0.3674  0.4324
 1350TIP3    H1 4056   4.840   1.165   0.792 -0.0011 -0.2073  0.0146
 1350TIP3    H2 4057   4.893   1.161   0.650  4.3646 -2.3796  1.5280
 1351TIP3   OH2 4058   5.194   5.064   4.444  0.1366  0.3049 -0.0804
 1351TIP3    H1 4059   5.191   5.157   4.464  0.5503  0.2945  0.0383
 1351TIP3    H2 4060   5.108   5.044   4.407 -0.0361  0.6798  0.1210
 1352TIP3   OH2 4061   5.893   4.458   2.805  0.2485  0.1368  0.5139
 1352TIP3    H1 4062   5.979   4.437   2.842  0.2859 -1.3173 -0.3480
 1352TIP3    H2 4063   5.911   4.524   2.738  0.7981 -0.6688 -0.1420
 1353TIP3   OH2 4064   4.179   4.000   4.288 -0.2414 -0.3075  0.0068
 1353TIP3    H1 4065   4.096   3.973   4.250 -0.6683  0.9981 -0.0461
 1353TIP3    H2 4066   4.158   4.021   4.379 -0.1986  0.9437 -0.2521
 1354TIP3   OH2 4067   1.646   2.554   0.267  0.1152 -0.3013  0.2537
 1354TIP3    H1 4068   1.689   2.596   0.193  0.6792 -0.5390  0.4362
 1354TIP3    H2 4069   1.708   2.485   0.293 -0.1781 -0.3531  0.8068
 1355TIP3   OH2 4070   5.887   1.157   3.939  0.1706  0.4186  0.1693
 1355TIP3    H1 4071   5.852   1.074   3.971 -0.6399  0.6199 -0.1716
 1355TIP3    H2 4072   5.955   1.180   4.002 -0.2373 -0.0422  0.7897
 1356TIP3   OH2 4073   4.917   1.638   0.198 -0.8614 -0.0780  0.1059
 1356TIP3    H1 4074   4.862   1.691   0.255 -0.1997  1.6277 -0.7830
 1356TIP3    H2 4075   4.855   1.591   0.142 -1.4404  0.6999  0.0802
 1357TIP3   OH2 4076   6.334   1.516   0.240 -0.4839  0.5145 -0.0485
 1357TIP3    H1 4077   6.260   1.545   0.188 -0.2805  1.3856  0.1409
 1357TIP3    H2 4078   6.305   1.433   0.278 -1.9819  1.5917  1.2994
 1358TIP3   OH2 4079   4.814   4.809   3.890 -0.2666 -0.2426 -0.1845
 1358TIP3    H1 4080   4.784   4.723   3.859  0.2276 -0.6903  0.5494
 1358TIP3    H2 4081   4.736   4.850   3.926 -1.0881  0.6791 -2.7658
 1359TIP3   OH2 4082   4.256   5.510   2.466  0.3290 -0.1130  0.0460
 1359TIP3    H1 4083   4.242   5.521   2.371  1.1403  0.6694  0.0035
 1359TIP3    H2 4084   4.346   5.536   2.480  0.8373 -2.0672  0.7686
 1360TIP3   OH2 4085   3.135   5.205   2.008 -0.4185  0.0397  0.3998
 1360TIP3    H1 4086   3.057   5.243   1.969  0.2392  0.7016 -0.2973
 1360TIP3    H2 4087   3.206   5.265   1.985  0.7884 -1.8974 -1.2880
 1361TIP3   OH2 4088   4.536   4.476   2.275 -0.2323 -0.5047 -0.1868
 1361TIP3    H1 4089   4.577   4.515   2.198 -0.8745  0.5621 -0.0018
 1361TIP3    H2 4090   4.490   4.399   2.242 -1.2172  0.4162 -1.0339
 1362TIP3   OH2 4091   2.888   0.308   1.446  0.7738 -0.1310 -0.2604
 1362TIP3    H1 4092   2.850   0.337   1.529 -0.3276 -0.1676 -0.7427
 1362TIP3    H2 4093   2.844   0.225   1.427  1.2497 -0.2810 -0.7237
 1363TIP3   OH2 4094   5.994   1.494   1.408 -0.5032 -0.6276 -0.0351
 1363TIP3    H1 4095   5.949   1.416   1.440  0.5724 -0.5709  1.7010
 1363TIP3    H2 4096   6.070   1.460   1.360 -0.6937 -0.6623 -0.3146
 1364TIP3   OH2 4097   6.121   0.323   5.107 -0.2668 -0.6200  0.0337
 1364TIP3    H1 4098   6.211   0.295   5.094 -0.4280 -0.5211 -1.5413
 1364TIP3    H2 4099   6.125   0.387   5.179  0.5211 -2.3880  1.6307
 1365TIP3   OH2 4100   5.025   1.856   0.764 -0.0588 -0.3794  0.4459
 1365TIP3    H1 4101   5.076   1.848   0.844  1.0888 -1.4404 -0.3520
 1365TIP3    H2 4102   5.084   1.897   0.701  0.2069 -2.4377 -0.7639
 1366TIP3   OH2 4103   0.233   4.796   0.339 -0.3921  0.1447 -0.6009
 1366TIP3    H1 4104   0.177   4.866   0.305 -0.4198  0.9585  1.0209
 1366TIP3    H2 4105   0.187   4.765   0.417  0.4646 -0.4976 -0.3378
 1367TIP3   OH2 4106   4.496   0.072   0.949  0.1982  0.4740 -0.3243
 1367TIP3    H1 4107   4.492   0.011   0.875  2.2393 -0.5897  0.3819
 1367TIP3    H2 4108   4.480   0.158   0.910 -0.0469 -0.2005 -1.7759
 1368TIP3   OH2 4109   2.950   5.400   1.964  0.1367 -0.3365 -0.5625
 1368TIP3    H1 4110   2.864   5.441   1.957  0.3212  0.3480  0.8945
 1368TIP3    H2 4111   2.976   5.383   1.873 -1.1245  0.2966 -1.0589
 1369TIP3   OH2 4112   5.481   0.973   5.069 -0.1298 -0.5152  0.5249
 1369TIP3    H1 4113   5.425   1.016   5.134  0.1670  0.3230  0.2414
 1369TIP3    H2 4114   5.525   1.045   5.024  0.6003 -1.1297  0.2248
 1370TIP3   OH2 4115   5.039   3.037   2.486  0.3876  0.4227 -0.1256
 1370TIP3    H1 4116   5.097   2.970   2.522  0.5745  1.6015  1.8810
 1370TIP3    H2 4117   5.070   3.048   2.396  2.4282  0.0620  0.4792
 1371TIP3   OH2 4118   5.901   1.789   2.845  0.3606 -0.4696 -0.4510
 1371TIP3    H1 4119   5.933   1.719   2.788  0.1018  0.5493 -1.8986
 1371TIP3    H2 4120   5.829   1.748   2.894  1.6329 -1.8072  0.3520
 1372TIP3   OH2 4121   6.257   3.954   1.995 -0.2564 -0.6251  0.3115
 1372TIP3    H1 4122   6.280   4.028   2.051  1.8078 -0.6918 -0.3631
 1372TIP3    H2 4123   6.341   3.916   1.969 -1.2113 -1.9846 -0.9796
 1373TIP3   OH2 4124   3.011   2.326   0.533  0.4266  0.1088 -0.3675
 1373TIP3    H1 4125   3.027   2.364   0.619  1.7672  2.1864 -1.4348
 1373TIP3    H2 4126   3.098   2.309   0.497 -0.0915 -0.2566 -1.4874
 1374TIP3   OH2 4127   6.046   5.189   0.416  0.0244  0.7469 -0.2654
 1374TIP3    H1 4128   6.016   5.100   0.400  0.1722  0.6687 -0.1182
 1374TIP3    H2 4129   6.135   5.192   0.380  0.0786  0.7876 -0.1304
 1375TIP3   OH2 4130   1.309   5.067   4.203  0.1198  0.1752 -0.1712
 1375TIP3    H1 4131   1.231   5.111   4.168  0.3855  1.2300  0.5002
 1375TIP3    H2 4132   1.361   5.047   4.125 -0.6928 -0.2915 -0.6053
 1376TIP3   OH2 4133   4.372   4.370   4.311  0.0489 -0.0258  0.5019
 1376TIP3    H1 4134   4.419   4.328   4.383 -0.0123  0.9076  1.1006
 1376TIP3    H2 4135   4.324   4.442   4.352  0.3767  0.8156 -0.5420
 1377TIP3   OH2 4136   6.338   5.496   4.883  0.0914 -0.0748 -0.1625
 1377TIP3    H1 4137   6.256   5.541   4.904 -0.3774 -0.0422 -1.9382
 1377TIP3    H2 4138   6.405   5.543   4.934 -0.4249  2.4253 -1.6418
 1378TIP3   OH2 4139   5.437   3.749   3.757 -0.0492  0.0552 -0.4352
 1378TIP3    H1 4140   5.436   3.663   3.715  1.2949  0.7282 -1.9567
 1378TIP3    H2 4141   5.456   3.811   3.686  0.3065  1.4754  0.8342
 1379TIP3   OH2 4142   1.789   0.991   2.836 -0.1420 -0.1634  0.3720
 1379TIP3    H1 4143   1.809   0.968   2.926 -1.0971  0.9070  0.8894
 1379TIP3    H2 4144   1.775   1.086   2.838 -1.3568 -0.2866 -0.6651
 1380TIP3   OH2 4145   4.930   2.167   3.027 -0.0833  0.0995 -0.2538
 1380TIP3    H1 4146   4.867   2.099   3.006 -0.3309 -0.0910  1.0614
 1380TIP3    H2 4147   4.902   2.202   3.111  0.1628  1.6909 -0.7927
 1381TIP3   OH2 4148   4.062   2.140   1.782  0.9332  0.0898 -0.2716
 1381TIP3    H1 4149   4.065   2.194   1.861  0.3797 -0.3449  0.0617
 1381TIP3    H2 4150   4.119   2.066   1.802  1.6089  0.4926 -0.6865
 1382TIP3   OH2 4151   4.374   4.520   3.753  0.1305 -0.5557  0.0546
 1382TIP3    H1 4152   4.415   4.560   3.829 -0.0680 -0.2448 -0.0031
 1382TIP3    H2 4153   4.433   4.449   3.728 -0.1045 -1.0454  0.8675
 1383TIP3   OH2 4154   3.721   1.907   1.302  0.2260  0.0349 -0.5110
 1383TIP3    H1 4155   3.651   1.944   1.355 -0.2129  0.3890 -1.3160
 1383TIP3    H2 4156   3.801   1.926   1.352 -0.2288 -0.2572  0.3473
 1384TIP3   OH2 4157   4.596   5.839   2.154 -0.4385  0.0423 -0.1114
 1384TIP3    H1 4158   4.579   5.918   2.103 -0.7366 -0.8102 -1.3535
 1384TIP3    H2 4159   4.528   5.778   2.128 -0.4746 -0.5003  1.1629
 1385TIP3   OH2 4160   3.610   5.476   0.363 -0.3665  0.8256  0.5215
 1385TIP3    H1 4161   3.697   5.440   0.347 -0.4755 -0.3591  2.3798
 1385TIP3    H2 4162   3.620   5.570   0.347  1.1003  0.6314  0.1546
 1386TIP3   OH2 4163   0.221   5.176   5.008 -0.7109  0.1031  0.0262
 1386TIP3    H1 4164   0.211   5.116   5.082  0.5204  1.2988  1.2117
 1386TIP3    H2 4165   0.284   5.241   5.038  2.5495 -1.1924 -3.1974
 1387TIP3   OH2 4166   6.159   3.191   0.122 -0.4076  0.2820 -0.1700
 1387TIP3    H1 4167   6.191   3.110   0.161 -0.3497  0.6490  0.5554
 1387TIP3    H2 4168   6.102   3.163   0.051 -0.8182 -0.3954  0.4250
 1388TIP3   OH2 4169   1.323   3.510   3.355  0.1991  0.1455  0.2621
 1388TIP3    H1 4170   1.350   3.422   3.383 -0.9447 -0.2453  0.1826
 1388TIP3    H2 4171   1.348   3.514   3.263  1.8418  0.5675  0.7014
 1389TIP3   OH2 4172   0.725   3.431   2.385 -0.7466  0.5383 -0.2542
 1389TIP3    H1 4173   0.816   3.427   2.415 -0.3964  1.2435 -1.1705
 1389TIP3    H2 4174   0.685   3.351   2.420 -0.1260  0.8511  1.2523
 1390TIP3   OH2 4175   1.797   0.279   0.089  0.4777  0.2221  0.8376
 1390TIP3    H1 4176   1.854   0.353   0.113 -0.2779  1.1377 -0.0798
 1390TIP3    H2 4177   1.711   0.319   0.076  0.0733 -0.8085  0.2281
 1391TIP3   OH2 4178   2.149   0.221   1.558  0.0618  0.3518  0.6549
 1391TIP3    H1 4179   2.124   0.135   1.524  0.2588  0.6968 -0.3779
 1391TIP3    H2 4180   2.118   0.283   1.493  0.7178  1.0045  0.9504
 1392TIP3   OH2 4181   1.497   0.982   5.042  0.1489  0.6166 -0.0617
 1392TIP3    H1 4182   1.555   0.907   5.029  0.8426  1.3948 -1.6783
 1392TIP3    H2 4183   1.491   0.991   5.138  1.3626 -0.4955  0.1498
 1393TIP3   OH2 4184   6.184   0.523   0.840  0.3481  0.5047 -0.5795
 1393TIP3    H1 4185   6.258   0.538   0.780 -0.6547  0.9357 -1.7454
 1393TIP3    H2 4186   6.205   0.575   0.917  3.0018 -2.1556  0.6881
 1394TIP3   OH2 4187   3.386   4.653   3.060  0.3228 -0.3691  0.6011
 1394TIP3    H1 4188   3.439   4.592   3.112  0.0841 -1.8631 -0.8156
 1394TIP3    H2 4189   3.445   4.726   3.041  1.6992 -1.6606 -0.3570
 1395TIP3   OH2 4190   2.472   4.367   0.049  0.1458  0.0639 -0.0339
 1395TIP3    H1 4191   2.480   4.344   0.141  1.4815  1.5328  0.2780
 1395TIP3    H2 4192   2.378   4.377   0.034 -0.2616 -2.4207  0.5336
 1396TIP3   OH2 4193   0.026   2.180   0.666 -0.1852 -0.2695 -0.5922
 1396TIP3    H1 4194   0.009   2.113   0.600 -0.0540 -1.1024  0.2061
 1396TIP3    H2 4195   0.121   2.186   0.671 -0.1220 -1.7991  1.0531
 1397TIP3   OH2 4196   2.362   0.553   1.136 -0.2429  0.2021 -0.3142
 1397TIP3    H1 4197   2.394   0.603   1.211 -0.7539  0.0401  0.0179
 1397TIP3    H2 4198   2.366   0.614   1.062 -0.1008  0.4815 -0.0747
 1398TIP3   OH2 4199   4.247   1.332   0.995 -0.0016 -0.2284  0.0422
 1398TIP3    H1 4200   4.232   1.261   0.932  0.7652 -0.6303  0.3074
 1398TIP3    H2 4201   4.243   1.290   1.080  1.8055 -0.2186  0.1600
 1399TIP3   OH2 4202   4.086   4.723   0.266 -0.0988  0.2546 -0.0219
 1399TIP3    H1 4203   4.068   4.712   0.172  1.2507  0.9010 -0.3798
 1399TIP3    H2 4204   4.175   4.689   0.278 -0.2816  0.1174  1.0360
 1400TIP3   OH2 4205   6.169   5.768   2.780  0.8258 -0.3749 -0.7038
 1400TIP3    H1 4206   6.166   5.690   2.724  1.1482  0.1946 -1.5285
 1400TIP3    H2 4207   6.231   5.826   2.738  1.3228 -0.0506  0.4312
 1401TIP3   OH2 4208   4.261   1.615   0.605  0.2874  0.1967 -0.2809
 1401TIP3    H1 4209   4.236   1.542   0.662  2.8174  0.0970  0.8877
 1401TIP3    H2 4210   4.204   1.687   0.632  0.0152 -0.4479  0.9695
 1402TIP3   OH2 4211   1.688   1.308   2.846 -0.1897  0.4625  0.4016
 1402TIP3    H1 4212   1.623   1.256   2.894  0.3502 -0.0144  0.6295
 1402TIP3    H2 4213   1.716   1.374   2.909  0.7763 -0.3802  0.8840
 1403TIP3   OH2 4214   2.895   2.841   1.977  1.0803  0.4911  0.3493
 1403TIP3    H1 4215   2.880   2.894   2.056  0.3789  0.2874  0.3626
 1403TIP3    H2 4216   2.868   2.898   1.905 -2.7581 -0.7942  0.5009
 1404TIP3   OH2 4217   5.012   4.515   2.851 -0.0522 -0.0500  0.2053
 1404TIP3    H1 4218   4.985   4.607   2.852  1.2451  0.3552 -0.3753
 1404TIP3    H2 4219   5.004   4.490   2.759 -2.7886 -1.2988  0.6729
 1405TIP3   OH2 4220   5.508   2.641   3.601 -0.0508  0.4066  0.0472
 1405TIP3    H1 4221   5.446   2.575   3.630 -0.0921  0.9419  1.2778
 1405TIP3    H2 4222   5.592   2.595   3.596 -0.1299  0.1899  0.6350
 1406TIP3   OH2 4223   1.449   0.332   2.398 -0.1597 -0.4027  0.1606
 1406TIP3    H1 4224   1.412   0.376   2.475 -0.9966  1.4913 -1.2294
 1406TIP3    H2 4225   1.376   0.282   2.363  0.2769 -1.4260  0.6907
 1407TIP3   OH2 4226   3.712   4.252   4.021 -0.0379 -0.1445 -0.2892
 1407TIP3    H1 4227   3.724   4.291   4.108 -0.1566 -1.1470  0.1935
 1407TIP3    H2 4228   3.682   4.163   4.039  3.5121 -1.6859 -1.2304
 1408TIP3   OH2 4229   1.092   2.162   0.891  0.0754 -0.0549 -0.1856
 1408TIP3    H1 4230   1.008   2.139   0.930  0.1422  0.1523  0.0892
 1408TIP3    H2 4231   1.148   2.183   0.966 -0.5726  3.0335 -0.4203
 1409TIP3   OH2 4232   1.669   0.953   3.498 -0.3312 -0.1069 -0.4915
 1409TIP3    H1 4233   1.632   1.035   3.464 -1.2861 -0.4654 -0.3552
 1409TIP3    H2 4234   1.606   0.924   3.565 -0.0346 -0.9695 -0.5692
 1410TIP3   OH2 4235   2.562   0.718   3.001 -0.4295  0.3103 -0.6985
 1410TIP3    H1 4236   2.580   0.787   3.065  0.4584  0.7949 -1.4454
 1410TIP3    H2 4237   2.541   0.766   2.920 -0.2734 -0.2916 -1.0972
 1411TIP3   OH2 4238   3.263   3.929   0.648 -0.7952  0.4079 -0.7172
 1411TIP3    H1 4239   3.179   3.930   0.602 -0.4160  2.1330 -1.4224
 1411TIP3    H2 4240   3.277   4.020   0.675  0.8753  0.1643 -0.6626
 1412TIP3   OH2 4241   4.935   3.823   3.953 -0.2227  0.0016 -0.3055
 1412TIP3    H1 4242   4.978   3.846   3.870 -1.5359  2.6744 -0.3258
 1412TIP3    H2 4243   4.993   3.858   4.020 -0.5798  0.4025 -0.2062
 1413TIP3   OH2 4244   0.316   2.247   1.915 -0.4172  0.4206  0.8821
 1413TIP3    H1 4245   0.292   2.326   1.963  1.8639  0.3801  2.2635
 1413TIP3    H2 4246   0.370   2.197   1.976  2.4712  0.2393 -1.5751
 1414TIP3   OH2 4247   5.466   2.711   4.648 -0.0343 -0.2178  0.0447
 1414TIP3    H1 4248   5.533   2.678   4.588 -1.5638 -1.3652 -1.1549
 1414TIP3    H2 4249   5.404   2.758   4.591 -0.9215 -0.3332  0.8826
 1415TIP3   OH2 4250   1.893   3.763   2.135 -0.2328 -0.5557 -0.1174
 1415TIP3    H1 4251   1.989   3.766   2.139 -0.2369 -1.1701  0.7501
 1415TIP3    H2 4252   1.871   3.672   2.155 -1.0056 -0.3786 -0.1302
 1416TIP3   OH2 4253   4.674   5.083   2.256 -0.3025 -0.6023  0.2520
 1416TIP3    H1 4254   4.685   5.016   2.187 -0.2565 -1.1358  0.7710
 1416TIP3    H2 4255   4.580   5.088   2.269 -0.3871  0.2363 -0.5534
 1417TIP3   OH2 4256   4.291   0.649   3.757  0.5931  0.7519  0.1617
 1417TIP3    H1 4257   4.289   0.601   3.840  1.1842  1.0048  0.3216
 1417TIP3    H2 4258   4.222   0.715   3.765  0.1257  0.2713  0.1441
 1418TIP3   OH2 4259   2.645   0.760   1.322  0.1451  0.4015  0.4803
 1418TIP3    H1 4260   2.711   0.794   1.382 -1.0990  0.3515  1.9635
 1418TIP3    H2 4261   2.623   0.674   1.358 -0.8157  0.4773  0.1011
 1419TIP3   OH2 4262   4.690   4.855   1.797  0.0943  0.1728  0.1195
 1419TIP3    H1 4263   4.603   4.882   1.769  0.3710 -0.9174 -1.9478
 1419TIP3    H2 4264   4.749   4.892   1.732  0.8919 -1.4561 -0.1345
 1420TIP3   OH2 4265   4.683   5.226   1.029  0.3945  0.3648 -0.0683
 1420TIP3    H1 4266   4.604   5.185   1.067  1.7710 -2.6324 -0.1299
 1420TIP3    H2 4267   4.748   5.156   1.029  2.9500  2.5777 -0.5116
 1421TIP3   OH2 4268   5.195   1.385   4.013  0.2516  0.1793 -0.0831
 1421TIP3    H1 4269   5.164   1.353   3.929  0.4320  0.0905 -0.1171
 1421TIP3    H2 4270   5.130   1.450   4.040 -1.1322 -1.5272  0.8797
 1422TIP3   OH2 4271   6.022   2.560   4.214 -0.1183 -0.1772  0.5964
 1422TIP3    H1 4272   6.067   2.558   4.130  0.0920 -1.7328  0.7259
 1422TIP3    H2 4273   5.930   2.548   4.193  0.0066 -1.2937  0.6060
 1423TIP3   OH2 4274   2.430   0.129   1.528 -0.5210 -0.2882  0.3117
 1423TIP3    H1 4275   2.345   0.162   1.556 -1.0925 -1.4859  0.0483
 1423TIP3    H2 4276   2.410   0.069   1.456  0.6022 -0.1004 -0.1783
 1424TIP3   OH2 4277   3.103   3.931   1.384 -0.3936 -0.2044  0.0557
 1424TIP3    H1 4278   3.120   4.025   1.381 -0.8880 -0.0576  1.3127
 1424TIP3    H2 4279   3.014   3.920   1.350 -0.5310 -0.1588  0.3995
 1425TIP3   OH2 4280   1.859   1.808   0.239  1.0219  0.2446 -0.1571
 1425TIP3    H1 4281   1.946   1.841   0.217  0.5477  2.2856  0.7900
 1425TIP3    H2 4282   1.865   1.786   0.332  0.5769  0.2474 -0.1272
 1426TIP3   OH2 4283   2.956   1.272   4.922 -0.2198 -0.2261 -0.2916
 1426TIP3    H1 4284   3.013   1.204   4.885 -0.7074 -0.4868 -0.5729
 1426TIP3    H2 4285   2.962   1.259   5.017  0.0139 -0.3925 -0.3268
 1427TIP3   OH2 4286   2.933   0.126   3.733  0.1754 -0.5199 -0.1811
 1427TIP3    H1 4287   2.925   0.203   3.677 -0.9087  0.5647  1.3627
 1427TIP3    H2 4288   2.931   0.051   3.673 -0.5647  0.5927 -1.5972
 1428TIP3   OH2 4289   4.745   2.950   1.958  0.7292  0.1003 -0.6233
 1428TIP3    H1 4290   4.677   2.990   2.012 -0.5382 -1.9696 -0.5729
 1428TIP3    H2 4291   4.820   2.942   2.016  0.0273 -0.2966  0.2590
 1429TIP3   OH2 4292   1.891   4.438   3.429  0.0790  0.2293 -0.4799
 1429TIP3    H1 4293   1.828   4.495   3.473 -0.5522  0.1025 -1.1852
 1429TIP3    H2 4294   1.921   4.378   3.497  0.1301  0.8754  0.0779
 1430TIP3   OH2 4295   3.664   0.895   2.238  0.4467  0.0724  0.0033
 1430TIP3    H1 4296   3.727   0.836   2.278 -0.1642 -0.1790  0.6316
 1430TIP3    H2 4297   3.652   0.964   2.303  0.5133  0.4286 -0.3608
 1431TIP3   OH2 4298   1.527   1.309   1.230  0.3346  0.3593 -0.0058
 1431TIP3    H1 4299   1.499   1.273   1.145 -1.3040  0.8762  0.2792
 1431TIP3    H2 4300   1.504   1.240   1.293  2.1576 -0.3030 -0.0168
 1432TIP3   OH2 4301   6.118   5.130   2.401  0.3780  0.1413  1.2046
 1432TIP3    H1 4302   6.106   5.074   2.324  0.1912 -0.1634  1.4525
 1432TIP3    H2 4303   6.098   5.073   2.476  0.9442  0.3170  1.5007
 1433TIP3   OH2 4304   0.329   0.667   4.518 -0.4792 -0.0703  0.5741
 1433TIP3    H1 4305   0.278   0.644   4.440 -0.2462  0.9232  0.1127
 1433TIP3    H2 4306   0.277   0.635   4.591 -2.1589  1.5545  0.1674
 1434TIP3   OH2 4307   3.556   4.098   4.424  0.4628 -0.5562  0.0238
 1434TIP3    H1 4308   3.612   4.129   4.353 -1.0272 -1.2186 -1.5243
 1434TIP3    H2 4309   3.581   4.151   4.499  2.0389  0.2518 -1.0041
 1435TIP3   OH2 4310   4.369   5.050   4.422 -0.0922 -0.2078  0.1286
 1435TIP3    H1 4311   4.316   5.094   4.355  0.6993 -0.1970 -0.5113
 1435TIP3    H2 4312   4.330   5.077   4.505 -0.6200  0.3979 -0.3026
 1436TIP3   OH2 4313   5.398   5.195   1.226  0.0039 -0.1259 -0.1853
 1436TIP3    H1 4314   5.417   5.107   1.193  2.7840  1.1255 -2.3740
 1436TIP3    H2 4315   5.426   5.193   1.318 -1.5844 -1.9024  0.3205
 1437TIP3   OH2 4316   6.172   1.156   2.889 -0.0432  0.2013  0.2279
 1437TIP3    H1 4317   6.221   1.162   2.806 -1.1166  2.3462 -0.3360
 1437TIP3    H2 4318   6.095   1.102   2.868  0.1144  0.0442  0.0557
 1438TIP3   OH2 4319   2.612   2.272   3.784  0.1988  0.2394 -0.4082
 1438TIP3    H1 4320   2.526   2.311   3.772 -0.0505  0.2767  1.2881
 1438TIP3    H2 4321   2.596   2.178   3.784  0.3537  0.2011 -1.3173
 1439TIP3   OH2 4322   3.068   3.130   1.460  0.1231  0.1735 -0.3296
 1439TIP3    H1 4323   3.042   3.213   1.419  0.8746  0.1887 -0.7835
 1439TIP3    H2 4324   3.162   3.125   1.446 -0.1153 -1.4729 -1.6108
 1440TIP3   OH2 4325   3.062   3.972   0.883 -0.6236 -0.1446  0.1466
 1440TIP3    H1 4326   3.152   4.003   0.876 -0.8090  1.2194  2.6672
 1440TIP3    H2 4327   3.015   4.018   0.814  0.3856  0.0189 -0.4435
 1441TIP3   OH2 4328   2.566   1.548   0.276 -0.4921  0.1158  0.1045
 1441TIP3    H1 4329   2.570   1.452   0.275  0.2470  0.1366 -0.0298
 1441TIP3    H2 4330   2.481   1.569   0.315 -0.5557 -0.5933  0.3575
 1442TIP3   OH2 4331   5.104   3.329   3.112 -0.0165 -0.7397  0.1811
 1442TIP3    H1 4332   5.093   3.247   3.161  0.3216 -0.8272  0.1124
 1442TIP3    H2 4333   5.133   3.392   3.178  0.4203 -0.8530  0.1014
 1443TIP3   OH2 4334   5.340   3.271   3.372 -0.2713  0.1593  0.2919
 1443TIP3    H1 4335   5.387   3.265   3.290 -1.3725 -2.1051 -0.2731
 1443TIP3    H2 4336   5.388   3.213   3.432  1.2948  2.7615  1.7763
 1444TIP3   OH2 4337   4.717   3.357   1.154  0.0531 -0.3525 -0.2682
 1444TIP3    H1 4338   4.623   3.367   1.145  0.3572  3.1367 -0.9714
 1444TIP3    H2 4339   4.730   3.333   1.246 -1.4689  1.6280  0.5469
 1445TIP3   OH2 4340   2.268   5.499   1.672  0.1324 -0.0284 -0.3323
 1445TIP3    H1 4341   2.329   5.570   1.691 -0.9355  0.7064  0.4762
 1445TIP3    H2 4342   2.301   5.424   1.721 -0.3437  0.7403  1.2274
 1446TIP3   OH2 4343   2.375   3.516   0.217 -0.0819  0.0116  0.5666
 1446TIP3    H1 4344   2.285   3.515   0.185 -0.4320 -2.4412  1.3449
 1446TIP3    H2 4345   2.426   3.553   0.146 -1.8132  2.6683  0.5814
 1447TIP3   OH2 4346   1.519   2.426   4.000  0.1598  0.5471 -0.6085
 1447TIP3    H1 4347   1.437   2.377   3.994 -0.2288  1.0025  0.6554
 1447TIP3    H2 4348   1.587   2.361   3.980 -0.4785  0.1115 -1.4223
 1448TIP3   OH2 4349   2.350   2.703   0.297  0.2553 -0.4463  0.0685
 1448TIP3    H1 4350   2.343   2.742   0.210  1.6601  0.8123  0.4619
 1448TIP3    H2 4351   2.271   2.732   0.342  0.4735  0.5887 -0.1814
 1449TIP3   OH2 4352   0.545   2.980   3.884  0.3404 -0.4104  0.5733
 1449TIP3    H1 4353   0.587   3.060   3.915  0.9784 -1.4365  2.5117
 1449TIP3    H2 4354   0.455   2.987   3.918  0.0462  0.0011 -0.2645
 1450TIP3   OH2 4355   3.599   5.853   4.313  0.2858 -0.2516  0.2703
 1450TIP3    H1 4356   3.623   5.945   4.323  0.8213 -0.3856  0.2413
 1450TIP3    H2 4357   3.654   5.807   4.376  0.4252 -0.6149 -0.1140
 1451TIP3   OH2 4358   4.285   1.238   2.916  0.0561  0.1250  0.6259
 1451TIP3    H1 4359   4.292   1.306   2.849 -2.2753 -2.3370 -2.3753
 1451TIP3    H2 4360   4.194   1.241   2.945  0.4321 -0.4628  1.9828
 1452TIP3   OH2 4361   4.023   4.424   4.622 -0.1012 -0.2615 -0.0624
 1452TIP3    H1 4362   3.957   4.434   4.553 -0.2515 -0.9546 -0.0284
 1452TIP3    H2 4363   4.056   4.512   4.637 -0.7067  0.0269 -0.3942
 1453TIP3   OH2 4364   4.260   3.818   2.860  0.0748 -0.6582 -0.3387
 1453TIP3    H1 4365   4.207   3.883   2.906  2.3135  0.7038  0.4568
 1453TIP3    H2 4366   4.247   3.839   2.767 -0.1106  0.2264 -0.1274
 1454TIP3   OH2 4367   5.198   5.105   2.092  0.3726 -0.3415 -0.1273
 1454TIP3    H1 4368   5.231   5.070   2.175  0.2551 -1.6298 -0.5935
 1454TIP3    H2 4369   5.106   5.081   2.090  0.1687  0.4178 -0.2662
 1455TIP3   OH2 4370   2.770   1.589   3.139 -0.2487 -0.1894 -0.3187
 1455TIP3    H1 4371   2.857   1.562   3.168  0.4005  2.2450  0.2143
 1455TIP3    H2 4372   2.776   1.588   3.043  0.0054 -1.0848 -0.2994
 1456TIP3   OH2 4373   0.258   2.512   4.631 -0.1801  0.1227  0.2681
 1456TIP3    H1 4374   0.207   2.585   4.667  0.4027 -0.4196  2.3254
 1456TIP3    H2 4375   0.191   2.448   4.605 -0.6806  1.2046 -1.2561
 1457TIP3   OH2 4376   1.209   0.227   2.313  0.2874 -0.0991 -0.1014
 1457TIP3    H1 4377   1.143   0.252   2.377 -1.4795 -1.4021 -1.3232
 1457TIP3    H2 4378   1.194   0.134   2.298  0.9228  0.0754 -2.0774
 1458TIP3   OH2 4379   0.982   2.987   3.473  0.2127 -0.3856  0.0901
 1458TIP3    H1 4380   0.921   2.962   3.541 -0.5797  0.2974 -0.3413
 1458TIP3    H2 4381   0.942   3.065   3.433  1.2129 -0.1058 -0.4018
 1459TIP3   OH2 4382   5.789   4.286   3.072 -0.1419 -0.0215 -0.4641
 1459TIP3    H1 4383   5.861   4.309   3.131 -0.3917 -0.9457  0.2204
 1459TIP3    H2 4384   5.710   4.314   3.119 -0.2906  0.0415 -0.7526
 1460TIP3   OH2 4385   1.447   1.088   3.922 -0.3052 -0.2798 -0.1273
 1460TIP3    H1 4386   1.522   1.138   3.955 -1.7790  0.9687  1.5436
 1460TIP3    H2 4387   1.486   1.014   3.876  1.9595 -0.4161  1.8147
 1461TIP3   OH2 4388   5.535   4.476   1.835 -0.3172  0.1569  0.0295
 1461TIP3    H1 4389   5.572   4.496   1.749 -0.5025  1.4202  0.2219
 1461TIP3    H2 4390   5.549   4.556   1.886  0.4390 -0.8201  1.4055
 1462TIP3   OH2 4391   5.240   4.364   1.713  0.2811  0.2240  0.2795
 1462TIP3    H1 4392   5.187   4.409   1.779  0.7596  0.3737  0.5659
 1462TIP3    H2 4393   5.244   4.273   1.743 -0.1954  0.1097  0.0110
 1463TIP3   OH2 4394   5.812   5.062   0.899 -0.1916  0.3714 -0.3462
 1463TIP3    H1 4395   5.791   5.001   0.969 -0.2646  0.8180  0.0228
 1463TIP3    H2 4396   5.890   5.109   0.930 -1.8477  2.5861  0.7288
 1464TIP3   OH2 4397   6.226   4.090   1.288  0.4320  0.0831  0.4985
 1464TIP3    H1 4398   6.141   4.088   1.333  0.4458  1.2336  0.6106
 1464TIP3    H2 4399   6.204   4.097   1.195  0.3979  0.0926  0.5070
 1465TIP3   OH2 4400   1.406   5.216   2.555  0.1544 -0.1232  0.5463
 1465TIP3    H1 4401   1.324   5.170   2.572 -0.2569  0.2872 -0.2304
 1465TIP3    H2 4402   1.446   5.228   2.641 -1.6103  1.5118  1.2084
 1466TIP3   OH2 4403   2.297   4.610   2.519 -0.1496  0.2836 -0.5206
 1466TIP3    H1 4404   2.277   4.518   2.535 -0.6414  0.3488 -0.7256
 1466TIP3    H2 4405   2.388   4.610   2.490  0.5236  0.0892  1.4631
 1467TIP3   OH2 4406   0.892   1.445   0.928 -0.7531  0.2012  0.3735
 1467TIP3    H1 4407   0.858   1.374   0.874 -1.8119  0.5390  0.5617
 1467TIP3    H2 4408   0.978   1.414   0.957  0.2737  0.4020 -2.2107
 1468TIP3   OH2 4409   3.616   4.440   4.258 -0.3180 -0.1234  0.0282
 1468TIP3    H1 4410   3.583   4.501   4.192  1.1817  0.8092  0.0834
 1468TIP3    H2 4411   3.575   4.469   4.340  0.7958  1.2285  0.1540
 1469TIP3   OH2 4412   5.667   0.971   0.448  0.0284  0.5187 -1.0132
 1469TIP3    H1 4413   5.761   0.988   0.440  0.4654 -1.8654 -1.8103
 1469TIP3    H2 4414   5.642   1.014   0.530  1.9839  0.5238 -0.3589
 1470TIP3   OH2 4415   0.860   1.464   4.256  0.0790 -0.2320  0.0104
 1470TIP3    H1 4416   0.947   1.465   4.216  0.1113  1.2976  0.0805
 1470TIP3    H2 4417   0.841   1.371   4.269  1.5741 -0.5998 -0.2706
 1471TIP3   OH2 4418   0.444   4.025   3.279 -1.0148 -0.3093 -0.1274
 1471TIP3    H1 4419   0.365   4.005   3.329 -0.2704  0.7697  1.5774
 1471TIP3    H2 4420   0.491   3.941   3.275 -2.4488 -1.1020 -1.6657
 1472TIP3   OH2 4421   1.998   0.624   0.731 -0.2592 -0.7780 -0.5699
 1472TIP3    H1 4422   1.960   0.566   0.665  0.5742  0.5110 -2.2860
 1472TIP3    H2 4423   2.016   0.705   0.683  2.8764 -0.6774  0.5600
 1473TIP3   OH2 4424   0.790   2.261   0.936 -0.4697 -0.0022  0.2359
 1473TIP3    H1 4425   0.776   2.324   0.865  1.2255  0.7326  0.5155
 1473TIP3    H2 4426   0.743   2.183   0.908 -2.0672  1.1404 -0.4371
 1474TIP3   OH2 4427   1.235   1.737   4.838  0.2321  0.2085 -0.4980
 1474TIP3    H1 4428   1.163   1.771   4.786 -0.2220 -1.6418 -1.1787
 1474TIP3    H2 4429   1.297   1.703   4.774  0.9420  0.3358  0.1133
 1475TIP3   OH2 4430   1.992   5.541   2.185 -0.1734  0.3270  0.2135
 1475TIP3    H1 4431   2.084   5.533   2.210 -0.0776 -1.2244 -0.5143
 1475TIP3    H2 4432   1.945   5.483   2.246 -0.5864  0.5295  0.0974
 1476TIP3   OH2 4433   3.520   4.917   4.824 -0.3990  0.0004 -0.0662
 1476TIP3    H1 4434   3.586   4.972   4.782  0.5168 -0.5938  0.5668
 1476TIP3    H2 4435   3.444   4.975   4.835  0.0276  0.7056 -0.7494
 1477TIP3   OH2 4436   1.226   4.874   2.823 -0.8996 -0.0987  0.0690
 1477TIP3    H1 4437   1.185   4.797   2.784 -0.1204 -0.6400  0.2857
 1477TIP3    H2 4438   1.255   4.926   2.748 -4.9528  2.0903 -0.2671
 1478TIP3   OH2 4439   0.406   5.207   0.927  0.0375 -0.0330 -0.2399
 1478TIP3    H1 4440   0.386   5.291   0.969 -1.5850 -0.3312 -0.3204
 1478TIP3    H2 4441   0.333   5.194   0.866  0.0302 -1.6847  0.0755
 1479TIP3   OH2 4442   5.256   0.984   4.349 -0.2485 -0.1234  0.0499
 1479TIP3    H1 4443   5.247   0.911   4.287 -1.6645 -0.4326  0.5847
 1479TIP3    H2 4444   5.196   1.051   4.316 -1.3925 -0.4841  1.3283
 1480TIP3   OH2 4445   1.305   0.449   0.872  0.1081  0.6037 -0.5085
 1480TIP3    H1 4446   1.366   0.478   0.804 -0.5043  0.3963 -1.1710
 1480TIP3    H2 4447   1.283   0.359   0.847  0.6928  0.1460  0.5715
 1481TIP3   OH2 4448   2.954   3.240   0.420 -0.4268 -0.4054  1.0161
 1481TIP3    H1 4449   2.973   3.273   0.508  1.4605 -0.1612  0.5582
 1481TIP3    H2 4450   2.867   3.202   0.427 -1.5345  2.1529  2.2680
 1482TIP3   OH2 4451   1.365   5.087   3.789 -0.0538 -0.7859  0.1511
 1482TIP3    H1 4452   1.351   5.152   3.720  1.6387  1.2964  1.6690
 1482TIP3    H2 4453   1.387   5.007   3.741  1.2641  0.6378 -1.7628
 1483TIP3   OH2 4454   5.141   1.302   3.751 -0.2171 -0.5707  0.3582
 1483TIP3    H1 4455   5.083   1.284   3.677 -0.5024 -2.1950  0.9398
 1483TIP3    H2 4456   5.206   1.363   3.716 -0.9963 -0.4314 -0.9106
 1484TIP3   OH2 4457   3.046   3.100   4.441 -0.3451 -0.2678 -0.4995
 1484TIP3    H1 4458   3.091   3.184   4.454 -2.3335  0.7322  0.2556
 1484TIP3    H2 4459   3.116   3.039   4.417  1.1037  1.6783 -1.4957
 1485TIP3   OH2 4460   5.785   0.944   4.077 -0.5965  0.1300  0.6281
 1485TIP3    H1 4461   5.750   0.985   4.155 -0.5632  1.5082 -0.0614
 1485TIP3    H2 4462   5.844   0.875   4.110 -0.0572  1.1314  1.8111
 1486TIP3   OH2 4463   2.151   1.743   0.315  0.5083 -0.4389 -0.1993
 1486TIP3    H1 4464   2.126   1.688   0.389  0.6427  1.6392  1.4576
 1486TIP3    H2 4465   2.209   1.809   0.352  1.0075  0.3595 -2.2655
 1487TIP3   OH2 4466   1.333   3.618   5.061 -0.6150  0.4644  0.5596
 1487TIP3    H1 4467   1.297   3.547   5.009 -1.8695  0.1553  1.7872
 1487TIP3    H2 4468   1.274   3.692   5.045 -0.1971  0.7811  0.4646
 1488TIP3   OH2 4469   4.319   4.420   2.729 -0.4627  0.4952  0.4324
 1488TIP3    H1 4470   4.268   4.494   2.696 -0.9479 -0.1857 -0.3918
 1488TIP3    H2 4471   4.348   4.374   2.650 -1.9754 -1.4042  0.9233
 1489TIP3   OH2 4472   0.049   4.376   0.857  0.2831  0.0702  0.0515
 1489TIP3    H1 4473  -0.036   4.378   0.901  0.0456  0.4341 -0.4203
 1489TIP3    H2 4474   0.098   4.307   0.903  0.2149  0.7513  1.2036
 1490TIP3   OH2 4475   3.132   1.167   4.551  0.4935  1.1210  0.2315
 1490TIP3    H1 4476   3.038   1.167   4.564  0.5232  1.3890  0.4495
 1490TIP3    H2 4477   3.169   1.166   4.639  0.6999 -0.1575  0.1465
 1491TIP3   OH2 4478   0.509   5.492   2.766  0.0416  0.0471  0.0147
 1491TIP3    H1 4479   0.584   5.433   2.758 -0.2682 -0.4097  0.4191
 1491TIP3    H2 4480   0.488   5.518   2.676 -0.1759 -0.9124 -0.2210
 1492TIP3   OH2 4481   5.810   5.877   1.526 -1.3169  0.0390 -0.0101
 1492TIP3    H1 4482   5.809   5.970   1.545  0.8898 -0.1756  1.6454
 1492TIP3    H2 4483   5.770   5.836   1.603  0.0390 -0.4473  0.4780
 1493TIP3   OH2 4484   4.142   2.878   4.521  0.1710 -0.0936 -0.2919
 1493TIP3    H1 4485   4.184   2.920   4.447  0.2713 -0.0093 -0.1875
 1493TIP3    H2 4486   4.076   2.820   4.482 -0.2900  0.5140 -0.4153
 1494TIP3   OH2 4487   5.578   4.056   2.481  0.1429  0.0855  0.2071
 1494TIP3    H1 4488   5.604   4.148   2.480  1.7787 -0.3230 -1.6618
 1494TIP3    H2 4489   5.488   4.056   2.449  0.2180  1.0242 -0.0224
 1495TIP3   OH2 4490   5.595   1.744   0.558 -0.4148 -0.6178  0.4157
 1495TIP3    H1 4491   5.499   1.749   0.560 -0.7580 -4.0088 -1.0040
 1495TIP3    H2 4492   5.619   1.773   0.470  0.1326  1.8905  1.3058
 1496TIP3   OH2 4493   4.941   2.942   3.021  0.5119  0.1999 -0.3931
 1496TIP3    H1 4494   4.849   2.936   3.046  1.3589  0.2733  3.3054
 1496TIP3    H2 4495   4.962   2.855   2.987 -0.4952 -0.3665  0.3900
 1497TIP3   OH2 4496   5.495   0.305   4.368  0.1953 -0.8189  0.2532
 1497TIP3    H1 4497   5.588   0.301   4.389  0.5074 -0.4002 -0.9572
 1497TIP3    H2 4498   5.486   0.385   4.314 -0.9328 -0.6083  0.7188
 1498TIP3   OH2 4499   0.155   0.111   3.737  0.0251 -0.4695 -0.1163
 1498TIP3    H1 4500   0.153   0.192   3.686  1.0273  0.2116  0.8732
 1498TIP3    H2 4501   0.070   0.069   3.720 -0.5656  0.8502 -0.5246
 1499TIP3   OH2 4502   2.648   0.882   2.549 -0.0529 -0.3769  0.7629
 1499TIP3    H1 4503   2.613   0.970   2.534  0.5800 -0.1534  0.5572
 1499TIP3    H2 4504   2.653   0.843   2.462  1.1219 -0.0424  0.6520
 1500TIP3   OH2 4505   5.014   4.997   3.643 -0.1167 -0.0983  0.5458
 1500TIP3    H1 4506   4.984   5.087   3.654  0.2586 -0.0758  1.4781
 1500TIP3    H2 4507   4.951   4.958   3.582  0.5373  1.1838 -1.0176
 1501TIP3   OH2 4508   4.935   3.563   1.555 -0.0923  0.4034  0.0543
 1501TIP3    H1 4509   4.943   3.469   1.544  0.6553  0.3406  0.9295
 1501TIP3    H2 4510   4.944   3.599   1.467 -1.1077 -0.3742 -0.3753
 1502TIP3   OH2 4511   0.456   1.521   1.814 -0.0564  0.2889  0.4738
 1502TIP3    H1 4512   0.401   1.598   1.800 -0.2539  0.1536  0.5060
 1502TIP3    H2 4513   0.546   1.555   1.815 -0.1425  0.5143  0.4632
 1503TIP3   OH2 4514   1.318   3.802   1.062 -0.0139  0.5979  0.1751
 1503TIP3    H1 4515   1.273   3.729   1.018 -0.4980  1.0450 -0.0825
 1503TIP3    H2 4516   1.323   3.871   0.996  0.7151  0.6911  0.3244
 1504TIP3   OH2 4517   6.064   2.455   4.893  0.4191  0.1824  0.2056
 1504TIP3    H1 4518   5.984   2.416   4.857  0.7595 -0.8545  0.5368
 1504TIP3    H2 4519   6.132   2.431   4.830  0.6851 -0.0220  0.5665
 1505TIP3   OH2 4520   6.012   2.662   1.275 -0.3790 -0.1880  0.2682
 1505TIP3    H1 4521   5.946   2.607   1.232  0.7746  0.7091 -2.9370
 1505TIP3    H2 4522   6.086   2.604   1.292 -0.2244 -0.2225 -0.5101
 1506TIP3   OH2 4523   3.551   4.775   4.424  0.0623  0.1790 -0.5174
 1506TIP3    H1 4524   3.490   4.787   4.351  0.8618 -1.9006 -1.6402
 1506TIP3    H2 4525   3.633   4.746   4.382  0.3521 -1.7286  1.2037
 1507TIP3   OH2 4526   2.562   5.388   5.016  0.2234 -0.1475 -0.8060
 1507TIP3    H1 4527   2.598   5.363   4.931  1.9214  1.4657 -0.6213
 1507TIP3    H2 4528   2.479   5.431   4.996  1.5030  1.9737 -1.8815
 1508TIP3   OH2 4529   0.158   4.510   4.428 -0.4905 -0.1197 -0.1353
 1508TIP3    H1 4530   0.078   4.529   4.477 -0.2865 -0.5125  0.3511
 1508TIP3    H2 4531   0.159   4.415   4.418  0.9109 -0.3448  1.6177
 1509TIP3   OH2 4532   4.613   3.792   2.175 -0.3906 -0.1295 -0.0735
 1509TIP3    H1 4533   4.692   3.782   2.227  0.8923 -0.6572 -2.0101
 1509TIP3    H2 4534   4.581   3.703   2.161  0.6684 -0.2650 -2.1029
 1510TIP3   OH2 4535   2.789   4.183   1.153  0.6675  0.4291  0.0829
 1510TIP3    H1 4536   2.848   4.155   1.223 -1.1910 -1.8843  0.8571
 1510TIP3    H2 4537   2.723   4.237   1.198 -0.1604 -0.5143  0.0321
 1511TIP3   OH2 4538   3.974   3.208   3.855  0.2596 -0.2581 -0.1036
 1511TIP3    H1 4539   3.911   3.219   3.926 -0.2384 -1.0888 -0.4017
 1511TIP3    H2 4540   3.937   3.139   3.800  1.4150 -0.7679 -0.2893
 1512TIP3   OH2 4541   4.661   3.398   3.896  0.1671 -0.4399  0.1372
 1512TIP3    H1 4542   4.658   3.474   3.838  0.1124 -0.5755 -0.0389
 1512TIP3    H2 4543   4.569   3.372   3.907  0.2336 -0.8982 -0.3584
 1513TIP3   OH2 4544   5.980   2.708   3.915  0.1802  0.3384  0.2697
 1513TIP3    H1 4545   6.047   2.656   3.959 -0.3833  1.6231  2.7983
 1513TIP3    H2 4546   6.027   2.782   3.878  0.4634 -0.0316 -0.1230
 1514TIP3   OH2 4547   5.144   1.080   0.768 -1.0824  0.0731  0.8359
 1514TIP3    H1 4548   5.074   1.144   0.756 -0.1013  1.0809  0.2946
 1514TIP3    H2 4549   5.158   1.077   0.862 -1.2876  0.4796  0.8809
 1515TIP3   OH2 4550   5.119   2.500   3.681 -0.5274  0.3939 -0.4450
 1515TIP3    H1 4551   5.167   2.577   3.653  0.2821 -0.3287 -1.0777
 1515TIP3    H2 4552   5.054   2.533   3.744  2.0848  1.1623  2.0551
 1516TIP3   OH2 4553   1.008   0.356   3.946  0.6131 -0.1226  0.0830
 1516TIP3    H1 4554   0.914   0.364   3.925  0.6564 -0.6819 -0.3390
 1516TIP3    H2 4555   1.037   0.279   3.897  1.4491  0.4401 -0.3220
 1517TIP3   OH2 4556   4.126   0.027   0.495 -0.3279  0.3899  0.0846
 1517TIP3    H1 4557   4.147   0.121   0.498 -1.9968  0.7948  0.4217
 1517TIP3    H2 4558   4.086   0.009   0.581  1.1981 -0.9847  0.5671
 1518TIP3   OH2 4559   1.942   3.862   0.514 -0.2662  0.0006 -0.4324
 1518TIP3    H1 4560   1.972   3.911   0.590 -1.6316 -0.0512  0.1869
 1518TIP3    H2 4561   2.013   3.802   0.494  0.0543 -0.1125  0.9363
 1519TIP3   OH2 4562   1.617   3.717   1.497  0.0334  0.0480 -0.1290
 1519TIP3    H1 4563   1.536   3.720   1.447 -0.6433  0.4378  0.9587
 1519TIP3    H2 4564   1.607   3.785   1.564  0.3837 -1.2783  1.3312
 1520TIP3   OH2 4565   6.076   5.911   3.600 -0.0955 -0.2964 -0.1130
 1520TIP3    H1 4566   6.002   5.951   3.555 -2.6063  0.1319  3.8489
 1520TIP3    H2 4567   6.064   5.817   3.586 -0.9614 -0.1838 -0.2212
 1521TIP3   OH2 4568   5.877   3.452   1.428 -0.2857 -0.7785 -0.2713
 1521TIP3    H1 4569   5.826   3.484   1.354 -0.9474 -0.9823  0.0890
 1521TIP3    H2 4570   5.945   3.398   1.389 -1.8229 -2.5347 -0.6428
 1522TIP3   OH2 4571   5.227   5.788   2.153 -0.1955  0.3084 -0.2135
 1522TIP3    H1 4572   5.166   5.716   2.137  1.2296 -0.3758 -3.3358
 1522TIP3    H2 4573   5.232   5.835   2.070  1.9640  1.5927  0.5510
 1523TIP3   OH2 4574   3.990   2.443   4.601 -0.1853 -0.2409  0.2220
 1523TIP3    H1 4575   3.973   2.458   4.694  0.6923  0.7428  0.2339
 1523TIP3    H2 4576   3.949   2.517   4.556 -0.4469 -0.6151 -0.1729
 1524TIP3   OH2 4577   2.773   2.736   4.999 -0.6940  0.0681  0.0084
 1524TIP3    H1 4578   2.807   2.724   4.910  1.8253  0.5130  0.8162
 1524TIP3    H2 4579   2.820   2.812   5.033 -0.1948 -1.1667  2.3114
 1525TIP3   OH2 4580   2.661   4.406   1.785  0.1258  0.6606  0.2254
 1525TIP3    H1 4581   2.613   4.415   1.867 -0.1526 -0.3907  0.1984
 1525TIP3    H2 4582   2.716   4.328   1.798  1.3002  1.4217 -0.0069
 1526TIP3   OH2 4583   1.789   0.871   3.089 -0.1728 -0.3321  0.4173
 1526TIP3    H1 4584   1.693   0.870   3.093 -0.1959  0.3265  0.1887
 1526TIP3    H2 4585   1.816   0.903   3.175 -0.2788  2.3568 -0.4449
 1527TIP3   OH2 4586   0.321   4.513   4.687 -0.1181  0.1941 -0.4706
 1527TIP3    H1 4587   0.309   4.446   4.619 -0.2442 -0.2562 -0.0106
 1527TIP3    H2 4588   0.386   4.475   4.746  0.1821  0.6918 -0.4743
 1528TIP3   OH2 4589   5.492   5.405   4.719  0.1360 -0.1179 -0.4839
 1528TIP3    H1 4590   5.566   5.465   4.727  0.4068 -0.5016 -0.0866
 1528TIP3    H2 4591   5.454   5.426   4.634 -1.3757  2.4557  0.6833
 1529TIP3   OH2 4592   1.298   1.449   5.014  0.2636 -0.3953  0.5855
 1529TIP3    H1 4593   1.290   1.423   5.106  3.0867  0.8512  1.3112
 1529TIP3    H2 4594   1.380   1.499   5.011  0.2766 -0.4122 -2.6330
 1530TIP3   OH2 4595   4.951   3.389   1.984  0.6763  0.1861  0.1252
 1530TIP3    H1 4596   4.888   3.369   2.053 -1.1333  1.8076 -0.9522
 1530TIP3    H2 4597   4.977   3.303   1.950  0.3787 -0.5717  1.7456
 1531TIP3   OH2 4598   4.448   4.722   2.829 -0.3441 -0.6377  0.3502
 1531TIP3    H1 4599   4.417   4.776   2.902 -0.6343  1.4319 -1.2087
 1531TIP3    H2 4600   4.371   4.712   2.773  0.1164 -1.3821 -0.1588
 1532TIP3   OH2 4601   4.854   2.335   4.722 -0.6050  0.4374  0.1924
 1532TIP3    H1 4602   4.814   2.313   4.638 -0.5185  0.6727  0.0889
 1532TIP3    H2 4603   4.925   2.394   4.700 -0.1479 -0.0406  0.3731
 1533TIP3   OH2 4604   1.456   0.264   1.974  0.4498  0.2063  0.5333
 1533TIP3    H1 4605   1.414   0.344   2.006  0.6508  1.3110 -1.7529
 1533TIP3    H2 4606   1.483   0.218   2.053 -0.3812  2.0069  1.9454
 1534TIP3   OH2 4607   2.807   1.985   2.875 -0.1464  0.1007  0.1436
 1534TIP3    H1 4608   2.899   1.999   2.852 -0.3155 -0.2140 -0.7478
 1534TIP3    H2 4609   2.810   1.950   2.964  0.5772  0.3684  0.2354
 1535TIP3   OH2 4610   3.860   3.838   3.336  0.1522  0.0372 -0.6503
 1535TIP3    H1 4611   3.879   3.926   3.371 -1.1647 -0.1103  0.4931
 1535TIP3    H2 4612   3.775   3.815   3.373 -0.1264 -1.2039 -1.9791
 1536TIP3   OH2 4613   5.842   3.203   4.371  0.5337 -0.2908 -0.2870
 1536TIP3    H1 4614   5.812   3.150   4.445  0.6886 -0.3803 -0.2881
 1536TIP3    H2 4615   5.872   3.139   4.306  0.1725 -0.2240 -0.5267
 1537TIP3   OH2 4616   2.292   4.247   3.748 -0.0774  0.4005  0.6609
 1537TIP3    H1 4617   2.326   4.180   3.807 -1.7735  0.3141  1.6214
 1537TIP3    H2 4618   2.270   4.201   3.668 -0.2412  0.0014  0.9327
 1538TIP3   OH2 4619   1.173   5.454   1.706 -0.0485 -0.1196  0.1770
 1538TIP3    H1 4620   1.199   5.378   1.653 -1.4348  0.4103 -1.3425
 1538TIP3    H2 4621   1.255   5.488   1.741  1.0194 -0.1716 -2.0989
 1539TIP3   OH2 4622   2.284   2.284   0.475  0.3784 -0.0670  0.3911
 1539TIP3    H1 4623   2.266   2.290   0.569  0.2638 -0.3221  0.3860
 1539TIP3    H2 4624   2.373   2.316   0.466  1.8388 -3.4978  1.0935
 1540TIP3   OH2 4625   6.229   4.689   2.340 -0.3195 -0.2097  0.0449
 1540TIP3    H1 4626   6.179   4.718   2.263  1.7377 -0.4993 -1.5099
 1540TIP3    H2 4627   6.176   4.620   2.379 -1.7851  0.4789 -0.6469
 1541TIP3   OH2 4628   4.682   4.229   0.938 -0.1765  0.8457 -0.1381
 1541TIP3    H1 4629   4.683   4.188   0.851 -1.7603 -0.8259  0.5724
 1541TIP3    H2 4630   4.591   4.253   0.952 -0.1453  0.1277  1.4818
 1542TIP3   OH2 4631   4.307   1.060   0.840  0.3577 -0.1922 -0.2858
 1542TIP3    H1 4632   4.213   1.044   0.827  0.5954 -1.9583 -0.1203
 1542TIP3    H2 4633   4.328   1.012   0.921  1.2518  0.8728  0.1420
 1543TIP3   OH2 4634   4.281   2.786   0.259  0.1220  0.2818  0.3243
 1543TIP3    H1 4635   4.356   2.729   0.243  0.6333  1.1003 -0.2216
 1543TIP3    H2 4636   4.307   2.871   0.226 -0.6690  0.8287  1.0458
 1544TIP3   OH2 4637   0.911   3.971   1.344 -0.5116  0.6465  0.2647
 1544TIP3    H1 4638   0.891   3.878   1.351 -0.1404  0.5983  0.7305
 1544TIP3    H2 4639   1.005   3.977   1.362 -0.1004  0.8870 -1.7252
 1545TIP3   OH2 4640   3.987   0.931   4.414 -0.0999  0.2539  0.3105
 1545TIP3    H1 4641   3.925   1.001   4.392 -1.3482 -0.8679  0.1038
 1545TIP3    H2 4642   4.057   0.940   4.350 -1.7760 -0.5718 -1.7775
 1546TIP3   OH2 4643   0.120   5.993   1.370  0.0031 -0.0319  0.4122
 1546TIP3    H1 4644   0.097   5.901   1.384  1.2714 -0.2386  1.3245
 1546TIP3    H2 4645   0.166   5.994   1.287  1.3654 -0.5046  1.1354
 1547TIP3   OH2 4646   0.649   1.709   0.269 -0.2255 -0.3680  0.0506
 1547TIP3    H1 4647   0.723   1.668   0.313 -0.3900 -0.9446 -0.1985
 1547TIP3    H2 4648   0.592   1.636   0.246 -0.4448 -0.0140 -0.5441
 1548TIP3   OH2 4649   1.367   2.685   4.370  0.4419  0.1036  0.2499
 1548TIP3    H1 4650   1.383   2.598   4.333 -0.4424 -0.3044  0.7856
 1548TIP3    H2 4651   1.454   2.724   4.378  0.9854 -1.1879  1.1021
 1549TIP3   OH2 4652   1.765   0.142   1.941 -0.1748 -0.0714  0.1588
 1549TIP3    H1 4653   1.751   0.047   1.933  0.4648 -0.0554 -1.5941
 1549TIP3    H2 4654   1.704   0.180   1.877  0.2141  0.6368  0.2016
 1550TIP3   OH2 4655   3.586   5.382   4.595  0.4821  0.0179  0.4057
 1550TIP3    H1 4656   3.671   5.411   4.629  0.9844 -0.1187 -0.6843
 1550TIP3    H2 4657   3.536   5.463   4.582  0.5526  0.1203  0.7621
 1551TIP3   OH2 4658   1.577   2.322   1.140 -0.2439  0.5035 -0.1074
 1551TIP3    H1 4659   1.661   2.277   1.154 -0.3211  0.6008  0.7024
 1551TIP3    H2 4660   1.601   2.414   1.128 -0.0056  0.1814 -2.6421
 1552TIP3   OH2 4661   0.974   1.042   2.517  0.3596 -0.4793  0.1301
 1552TIP3    H1 4662   0.922   1.058   2.596  1.0165 -1.7703  0.8602
 1552TIP3    H2 4663   1.021   0.960   2.536  3.2003  0.9446 -0.1846
 1553TIP3   OH2 4664   5.592   0.144   3.333 -0.2830 -0.3331 -0.0070
 1553TIP3    H1 4665   5.557   0.147   3.422 -1.4493 -0.3330 -0.4472
 1553TIP3    H2 4666   5.543   0.211   3.286  1.5849  0.9324 -0.2449
 1554TIP3   OH2 4667   2.540   0.664   1.953  0.3865  0.1161  0.5795
 1554TIP3    H1 4668   2.452   0.686   1.984  0.0549 -0.1256 -0.1575
 1554TIP3    H2 4669   2.525   0.611   1.874  1.1759 -1.2404  1.3056
 1555TIP3   OH2 4670   0.858   2.401   0.438 -0.7381  0.0814 -0.1637
 1555TIP3    H1 4671   0.784   2.406   0.378  0.5798  0.1986 -1.8365
 1555TIP3    H2 4672   0.931   2.371   0.384 -0.0798 -2.4666  1.9436
 1556TIP3   OH2 4673   2.235   5.142   0.281  0.0128 -0.0142 -0.0961
 1556TIP3    H1 4674   2.247   5.104   0.194  0.1560 -0.6187  0.1798
 1556TIP3    H2 4675   2.149   5.183   0.278 -0.6812 -1.3915 -0.0537
 1557TIP3   OH2 4676   5.185   5.807   3.568  1.0176  0.3951  0.2368
 1557TIP3    H1 4677   5.279   5.821   3.558  0.8233  1.8424  0.2505
 1557TIP3    H2 4678   5.147   5.893   3.557 -0.3469 -0.2235 -0.0370
 1558TIP3   OH2 4679   2.982   4.261   0.666 -0.6231 -0.2902 -0.4048
 1558TIP3    H1 4680   2.948   4.288   0.581 -0.1400  0.4037 -0.3848
 1558TIP3    H2 4681   2.921   4.299   0.730 -1.0162 -0.8571 -0.4417
 1559TIP3   OH2 4682   1.610   3.464   3.561 -0.1758  0.2928 -0.2354
 1559TIP3    H1 4683   1.533   3.439   3.510  1.8502 -0.6361 -3.1645
 1559TIP3    H2 4684   1.642   3.544   3.519  0.6158  0.4831  0.6957
 1560TIP3   OH2 4685   4.081   3.758   0.062  0.4431 -0.0623 -0.2864
 1560TIP3    H1 4686   3.998   3.771   0.018  0.4552 -1.7758 -0.8899
 1560TIP3    H2 4687   4.120   3.845   0.067 -1.2686  0.7327 -0.1824
 1561TIP3   OH2 4688   1.842   4.123   5.135  0.0928 -0.2303  0.4752
 1561TIP3    H1 4689   1.834   4.048   5.076  0.6248 -1.1800  1.5871
 1561TIP3    H2 4690   1.782   4.103   5.207 -1.8824  1.7146 -0.4775
 1562TIP3   OH2 4691   2.823   2.954   0.971  0.1700 -0.3639  0.3021
 1562TIP3    H1 4692   2.787   2.882   1.023  0.7370 -1.5438 -0.8887
 1562TIP3    H2 4693   2.780   2.947   0.886  0.1855  0.7680  0.1789
 1563TIP3   OH2 4694   1.635   4.413   0.210 -0.1110  0.3903 -0.4054
 1563TIP3    H1 4695   1.658   4.501   0.239  0.9916  0.2309 -0.7407
 1563TIP3    H2 4696   1.541   4.416   0.196 -0.5772  0.7649  2.1759
 1564TIP3   OH2 4697   2.015   2.229   0.436 -0.2286 -0.0138 -0.0057
 1564TIP3    H1 4698   2.105   2.263   0.430 -0.3067  0.1772 -0.1017
 1564TIP3    H2 4699   2.016   2.173   0.514  0.3143 -1.0579 -0.7248
 1565TIP3   OH2 4700   4.522   3.150   5.142 -0.2221  0.4420 -0.0296
 1565TIP3    H1 4701   4.489   3.067   5.178  1.5535  0.7250  2.4287
 1565TIP3    H2 4702   4.601   3.169   5.192  0.7782  2.4330 -2.1812
 1566TIP3   OH2 4703   5.126   3.626   3.762 -0.6781  0.2985 -0.0416
 1566TIP3    H1 4704   5.184   3.557   3.730 -2.1794 -0.8386 -0.4270
 1566TIP3    H2 4705   5.185   3.693   3.797  0.8341 -0.9642 -0.0773
 1567TIP3   OH2 4706   2.974   1.826   4.853  0.2806 -0.2170 -0.3545
 1567TIP3    H1 4707   2.985   1.914   4.819  0.0733  1.2431  2.9369
 1567TIP3    H2 4708   2.881   1.808   4.842 -0.1088  0.9083  0.7905
 1568TIP3   OH2 4709   2.722   0.692   4.717 -0.1576 -0.3151 -0.2416
 1568TIP3    H1 4710   2.773   0.759   4.762 -1.3876 -0.6265  1.7045
 1568TIP3    H2 4711   2.674   0.740   4.649  0.4828  0.4342 -0.1825
 1569TIP3   OH2 4712   0.382   5.913   3.391  0.0975 -0.4047 -0.0792
 1569TIP3    H1 4713   0.463   5.864   3.407 -0.7081 -1.5026  0.8015
 1569TIP3    H2 4714   0.332   5.903   3.472 -0.8122  0.4860 -0.5167
 1570TIP3   OH2 4715   5.468   5.559   3.587 -0.1776  0.2350 -0.0876
 1570TIP3    H1 4716   5.457   5.556   3.682 -2.4567 -0.6708 -0.3110
 1570TIP3    H2 4717   5.563   5.568   3.574  0.0432  3.2923  2.2814
 1571TIP3   OH2 4718   3.745   1.163   0.660 -0.1458  0.1167 -0.5450
 1571TIP3    H1 4719   3.712   1.220   0.730 -1.5024 -0.4485 -0.6876
 1571TIP3    H2 4720   3.681   1.173   0.589  0.5964 -0.1802 -1.2627
 1572TIP3   OH2 4721   2.634   5.425   2.578 -0.2225 -0.2449  0.1115
 1572TIP3    H1 4722   2.692   5.363   2.622 -0.6145  0.0608  1.0908
 1572TIP3    H2 4723   2.572   5.451   2.646 -0.8244  0.2689 -0.6291
 1573TIP3   OH2 4724   5.780   3.061   1.227  0.5501 -0.1326 -0.3742
 1573TIP3    H1 4725   5.739   3.102   1.303  0.4456 -1.5748  0.3749
 1573TIP3    H2 4726   5.862   3.026   1.260 -0.1066 -1.9613 -0.5551
 1574TIP3   OH2 4727   0.803   1.077   0.042 -0.0311  0.2042 -0.2467
 1574TIP3    H1 4728   0.826   1.129  -0.035  0.6188  2.6574  1.4934
 1574TIP3    H2 4729   0.720   1.113   0.072  1.1123  1.3221  1.8110
 1575TIP3   OH2 4730   0.221   1.451   4.538 -0.0058 -0.1471 -0.1328
 1575TIP3    H1 4731   0.258   1.500   4.465  1.0922 -0.4973  0.1696
 1575TIP3    H2 4732   0.127   1.468   4.533  0.2568  1.3147 -0.5128
 1576TIP3   OH2 4733   1.860   1.015   3.311 -0.3272  0.0246  0.2857
 1576TIP3    H1 4734   1.839   1.095   3.263  0.0959 -1.4412 -2.5967
 1576TIP3    H2 4735   1.799   1.014   3.385 -2.0244  1.7725 -0.9797
 1577TIP3   OH2 4736   2.635   1.637   0.039  0.2408  0.1637 -0.5383
 1577TIP3    H1 4737   2.730   1.646   0.045  0.0572  1.2799  1.3143
 1577TIP3    H2 4738   2.607   1.613   0.127 -1.1282 -1.1711 -1.2742
 1578TIP3   OH2 4739   3.643   2.002   2.751 -0.4105  0.2101  0.2762
 1578TIP3    H1 4740   3.619   2.061   2.822  2.1308  0.5563  0.9357
 1578TIP3    H2 4741   3.675   1.923   2.795  0.3568  0.0781 -0.4963
 1579TIP3   OH2 4742   0.637   3.700   1.607  0.6415  0.0653  0.4764
 1579TIP3    H1 4743   0.553   3.712   1.652  0.1484 -0.9365 -0.1650
 1579TIP3    H2 4744   0.633   3.613   1.569  1.4114  0.5470 -0.7779
 1580TIP3   OH2 4745   1.699   3.235   1.428 -0.1801 -0.5614  0.5132
 1580TIP3    H1 4746   1.726   3.318   1.389  0.1305 -0.4770  0.9077
 1580TIP3    H2 4747   1.779   3.198   1.464 -0.1840 -1.3689 -0.2687
 1581TIP3   OH2 4748   3.918   3.135   4.683  0.6795 -0.1031 -0.4873
 1581TIP3    H1 4749   3.982   3.063   4.678  0.5136 -0.1622 -2.6069
 1581TIP3    H2 4750   3.916   3.158   4.776  1.1447 -2.4662  0.1886
 1582TIP3   OH2 4751   3.416   1.136   2.589 -0.5601 -0.2041  0.0294
 1582TIP3    H1 4752   3.376   1.179   2.514  0.0524 -0.8281 -0.6667
 1582TIP3    H2 4753   3.349   1.073   2.619 -0.7667 -0.0180 -0.0386
 1583TIP3   OH2 4754   4.994   0.030   3.151 -0.1441  0.0509  0.1987
 1583TIP3    H1 4755   5.039  -0.055   3.150  0.3334  0.2938  0.7238
 1583TIP3    H2 4756   4.995   0.057   3.242 -0.1434  0.7059  0.0117
 1584TIP3   OH2 4757   4.894   3.333   0.135 -0.5308 -0.2243 -0.0510
 1584TIP3    H1 4758   4.830   3.268   0.108 -0.1094 -1.0362  0.8276
 1584TIP3    H2 4759   4.918   3.307   0.224 -0.6308  1.3671  0.4672
 1585TIP3   OH2 4760   4.920   2.643   0.643 -0.0557  0.1023 -0.0745
 1585TIP3    H1 4761   4.934   2.664   0.551  1.4691  0.6547  0.2468
 1585TIP3    H2 4762   4.885   2.724   0.681  0.4797  0.2773  0.0582
 1586TIP3   OH2 4763   3.662   4.422   4.605 -0.7525 -0.3932 -0.1281
 1586TIP3    H1 4764   3.669   4.470   4.687 -1.4172 -1.6630  0.6950
 1586TIP3    H2 4765   3.742   4.444   4.557 -0.7419  1.0021  0.4859
 1587TIP3   OH2 4766   2.219   1.616   4.717 -0.0126 -0.0159 -0.4739
 1587TIP3    H1 4767   2.284   1.610   4.647  1.2389 -3.6023  0.7762
 1587TIP3    H2 4768   2.189   1.707   4.714  3.3629  1.2266 -2.6037
 1588TIP3   OH2 4769   0.510   3.608   0.319  0.6595  0.4987 -0.3546
 1588TIP3    H1 4770   0.426   3.648   0.339 -0.0236 -0.5062 -1.0968
 1588TIP3    H2 4771   0.567   3.633   0.391 -0.5495  0.3909  0.6725
 1589TIP3   OH2 4772   2.016   4.309   4.588  0.3092 -0.0895 -0.3264
 1589TIP3    H1 4773   2.107   4.335   4.575  0.8537 -1.5883  0.2989
 1589TIP3    H2 4774   1.968   4.392   4.593  1.9593  0.8265  1.8005
 1590TIP3   OH2 4775   3.201   0.624   2.191 -0.4218  0.3412  0.2168
 1590TIP3    H1 4776   3.216   0.691   2.256 -1.1310  0.5840  0.1443
 1590TIP3    H2 4777   3.259   0.646   2.119  0.8467 -0.2994  1.0144
 1591TIP3   OH2 4778   4.683   3.918   3.634  0.5575  0.8019  0.2528
 1591TIP3    H1 4779   4.631   3.975   3.578 -1.0394 -0.4829  0.3347
 1591TIP3    H2 4780   4.773   3.947   3.622 -0.2891  4.6253  1.8023
 1592TIP3   OH2 4781   6.114   5.634   1.808 -0.2333 -0.0616 -0.5392
 1592TIP3    H1 4782   6.057   5.590   1.745 -2.8447  0.1790  1.5193
 1592TIP3    H2 4783   6.069   5.625   1.892  2.2489  1.1473  1.0343
 1593TIP3   OH2 4784   1.243   3.650   4.574  0.0869 -0.0343  0.6945
 1593TIP3    H1 4785   1.305   3.723   4.577 -0.6134  0.5420  1.9887
 1593TIP3    H2 4786   1.271   3.598   4.500  1.4945  0.7689  0.6300
 1594TIP3   OH2 4787   5.048   4.218   0.034  0.2640  0.0143 -0.0267
 1594TIP3    H1 4788   5.135   4.208   0.073 -0.1357 -0.4677  0.7645
 1594TIP3    H2 4789   4.991   4.162   0.087 -1.3812  3.4832  2.2162
 1595TIP3   OH2 4790   0.870   2.429   4.841 -0.1705 -0.6212 -0.0170
 1595TIP3    H1 4791   0.811   2.423   4.766  0.4008 -2.1080 -0.3803
 1595TIP3    H2 4792   0.949   2.470   4.806 -0.5679  0.4051  0.2323
 1596TIP3   OH2 4793   0.164   0.661   0.004  0.1633 -0.4155  0.0391
 1596TIP3    H1 4794   0.231   0.593   0.014  1.3270  0.6145 -0.4445
 1596TIP3    H2 4795   0.192   0.731   0.063 -0.6398 -0.0870  0.0377
 1597TIP3   OH2 4796   3.439   0.508   2.835 -0.2518  0.2391  0.4364
 1597TIP3    H1 4797   3.532   0.495   2.851 -0.7133 -2.3880  1.4618
 1597TIP3    H2 4798   3.409   0.561   2.909 -0.0895 -1.4463  1.7555
 1598TIP3   OH2 4799   0.464   5.542   1.481 -0.0943 -0.5140  0.1146
 1598TIP3    H1 4800   0.451   5.490   1.401  1.6742 -0.3273 -0.3344
 1598TIP3    H2 4801   0.385   5.527   1.532 -2.2077  0.8895 -2.4846
 1599TIP3   OH2 4802   0.177   5.128   0.522  0.3388  0.1063 -0.7165
 1599TIP3    H1 4803   0.200   5.195   0.588  1.1325 -0.6039 -0.2377
 1599TIP3    H2 4804   0.233   5.148   0.447  0.4153  0.1136 -0.6576
 1600TIP3   OH2 4805   5.426   0.002   0.134  0.3976  1.2210  0.1402
 1600TIP3    H1 4806   5.396  -0.057   0.065 -1.3243  1.0874  0.9654
 1600TIP3    H2 4807   5.417   0.089   0.097  0.9679  1.0754 -0.3474
 1601TIP3   OH2 4808   3.252   4.358   0.612 -0.1595  0.0184  0.0135
 1601TIP3    H1 4809   3.197   4.289   0.651  0.5152  0.6490  2.2707
 1601TIP3    H2 4810   3.338   4.317   0.601 -0.4209 -0.2433 -1.1636
 1602TIP3   OH2 4811   6.089   0.137   1.081  0.0534  0.2827 -0.2551
 1602TIP3    H1 4812   6.024   0.074   1.113 -0.5997 -0.2341 -2.4417
 1602TIP3    H2 4813   6.155   0.084   1.037  1.0383  0.9514  0.3731
 1603TIP3   OH2 4814   4.411   3.037   1.141 -0.1179 -0.2038 -0.0191
 1603TIP3    H1 4815   4.436   2.975   1.072 -1.2163  0.5006 -1.0893
 1603TIP3    H2 4816   4.322   3.013   1.164 -0.3835  0.6722 -0.0996
 1604TIP3   OH2 4817   5.169   3.034   4.556  0.0924  0.6593 -0.0677
 1604TIP3    H1 4818   5.122   3.061   4.635  1.8629 -0.2785  1.3750
 1604TIP3    H2 4819   5.240   3.097   4.548  0.0713  0.5994 -0.7983
 1605TIP3   OH2 4820   1.456   5.870   4.057 -0.5640  0.6091  0.3749
 1605TIP3    H1 4821   1.544   5.877   4.094 -0.4856  0.3567  0.2409
 1605TIP3    H2 4822   1.412   5.806   4.112  0.1138 -1.1280 -0.9945
 1606TIP3   OH2 4823   2.546   0.091   3.943 -0.1398  0.7534  0.4056
 1606TIP3    H1 4824   2.576   0.004   3.916  0.0947  1.2406 -0.9954
 1606TIP3    H2 4825   2.573   0.099   4.034  2.1009  0.3193 -0.1643
 1607TIP3   OH2 4826   5.595   5.035   4.002  0.0899 -0.2426 -0.1090
 1607TIP3    H1 4827   5.583   4.956   3.949 -2.5775  0.8672 -1.3403
 1607TIP3    H2 4828   5.567   5.010   4.090 -0.1293 -0.8214 -0.3400
 1608TIP3   OH2 4829   1.327   1.527   1.786  0.2346  0.8066 -0.2900
 1608TIP3    H1 4830   1.336   1.616   1.753  0.5273  0.2751 -1.7048
 1608TIP3    H2 4831   1.232   1.516   1.799  0.1286  1.0681 -0.8356
 1609TIP3   OH2 4832   3.194   5.641   4.613  0.6929  0.0821  0.2945
 1609TIP3    H1 4833   3.130   5.581   4.653 -1.1184  0.9491 -1.1756
 1609TIP3    H2 4834   3.195   5.717   4.671 -1.0052  0.8209 -0.5991
 1610TIP3   OH2 4835   2.383   0.202   2.386  0.7067  0.3480 -0.8597
 1610TIP3    H1 4836   2.437   0.258   2.442  0.0819  0.9155 -0.8266
 1610TIP3    H2 4837   2.311   0.257   2.357 -0.7779 -0.8297  0.3993
 1611TIP3   OH2 4838   0.909   5.481   1.326  0.9358 -1.1498 -0.4361
 1611TIP3    H1 4839   0.969   5.486   1.252 -0.4855 -1.4468 -1.6597
 1611TIP3    H2 4840   0.859   5.402   1.311  2.2500 -2.6365  2.1996
 1612TIP3   OH2 4841   5.263   0.838   1.266  0.0808 -0.4381 -0.1765
 1612TIP3    H1 4842   5.295   0.749   1.274  1.9716  0.1524 -0.7282
 1612TIP3    H2 4843   5.333   0.893   1.302 -0.5338  0.8903 -0.9036
 1613TIP3   OH2 4844   5.540   3.622   3.486  0.5655 -0.4444 -0.0787
 1613TIP3    H1 4845   5.623   3.657   3.453 -0.2513  2.3596  0.6076
 1613TIP3    H2 4846   5.561   3.532   3.512  3.0312 -0.2750 -1.1894
 1614TIP3   OH2 4847   3.062   0.469   1.592 -0.0737 -0.1567 -0.0757
 1614TIP3    H1 4848   2.990   0.519   1.630 -0.9301 -1.3493 -0.0788
 1614TIP3    H2 4849   3.027   0.432   1.511  0.8130 -0.0550 -0.5253
 1615TIP3   OH2 4850   0.689   1.339   1.578  0.5201  0.2472 -0.0288
 1615TIP3    H1 4851   0.691   1.423   1.531 -1.3767  0.4233  0.1235
 1615TIP3    H2 4852   0.658   1.276   1.513 -0.5535  0.1810  0.5245
 1616TIP3   OH2 4853   3.702   5.354   3.631 -0.0284  0.1956 -0.0386
 1616TIP3    H1 4854   3.700   5.446   3.602  0.7549  0.5951  1.1043
 1616TIP3    H2 4855   3.776   5.316   3.585 -0.8140 -0.1014 -1.1120
 1617TIP3   OH2 4856   1.983   4.385   3.122  0.2860 -0.5311  0.2084
 1617TIP3    H1 4857   1.924   4.429   3.060 -0.9944 -2.2752  0.1143
 1617TIP3    H2 4858   1.931   4.377   3.202  1.3870  0.2943  1.0481
 1618TIP3   OH2 4859   2.509   4.809   3.727  0.5069  0.2642  0.1203
 1618TIP3    H1 4860   2.516   4.822   3.822  1.8944  0.0964  0.0627
 1618TIP3    H2 4861   2.580   4.749   3.706 -1.8306 -2.4534 -0.5590
 1619TIP3   OH2 4862   0.994   1.238   3.094 -0.2061  0.6866 -0.1756
 1619TIP3    H1 4863   0.972   1.227   3.187  0.5693  0.8767  0.0377
 1619TIP3    H2 4864   1.056   1.167   3.075  1.8531  2.2597  0.2162
 1620TIP3   OH2 4865   4.975   0.620   1.121 -0.1036 -0.1987  1.0806
 1620TIP3    H1 4866   4.993   0.692   1.060 -2.6709 -0.7479 -0.4623
 1620TIP3    H2 4867   4.932   0.662   1.195 -1.0649 -0.0285  0.4457
 1621TIP3   OH2 4868   4.930   3.968   2.962  0.4859  0.2528  0.0532
 1621TIP3    H1 4869   4.897   3.884   2.995 -1.2026  1.0175  0.3881
 1621TIP3    H2 4870   4.964   4.013   3.039  4.5744 -1.3839 -0.5437
 1622TIP3   OH2 4871   1.812   3.265   3.413  0.0291 -0.4622 -0.0681
 1622TIP3    H1 4872   1.847   3.305   3.493 -1.7131  1.4355 -0.1754
 1622TIP3    H2 4873   1.839   3.324   3.343  0.1109 -1.2155 -0.6859
 1623TIP3   OH2 4874   2.108   0.114   4.465  0.0187 -0.0398  0.3839
 1623TIP3    H1 4875   2.051   0.065   4.524 -1.3434  1.1464  0.0791
 1623TIP3    H2 4876   2.138   0.049   4.401 -3.2632 -0.2021 -1.1725
 1624TIP3   OH2 4877   2.783   5.733   3.865 -0.2031 -0.3301 -0.3352
 1624TIP3    H1 4878   2.873   5.720   3.837 -0.2502 -2.1663  0.2273
 1624TIP3    H2 4879   2.731   5.679   3.805 -0.8521  0.1394 -0.2099
 1625TIP3   OH2 4880   6.093   4.899   2.573 -0.0216 -0.0766  0.0108
 1625TIP3    H1 4881   6.178   4.891   2.615 -0.5956 -0.6796  1.0983
 1625TIP3    H2 4882   6.069   4.809   2.550  1.1591  0.3591 -3.5188
 1626TIP3   OH2 4883   4.537   4.626   3.101  0.5450  0.4772 -0.6126
 1626TIP3    H1 4884   4.475   4.554   3.094  0.7940  0.0566  1.0990
 1626TIP3    H2 4885   4.485   4.699   3.134  0.8949  0.1717  0.6630
 1627TIP3   OH2 4886   6.047   0.972   4.446 -0.3077 -0.0126 -0.7530
 1627TIP3    H1 4887   5.993   0.921   4.506  1.5620  0.8750  1.8590
 1627TIP3    H2 4888   5.990   1.045   4.419 -1.1866 -0.4280 -0.0707
 1628TIP3   OH2 4889   5.757   4.036   1.558 -0.0738  0.1371 -0.3316
 1628TIP3    H1 4890   5.712   4.076   1.484 -0.2116  1.3645  0.3822
 1628TIP3    H2 4891   5.691   4.034   1.628 -0.4128 -2.3886 -0.6332
 1629TIP3   OH2 4892   3.098   5.912   4.430 -0.0886  0.1685 -0.6958
 1629TIP3    H1 4893   3.074   5.847   4.363  0.0922  1.1063 -1.6952
 1629TIP3    H2 4894   3.141   5.982   4.381 -1.1652  1.5122  0.2044
 1630TIP3   OH2 4895   0.535   1.178   4.322  0.0583 -0.2201  0.5774
 1630TIP3    H1 4896   0.479   1.183   4.399  0.1060 -0.7707  0.6560
 1630TIP3    H2 4897   0.501   1.245   4.263 -0.4914 -0.3370  0.7509
 1631TIP3   OH2 4898   2.896   3.128   4.194  0.3885  0.4515 -0.4404
 1631TIP3    H1 4899   2.925   3.153   4.282 -3.0964  0.2159  0.9670
 1631TIP3    H2 4900   2.936   3.043   4.178  1.6194  0.8013  0.5874
 1632TIP3   OH2 4901   3.035   3.820   2.944  0.3528  0.1449  0.0989
 1632TIP3    H1 4902   3.001   3.745   2.896 -0.9297  0.4342  0.5014
 1632TIP3    H2 4903   3.092   3.783   3.011  1.1511 -0.3416 -0.8343
 1633TIP3   OH2 4904   3.388   0.695   4.051 -0.1807 -0.2244  0.9875
 1633TIP3    H1 4905   3.379   0.773   4.107 -1.7122  0.5249 -0.2167
 1633TIP3    H2 4906   3.317   0.703   3.988  2.0330 -0.5153 -1.7163
 1634TIP3   OH2 4907   0.772   5.805   3.178 -0.1199  0.1805  0.4827
 1634TIP3    H1 4908   0.751   5.733   3.119 -1.5684 -0.1637  1.3799
 1634TIP3    H2 4909   0.866   5.794   3.196  0.0862 -0.3905 -0.8038
 1635TIP3   OH2 4910   1.416   5.121   2.879  0.2573 -0.5286 -0.1870
 1635TIP3    H1 4911   1.381   5.207   2.904  0.4978 -0.2359 -0.8213
 1635TIP3    H2 4912   1.465   5.091   2.956 -1.1874 -0.8501  0.6339
 1636TIP3   OH2 4913   5.956   1.971   0.820  0.4779 -0.0108 -0.4009
 1636TIP3    H1 4914   6.030   1.966   0.758  1.1012 -0.7625  0.3841
 1636TIP3    H2 4915   5.991   2.019   0.895  0.2681 -0.6500  0.1126
 1637TIP3   OH2 4916   1.377   4.577   2.278 -0.2255  0.2265 -0.2362
 1637TIP3    H1 4917   1.405   4.563   2.187  0.6183 -0.2396  0.0950
 1637TIP3    H2 4918   1.353   4.489   2.309 -0.8720  0.4378 -0.1146
 1638TIP3   OH2 4919   1.635   1.855   0.087 -0.1391  0.9290  0.3411
 1638TIP3    H1 4920   1.560   1.811   0.127 -0.3295  2.2522  1.5465
 1638TIP3    H2 4921   1.710   1.824   0.137  0.5006 -1.9132 -2.1026
 1639TIP3   OH2 4922   0.547   3.480   1.155  0.3946 -0.4773  0.6559
 1639TIP3    H1 4923   0.544   3.559   1.101  0.5830  1.0051  2.6848
 1639TIP3    H2 4924   0.638   3.474   1.183  0.0537 -0.4585  1.8165
 1640TIP3   OH2 4925   4.304   3.576   4.134  0.4796  0.4939 -0.2202
 1640TIP3    H1 4926   4.320   3.668   4.154  0.9218  0.9979 -2.5700
 1640TIP3    H2 4927   4.313   3.531   4.218  1.4142  2.4336  0.7850
 1641TIP3   OH2 4928   1.013   4.661   5.077 -0.0502 -0.2157 -0.5735
 1641TIP3    H1 4929   1.079   4.656   5.008  1.4405 -1.1359  0.8491
 1641TIP3    H2 4930   0.936   4.619   5.039  0.5968 -0.3395 -1.8170
 1642TIP3   OH2 4931   3.042   5.261   0.953 -0.3104  0.2326 -0.3058
 1642TIP3    H1 4932   3.028   5.166   0.954  1.5474 -0.0956  1.6877
 1642TIP3    H2 4933   3.108   5.275   0.885 -1.0467  0.2108 -1.0436
 1643TIP3   OH2 4934   2.275   2.325   2.726 -0.3537  0.0266 -0.5555
 1643TIP3    H1 4935   2.240   2.350   2.641 -1.7040  0.1951  0.0305
 1643TIP3    H2 4936   2.205   2.344   2.788  0.2594 -0.9571  0.4861
 1644TIP3   OH2 4937   4.284   5.928   4.392  0.0930  0.1148 -0.1338
 1644TIP3    H1 4938   4.352   5.955   4.331 -0.3487 -0.6373 -0.9738
 1644TIP3    H2 4939   4.311   5.842   4.423 -0.4061 -0.1319 -0.3695
 1645TIP3   OH2 4940   2.284   3.460   2.836  0.0419  0.2750 -0.0745
 1645TIP3    H1 4941   2.269   3.548   2.871  0.7002 -0.2136  1.5251
 1645TIP3    H2 4942   2.374   3.461   2.806 -0.2101  0.3872 -0.8397
 1646TIP3   OH2 4943   1.970   3.420   3.596 -0.0438  0.2661  0.4551
 1646TIP3    H1 4944   2.026   3.402   3.672 -1.2578  0.0733  1.3410
 1646TIP3    H2 4945   1.962   3.516   3.595  0.3753  0.3023  0.2601
 1647TIP3   OH2 4946   5.906   3.088   3.783 -0.0348  0.3640 -0.3861
 1647TIP3    H1 4947   5.859   3.170   3.797  0.0259  0.7143 -2.0410
 1647TIP3    H2 4948   5.913   3.080   3.687  0.1671 -1.4516 -0.2593
 1648TIP3   OH2 4949   1.907   2.135   1.957 -0.2005  0.1167  0.5021
 1648TIP3    H1 4950   1.958   2.197   2.009  0.9328 -0.5726  0.2646
 1648TIP3    H2 4951   1.839   2.104   2.016 -1.7567  2.6752  0.1730
 1649TIP3   OH2 4952   4.217   4.630   3.278  0.4072 -0.3929  0.2926
 1649TIP3    H1 4953   4.219   4.580   3.196  1.6006  0.9636 -0.5509
 1649TIP3    H2 4954   4.255   4.571   3.343 -0.4920 -1.4627 -0.1169
 1650TIP3   OH2 4955   1.668   0.829   0.474 -0.2241  0.0026  0.8179
 1650TIP3    H1 4956   1.692   0.906   0.422  0.5898 -0.9587 -0.2836
 1650TIP3    H2 4957   1.697   0.851   0.562  1.7996  0.2401  0.1669
 1651TIP3   OH2 4958   4.633   4.937   2.482  0.4670  0.5344  0.1239
 1651TIP3    H1 4959   4.661   4.979   2.564  1.0408  1.1780 -0.3917
 1651TIP3    H2 4960   4.608   5.010   2.425  0.0708  0.0906 -0.2768
 1652TIP3   OH2 4961   6.274   5.105   1.335  0.1950 -0.1002  0.1150
 1652TIP3    H1 4962   6.260   5.175   1.399  0.7370  1.0383 -0.9470
 1652TIP3    H2 4963   6.279   5.151   1.251  0.3537 -1.4561 -0.6454
 1653TIP3   OH2 4964   3.585   2.191   1.437 -0.1911 -0.1537  0.9792
 1653TIP3    H1 4965   3.640   2.252   1.487  1.1992 -1.5281  1.2294
 1653TIP3    H2 4966   3.550   2.243   1.365  2.5961  0.5341 -0.0061
 1654TIP3   OH2 4967   2.679   1.867   0.308 -0.5467 -0.2764  0.8975
 1654TIP3    H1 4968   2.686   1.913   0.392 -1.2271 -1.3092  1.5353
 1654TIP3    H2 4969   2.720   1.782   0.323 -1.3940 -0.7807  0.4246
 1655TIP3   OH2 4970   3.373   3.197   1.402  0.0955  0.2434  0.5595
 1655TIP3    H1 4971   3.458   3.162   1.378 -0.5053 -1.0013  0.1782
 1655TIP3    H2 4972   3.336   3.230   1.319  0.8774  2.3786  0.9904
 1656TIP3   OH2 4973   4.750   5.550   4.825 -0.3886  0.0702 -0.2869
 1656TIP3    H1 4974   4.748   5.454   4.816  1.7263  0.1066 -2.0978
 1656TIP3    H2 4975   4.673   5.579   4.776 -1.2928 -0.6986  0.6367
 1657TIP3   OH2 4976   5.415   4.902   1.964  0.0408 -0.0468 -0.6786
 1657TIP3    H1 4977   5.443   4.970   2.025 -1.1643  0.5185 -0.7313
 1657TIP3    H2 4978   5.320   4.914   1.956  0.1206 -0.3415 -2.3902
 1658TIP3   OH2 4979   0.332   3.565   3.026  0.1261 -0.0315 -0.3256
 1658TIP3    H1 4980   0.264   3.599   2.968 -1.6073 -0.5289  1.3378
 1658TIP3    H2 4981   0.413   3.574   2.975 -0.6684  3.3834 -1.2313
 1659TIP3   OH2 4982   5.646   0.839   2.186 -0.0073 -0.5314  0.9918
 1659TIP3    H1 4983   5.579   0.844   2.254  1.3772 -1.7964  2.5093
 1659TIP3    H2 4984   5.676   0.748   2.188  3.2712  0.4332  1.9119
 1660TIP3   OH2 4985   5.784   3.811   4.080 -0.2450  0.6120  0.5621
 1660TIP3    H1 4986   5.731   3.769   4.147 -1.4776  1.9743  0.4879
 1660TIP3    H2 4987   5.818   3.891   4.122  1.7225 -0.1724  0.5844
 1661TIP3   OH2 4988   3.420   2.442   3.046  0.1053 -0.0221  0.0306
 1661TIP3    H1 4989   3.500   2.451   2.995 -0.6106 -0.4954 -1.2306
 1661TIP3    H2 4990   3.349   2.455   2.982 -0.8301 -0.8255  0.8666
 1662TIP3   OH2 4991   3.935   1.035   3.883  0.0982  0.7280 -0.3292
 1662TIP3    H1 4992   3.843   1.054   3.866  0.0878  1.0278  0.0657
 1662TIP3    H2 4993   3.972   1.117   3.915  0.5599  0.6729 -0.6983
 1663TIP3   OH2 4994   5.743   1.481   2.679  0.4859  0.8075 -0.1251
 1663TIP3    H1 4995   5.733   1.569   2.716  0.8730  1.0789 -0.6456
 1663TIP3    H2 4996   5.814   1.490   2.615  2.5326 -0.4990  1.8032
 1664TIP3   OH2 4997   4.854   4.180   3.849 -0.0626  0.2909  0.0805
 1664TIP3    H1 4998   4.874   4.158   3.758  2.6949 -0.3282  0.7479
 1664TIP3    H2 4999   4.820   4.099   3.887 -1.6727  0.6780 -0.4689
 1665TIP3   OH2 5000   2.256   2.178   4.331 -0.3178  0.0591  0.1499
 1665TIP3    H1 5001   2.242   2.269   4.306 -0.2569 -0.2357 -1.0167
 1665TIP3    H2 5002   2.348   2.161   4.312  0.0130  0.1029  1.5810
 1666TIP3   OH2 5003   2.268   4.729   4.506 -0.1270 -0.1959 -0.4640
 1666TIP3    H1 5004   2.223   4.771   4.579  1.8856 -1.4153  1.6286
 1666TIP3    H2 5005   2.331   4.794   4.476 -1.1101  0.3904 -1.3426
 1667TIP3   OH2 5006   0.205   5.830   2.832  0.6748 -0.7518 -0.2574
 1667TIP3    H1 5007   0.231   5.792   2.748  0.9765 -0.6665 -0.2043
 1667TIP3    H2 5008   0.196   5.924   2.813 -1.2202 -0.9690 -0.6784
 1668TIP3   OH2 5009   3.776   3.923   4.553  0.1231  0.3891  0.7318
 1668TIP3    H1 5010   3.776   3.980   4.476 -1.4502  0.3882  0.7141
 1668TIP3    H2 5011   3.839   3.964   4.612  0.1030  1.3298  0.1317
 1669TIP3   OH2 5012   3.823   5.289   2.014 -0.2930  0.6540 -0.3675
 1669TIP3    H1 5013   3.743   5.333   2.043  0.5006  0.7828  1.7888
 1669TIP3    H2 5014   3.886   5.307   2.083  1.6820  0.7019 -2.1070
 1670TIP3   OH2 5015   0.048   2.573   3.240 -0.7950  0.0193  0.1043
 1670TIP3    H1 5016   0.062   2.664   3.265 -1.2207  0.9616 -2.7199
 1670TIP3    H2 5017   0.049   2.525   3.323  0.3403  2.4388  1.6119
 1671TIP3   OH2 5018   0.840   5.352   0.438  0.3291  0.5040 -0.4426
 1671TIP3    H1 5019   0.882   5.285   0.384  1.3242  0.2255  0.6414
 1671TIP3    H2 5020   0.802   5.413   0.375  1.6729  0.3333 -1.4624
 1672TIP3   OH2 5021   3.666   5.992   3.208 -0.2502 -0.1631  0.0436
 1672TIP3    H1 5022   3.612   5.914   3.198  0.2536 -0.6588  1.0484
 1672TIP3    H2 5023   3.621   6.044   3.273  1.1386 -1.2330  1.9707
 1673TIP3   OH2 5024   3.196   1.769   0.019 -0.0987  0.6517  0.2352
 1673TIP3    H1 5025   3.178   1.699  -0.044  1.0266  1.1271 -0.6530
 1673TIP3    H2 5026   3.291   1.768   0.030 -0.1790  1.2842  1.1217
 1674TIP3   OH2 5027   3.086   0.773   3.946 -0.3728 -0.4972  0.4688
 1674TIP3    H1 5028   3.108   0.849   3.999  1.8866 -1.6767  1.3755
 1674TIP3    H2 5029   2.992   0.760   3.960 -0.3134  0.6760  2.2267
 1675TIP3   OH2 5030   5.988   2.078   2.954 -0.5263  0.4521 -0.1380
 1675TIP3    H1 5031   5.902   2.064   2.916  0.4228  0.3709 -2.3762
 1675TIP3    H2 5032   6.025   1.990   2.962 -0.3388  0.5486  0.0792
 1676TIP3   OH2 5033   2.606   4.560   3.246 -0.0572 -0.6734  0.6025
 1676TIP3    H1 5034   2.622   4.634   3.187  0.8228 -2.2608 -1.2552
 1676TIP3    H2 5035   2.619   4.596   3.334 -0.9655  1.6666 -0.1532
 1677TIP3   OH2 5036   1.153   0.249   2.801 -0.0211  0.2884  0.4178
 1677TIP3    H1 5037   1.171   0.191   2.875  0.5526  1.2608  1.0682
 1677TIP3    H2 5038   1.077   0.209   2.758 -2.1412  1.0766  3.1091
 1678TIP3   OH2 5039   1.023   0.387   1.413 -0.0123 -0.2053  0.1454
 1678TIP3    H1 5040   0.965   0.339   1.354  0.6151  0.2174 -0.8400
 1678TIP3    H2 5041   1.104   0.398   1.363  0.2616  0.8348  0.7930
 1679TIP3   OH2 5042   0.013   0.535   2.284  0.7340 -0.3577 -0.0009
 1679TIP3    H1 5043   0.008   0.631   2.288 -0.5336 -0.4305  2.7085
 1679TIP3    H2 5044   0.022   0.515   2.191  0.2485  2.3693 -0.7208
 1680TIP3   OH2 5045   2.311   4.881   3.449 -0.5743  0.3664  0.2208
 1680TIP3    H1 5046   2.377   4.820   3.481 -2.2935 -2.5302 -1.3096
 1680TIP3    H2 5047   2.229   4.850   3.487 -1.6670  1.1221 -1.3928
 1681TIP3   OH2 5048   6.367   5.140   3.479  0.4055 -0.3033 -0.3671
 1681TIP3    H1 5049   6.303   5.188   3.532 -0.8722 -0.6769 -1.5187
 1681TIP3    H2 5050   6.332   5.143   3.390  3.2451  1.6526 -1.5703
 1682TIP3   OH2 5051   1.903   2.531   2.220 -0.5514  0.8642 -0.9052
 1682TIP3    H1 5052   1.935   2.513   2.308 -1.6904 -2.2443 -1.0184
 1682TIP3    H2 5053   1.982   2.544   2.167  0.1896  1.2085  0.2593
 1683TIP3   OH2 5054   4.213   1.161   2.011 -0.1405 -1.0047 -0.2584
 1683TIP3    H1 5055   4.284   1.177   2.072 -0.8228 -1.4390  0.6625
 1683TIP3    H2 5056   4.241   1.085   1.960 -0.2478 -1.6284  0.5909
 1684TIP3   OH2 5057   0.591   5.145   3.345  0.0088 -0.0199  0.4365
 1684TIP3    H1 5058   0.679   5.166   3.376  0.6583 -1.2982 -0.4624
 1684TIP3    H2 5059   0.571   5.214   3.281  0.9962 -0.5433 -0.4694
 1685TIP3   OH2 5060   5.691   5.573   3.258 -0.5488 -0.6590  0.0514
 1685TIP3    H1 5061   5.783   5.547   3.247 -0.5019 -0.0927 -1.0034
 1685TIP3    H2 5062   5.641   5.499   3.224 -0.4490 -0.4815 -0.5063
 1686TIP3   OH2 5063   5.737   4.772   0.035  0.0212  0.1090  0.0748
 1686TIP3    H1 5064   5.810   4.814  -0.011  0.1377 -0.1870 -0.0107
 1686TIP3    H2 5065   5.720   4.829   0.110 -1.1686  1.4701 -1.1437
 1687TIP3   OH2 5066   1.201   4.720   1.595  0.2114 -0.4874  0.0714
 1687TIP3    H1 5067   1.283   4.752   1.556  0.3420 -0.8660  0.0303
 1687TIP3    H2 5068   1.226   4.640   1.641  0.4085  0.8905  2.4871
 1688TIP3   OH2 5069   4.518   2.402   0.017 -0.1776  0.5914  0.6419
 1688TIP3    H1 5070   4.473   2.470  -0.033 -0.5720 -0.9058 -1.1559
 1688TIP3    H2 5071   4.448   2.348   0.052  0.1477  0.2234  0.7359
 1689TIP3   OH2 5072   1.027   4.948   0.542 -0.3641  0.5649 -0.1183
 1689TIP3    H1 5073   1.074   5.004   0.481 -0.3220  0.3714 -0.2665
 1689TIP3    H2 5074   0.977   4.888   0.487  0.5879 -0.3847  0.0023
 1690TIP3   OH2 5075   5.191   0.316   3.717 -0.3597 -0.1316  0.1130
 1690TIP3    H1 5076   5.106   0.309   3.674 -0.3709 -0.3900  0.1742
 1690TIP3    H2 5077   5.214   0.225   3.739  0.3269 -0.1603 -0.6718
 1691TIP3   OH2 5078   1.359   1.710   3.571 -0.1582  0.2980 -0.4580
 1691TIP3    H1 5079   1.399   1.624   3.562  1.2121  0.5705  1.9709
 1691TIP3    H2 5080   1.375   1.753   3.487  0.4083 -1.2903 -1.2077
 1692TIP3   OH2 5081   1.164   5.770   2.662 -0.2451  0.7393  0.1234
 1692TIP3    H1 5082   1.194   5.860   2.653  0.1205  0.5222 -0.9984
 1692TIP3    H2 5083   1.154   5.739   2.572 -2.7767  0.4356  0.4366
 1693TIP3   OH2 5084   4.217   5.582   1.162 -0.4795 -0.2084 -0.2030
 1693TIP3    H1 5085   4.173   5.606   1.243 -0.7052 -2.9300  0.5646
 1693TIP3    H2 5086   4.306   5.615   1.172 -1.0660  1.2953  0.2307
 1694TIP3   OH2 5087   4.989   3.075   1.526 -0.5822  0.1151 -0.6666
 1694TIP3    H1 5088   4.997   3.045   1.435  1.9045  0.8884 -0.7590
 1694TIP3    H2 5089   5.028   3.006   1.578 -3.2385 -0.9844  0.0622
 1695TIP3   OH2 5090   5.904   0.315   3.987  0.2898  0.4221 -0.7227
 1695TIP3    H1 5091   5.861   0.395   3.957 -1.4953 -0.3169 -0.2800
 1695TIP3    H2 5092   5.941   0.338   4.073  0.0169  0.8322 -0.7150
 1696TIP3   OH2 5093   5.880   0.920   3.701  0.0788  1.1977 -0.6002
 1696TIP3    H1 5094   5.921   0.833   3.697  0.3566  1.2755  0.3455
 1696TIP3    H2 5095   5.802   0.912   3.646  0.5907  0.6253 -1.2661
 1697TIP3   OH2 5096   3.987   2.838   3.433  0.4573 -0.0060  0.3609
 1697TIP3    H1 5097   4.014   2.855   3.523  0.8529 -0.4293  0.3253
 1697TIP3    H2 5098   3.921   2.768   3.440  1.9737 -1.5203  0.1809
 1698TIP3   OH2 5099   0.712   3.631   0.806  0.1075 -0.3865 -0.6265
 1698TIP3    H1 5100   0.686   3.667   0.891  2.0031  1.6629 -0.8359
 1698TIP3    H2 5101   0.804   3.608   0.816  0.0292 -1.3305 -1.7869
 1699TIP3   OH2 5102   0.494  -0.011   1.858 -0.9538 -0.2061 -0.1663
 1699TIP3    H1 5103   0.401  -0.005   1.839 -0.7121  3.2164 -0.8662
 1699TIP3    H2 5104   0.510   0.055   1.925  0.8509 -1.4301  0.7292
 1700TIP3   OH2 5105   2.939   4.380   3.357  0.0137 -0.0696 -0.6262
 1700TIP3    H1 5106   2.969   4.316   3.420  0.5122  0.4665 -0.3156
 1700TIP3    H2 5107   2.969   4.346   3.272  1.0103  0.1710 -0.3806
 1701TIP3   OH2 5108   2.004   2.612   0.554 -0.1539 -0.2453 -1.1194
 1701TIP3    H1 5109   1.965   2.540   0.604 -0.0579  0.4811  0.0528
 1701TIP3    H2 5110   1.940   2.683   0.560  0.5162  0.3433 -0.7413
 1702TIP3   OH2 5111   4.486   3.306   0.528 -0.2190  0.1053  0.1046
 1702TIP3    H1 5112   4.498   3.360   0.607  0.2978  0.1927 -0.0331
 1702TIP3    H2 5113   4.536   3.351   0.460  1.2545 -1.1786  0.2718
 1703TIP3   OH2 5114   0.727   4.766   0.151 -0.1677  0.3429 -0.0356
 1703TIP3    H1 5115   0.706   4.707   0.079  0.7568 -0.5620  0.4094
 1703TIP3    H2 5116   0.715   4.853   0.115  0.7614 -0.0824 -1.4567
 1704TIP3   OH2 5117   5.155   3.331   0.745  0.3750  0.1892  0.1995
 1704TIP3    H1 5118   5.126   3.371   0.827 -0.9942 -0.4442  0.0544
 1704TIP3    H2 5119   5.128   3.392   0.677 -1.1454 -0.6211  0.0268
 1705TIP3   OH2 5120   2.210   0.757   1.830  0.3566 -0.3571 -0.1635
 1705TIP3    H1 5121   2.137   0.816   1.851  0.6511  0.9602 -2.4594
 1705TIP3    H2 5122   2.192   0.727   1.741  2.1629 -0.6741 -0.4716
 1706TIP3   OH2 5123   0.592   0.206   0.215  0.2873  0.2229 -0.0717
 1706TIP3    H1 5124   0.515   0.236   0.167  0.7391 -0.4934 -1.3048
 1706TIP3    H2 5125   0.648   0.283   0.222  0.8644  0.0630 -2.0685
 1707TIP3   OH2 5126   2.169   2.752   1.468 -0.6841  0.2261  0.0562
 1707TIP3    H1 5127   2.248   2.787   1.508  0.2911  1.0391 -2.3977
 1707TIP3    H2 5128   2.105   2.823   1.474 -0.3202  0.6021 -0.4180
 1708TIP3   OH2 5129   4.982   5.276   2.900  0.1518 -0.0832 -0.2443
 1708TIP3    H1 5130   5.058   5.261   2.845 -0.2502 -2.1900 -0.2996
 1708TIP3    H2 5131   4.908   5.280   2.839 -0.1938 -1.6205  0.0313
 1709TIP3   OH2 5132   3.274   3.211   4.655 -0.7135  0.5517 -0.1180
 1709TIP3    H1 5133   3.276   3.288   4.598  1.0638  1.1715  0.7100
 1709TIP3    H2 5134   3.362   3.175   4.650 -1.0691 -0.4952  0.7563
 1710TIP3   OH2 5135   1.266   3.685   0.418  1.0226  0.0249  0.2864
 1710TIP3    H1 5136   1.277   3.686   0.323 -3.6419  0.1790 -0.4865
 1710TIP3    H2 5137   1.244   3.775   0.441 -3.3119 -0.8464  0.3995
 1711TIP3   OH2 5138   4.935   4.215   4.101  0.2533 -0.4617  0.0682
 1711TIP3    H1 5139   5.027   4.199   4.081 -0.1910 -2.1954 -0.7763
 1711TIP3    H2 5140   4.895   4.233   4.015 -0.0376  1.3352  0.5399
 1712TIP3   OH2 5141   6.252   2.757   2.763  0.3746  0.2357 -0.1779
 1712TIP3    H1 5142   6.212   2.671   2.751 -1.6808  1.4015 -2.6626
 1712TIP3    H2 5143   6.327   2.741   2.820 -0.6705 -2.9561  0.4964
 1713TIP3   OH2 5144   4.042   4.349   4.240  0.1702  0.4173 -0.3570
 1713TIP3    H1 5145   4.121   4.402   4.234  2.2594 -2.4256 -0.1282
 1713TIP3    H2 5146   4.048   4.288   4.166 -0.8479 -1.0641  0.7132
 1714TIP3   OH2 5147   4.960   4.485   3.288  0.1128  0.1762  0.7767
 1714TIP3    H1 5148   4.998   4.525   3.366 -0.9428 -0.0671  1.4338
 1714TIP3    H2 5149   4.912   4.409   3.320  1.2336 -1.0674 -0.3421
 1715TIP3   OH2 5150   0.412   1.560   2.837 -0.1346  0.4529  0.7948
 1715TIP3    H1 5151   0.381   1.599   2.755 -1.6732  1.5247  1.8124
 1715TIP3    H2 5152   0.506   1.577   2.838 -0.1744  0.8427 -0.5285
 1716TIP3   OH2 5153   3.197   3.498   2.592  0.2358  0.5250  0.2928
 1716TIP3    H1 5154   3.138   3.515   2.518 -0.4729  0.3432  0.8078
 1716TIP3    H2 5155   3.276   3.461   2.552  0.7830  2.5248 -0.6064
 1717TIP3   OH2 5156   4.330   0.307   2.115  0.1023  0.0271  0.0806
 1717TIP3    H1 5157   4.309   0.399   2.098 -0.6096  0.0698  1.1332
 1717TIP3    H2 5158   4.334   0.267   2.028 -2.1570  0.5055 -0.2985
 1718TIP3   OH2 5159   0.223   5.092   3.927 -0.2914 -0.6776 -0.1949
 1718TIP3    H1 5160   0.211   5.094   3.832  1.5419  0.3428 -0.4555
 1718TIP3    H2 5161   0.277   5.015   3.943 -0.9576 -1.0963  0.0898
 1719TIP3   OH2 5162   3.646   1.836   2.506  0.0044 -0.0611 -0.2710
 1719TIP3    H1 5163   3.555   1.816   2.526 -0.6761  1.6454 -1.4007
 1719TIP3    H2 5164   3.678   1.884   2.583 -0.6840  1.0600 -0.6632
 1720TIP3   OH2 5165   3.685   4.790   2.687 -0.7952  0.2674 -0.2843
 1720TIP3    H1 5166   3.757   4.814   2.629 -1.8138  2.4395 -0.7295
 1720TIP3    H2 5167   3.659   4.702   2.658  1.6173 -0.5894 -0.0848
 1721TIP3   OH2 5168   1.819   3.070   0.896  0.2353 -0.3116 -0.4214
 1721TIP3    H1 5169   1.797   3.077   0.803 -1.3992  1.0155  0.0055
 1721TIP3    H2 5170   1.855   3.156   0.918  0.4430 -0.5599  0.2149
 1722TIP3   OH2 5171   2.792   2.610   3.426 -0.3526 -0.0827 -0.3866
 1722TIP3    H1 5172   2.776   2.652   3.341  0.1711  1.6822  0.3551
 1722TIP3    H2 5173   2.706   2.577   3.453 -0.6549 -0.0321 -1.2643
 1723TIP3   OH2 5174   0.963   4.464   0.499  0.3399  0.0224 -0.2037
 1723TIP3    H1 5175   0.992   4.555   0.496  0.4899 -0.0077  0.2862
 1723TIP3    H2 5176   0.871   4.467   0.476 -0.7818  0.8016  3.6960
 1724TIP3   OH2 5177   0.507   5.299   3.844 -0.0724 -0.2488  0.4711
 1724TIP3    H1 5178   0.546   5.215   3.818 -0.6310 -1.7553  3.9553
 1724TIP3    H2 5179   0.567   5.334   3.910 -2.0813 -0.1847  2.3446
 1725TIP3   OH2 5180   4.171   4.843   1.333  0.2034 -0.1724 -0.8568
 1725TIP3    H1 5181   4.255   4.887   1.328 -1.0345  2.5503  0.2840
 1725TIP3    H2 5182   4.167   4.807   1.422 -0.3494  0.8884 -0.4403
 1726TIP3   OH2 5183   4.706   0.190   3.374 -0.6238 -0.1360 -0.6922
 1726TIP3    H1 5184   4.795   0.158   3.387 -1.3900 -1.3231  2.4829
 1726TIP3    H2 5185   4.700   0.268   3.429 -1.9192 -0.8899  0.2872
 1727TIP3   OH2 5186   5.584   1.860   2.055  0.4437  0.8023 -0.4178
 1727TIP3    H1 5187   5.587   1.810   1.974  2.1839 -0.6543  0.4630
 1727TIP3    H2 5188   5.656   1.922   2.048  2.3183 -1.0457  0.9390
 1728TIP3   OH2 5189   4.508   3.748   3.003  0.4869 -0.2089  0.1737
 1728TIP3    H1 5190   4.500   3.780   3.092 -1.0346 -0.7298  0.2638
 1728TIP3    H2 5191   4.448   3.803   2.952  0.9422 -0.2530 -0.4180
 1729TIP3   OH2 5192   0.710   0.171   3.081 -0.3657 -0.6810  0.4940
 1729TIP3    H1 5193   0.751   0.229   3.017 -1.0332  0.4099  1.0374
 1729TIP3    H2 5194   0.657   0.110   3.028  0.7940 -1.1847 -0.1090
 1730TIP3   OH2 5195   3.328   0.151   4.091 -0.1973  0.6257  0.1751
 1730TIP3    H1 5196   3.280   0.137   4.173 -0.6936  0.6530 -0.1103
 1730TIP3    H2 5197   3.329   0.246   4.080  0.4180  0.6605  0.4692
 1731TIP3   OH2 5198   0.628   2.106   3.670  0.0210 -0.3902 -0.0987
 1731TIP3    H1 5199   0.606   2.120   3.577 -0.9201  1.6240  0.3619
 1731TIP3    H2 5200   0.560   2.154   3.717 -0.1077 -2.2346  1.6820
 1732TIP3   OH2 5201   3.640   4.643   0.265 -0.8266 -0.3365 -0.1793
 1732TIP3    H1 5202   3.625   4.675   0.176 -1.1015 -0.0348 -0.0280
 1732TIP3    H2 5203   3.555   4.608   0.292 -0.8182 -0.1759  0.0607
 1733TIP3   OH2 5204   2.825   2.188   1.658 -0.5551 -0.0429  0.1955
 1733TIP3    H1 5205   2.906   2.228   1.628  0.5420 -2.2956 -0.1046
 1733TIP3    H2 5206   2.840   2.171   1.751  0.4090 -2.6722 -0.3513
 1734TIP3   OH2 5207   1.352   5.644   3.107 -0.1355 -0.1523  0.0750
 1734TIP3    H1 5208   1.373   5.717   3.166  0.0141  0.5954 -0.8723
 1734TIP3    H2 5209   1.435   5.624   3.063 -0.2497 -0.6759  0.0885
 1735TIP3   OH2 5210   4.556   3.109   2.073 -0.6063 -0.4907 -0.4597
 1735TIP3    H1 5211   4.554   3.150   1.986 -0.2284 -0.8424 -0.6405
 1735TIP3    H2 5212   4.467   3.120   2.107 -0.0201  2.4460  0.4412
 1736TIP3   OH2 5213   2.286   4.998   0.059  0.1475  0.5106  0.0775
 1736TIP3    H1 5214   2.322   4.973  -0.026 -1.3074  0.1455 -0.4690
 1736TIP3    H2 5215   2.257   4.915   0.098  0.2461  0.7450  0.6603
 1737TIP3   OH2 5216   5.476   3.140   3.675 -0.2462 -0.1015 -0.5024
 1737TIP3    H1 5217   5.505   3.094   3.596  0.5097 -0.2285 -0.1637
 1737TIP3    H2 5218   5.515   3.227   3.667  0.0797 -0.2101 -0.1357
 1738TIP3   OH2 5219   0.310   0.768   3.468 -0.1255 -0.0221 -0.0223
 1738TIP3    H1 5220   0.400   0.783   3.438 -0.5595  0.0188 -1.3843
 1738TIP3    H2 5221   0.277   0.855   3.489 -0.4439  0.2114 -1.3796
 1739TIP3   OH2 5222   0.458   0.270   3.701  0.1388  0.2905  0.4256
 1739TIP3    H1 5223   0.382   0.324   3.679 -1.3168 -1.9516 -0.3451
 1739TIP3    H2 5224   0.495   0.246   3.616 -0.6769 -1.8285  0.6240
 1740TIP3   OH2 5225   2.724   5.812   4.626  0.6338 -0.0926 -0.4181
 1740TIP3    H1 5226   2.695   5.903   4.631 -0.1353 -0.3788  0.5940
 1740TIP3    H2 5227   2.808   5.810   4.671  0.1408 -0.0788  0.5148
 1741TIP3   OH2 5228   4.258   0.765   0.380 -0.1445 -0.2179 -0.1492
 1741TIP3    H1 5229   4.337   0.711   0.393 -0.6838 -0.6127  1.7361
 1741TIP3    H2 5230   4.291   0.854   0.377  0.7058 -0.5472 -2.7766
 1742TIP3   OH2 5231   5.356   4.115   4.035 -0.1213 -0.2765 -0.3497
 1742TIP3    H1 5232   5.370   4.163   3.953  1.2586 -1.4004 -0.8114
 1742TIP3    H2 5233   5.387   4.026   4.016 -1.9283 -1.1990  0.6977
 1743TIP3   OH2 5234   6.264   5.490   4.260 -0.7429  0.0626 -0.2108
 1743TIP3    H1 5235   6.251   5.397   4.280 -1.4603  0.0987 -0.4673
 1743TIP3    H2 5236   6.201   5.508   4.190 -0.3418  0.6525 -0.4238
 1744TIP3   OH2 5237   2.821   2.594   0.117 -0.0802 -0.5500 -0.1990
 1744TIP3    H1 5238   2.776   2.646   0.183  0.1175  0.5357 -0.9084
 1744TIP3    H2 5239   2.753   2.567   0.056 -0.0881 -0.6134 -0.1620
 1745TIP3   OH2 5240   4.494   3.009   2.436  0.3743 -0.2223 -0.4575
 1745TIP3    H1 5241   4.478   2.947   2.507  0.2055 -0.3608 -0.6149
 1745TIP3    H2 5242   4.570   2.974   2.391  0.3187 -0.2813 -0.5064
 1746TIP3   OH2 5243   1.983   4.087   2.301  0.0900  0.2635  0.2569
 1746TIP3    H1 5244   1.968   4.066   2.209 -1.0200  0.6389  0.3305
 1746TIP3    H2 5245   2.067   4.133   2.302  0.2062  0.0856 -0.5372
 1747TIP3   OH2 5246   5.871   1.380   5.105 -0.2902 -0.5014 -0.4494
 1747TIP3    H1 5247   5.879   1.339   5.191 -0.4750  0.1285 -0.1210
 1747TIP3    H2 5248   5.803   1.446   5.117 -0.8918 -0.9479 -1.2955
 1748TIP3   OH2 5249   2.133   4.613   1.109 -0.0100  0.2576 -0.0608
 1748TIP3    H1 5250   2.165   4.563   1.183 -1.7033  0.6836  1.0257
 1748TIP3    H2 5251   2.207   4.669   1.084  0.1185  1.3535  2.4361
 1749TIP3   OH2 5252   4.673   4.406   4.631 -0.1078  0.0598  0.0587
 1749TIP3    H1 5253   4.676   4.465   4.555 -0.2521  1.4902  1.1372
 1749TIP3    H2 5254   4.762   4.371   4.637  0.5429  1.7297  0.5891
 1750TIP3   OH2 5255   5.345   1.385   4.294  0.4274 -0.3153  0.0941
 1750TIP3    H1 5256   5.304   1.436   4.224 -0.5318 -0.2969  0.6449
 1750TIP3    H2 5257   5.365   1.301   4.253  0.7992  0.0402 -0.4672
 1751TIP3   OH2 5258   4.588   0.674   1.453  0.2977 -0.3819 -0.6112
 1751TIP3    H1 5259   4.494   0.659   1.450  0.1004  0.5983  0.0966
 1751TIP3    H2 5260   4.627   0.587   1.446 -0.6892 -0.9101  0.3056
 1752TIP3   OH2 5261   5.831   3.422   0.087 -0.1833 -0.9504 -0.3630
 1752TIP3    H1 5262   5.768   3.426   0.159  0.5965 -0.0823  0.2822
 1752TIP3    H2 5263   5.911   3.461   0.122  0.4288 -1.1606 -1.4784
 1753TIP3   OH2 5264   3.834   5.846   2.460 -0.2117  0.1844  0.0715
 1753TIP3    H1 5265   3.752   5.866   2.416 -0.3366  0.4820  0.4291
 1753TIP3    H2 5266   3.811   5.777   2.523 -0.3332  0.7154  0.6206
 1754TIP3   OH2 5267   3.969   0.024   4.670  0.0950  0.2069  0.3323
 1754TIP3    H1 5268   4.020   0.102   4.690 -1.2392  1.4547 -0.8806
 1754TIP3    H2 5269   3.999  -0.004   4.584  1.2110 -1.2111  1.1454
 1755TIP3   OH2 5270   1.891   5.283   4.359  0.4643 -0.1774 -1.0724
 1755TIP3    H1 5271   1.946   5.205   4.366  0.6402  0.0428  0.4463
 1755TIP3    H2 5272   1.842   5.285   4.442  2.3492  2.6726  0.1581
 1756TIP3   OH2 5273   2.824   5.680   0.678 -0.3834 -0.1017 -0.6704
 1756TIP3    H1 5274   2.812   5.603   0.734 -0.3987 -0.2792 -0.9149
 1756TIP3    H2 5275   2.868   5.646   0.600  1.3910  0.4648  0.0376
 1757TIP3   OH2 5276   5.342   0.086   3.705 -0.0186 -0.4473 -0.0981
 1757TIP3    H1 5277   5.266   0.028   3.707  0.1719 -0.7272 -0.8407
 1757TIP3    H2 5278   5.383   0.070   3.620  0.1718  0.6071 -0.2184
 1758TIP3   OH2 5279   1.256   2.554   4.603 -0.5443  0.0837 -0.4366
 1758TIP3    H1 5280   1.322   2.594   4.548  1.9992 -0.3285  2.1024
 1758TIP3    H2 5281   1.251   2.463   4.573 -0.3937  0.2676 -1.0242
 1759TIP3   OH2 5282   0.366   1.649   2.572  0.3970 -0.4669  0.1306
 1759TIP3    H1 5283   0.349   1.699   2.491 -0.2647  1.0638  1.1715
 1759TIP3    H2 5284   0.317   1.568   2.560 -1.7337  0.7785 -0.0126
 1760TIP3   OH2 5285   3.617   0.052   4.390 -0.0434  0.1050  0.2247
 1760TIP3    H1 5286   3.579   0.060   4.302 -0.6147 -0.1525  0.4442
 1760TIP3    H2 5287   3.692   0.112   4.389 -0.9677  1.2879  0.0714
 1761TIP3   OH2 5288   2.944   3.537   1.667 -0.6980  0.7772  0.2449
 1761TIP3    H1 5289   2.866   3.544   1.720 -1.1255 -2.5263  0.2274
 1761TIP3    H2 5290   2.972   3.628   1.654 -3.2137  1.9359  2.0945
 1762TIP3   OH2 5291   4.258   3.411   2.486 -0.2535  0.1364 -0.3720
 1762TIP3    H1 5292   4.272   3.322   2.519 -1.3421 -0.0527 -0.3593
 1762TIP3    H2 5293   4.271   3.467   2.563  1.3042  0.0882 -0.5744
 1763TIP3   OH2 5294   3.404   1.085   3.699 -0.2443  0.3592  0.5932
 1763TIP3    H1 5295   3.312   1.085   3.726 -0.7000 -1.5395 -0.7407
 1763TIP3    H2 5296   3.448   1.027   3.761 -0.1019  0.6345  0.7521
 1764TIP3   OH2 5297   4.495   2.777   3.222  0.1112  0.0453  0.0392
 1764TIP3    H1 5298   4.486   2.731   3.139 -1.2131  1.1545 -0.4633
 1764TIP3    H2 5299   4.441   2.856   3.213  1.6561  1.3027  1.1760
 1765TIP3   OH2 5300   5.176   0.161   1.048 -0.2366  0.2874 -0.1235
 1765TIP3    H1 5301   5.087   0.195   1.055 -0.1797  0.4863 -0.3757
 1765TIP3    H2 5302   5.163   0.068   1.029 -0.3934 -0.0711  1.5476
 1766TIP3   OH2 5303   2.769   1.917   1.325 -0.5683  0.3074  0.2813
 1766TIP3    H1 5304   2.851   1.925   1.374 -0.3592  2.6848 -0.3208
 1766TIP3    H2 5305   2.793   1.938   1.235 -1.9503  2.0058  0.2642
 1767TIP3   OH2 5306   3.066   4.823   4.584 -0.6600 -0.0172 -1.0616
 1767TIP3    H1 5307   3.028   4.862   4.663 -0.4777  0.1806 -1.0721
 1767TIP3    H2 5308   3.078   4.897   4.524  1.7706  0.3054 -0.2796
 1768TIP3   OH2 5309   2.712   1.382   4.002 -0.0583  0.1773  0.0804
 1768TIP3    H1 5310   2.618   1.365   4.002 -0.8791  3.9549 -0.4175
 1768TIP3    H2 5311   2.731   1.409   4.091 -0.0397  1.9238 -0.4270
 1769TIP3   OH2 5312   4.638   3.361   4.601 -0.6791  0.3000  0.0898
 1769TIP3    H1 5313   4.608   3.336   4.688 -0.1910 -0.8043 -0.0405
 1769TIP3    H2 5314   4.625   3.456   4.597 -1.7340  0.2157  0.9551
 1770TIP3   OH2 5315   5.634   2.603   2.172  0.2930 -0.4213  0.1512
 1770TIP3    H1 5316   5.719   2.561   2.157 -0.3672 -2.0391  0.7224
 1770TIP3    H2 5317   5.594   2.551   2.241 -2.1486 -1.1775 -1.7087
 1771TIP3   OH2 5318   3.068   3.768   1.631  0.2816 -0.5790  0.3092
 1771TIP3    H1 5319   3.154   3.783   1.670  0.1050  0.5710  0.2960
 1771TIP3    H2 5320   3.067   3.823   1.553 -0.1851 -1.1810 -0.1176
 1772TIP3   OH2 5321   0.234   1.851   4.505  0.0137  0.8862 -0.5921
 1772TIP3    H1 5322   0.254   1.758   4.508 -1.7128  0.4921  0.0039
 1772TIP3    H2 5323   0.300   1.888   4.446  1.6411 -0.4406  0.3263
 1773TIP3   OH2 5324   1.012   5.592   4.250  0.0433 -0.1347  0.4215
 1773TIP3    H1 5325   0.931   5.576   4.201  0.2259  0.7054 -0.1793
 1773TIP3    H2 5326   1.031   5.509   4.293 -0.3289 -0.7768 -0.6374
 1774TIP3   OH2 5327   1.894   5.913   3.041  0.0804 -0.6269  0.2596
 1774TIP3    H1 5328   1.853   5.858   3.107  0.7030 -1.9305 -0.3903
 1774TIP3    H2 5329   1.985   5.923   3.072 -0.1574  0.4646  0.6238
 1775TIP3   OH2 5330   4.956   0.330   4.245  0.4831  0.1611  0.2493
 1775TIP3    H1 5331   4.993   0.381   4.174 -0.0137  0.4623  0.2022
 1775TIP3    H2 5332   4.966   0.385   4.323 -1.2591  0.9419 -0.0217
 1776TIP3   OH2 5333   5.118   5.717   4.752 -0.3035 -0.1699 -0.4842
 1776TIP3    H1 5334   5.051   5.786   4.751 -1.9801 -1.7235 -0.3020
 1776TIP3    H2 5335   5.200   5.763   4.736 -1.3986  1.8211 -0.6757
 1777TIP3   OH2 5336   1.166   5.261   2.993  0.1463 -0.2993 -0.1067
 1777TIP3    H1 5337   1.190   5.335   3.050  2.1527 -0.9442 -0.0221
 1777TIP3    H2 5338   1.144   5.302   2.909 -0.0084  0.4694  0.2956
 1778TIP3   OH2 5339   2.439   0.893   5.178  0.2713 -0.0385 -0.2366
 1778TIP3    H1 5340   2.353   0.865   5.146 -0.7316  0.8828  1.4874
 1778TIP3    H2 5341   2.460   0.969   5.125 -0.4171  0.2792 -0.0662
 1779TIP3   OH2 5342   3.901   2.284   5.043 -0.4079 -0.2982  0.1717
 1779TIP3    H1 5343   3.891   2.248   5.131  0.1507  1.6543  1.0951
 1779TIP3    H2 5344   3.995   2.278   5.026 -0.5094 -0.6324 -0.2855
 1780TIP3   OH2 5345   1.823   5.637   4.774 -0.4005 -0.0629  0.6272
 1780TIP3    H1 5346   1.843   5.667   4.685 -2.0823  1.4586  0.7014
 1780TIP3    H2 5347   1.779   5.552   4.761 -0.1887 -0.0923  0.0534
 1781TIP3   OH2 5348   1.361   5.450   0.446  0.0223  0.3794  0.4801
 1781TIP3    H1 5349   1.396   5.477   0.530 -1.2850  0.3246  1.0649
 1781TIP3    H2 5350   1.437   5.421   0.396  0.7216 -0.4251  1.9570
 1782TIP3   OH2 5351   4.186   3.880   4.936  0.3472  0.2226  0.0141
 1782TIP3    H1 5352   4.275   3.877   4.900  0.7569 -1.0066  1.0644
 1782TIP3    H2 5353   4.187   3.956   4.995  0.9536 -0.2153  0.5908
 1783TIP3   OH2 5354   5.104   3.937   0.105 -0.7779 -0.3730  0.2424
 1783TIP3    H1 5355   5.198   3.933   0.087 -0.7354 -0.2210  0.4338
 1783TIP3    H2 5356   5.098   3.979   0.191 -1.0963  1.1784 -0.4984
 1784TIP3   OH2 5357   1.684   3.793   0.461 -0.1458  0.3119 -0.4895
 1784TIP3    H1 5358   1.763   3.847   0.462  0.0034  0.1663 -1.9029
 1784TIP3    H2 5359   1.615   3.849   0.497  0.9873 -0.2954  2.9620
 1785TIP3   OH2 5360   5.076   0.029   1.385  0.5352 -0.0683 -0.1175
 1785TIP3    H1 5361   5.155   0.081   1.397 -0.1894  1.0400  0.0272
 1785TIP3    H2 5362   5.035   0.066   1.306 -0.8309  0.7121  0.9123
 1786TIP3   OH2 5363   2.069   1.437   2.392 -0.4245  0.0742  0.1803
 1786TIP3    H1 5364   2.075   1.397   2.305 -2.0440  0.6490 -0.2400
 1786TIP3    H2 5365   2.158   1.435   2.426 -0.0316 -1.6159 -0.8283
 1787TIP3   OH2 5366   3.034   2.400   2.497  0.1830 -0.2706  0.0733
 1787TIP3    H1 5367   2.945   2.435   2.495  0.0589 -0.6065 -0.2943
 1787TIP3    H2 5368   3.032   2.335   2.568  0.6343  1.0272  1.3343
 1788TIP3   OH2 5369   1.631   5.644   0.374 -0.2174 -0.1491  0.4359
 1788TIP3    H1 5370   1.679   5.566   0.346  0.2976 -0.1119  1.1669
 1788TIP3    H2 5371   1.672   5.668   0.457  0.0816  1.2954 -0.1025
 1789TIP3   OH2 5372   4.878   5.827   3.083  0.1998  0.1223  0.7144
 1789TIP3    H1 5373   4.947   5.814   3.019 -0.7313  0.0284 -0.3052
 1789TIP3    H2 5374   4.801   5.785   3.045 -0.5468  0.6397  1.5854
 1790TIP3   OH2 5375   2.652   4.636   4.641  0.0188 -0.3254  0.2706
 1790TIP3    H1 5376   2.581   4.671   4.695 -0.1662 -0.3953  0.0768
 1790TIP3    H2 5377   2.694   4.570   4.696 -1.2379 -1.6207 -0.2394
 1791TIP3   OH2 5378   3.756   1.530   0.671  0.8269 -0.3844  0.4537
 1791TIP3    H1 5379   3.696   1.599   0.642  0.0452 -0.9759  0.6658
 1791TIP3    H2 5380   3.791   1.494   0.589 -0.8168 -1.5461  0.2106
 1792TIP3   OH2 5381   5.063   4.003   2.429 -0.0479 -0.1240 -0.3064
 1792TIP3    H1 5382   5.017   4.078   2.465  0.1084  0.3184 -1.0138
 1792TIP3    H2 5383   5.055   4.012   2.335 -2.1225 -2.2879 -0.4390
 1793TIP3   OH2 5384   2.015   4.676   4.869 -0.4349 -0.4178  0.0633
 1793TIP3    H1 5385   2.063   4.596   4.893  0.3555 -0.7033 -2.2481
 1793TIP3    H2 5386   1.971   4.702   4.950  0.0621 -2.6465  1.1389
 1794TIP3   OH2 5387   6.185   0.314   0.294  0.1250  0.1051 -0.2867
 1794TIP3    H1 5388   6.128   0.391   0.298  0.3048  0.1828  1.9903
 1794TIP3    H2 5389   6.178   0.274   0.380  0.2819 -2.3005 -1.3010
 1795TIP3   OH2 5390   6.291   5.865   3.277  0.2780 -0.2715  0.2700
 1795TIP3    H1 5391   6.332   5.900   3.356 -1.0446 -0.5198  1.0913
 1795TIP3    H2 5392   6.330   5.778   3.266  1.0041  0.0538  0.2101
 1796TIP3   OH2 5393   4.836   1.103   3.019 -0.1013 -0.4140 -0.1938
 1796TIP3    H1 5394   4.759   1.149   3.053 -0.1691  0.3077 -1.2628
 1796TIP3    H2 5395   4.816   1.010   3.032  0.5618 -0.2003  3.1083
 1797TIP3   OH2 5396   1.164   2.785   5.125  0.1388 -0.8831 -0.1092
 1797TIP3    H1 5397   1.243   2.752   5.168 -0.3305 -0.1608  1.3556
 1797TIP3    H2 5398   1.100   2.714   5.134 -0.0172 -0.6613  0.5832
 1798TIP3   OH2 5399   4.787   3.761   1.940 -0.2040  0.0802 -0.7212
 1798TIP3    H1 5400   4.742   3.770   2.024 -0.5528 -1.2007 -0.7531
 1798TIP3    H2 5401   4.873   3.800   1.955 -0.4727  0.4000  0.0480
 1799TIP3   OH2 5402   1.802   3.465   1.324  0.8092 -0.1817  0.2375
 1799TIP3    H1 5403   1.889   3.502   1.333  0.5853  0.6125 -0.7281
 1799TIP3    H2 5404   1.753   3.529   1.273  0.1061 -1.3470 -0.6134
 1800TIP3   OH2 5405   0.939   4.729   0.382  0.3226 -0.2872 -0.8300
 1800TIP3    H1 5406   0.879   4.756   0.312  1.2830  2.0934 -0.8019
 1800TIP3    H2 5407   1.007   4.678   0.337 -0.7742 -1.5902 -1.0926
 1801TIP3   OH2 5408   6.008   3.411   4.417 -0.0803 -0.1980 -0.0363
 1801TIP3    H1 5409   5.941   3.355   4.378 -0.5432  1.1395 -1.2190
 1801TIP3    H2 5410   6.014   3.381   4.508 -0.3189 -2.1249 -0.6128
 1802TIP3   OH2 5411   2.375   4.434   5.043  0.4018 -0.6824  0.2638
 1802TIP3    H1 5412   2.395   4.526   5.061 -0.9422 -0.3989  0.4433
 1802TIP3    H2 5413   2.332   4.435   4.958  0.1634 -1.1064  0.3766
 1803TIP3   OH2 5414   1.558   0.493   4.713  0.1075 -0.1914  0.0273
 1803TIP3    H1 5415   1.618   0.470   4.784 -1.1791 -1.5456  0.7299
 1803TIP3    H2 5416   1.481   0.528   4.758  0.8216  2.8638 -0.9092
 1804TIP3   OH2 5417   6.183   4.228   0.619  0.2474 -0.4242  0.2862
 1804TIP3    H1 5418   6.139   4.304   0.659  0.7559 -0.9373  1.9049
 1804TIP3    H2 5419   6.244   4.267   0.556  0.8498  0.5801  1.4296
 1805TIP3   OH2 5420   2.405   4.374   3.207  0.0690  0.1090 -0.2999
 1805TIP3    H1 5421   2.471   4.443   3.210 -0.8231  0.9612 -0.0743
 1805TIP3    H2 5422   2.386   4.354   3.299 -0.0157 -0.1097 -0.3636
 1806TIP3   OH2 5423   0.768   5.260   3.095 -0.1856  0.8758 -0.5085
 1806TIP3    H1 5424   0.786   5.331   3.157 -0.6516 -0.4235  1.1812
 1806TIP3    H2 5425   0.674   5.244   3.104 -0.0474 -0.0972 -0.6995
 1807TIP3   OH2 5426   5.324   0.505   0.833 -0.6732  0.3130 -0.1718
 1807TIP3    H1 5427   5.275   0.534   0.756  0.0266  1.0646 -0.3554
 1807TIP3    H2 5428   5.350   0.587   0.876 -0.8337 -0.1019  0.7196
 1808TIP3   OH2 5429   6.143   5.888   0.594  0.1013  0.9908 -0.1478
 1808TIP3    H1 5430   6.174   5.967   0.550  2.2713 -0.3806 -1.2801
 1808TIP3    H2 5431   6.146   5.908   0.687  1.4186  1.9765 -0.3834
 1809TIP3   OH2 5432   0.829   4.354   3.177 -0.2666  0.1327  0.0751
 1809TIP3    H1 5433   0.856   4.283   3.119 -0.8462  1.4740 -1.9412
 1809TIP3    H2 5434   0.812   4.311   3.261  0.2401 -1.9511 -0.8180
 1810TIP3   OH2 5435   3.511   3.645   3.245  0.2985  0.3364  0.3108
 1810TIP3    H1 5436   3.529   3.734   3.217 -0.5049  0.5036  0.2907
 1810TIP3    H2 5437   3.427   3.651   3.292 -1.7335 -0.9428 -2.8048
 1811TIP3   OH2 5438   3.656   5.767   0.242  0.1273  0.1544 -0.4684
 1811TIP3    H1 5439   3.569   5.753   0.206 -0.4039  1.4885  0.2425
 1811TIP3    H2 5440   3.644   5.832   0.311  1.4797 -0.6264  0.5440
 1812TIP3   OH2 5441   5.925   4.831   2.281 -0.5366 -0.1474 -0.2568
 1812TIP3    H1 5442   5.842   4.869   2.310  0.0987  0.8022  0.3847
 1812TIP3    H2 5443   5.976   4.906   2.250 -0.6135 -0.9368 -2.4877
 1813TIP3   OH2 5444   6.123   1.820   4.138  0.3162  0.7549  0.4101
 1813TIP3    H1 5445   6.160   1.837   4.224  0.6131 -0.3715  0.5289
 1813TIP3    H2 5446   6.117   1.724   4.133 -0.3320  0.8282 -0.5505
 1814TIP3   OH2 5447   5.660   3.884   4.820 -0.0105 -0.1812  0.8786
 1814TIP3    H1 5448   5.743   3.883   4.868  0.5648  1.1879 -0.0266
 1814TIP3    H2 5449   5.672   3.818   4.751  1.0160  1.1713 -0.2933
 1815TIP3   OH2 5450   3.323   1.372   0.242 -0.6981 -0.0291  0.2643
 1815TIP3    H1 5451   3.262   1.415   0.182  0.0941  0.3436 -0.3054
 1815TIP3    H2 5452   3.318   1.279   0.218 -2.4493 -0.2984  1.5327
 1816TIP3   OH2 5453   0.120   2.736   4.064 -0.4951 -0.5818 -0.2973
 1816TIP3    H1 5454   0.158   2.742   3.976 -1.8077  0.1608 -0.8388
 1816TIP3    H2 5455   0.153   2.813   4.110 -0.8251 -0.2856 -0.5562
 1817TIP3   OH2 5456   5.739   0.838   0.887 -0.3401 -0.0057 -0.0105
 1817TIP3    H1 5457   5.806   0.809   0.824 -1.5169  2.0736 -2.3775
 1817TIP3    H2 5458   5.773   0.920   0.922  0.1236 -0.9535  1.9088
 1818TIP3   OH2 5459   0.550   0.639   1.318 -0.1541 -0.3687  0.1535
 1818TIP3    H1 5460   0.596   0.589   1.385  0.1537 -0.8450 -0.3998
 1818TIP3    H2 5461   0.504   0.573   1.266  0.5909 -0.1345 -0.8400
 1819TIP3   OH2 5462   2.011   3.261   4.799  0.3285 -0.0794  0.1381
 1819TIP3    H1 5463   2.066   3.220   4.866  0.4582 -0.1283  0.0013
 1819TIP3    H2 5464   2.005   3.353   4.826 -0.4451 -0.3090  0.7674
 1820TIP3   OH2 5465   5.655   5.099   2.561 -0.3570 -0.2363 -0.2096
 1820TIP3    H1 5466   5.673   5.074   2.470  0.4175  0.3557 -0.2298
 1820TIP3    H2 5467   5.735   5.074   2.608  0.1712  1.5051 -0.1091
 1821TIP3   OH2 5468   2.185   1.602   1.636  0.5439  0.2712 -0.4719
 1821TIP3    H1 5469   2.264   1.632   1.680  0.9569  0.9417 -1.6292
 1821TIP3    H2 5470   2.216   1.563   1.554 -0.2747  0.0530 -0.6888
 1822TIP3   OH2 5471   1.499   1.664   2.381  0.0031 -0.1895  0.3523
 1822TIP3    H1 5472   1.438   1.594   2.359 -0.5071 -0.0658  1.3142
 1822TIP3    H2 5473   1.550   1.678   2.301 -0.2812 -1.2561 -0.0288
 1823TIP3   OH2 5474   4.712   3.532   4.154 -0.0391  0.0580  0.1720
 1823TIP3    H1 5475   4.695   3.506   4.063  0.6919  0.9840 -0.2456
 1823TIP3    H2 5476   4.801   3.501   4.171  0.4334  1.2768  0.0227
 1824TIP3   OH2 5477   4.995   4.749   4.089 -0.1504 -0.2512 -0.0809
 1824TIP3    H1 5478   4.987   4.780   4.180  0.5128  1.1338 -0.4615
 1824TIP3    H2 5479   4.921   4.790   4.044  0.4176  0.3698 -0.4751
 1825TIP3   OH2 5480   1.631   3.119   3.263  0.0186 -0.3730  0.2758
 1825TIP3    H1 5481   1.694   3.177   3.306  0.8289 -0.4766 -0.7177
 1825TIP3    H2 5482   1.683   3.044   3.235 -0.8925 -1.2910  0.9574
 1826TIP3   OH2 5483   3.160   2.277   2.273  0.3574 -0.3745 -0.0786
 1826TIP3    H1 5484   3.191   2.332   2.344  0.3090  0.0572 -0.3909
 1826TIP3    H2 5485   3.236   2.224   2.248  0.2203 -0.9597  0.6845
 1827TIP3   OH2 5486   3.484   2.356   0.781  0.3396  0.3277  0.1463
 1827TIP3    H1 5487   3.545   2.328   0.849 -0.1088  0.2954  0.5382
 1827TIP3    H2 5488   3.523   2.435   0.745  0.6402  0.2782  0.3613
 1828TIP3   OH2 5489   0.946   2.385   1.428 -0.0456 -0.3136  0.7825
 1828TIP3    H1 5490   0.932   2.476   1.454  1.1241 -0.7170  3.0933
 1828TIP3    H2 5491   0.978   2.343   1.507  0.7782 -2.4437 -0.6144
 1829TIP3   OH2 5492   6.079   5.909   0.020  0.1394  0.2857 -0.0595
 1829TIP3    H1 5493   6.133   5.940   0.092 -0.2448 -2.6211  1.6286
 1829TIP3    H2 5494   6.141   5.890  -0.050  0.7898  0.9763  0.3135
 1830TIP3   OH2 5495   4.126   4.912   5.116 -0.9670  0.2424  0.0180
 1830TIP3    H1 5496   4.084   4.959   5.187  0.5088  0.5054  0.7436
 1830TIP3    H2 5497   4.218   4.906   5.141 -0.3692  0.4652 -1.9279
 1831TIP3   OH2 5498   1.219   5.786   4.904  0.2651 -0.3924 -0.0720
 1831TIP3    H1 5499   1.278   5.810   4.975 -0.5003  0.9990  0.1291
 1831TIP3    H2 5500   1.246   5.698   4.879 -0.1232 -1.3966  2.6880
 1832TIP3   OH2 5501   0.301   3.841   0.003 -0.3964 -0.2100  0.2601
 1832TIP3    H1 5502   0.254   3.878  -0.072  0.9373  3.4216  1.0123
 1832TIP3    H2 5503   0.276   3.896   0.077  3.2191  0.5299  1.1302
 1833TIP3   OH2 5504   5.166   5.688   0.735  0.6078 -0.0136  0.3242
 1833TIP3    H1 5505   5.128   5.604   0.708  1.2102 -0.2114  0.0632
 1833TIP3    H2 5506   5.154   5.690   0.830 -2.5987  1.2138 -0.0007
 1834TIP3   OH2 5507   2.449   0.414   4.527 -0.5473 -0.4437 -0.3179
 1834TIP3    H1 5508   2.398   0.386   4.603  0.5689  2.3534  1.6480
 1834TIP3    H2 5509   2.395   0.481   4.485  0.1981  0.4103  0.0365
 1835TIP3   OH2 5510   5.865   2.568   2.828  0.1043 -0.2760 -0.1593
 1835TIP3    H1 5511   5.887   2.655   2.860 -0.6151 -0.2484  0.2758
 1835TIP3    H2 5512   5.888   2.509   2.900  1.5082 -0.5635 -0.8151
 1836TIP3   OH2 5513   1.121   4.374   4.880  0.1238 -0.5784 -0.0314
 1836TIP3    H1 5514   1.044   4.343   4.927  1.4556  1.7908  4.3090
 1836TIP3    H2 5515   1.088   4.440   4.819 -1.5911 -3.0775 -2.0095
 1837TIP3   OH2 5516   4.843   5.310   0.567 -0.1513 -0.4562 -0.0821
 1837TIP3    H1 5517   4.772   5.375   0.566  0.1954 -0.0513  0.6740
 1837TIP3    H2 5518   4.857   5.288   0.475 -1.6669 -0.9931 -0.2241
 1838TIP3   OH2 5519   3.323   4.265   2.869  0.4163 -0.5896 -0.4459
 1838TIP3    H1 5520   3.242   4.227   2.904  0.3539 -0.2299 -0.1987
 1838TIP3    H2 5521   3.321   4.244   2.776  0.1392 -0.7604 -0.4032
 1839TIP3   OH2 5522   3.604   3.549   3.505  0.8941 -0.6716  0.1105
 1839TIP3    H1 5523   3.557   3.596   3.574  1.8166  0.1087  0.2414
 1839TIP3    H2 5524   3.567   3.584   3.423 -1.4853 -2.9030  0.1222
 1840TIP3   OH2 5525   0.411   0.681   1.892  0.2315  0.3941  0.0231
 1840TIP3    H1 5526   0.423   0.744   1.821  1.1838 -0.2397 -0.3961
 1840TIP3    H2 5527   0.358   0.727   1.956 -0.2298  1.1490 -0.8839
 1841TIP3   OH2 5528   1.961   5.902   0.965 -0.5468  0.0815  0.4534
 1841TIP3    H1 5529   2.027   5.841   0.998 -0.9596 -0.3785  0.4303
 1841TIP3    H2 5530   1.987   5.986   1.002 -0.6415 -0.3123  1.4464
 1842TIP3   OH2 5531   1.088   5.855   2.929  0.1877 -0.8355  0.4114
 1842TIP3    H1 5532   1.124   5.805   3.002  0.6962 -1.8384 -0.4930
 1842TIP3    H2 5533   1.123   5.812   2.851 -0.2011  0.3161 -0.4268
 1843TIP3   OH2 5534   4.264   3.878   3.955  0.0199 -0.1590  0.4380
 1843TIP3    H1 5535   4.338   3.852   3.900  0.7180  0.3274  1.1317
 1843TIP3    H2 5536   4.210   3.933   3.898  0.1783 -0.5290 -0.0760
 1844TIP3   OH2 5537   5.252   0.024   2.345  0.4921 -0.2688 -0.2137
 1844TIP3    H1 5538   5.239   0.079   2.422  3.0064  0.8523 -0.4756
 1844TIP3    H2 5539   5.230   0.080   2.271  1.3133 -0.1874 -0.4085
 1845TIP3   OH2 5540   3.381   1.755   4.387 -0.0361 -0.0338 -0.4449
 1845TIP3    H1 5541   3.380   1.823   4.320  1.8065 -0.1133 -0.5866
 1845TIP3    H2 5542   3.304   1.701   4.368 -0.7647  1.2128 -1.1465
 1846TIP3   OH2 5543   3.081   2.367   4.079  0.4674 -0.2103  0.1523
 1846TIP3    H1 5544   3.111   2.357   3.988  0.4904  0.0246  0.1330
 1846TIP3    H2 5545   3.092   2.280   4.117 -0.3036 -0.5089 -0.2941
 1847TIP3   OH2 5546   5.329   0.397   1.090 -0.0154  0.1665  0.6033
 1847TIP3    H1 5547   5.263   0.332   1.066  0.2347  0.3272 -0.5630
 1847TIP3    H2 5548   5.357   0.435   1.007  2.0058 -0.3376  0.9923
 1848TIP3   OH2 5549   4.983   1.082   3.282 -0.2376 -0.0439 -0.4769
 1848TIP3    H1 5550   4.929   1.092   3.203  1.1827 -1.4666 -1.6857
 1848TIP3    H2 5551   5.060   1.136   3.265 -0.2979  0.3100  0.3273
 1849TIP3   OH2 5552   0.424   4.348   4.899 -0.3500  0.1537  0.3447
 1849TIP3    H1 5553   0.381   4.263   4.906  0.6720 -0.3605  0.5581
 1849TIP3    H2 5554   0.394   4.396   4.977  0.7128 -0.8003  1.3904
 1850TIP3   OH2 5555   6.252   5.975   3.021 -0.2517 -0.1594 -0.4760
 1850TIP3    H1 5556   6.326   6.036   3.023  0.9014 -1.5345 -0.1583
 1850TIP3    H2 5557   6.258   5.928   3.104 -1.8265  0.0794 -0.2012
 1851TIP3   OH2 5558   5.207   1.848   3.432  0.1581 -0.1944 -0.3454
 1851TIP3    H1 5559   5.169   1.935   3.420  0.2704 -0.2767 -1.3623
 1851TIP3    H2 5560   5.179   1.799   3.355 -1.3309 -1.5846  1.0049
 1852TIP3   OH2 5561   2.885   3.623   2.800  0.0364 -0.4530 -0.3299
 1852TIP3    H1 5562   2.816   3.597   2.861 -0.0537 -0.6238 -0.5033
 1852TIP3    H2 5563   2.843   3.621   2.714  0.0747  0.1067 -0.3658
 1853TIP3   OH2 5564   0.394   3.709   4.108  0.0434 -0.1402 -0.4305
 1853TIP3    H1 5565   0.441   3.697   4.026  0.1527  1.9919 -0.7449
 1853TIP3    H2 5566   0.404   3.802   4.128 -1.0520 -0.3493  1.3499
 1854TIP3   OH2 5567   0.920   0.946   1.279  0.7971  0.3222 -0.0067
 1854TIP3    H1 5568   0.925   0.851   1.295 -0.9778 -0.1407 -1.8408
 1854TIP3    H2 5569   0.914   0.984   1.366  0.9755 -1.2991  0.7594
 1855TIP3   OH2 5570   5.355   4.937   0.928 -0.7898 -0.5138  0.6467
 1855TIP3    H1 5571   5.293   4.973   0.865 -2.1046 -2.2927  0.8788
 1855TIP3    H2 5572   5.438   4.931   0.879 -1.5127 -0.8650 -0.5789
 1856TIP3   OH2 5573   3.823   4.150   1.195  0.1997 -0.3207  0.4443
 1856TIP3    H1 5574   3.787   4.215   1.134  1.0181 -0.7229 -0.4987
 1856TIP3    H2 5575   3.857   4.202   1.268 -2.1298  0.0786  1.3265
 1857TIP3   OH2 5576   5.329   3.407   4.618  0.1680 -0.1144  0.0315
 1857TIP3    H1 5577   5.340   3.459   4.698  0.3599  1.1644 -0.7865
 1857TIP3    H2 5578   5.287   3.467   4.556 -2.1175 -1.7766 -0.1485
 1858TIP3   OH2 5579   1.159   3.123   0.183 -0.7350 -0.1502 -0.0673
 1858TIP3    H1 5580   1.094   3.174   0.135 -1.5550 -1.6295 -0.6120
 1858TIP3    H2 5581   1.109   3.052   0.222  0.6684 -2.1244 -1.6091
 1859TIP3   OH2 5582   4.592   0.205   1.714 -0.5367  0.0658  0.1206
 1859TIP3    H1 5583   4.498   0.197   1.699 -0.2796 -0.4701 -1.4688
 1859TIP3    H2 5584   4.620   0.274   1.654  0.0876  0.1891  0.5451
 1860TIP3   OH2 5585   6.170   0.669   2.012 -0.2820  0.1861 -0.2959
 1860TIP3    H1 5586   6.203   0.756   2.035  0.0142 -0.5417  2.4117
 1860TIP3    H2 5587   6.248   0.614   2.006 -0.6127 -0.5829  1.6130
 1861TIP3   OH2 5588   0.412   5.639   3.691 -0.6125  0.2281  0.9126
 1861TIP3    H1 5589   0.382   5.599   3.773 -2.7829  1.3721  0.7260
 1861TIP3    H2 5590   0.400   5.570   3.625  0.8699 -0.5971  1.4415
 1862TIP3   OH2 5591   0.546   2.048   0.799  0.0053 -0.1848  0.2523
 1862TIP3    H1 5592   0.482   2.093   0.853 -0.1970 -1.3171  0.9920
 1862TIP3    H2 5593   0.530   2.080   0.710  0.3187  1.6809  0.8285
 1863TIP3   OH2 5594   5.919   3.837   4.899  0.6607 -0.2434 -0.3520
 1863TIP3    H1 5595   5.943   3.899   4.830 -2.1049  0.4874 -0.7626
 1863TIP3    H2 5596   6.001   3.821   4.946  2.0737  1.3506 -2.1133
 1864TIP3   OH2 5597   3.928   3.342   1.430 -0.4403  0.0159  0.4534
 1864TIP3    H1 5598   3.865   3.335   1.502 -1.5222  2.3454 -0.1728
 1864TIP3    H2 5599   3.889   3.405   1.370  2.5648  1.7224  0.1022
 1865TIP3   OH2 5600   0.811   1.077   0.315  0.3766 -0.4587 -0.8030
 1865TIP3    H1 5601   0.815   1.061   0.221  1.2926  0.6549 -0.9732
 1865TIP3    H2 5602   0.828   0.991   0.354  3.4273 -0.3862 -1.6647
 1866TIP3   OH2 5603   2.560   3.380   3.843 -0.0005  0.3463 -0.1398
 1866TIP3    H1 5604   2.629   3.383   3.909 -1.1089  1.1585  1.0258
 1866TIP3    H2 5605   2.500   3.312   3.875  0.0336 -0.0640 -0.9285
 1867TIP3   OH2 5606   2.776   0.797   1.563  0.2746  0.2171  0.4119
 1867TIP3    H1 5607   2.763   0.711   1.604 -0.1212 -1.0970 -2.2295
 1867TIP3    H2 5608   2.704   0.850   1.596 -2.1487 -1.8483 -1.1510
 1868TIP3   OH2 5609   5.629   0.239   0.424 -0.0835 -0.5528  0.0704
 1868TIP3    H1 5610   5.598   0.288   0.348  0.7869  1.2116  0.7929
 1868TIP3    H2 5611   5.713   0.278   0.445  0.0832 -1.5751  1.4380
 1869TIP3   OH2 5612   4.052   4.745   4.233 -0.6381 -0.1384 -0.1320
 1869TIP3    H1 5613   4.076   4.664   4.278 -0.8438  0.7810  1.6989
 1869TIP3    H2 5614   4.110   4.747   4.157  0.5927 -1.1455  0.7299
 1870TIP3   OH2 5615   1.412   4.847   3.030 -0.3110  0.3819 -0.4862
 1870TIP3    H1 5616   1.352   4.825   2.959 -1.4245 -1.5910  0.9559
 1870TIP3    H2 5617   1.362   4.905   3.087 -1.0093 -1.3918  0.8010
 1871TIP3   OH2 5618   1.991   0.153   2.104  0.4310 -0.4456  0.1687
 1871TIP3    H1 5619   2.016   0.072   2.060 -1.6340 -0.6098 -0.8233
 1871TIP3    H2 5620   1.909   0.179   2.062 -0.0374  1.0587  1.8706
 1872TIP3   OH2 5621   4.213   1.297   1.529  0.1625  0.0353  0.6755
 1872TIP3    H1 5622   4.200   1.368   1.591  1.7012  0.6365  0.3801
 1872TIP3    H2 5623   4.248   1.225   1.581 -1.6344 -0.6420  1.0183
 1873TIP3   OH2 5624   4.505   2.087   4.924  0.0843  0.8278  0.4194
 1873TIP3    H1 5625   4.466   2.005   4.896  0.6437  0.5613  0.4084
 1873TIP3    H2 5626   4.486   2.148   4.853  0.4181  0.4776  0.0225
 1874TIP3   OH2 5627   2.579   3.538   3.501 -0.1463  0.2979 -0.3080
 1874TIP3    H1 5628   2.652   3.561   3.559  0.9085 -0.3193 -1.3516
 1874TIP3    H2 5629   2.564   3.445   3.517 -2.0553  0.8035  1.3232
 1875TIP3   OH2 5630   2.783   4.321   2.205 -0.1848 -0.3901 -0.1909
 1875TIP3    H1 5631   2.699   4.349   2.240  0.5468  1.4982  0.1869
 1875TIP3    H2 5632   2.848   4.372   2.254  0.9962  0.6129 -2.6198
 1876TIP3   OH2 5633   2.782   4.995   4.366 -0.3190  0.4028 -0.3044
 1876TIP3    H1 5634   2.869   5.023   4.394 -0.0695  0.2639 -0.9259
 1876TIP3    H2 5635   2.777   5.019   4.273 -0.6758 -0.2148 -0.4542
 1877TIP3   OH2 5636   2.391   1.803   2.649  0.5297 -0.4508 -1.0290
 1877TIP3    H1 5637   2.320   1.795   2.713  1.1137  0.3535 -0.2448
 1877TIP3    H2 5638   2.471   1.802   2.702  1.0605 -0.3878 -1.8086
 1878TIP3   OH2 5639   1.103   3.422   3.174 -0.1349 -0.2656  0.1658
 1878TIP3    H1 5640   1.145   3.385   3.252 -0.6197 -1.1693  0.0208
 1878TIP3    H2 5641   1.174   3.436   3.112  0.0667 -0.9790  0.2281
 1879TIP3   OH2 5642   0.195   5.602   5.076  0.5609 -0.0800 -0.1297
 1879TIP3    H1 5643   0.252   5.578   5.003  2.3415  2.5234  0.2719
 1879TIP3    H2 5644   0.214   5.694   5.092 -0.9421 -0.1456  2.6165
 1880TIP3   OH2 5645   0.614   1.264   4.768  0.0911  0.7563  0.5240
 1880TIP3    H1 5646   0.640   1.347   4.808 -0.5265  1.3089 -0.1885
 1880TIP3    H2 5647   0.583   1.288   4.681  0.2586 -0.2745  0.1590
 1881TIP3   OH2 5648   1.424   0.840   1.509 -0.2766 -0.7688  0.4049
 1881TIP3    H1 5649   1.357   0.828   1.442  0.0093 -0.4127  0.0574
 1881TIP3    H2 5650   1.396   0.781   1.580 -0.0878 -1.8446 -0.3860
 1882TIP3   OH2 5651   4.774   0.171   4.501 -0.2854  0.0358 -0.5137
 1882TIP3    H1 5652   4.710   0.238   4.526  0.5618  1.0457 -0.9798
 1882TIP3    H2 5653   4.751   0.150   4.410 -0.2527  0.0537 -0.5259
 1883TIP3   OH2 5654   2.112   1.938   1.284  0.8256  0.4390  0.2799
 1883TIP3    H1 5655   2.138   1.941   1.376  0.6937  0.9899  0.3018
 1883TIP3    H2 5656   2.025   1.978   1.282 -0.3995 -2.0454  0.3081
 1884TIP3   OH2 5657   3.895   1.021   3.508 -0.1291 -0.1228 -0.1865
 1884TIP3    H1 5658   3.871   0.935   3.543  2.2374 -0.5540  0.5526
 1884TIP3    H2 5659   3.822   1.077   3.533 -0.7045 -1.4459  1.3433
 1885TIP3   OH2 5660   1.220   4.767   2.425  0.1272  0.0610 -0.1530
 1885TIP3    H1 5661   1.144   4.715   2.450 -1.2321  1.9994 -0.0728
 1885TIP3    H2 5662   1.270   4.710   2.366 -1.7586 -1.0065 -0.7905
 1886TIP3   OH2 5663   4.338   2.177   1.055  0.6761 -0.0692  0.0665
 1886TIP3    H1 5664   4.429   2.182   1.083  1.3999  0.5358 -2.1968
 1886TIP3    H2 5665   4.336   2.105   0.992 -0.8287 -1.2667  1.4131
 1887TIP3   OH2 5666   0.279   3.908   3.515  0.0671 -0.2406  0.3940
 1887TIP3    H1 5667   0.187   3.915   3.539  0.2438  1.5535  0.6581
 1887TIP3    H2 5668   0.311   3.833   3.565 -1.2154 -0.8501  0.3406
 1888TIP3   OH2 5669   5.094   1.967   1.406  0.0854  0.7120  0.0742
 1888TIP3    H1 5670   5.034   1.988   1.334  0.7273  1.5724 -0.2167
 1888TIP3    H2 5671   5.168   2.026   1.394  0.5216  0.3780  1.0393
 1889TIP3   OH2 5672   2.364   3.089   0.994 -0.1468 -0.5012 -0.2148
 1889TIP3    H1 5673   2.300   3.124   0.932 -0.6776 -0.5092  0.3082
 1889TIP3    H2 5674   2.330   3.002   1.017  0.1509 -0.5823 -0.0765
 1890TIP3   OH2 5675   2.015   4.839   2.748  0.3255  0.2050  0.5542
 1890TIP3    H1 5676   2.098   4.867   2.711 -1.0567  1.1500 -2.1749
 1890TIP3    H2 5677   2.004   4.890   2.828  2.0973  0.4245  0.6841
 1891TIP3   OH2 5678   4.621   0.917   4.168  0.1528 -0.0749 -0.3878
 1891TIP3    H1 5679   4.715   0.925   4.151 -0.0875  0.6251 -1.4880
 1891TIP3    H2 5680   4.586   0.877   4.088 -0.1265 -3.0139  1.0674
 1892TIP3   OH2 5681   2.319   1.449   2.525  0.1239 -0.0428 -0.4059
 1892TIP3    H1 5682   2.323   1.460   2.620  0.2363 -1.3638 -0.2291
 1892TIP3    H2 5683   2.404   1.410   2.503 -0.8625 -2.1844 -0.6567
 1893TIP3   OH2 5684   1.405   4.365   3.725 -0.1698  0.2809  0.1627
 1893TIP3    H1 5685   1.386   4.272   3.731 -1.6960  0.6096  0.8654
 1893TIP3    H2 5686   1.429   4.379   3.633  1.8774 -1.0894  0.4353
 1894TIP3   OH2 5687   2.031   0.853   2.057  0.0635  0.2317 -0.2427
 1894TIP3    H1 5688   1.962   0.862   2.123 -0.9414 -0.1679 -1.2017
 1894TIP3    H2 5689   1.988   0.877   1.975  0.3172 -2.4124 -1.2472
 1895TIP3   OH2 5690   2.340   3.773   1.889 -0.5169  0.3202 -0.3574
 1895TIP3    H1 5691   2.430   3.759   1.859 -1.1259 -0.4793 -1.9602
 1895TIP3    H2 5692   2.323   3.866   1.872 -0.4151  0.1686 -1.3700
 1896TIP3   OH2 5693   5.128   3.955   4.105 -0.4994  0.6326  0.3057
 1896TIP3    H1 5694   5.132   3.974   4.198  0.8893 -0.2300  0.4454
 1896TIP3    H2 5695   5.183   4.023   4.064 -0.3722  0.4733  0.2107
 1897TIP3   OH2 5696   5.750   1.344   4.564 -0.4189  0.2104 -0.1611
 1897TIP3    H1 5697   5.774   1.281   4.633  0.3022  0.3773 -0.2577
 1897TIP3    H2 5698   5.655   1.353   4.573 -0.4622 -0.4884  0.2000
 1898TIP3   OH2 5699   3.689   0.746   4.571 -0.6719 -0.3921  0.2279
 1898TIP3    H1 5700   3.616   0.725   4.513 -0.9120  1.0795 -0.0316
 1898TIP3    H2 5701   3.677   0.838   4.594  2.4109  0.6666 -1.7588
 1899TIP3   OH2 5702   0.099   0.016   2.412  0.3581  0.2387 -0.5431
 1899TIP3    H1 5703   0.028  -0.015   2.355  1.0489 -1.4974 -0.5233
 1899TIP3    H2 5704   0.054   0.056   2.487 -0.5714  0.6541 -1.3018
 1900TIP3   OH2 5705   1.232   0.668   2.206  0.3048  0.4581  0.6237
 1900TIP3    H1 5706   1.229   0.641   2.298  1.5358 -0.5461  0.3963
 1900TIP3    H2 5707   1.236   0.763   2.209 -0.4483  0.4782  1.5799
 1901TIP3   OH2 5708   2.300  -0.008   3.851 -0.2012  0.1016  0.2576
 1901TIP3    H1 5709   2.219   0.039   3.872  0.1700 -0.3626  3.0903
 1901TIP3    H2 5710   2.369   0.043   3.892  0.6474 -0.8810  0.0917
 1902TIP3   OH2 5711   2.558  -0.005   2.708 -0.2040 -0.1008  0.0201
 1902TIP3    H1 5712   2.554  -0.026   2.615 -1.2520 -1.7269  0.3998
 1902TIP3    H2 5713   2.477   0.043   2.725 -0.7349 -1.0936  0.3680
 1903TIP3   OH2 5714   1.548   4.957   4.852  0.6857  0.2987 -0.0361
 1903TIP3    H1 5715   1.557   4.884   4.912  0.8259  0.1852 -0.1934
 1903TIP3    H2 5716   1.627   4.953   4.797  0.2639  0.0088 -0.6450
 1904TIP3   OH2 5717   5.481   1.161   0.783 -0.2289  0.0629  0.3441
 1904TIP3    H1 5718   5.557   1.112   0.814  1.1347  1.9042  0.0573
 1904TIP3    H2 5719   5.463   1.224   0.853 -1.5231 -0.3543  0.4126
 1905TIP3   OH2 5720   5.536   0.285   5.126  0.3291  0.1179 -0.2372
 1905TIP3    H1 5721   5.533   0.297   5.031  2.6976  0.5254 -0.3385
 1905TIP3    H2 5722   5.458   0.329   5.159 -0.4397  0.1304 -1.9727
 1906TIP3   OH2 5723   4.829   4.558   0.703 -0.1516 -0.0164 -0.4834
 1906TIP3    H1 5724   4.805   4.512   0.622 -0.5670  1.2007 -1.0640
 1906TIP3    H2 5725   4.748   4.559   0.755  0.0061 -0.4201 -0.2202
 1907TIP3   OH2 5726   6.110   1.612   0.852 -0.2358  0.0289 -0.2388
 1907TIP3    H1 5727   6.163   1.689   0.829  0.3238 -0.2698  0.0295
 1907TIP3    H2 5728   6.113   1.557   0.774  0.9378 -0.5808  0.2059
 1908TIP3   OH2 5729   2.317   5.290   1.399  0.1835 -0.4690  0.3850
 1908TIP3    H1 5730   2.390   5.332   1.446  0.7028 -1.7036  0.7230
 1908TIP3    H2 5731   2.256   5.361   1.381  2.0840  0.9019 -1.1307
 1909TIP3   OH2 5732   5.166   4.559   4.765 -0.7080  0.6740  0.1651
 1909TIP3    H1 5733   5.181   4.626   4.698 -0.2493 -0.0264 -0.4461
 1909TIP3    H2 5734   5.193   4.477   4.724 -1.8365  0.0148  0.6894
 1910TIP3   OH2 5735   5.665   2.454   2.688  0.0341 -0.0968  0.0218
 1910TIP3    H1 5736   5.751   2.479   2.722 -0.3824  1.3178  0.0730
 1910TIP3    H2 5737   5.616   2.423   2.764 -0.0800  0.7577  0.3022
 1911TIP3   OH2 5738   0.227   5.766   3.194 -0.2782  0.1908 -0.4815
 1911TIP3    H1 5739   0.170   5.730   3.262  0.4782 -1.7975 -0.8429
 1911TIP3    H2 5740   0.279   5.832   3.239 -1.2842  0.4355  0.3594
 1912TIP3   OH2 5741   6.005   1.579   2.201 -0.1165 -0.6993 -0.0361
 1912TIP3    H1 5742   5.911   1.559   2.193  0.2416 -1.7682 -3.0726
 1912TIP3    H2 5743   6.046   1.527   2.132  2.7336 -0.1596  1.1305
 1913TIP3   OH2 5744   6.066   4.925   0.575 -0.3796  0.2448  0.0354
 1913TIP3    H1 5745   6.147   4.962   0.610  0.3430 -2.2023  1.1660
 1913TIP3    H2 5746   5.996   4.976   0.616  0.5480  0.5532  1.2878
 1914TIP3   OH2 5747   3.778   2.815   3.094 -0.5186 -0.0215 -0.2226
 1914TIP3    H1 5748   3.799   2.737   3.043  0.2440  0.7350 -1.0955
 1914TIP3    H2 5749   3.692   2.842   3.062 -0.2186  0.2202 -0.8587
 1915TIP3   OH2 5750   4.649   1.615   0.722  0.6525 -0.0129  0.2394
 1915TIP3    H1 5751   4.647   1.599   0.627  0.5551 -0.6404  0.3456
 1915TIP3    H2 5752   4.659   1.528   0.761 -2.5049 -0.1860  0.9364
 1916TIP3   OH2 5753   5.962   5.297   5.064  0.1362 -0.0719 -0.0247
 1916TIP3    H1 5754   5.931   5.387   5.073 -1.7206 -0.4106 -2.1787
 1916TIP3    H2 5755   5.919   5.250   5.136 -2.1256  0.0631 -1.1951
 1917TIP3   OH2 5756   5.910   5.611   2.008 -0.1367 -0.4069 -0.8854
 1917TIP3    H1 5757   5.922   5.524   2.045  1.7327 -0.2782 -1.1156
 1917TIP3    H2 5758   5.837   5.601   1.947 -1.0860 -1.3861  0.3315
 1918TIP3   OH2 5759   2.146   4.709   4.256  0.4337 -0.3548 -0.0617
 1918TIP3    H1 5760   2.182   4.712   4.345  1.1691 -1.6467 -0.2931
 1918TIP3    H2 5761   2.118   4.619   4.245 -2.0354  0.3665 -0.2626
 1919TIP3   OH2 5762   4.665   0.806   1.218 -0.0073  0.3352  0.1211
 1919TIP3    H1 5763   4.618   0.757   1.286  0.3965 -1.5786 -0.9007
 1919TIP3    H2 5764   4.711   0.875   1.265 -0.6549 -0.2370  1.6447
 1920TIP3   OH2 5765   4.231   3.695   1.945  0.0772 -0.0942  0.0829
 1920TIP3    H1 5766   4.252   3.626   2.007  0.0877 -0.9691 -0.8787
 1920TIP3    H2 5767   4.264   3.663   1.860 -3.1359 -0.6032 -1.1052
 1921TIP3   OH2 5768   1.903   3.615   3.360  0.4288  0.2884 -0.1442
 1921TIP3    H1 5769   1.813   3.649   3.353 -0.0883 -0.6450  1.4744
 1921TIP3    H2 5770   1.948   3.677   3.417 -0.0786 -0.8312  1.5358
 1922TIP3   OH2 5771   1.049   3.386   2.510 -0.8428 -0.0007  0.0143
 1922TIP3    H1 5772   1.026   3.293   2.507  0.4844 -0.3406 -0.2179
 1922TIP3    H2 5773   1.090   3.398   2.595 -0.4268  0.2277 -0.2159
 1923TIP3   OH2 5774   4.964   2.689   2.891 -0.2014  0.3044  0.4784
 1923TIP3    H1 5775   4.994   2.613   2.940  0.6146  0.2774 -0.0519
 1923TIP3    H2 5776   4.880   2.663   2.855 -0.3668 -0.0061  1.0744
 1924TIP3   OH2 5777   2.214   1.699   3.920 -0.6234  0.4458  0.4633
 1924TIP3    H1 5778   2.299   1.726   3.953 -0.0240 -2.3521  1.4822
 1924TIP3    H2 5779   2.223   1.703   3.825  1.2000 -1.1037  0.5033
 1925TIP3   OH2 5780   3.815   1.142   3.143 -0.2706 -0.9207  0.0076
 1925TIP3    H1 5781   3.790   1.207   3.209  0.5210  0.3574 -0.9203
 1925TIP3    H2 5782   3.895   1.103   3.177 -1.3581 -2.3115  1.1335
 1926TIP3   OH2 5783   4.597   2.689   1.286  0.0018  0.7659  0.1460
 1926TIP3    H1 5784   4.670   2.715   1.342 -0.3263  3.0376 -0.3949
 1926TIP3    H2 5785   4.618   2.725   1.200 -1.3299  0.6911 -0.2367
 1927TIP3   OH2 5786   6.314   3.598   0.760 -0.5591  0.1639  0.5233
 1927TIP3    H1 5787   6.410   3.593   0.757 -0.5939 -1.3718  0.7789
 1927TIP3    H2 5788   6.293   3.683   0.723  0.8939  0.3534  0.0588
 1928TIP3   OH2 5789   3.041   2.696   3.897 -0.0436 -0.3989 -0.1922
 1928TIP3    H1 5790   3.063   2.774   3.845 -2.0856  0.5213  0.2321
 1928TIP3    H2 5791   3.112   2.634   3.878  0.9332  1.0580 -1.5902
 1929TIP3   OH2 5792   5.203   4.585   4.447  0.0566 -0.0101 -0.0535
 1929TIP3    H1 5793   5.114   4.615   4.466 -0.3407 -0.7430 -0.6625
 1929TIP3    H2 5794   5.220   4.616   4.358  0.9673  1.3343  0.5629
 1930TIP3   OH2 5795   4.341   2.673   2.774  0.1568 -0.3929 -0.0640
 1930TIP3    H1 5796   4.368   2.678   2.866 -1.0417  0.6621  0.2611
 1930TIP3    H2 5797   4.389   2.743   2.731  0.3681 -0.5884 -0.1467
 1931TIP3   OH2 5798   5.148   5.400   3.839  0.5130 -0.6868 -0.6063
 1931TIP3    H1 5799   5.221   5.341   3.821  1.2843  0.4481 -1.2570
 1931TIP3    H2 5800   5.087   5.385   3.767  0.1053 -1.5857 -0.0980
 1932TIP3   OH2 5801   4.217   2.651   4.217 -0.2131  0.0346 -0.3543
 1932TIP3    H1 5802   4.170   2.734   4.226  0.7004  0.9526 -3.1043
 1932TIP3    H2 5803   4.309   2.676   4.219  0.0744 -0.8238 -1.7725
 1933TIP3   OH2 5804   2.512   4.967   2.633 -0.5478 -0.3495 -0.4988
 1933TIP3    H1 5805   2.593   5.001   2.595  0.8656 -2.7334  0.1595
 1933TIP3    H2 5806   2.511   5.001   2.722 -0.3007 -0.2632 -0.5289
 1934TIP3   OH2 5807   0.555   2.527   2.444 -0.7743 -0.3257  0.1548
 1934TIP3    H1 5808   0.538   2.543   2.352 -0.5928 -1.1278 -0.0301
 1934TIP3    H2 5809   0.489   2.578   2.491 -0.3919  0.6956 -0.3853
 1935TIP3   OH2 5810   2.354   5.814   2.745  0.2053 -0.9012  0.2238
 1935TIP3    H1 5811   2.387   5.898   2.714  1.3088 -1.1104  0.8020
 1935TIP3    H2 5812   2.289   5.788   2.680  0.7391 -0.1892 -0.6095
 1936TIP3   OH2 5813   1.036   0.263   4.901 -0.3469 -0.0833  0.1897
 1936TIP3    H1 5814   1.047   0.172   4.926 -1.6289 -0.1946  0.4340
 1936TIP3    H2 5815   1.005   0.259   4.810 -1.3851  0.0421  0.5216
 1937TIP3   OH2 5816   1.049   3.892   3.068 -0.8650  0.1007  0.0290
 1937TIP3    H1 5817   1.033   3.814   3.122  0.3470 -0.1253  0.0728
 1937TIP3    H2 5818   1.133   3.876   3.026 -1.7405  0.3040 -1.9038
 1938TIP3   OH2 5819   0.907   4.829   3.294  0.0167  0.1467  0.2066
 1938TIP3    H1 5820   0.976   4.878   3.340 -0.2133 -0.0602  0.7816
 1938TIP3    H2 5821   0.936   4.827   3.203 -0.0682  1.5337  0.1192
 1939TIP3   OH2 5822   1.783   2.336   4.038  0.3946 -0.3619 -0.7450
 1939TIP3    H1 5823   1.804   2.266   4.100  2.6308  1.4339  0.6602
 1939TIP3    H2 5824   1.815   2.303   3.954  0.5332 -1.4014 -0.3019
 1940TIP3   OH2 5825   6.093   5.430   2.336  0.2638 -0.1995  0.0795
 1940TIP3    H1 5826   6.103   5.335   2.345  0.5791 -0.0800  1.0831
 1940TIP3    H2 5827   6.013   5.441   2.285 -0.6471 -0.9891  1.2826
 1941TIP3   OH2 5828   5.235   5.789   1.175  0.2461 -0.5720 -0.4887
 1941TIP3    H1 5829   5.160   5.747   1.133 -0.3055 -0.5207  0.4365
 1941TIP3    H2 5830   5.215   5.789   1.268  1.5842 -0.9278 -0.1779
 1942TIP3   OH2 5831   2.950   4.409   1.598 -0.2531 -0.1658  0.6030
 1942TIP3    H1 5832   2.890   4.366   1.659  0.5063 -0.7757  0.9349
 1942TIP3    H2 5833   3.004   4.466   1.654 -0.7175  0.6187  0.2698
 1943TIP3   OH2 5834   4.694   1.681   1.721 -0.1467 -0.4370  0.3058
 1943TIP3    H1 5835   4.650   1.601   1.752 -0.8499 -0.2592 -0.2153
 1943TIP3    H2 5836   4.656   1.698   1.635 -0.6552  0.9471  0.7771
 1944TIP3   OH2 5837   5.189   3.083   5.000 -0.6475  0.7846 -0.0193
 1944TIP3    H1 5838   5.217   3.105   4.911 -1.7866 -0.2115 -0.6555
 1944TIP3    H2 5839   5.189   3.167   5.046  1.3505  1.1267 -0.5155
 1945TIP3   OH2 5840   2.756   5.447   0.805  0.1694  0.0642 -0.1289
 1945TIP3    H1 5841   2.822   5.427   0.871  1.2073  1.4511 -0.7173
 1945TIP3    H2 5842   2.755   5.370   0.748  1.5045  0.1460 -0.2940
 1946TIP3   OH2 5843   2.873   2.558   4.331 -0.6348  0.3041 -0.5518
 1946TIP3    H1 5844   2.861   2.652   4.321  0.4541  0.3767 -1.4677
 1946TIP3    H2 5845   2.844   2.521   4.247 -0.1960 -0.0757 -0.5413
 1947TIP3   OH2 5846   5.947   4.713   3.997 -0.4238  0.0856  0.6074
 1947TIP3    H1 5847   6.013   4.776   3.970 -0.5791  0.0144  0.0483
 1947TIP3    H2 5848   5.971   4.632   3.950 -1.1086  0.1600  0.1217
 1948TIP3   OH2 5849   1.148   5.695   1.400  0.1860  0.1847  0.1315
 1948TIP3    H1 5850   1.080   5.746   1.356 -1.3186 -1.2760  0.6380
 1948TIP3    H2 5851   1.130   5.707   1.493  0.5460 -0.3192  0.2694
 1949TIP3   OH2 5852   2.025   5.076   4.460 -0.6309 -0.4721  0.4225
 1949TIP3    H1 5853   2.044   4.987   4.490 -0.1844 -0.3282  0.5737
 1949TIP3    H2 5854   2.046   5.131   4.535 -0.0305 -0.1571  0.0246
 1950TIP3   OH2 5855   5.059   0.743   3.156 -0.7853 -0.0200  0.3191
 1950TIP3    H1 5856   5.052   0.711   3.066 -1.8712  0.5718  0.1783
 1950TIP3    H2 5857   5.140   0.793   3.158 -1.4269  1.0818 -0.6948
 1951TIP3   OH2 5858   0.257   3.877   4.953 -0.5331  0.0014  0.3792
 1951TIP3    H1 5859   0.348   3.886   4.924 -0.0921  0.7062  1.8675
 1951TIP3    H2 5860   0.263   3.823   5.032 -1.4259 -0.0401  0.4258
 1952TIP3   OH2 5861   0.919   1.690   4.730  0.4459  0.1439  0.2744
 1952TIP3    H1 5862   0.971   1.631   4.785  0.3634 -0.8450 -0.6768
 1952TIP3    H2 5863   0.984   1.737   4.677  0.6391  2.1495  2.1287
 1953TIP3   OH2 5864   1.715   1.489   0.923  0.3775  0.2524 -0.0264
 1953TIP3    H1 5865   1.629   1.486   0.882  1.1070 -1.8290 -1.5970
 1953TIP3    H2 5866   1.771   1.529   0.856  0.9833 -0.2614  0.1632
 1954TIP3   OH2 5867   0.458   4.219   2.849 -0.5596  0.2726 -0.3148
 1954TIP3    H1 5868   0.445   4.305   2.807 -1.2840  0.7819  0.8938
 1954TIP3    H2 5869   0.369   4.188   2.867 -0.2763 -0.3301  0.0564
 1955TIP3   OH2 5870   2.810   1.999   1.010  0.3166 -0.9277 -0.9808
 1955TIP3    H1 5871   2.868   1.965   0.942  0.3844 -0.8406 -0.9658
 1955TIP3    H2 5872   2.722   1.985   0.974  0.3797  1.1155 -2.0570
 1956TIP3   OH2 5873   4.590   2.388   0.938 -0.0356  0.0304  0.8531
 1956TIP3    H1 5874   4.649   2.424   0.871 -2.1181  0.8102 -0.6885
 1956TIP3    H2 5875   4.521   2.454   0.947 -1.1378 -1.2065  1.9090
 1957TIP3   OH2 5876   5.478   1.240   1.865  0.2477 -0.2902  0.1171
 1957TIP3    H1 5877   5.541   1.171   1.844  0.9679  1.1147 -2.8838
 1957TIP3    H2 5878   5.417   1.240   1.791 -0.1187  1.8119  0.3652
 1958TIP3   OH2 5879   5.864   1.936   1.615  0.1677  0.5439 -0.3452
 1958TIP3    H1 5880   5.910   1.998   1.672  0.7555  1.5782 -1.8896
 1958TIP3    H2 5881   5.933   1.886   1.572 -0.1153  1.6011 -2.1265
 1959TIP3   OH2 5882   3.321   1.757   0.976 -0.0106 -0.0738 -0.6453
 1959TIP3    H1 5883   3.376   1.686   1.010  0.7763  0.0513 -1.5890
 1959TIP3    H2 5884   3.246   1.712   0.936  0.6066 -0.4121 -1.4607
 1960TIP3   OH2 5885   1.110   5.696   2.167 -0.3679 -0.2998 -0.1594
 1960TIP3    H1 5886   1.019   5.708   2.141 -0.6126 -0.0316  0.7871
 1960TIP3    H2 5887   1.156   5.770   2.127 -0.9399  0.7857  1.1303
 1961TIP3   OH2 5888   1.955   2.420   3.691  0.7734 -0.2678 -0.1439
 1961TIP3    H1 5889   2.038   2.436   3.734  0.9673  0.2952 -0.7242
 1961TIP3    H2 5890   1.916   2.348   3.741  1.2521 -0.0157  0.6040
 1962TIP3   OH2 5891   3.743   4.290   3.284  0.2243 -0.2965  0.4258
 1962TIP3    H1 5892   3.830   4.329   3.289 -0.3762  1.0434  0.9454
 1962TIP3    H2 5893   3.737   4.235   3.362 -0.5320  2.1936  2.2847
 1963TIP3   OH2 5894   5.988   0.770   1.153  0.2113 -0.2681  0.1502
 1963TIP3    H1 5895   6.017   0.795   1.065 -1.0259  0.4102 -0.0799
 1963TIP3    H2 5896   5.994   0.674   1.154 -0.2236 -0.3133 -0.8430
 1964TIP3   OH2 5897   0.613   4.498   3.613 -0.1141 -0.0828 -0.5255
 1964TIP3    H1 5898   0.541   4.457   3.565 -0.2916  0.5471 -0.8099
 1964TIP3    H2 5899   0.679   4.517   3.546 -0.2210  0.4952 -0.4711
 1965TIP3   OH2 5900   2.915   1.606   4.590  0.2588 -0.4038 -0.4849
 1965TIP3    H1 5901   2.851   1.612   4.661 -1.1532  0.0521 -1.7509
 1965TIP3    H2 5902   2.902   1.518   4.554  1.2394 -0.7791  0.0239
 1966TIP3   OH2 5903   1.977   2.008   0.950 -0.4046  0.6998  0.4437
 1966TIP3    H1 5904   2.056   1.959   0.926  0.0979  1.2884  0.8537
 1966TIP3    H2 5905   1.905   1.951   0.924  0.1447  0.3372 -0.3382
 1967TIP3   OH2 5906   4.885   2.483   1.260 -0.0046 -0.7044 -0.3007
 1967TIP3    H1 5907   4.854   2.569   1.287  1.0258 -0.6799  0.8654
 1967TIP3    H2 5908   4.806   2.433   1.244 -0.6686 -0.4108  1.8351
 1968TIP3   OH2 5909   3.904   5.897   5.048 -0.6467  0.0849 -0.0838
 1968TIP3    H1 5910   3.976   5.889   4.986 -0.2324 -1.8275  0.5935
 1968TIP3    H2 5911   3.869   5.985   5.033  1.9899  1.1769 -0.2283
 1969TIP3   OH2 5912   2.822   4.711   4.441 -0.1704 -0.1412  0.5070
 1969TIP3    H1 5913   2.784   4.705   4.529 -0.9968 -0.5733  0.1372
 1969TIP3    H2 5914   2.837   4.804   4.427 -0.6010 -0.0152  0.8799
 1970TIP3   OH2 5915   0.621   0.045   3.748 -0.0293  0.3507 -0.2727
 1970TIP3    H1 5916   0.545   0.085   3.707 -0.6998 -0.5168  0.0777
 1970TIP3    H2 5917   0.629   0.090   3.833  0.4024  1.0554 -0.6778
 1971TIP3   OH2 5918   2.393   4.842   1.859  0.0207  0.4297  0.1763
 1971TIP3    H1 5919   2.451   4.856   1.934  2.7933 -1.2797 -1.4527
 1971TIP3    H2 5920   2.446   4.867   1.783 -2.2424  0.9486 -1.3239
 1972TIP3   OH2 5921   5.674   1.903   2.340  0.5736  0.0338 -0.1010
 1972TIP3    H1 5922   5.651   1.886   2.249  0.1702  0.0304 -0.0049
 1972TIP3    H2 5923   5.648   1.824   2.387 -1.0569  0.7415  0.3034
 1973TIP3   OH2 5924   4.871   4.284   1.998  0.0772  0.0183 -0.1265
 1973TIP3    H1 5925   4.825   4.234   2.065 -0.3598  0.6792  0.0739
 1973TIP3    H2 5926   4.928   4.220   1.955  0.9773 -0.2537  1.4106
 1974TIP3   OH2 5927   6.249   1.361   1.423  0.0680 -0.2931 -0.0552
 1974TIP3    H1 5928   6.266   1.429   1.489 -2.4672 -1.4384  1.9718
 1974TIP3    H2 5929   6.278   1.280   1.465 -0.3247 -0.8813 -0.9089
 1975TIP3   OH2 5930   3.679   1.219   3.354 -0.2203  0.3171 -0.5362
 1975TIP3    H1 5931   3.646   1.156   3.417  1.2654 -0.8485 -0.8498
 1975TIP3    H2 5932   3.680   1.302   3.400  0.5660 -0.4560  0.9069
 1976TIP3   OH2 5933   2.874   0.358   3.496 -0.4428  0.1918 -0.5962
 1976TIP3    H1 5934   2.936   0.285   3.494 -0.5868  0.0848 -1.1585
 1976TIP3    H2 5935   2.788   0.316   3.495 -0.5440  0.3197  0.7022
 1977TIP3   OH2 5936   5.766   2.572   3.200  0.4701 -0.2116  0.3275
 1977TIP3    H1 5937   5.808   2.498   3.156  0.2647 -0.4413  0.5170
 1977TIP3    H2 5938   5.839   2.630   3.224  0.6727 -0.5708  0.5844
 1978TIP3   OH2 5939   1.869   2.865   0.526  0.2347  0.3713 -0.0174
 1978TIP3    H1 5940   1.880   2.954   0.559  1.5572  0.5583 -0.8664
 1978TIP3    H2 5941   1.941   2.854   0.463  0.8612 -1.7169  0.9642
 1979TIP3   OH2 5942   5.138   4.801   3.847  0.0456 -0.2135  0.1780
 1979TIP3    H1 5943   5.056   4.836   3.813 -0.6202 -1.8253  0.0463
 1979TIP3    H2 5944   5.121   4.784   3.940 -0.0150 -1.1722  0.0082
 1980TIP3   OH2 5945   3.793   1.463   0.960  0.1016 -0.6784 -0.1595
 1980TIP3    H1 5946   3.732   1.513   1.015 -0.5485 -1.8349  0.2094
 1980TIP3    H2 5947   3.785   1.503   0.873 -0.6744 -0.3828  0.0416
 1981TIP3   OH2 5948   4.372   4.877   3.069 -0.2092 -0.5309 -0.8721
 1981TIP3    H1 5949   4.425   4.954   3.086  0.6398 -1.0904 -0.9154
 1981TIP3    H2 5950   4.282   4.906   3.081  0.1028  0.4459 -0.8353
 1982TIP3   OH2 5951   3.104   3.023   4.749 -1.0572  0.4851 -0.2009
 1982TIP3    H1 5952   3.170   3.073   4.702 -0.5726 -0.1717 -0.2169
 1982TIP3    H2 5953   3.023   3.039   4.701 -0.5632 -0.2139 -1.2874
 1983TIP3   OH2 5954   0.432   2.095   0.177  0.0052  0.2914  0.1235
 1983TIP3    H1 5955   0.452   2.183   0.144  1.2345  0.3980  1.0658
 1983TIP3    H2 5956   0.352   2.106   0.228  0.2422  0.9127  0.3710
 1984TIP3   OH2 5957   1.257   5.521   3.661 -0.1411  0.4680 -0.7003
 1984TIP3    H1 5958   1.258   5.511   3.756  0.4062 -0.1129 -0.7661
 1984TIP3    H2 5959   1.308   5.601   3.645 -0.0178  0.4236 -0.5268
 1985TIP3   OH2 5960   6.270   3.763   0.173  0.2521  0.3710  0.4143
 1985TIP3    H1 5961   6.318   3.702   0.229 -0.6507  0.3088  1.1554
 1985TIP3    H2 5962   6.190   3.716   0.151  0.3236  0.6353 -0.4393
 1986TIP3   OH2 5963   5.862   4.922   5.020 -0.2975  0.2740 -0.5235
 1986TIP3    H1 5964   5.779   4.965   5.038 -0.6629  0.0636 -1.6447
 1986TIP3    H2 5965   5.863   4.846   5.079 -0.9515  0.2211 -0.5695
 1987TIP3   OH2 5966   5.011   3.921   4.889  0.1489 -0.1864 -0.3134
 1987TIP3    H1 5967   4.958   3.970   4.827 -0.2856  0.8914  0.8821
 1987TIP3    H2 5968   5.093   3.904   4.842  0.1028  1.2214 -0.9545
 1988TIP3   OH2 5969   5.050   5.617   1.316  0.2240 -0.0518  0.7392
 1988TIP3    H1 5970   5.105   5.626   1.394  0.3462 -1.5658  0.8541
 1988TIP3    H2 5971   4.975   5.675   1.333  0.7471  0.4110  1.5194
 1989TIP3   OH2 5972   2.930   4.116   4.093  0.0554  0.1010  0.0667
 1989TIP3    H1 5973   2.914   4.210   4.104  0.3541  0.0100  1.4732
 1989TIP3    H2 5974   3.012   4.112   4.044  0.9661  0.6127  1.4768
 1990TIP3   OH2 5975   3.196   2.102   4.510 -0.2108 -0.1020  0.2757
 1990TIP3    H1 5976   3.149   2.148   4.579 -2.6227  0.8680 -1.8162
 1990TIP3    H2 5977   3.172   2.010   4.522 -0.7896  0.0869  0.6124
 1991TIP3   OH2 5978   5.310   1.838   2.159  0.2587 -0.6752 -0.2719
 1991TIP3    H1 5979   5.336   1.776   2.227  0.4003  0.8350  1.0997
 1991TIP3    H2 5980   5.392   1.862   2.117  0.1420 -1.8206 -1.2123
 1992TIP3   OH2 5981   2.703   0.257   0.524  0.2994 -0.1201  0.4215
 1992TIP3    H1 5982   2.787   0.235   0.565 -0.7300 -1.0236  2.1538
 1992TIP3    H2 5983   2.692   0.350   0.541  0.8854 -0.0216  0.2840
 1993TIP3   OH2 5984   0.359   1.857   0.842 -0.0535 -0.5204 -0.0293
 1993TIP3    H1 5985   0.327   1.840   0.754 -1.9607  1.2765  0.2547
 1993TIP3    H2 5986   0.447   1.892   0.830 -0.5566  0.3541 -1.2640
 1994TIP3   OH2 5987   5.336   2.626   2.544  0.3659  0.2099  0.5652
 1994TIP3    H1 5988   5.302   2.710   2.575 -1.5398 -0.4558  0.3962
 1994TIP3    H2 5989   5.304   2.562   2.607  1.7064 -0.4293  0.6282
 1995TIP3   OH2 5990   5.311   3.261   3.931  0.8204 -0.3346  0.0894
 1995TIP3    H1 5991   5.263   3.185   3.964  0.1006 -0.0031 -0.1699
 1995TIP3    H2 5992   5.329   3.240   3.840 -1.2142  0.6460 -0.5982
 1996TIP3   OH2 5993   5.507   2.413   5.077  0.2021 -0.0686 -0.0317
 1996TIP3    H1 5994   5.436   2.477   5.087  1.8005  1.9604 -0.8271
 1996TIP3    H2 5995   5.536   2.423   4.986  1.4181 -0.9169  0.2325
 1997TIP3   OH2 5996   5.667   5.461   3.997 -0.4024  0.5200  0.1089
 1997TIP3    H1 5997   5.620   5.441   4.078  0.6947 -1.3638  0.3218
 1997TIP3    H2 5998   5.743   5.512   4.026 -1.2198  1.8767 -0.0313
 1998TIP3   OH2 5999   3.427   1.637   1.578  0.0486 -0.1339 -0.3479
 1998TIP3    H1 6000   3.475   1.720   1.581 -1.1244  0.5350  1.0333
 1998TIP3    H2 6001   3.440   1.606   1.488  2.3176  0.4127 -0.2862
 1999TIP3   OH2 6002   1.734   1.385   1.756 -0.0301  0.1189  0.2027
 1999TIP3    H1 6003   1.802   1.452   1.744 -0.9896  1.2569  0.8850
 1999TIP3    H2 6004   1.780   1.302   1.746  1.6461  0.8297  1.5298
 2000TIP3   OH2 6005   0.202   2.716   3.779  0.7004  0.0824  0.6854
 2000TIP3    H1 6006   0.113   2.730   3.749  0.5035 -1.7258  0.3021
 2000TIP3    H2 6007   0.251   2.694   3.699  1.5225  1.1410  0.8762
 2001TIP3   OH2 6008  -0.031   4.851   3.566  0.4261  0.8599  0.2136
 2001TIP3    H1 6009   0.024   4.925   3.590  0.4434  0.6477  0.8472
 2001TIP3    H2 6010   0.010   4.814   3.488  2.9155 -1.0706  2.2603
 2002TIP3   OH2 6011   4.264   2.794   0.938  0.7178  0.4478 -0.1263
 2002TIP3    H1 6012   4.252   2.882   0.901  2.8698  0.5562 -0.6944
 2002TIP3    H2 6013   4.186   2.746   0.910 -0.8033  2.2705  0.6588
 2003TIP3   OH2 6014   3.180   4.669   0.147  0.1782  0.2755 -0.5159
 2003TIP3    H1 6015   3.144   4.751   0.180 -1.9078 -0.6930 -0.1925
 2003TIP3    H2 6016   3.232   4.694   0.071  0.3855  1.9746  0.1469
 2004TIP3   OH2 6017   5.630   2.195   1.720  0.0106 -0.2111 -0.1830
 2004TIP3    H1 6018   5.600   2.236   1.802 -1.2087 -0.7122 -0.3606
 2004TIP3    H2 6019   5.609   2.102   1.730 -2.1545  0.0201 -1.9002
 2005TIP3   OH2 6020   5.521   3.043   3.956  0.8770  0.4037  0.5453
 2005TIP3    H1 6021   5.525   3.112   3.890  0.3626  0.9324  1.0556
 2005TIP3    H2 6022   5.541   2.963   3.908 -0.2773  0.6688 -0.4137
 2006TIP3   OH2 6023   2.133   0.277   3.336 -0.0598  0.4628  0.3011
 2006TIP3    H1 6024   2.116   0.285   3.430 -0.5555 -0.7458  0.3282
 2006TIP3    H2 6025   2.046   0.263   3.297  0.0375  1.7192 -0.4456
 2007TIP3   OH2 6026   3.494   1.934   1.502 -0.0205  1.2882 -0.5680
 2007TIP3    H1 6027   3.506   2.028   1.486  0.9400  1.2063 -0.3970
 2007TIP3    H2 6028   3.566   1.911   1.561 -0.6376  0.5751 -0.0854
 2008TIP3   OH2 6029   4.882   2.375   4.006  0.4263 -0.3679 -0.0497
 2008TIP3    H1 6030   4.877   2.417   4.092  0.7580 -1.6421  0.6021
 2008TIP3    H2 6031   4.792   2.349   3.987  0.4389 -0.5435  0.1362
 2009TIP3   OH2 6032   3.895   4.076   3.427 -0.5435  0.4958  0.2740
 2009TIP3    H1 6033   3.983   4.112   3.427 -0.7643  1.0435  0.0440
 2009TIP3    H2 6034   3.856   4.108   3.509 -0.7601  0.8418  0.0399
 2010TIP3   OH2 6035   3.292   3.619   3.409 -0.6752  0.0198  0.1264
 2010TIP3    H1 6036   3.286   3.664   3.493  0.4275  1.7810 -0.6836
 2010TIP3    H2 6037   3.317   3.530   3.431 -2.6037 -0.1799  1.7750
 2011TIP3   OH2 6038   5.367   1.406   1.176  0.5060 -0.9789  0.2742
 2011TIP3    H1 6039   5.352   1.312   1.188 -0.1485 -0.8853  0.2532
 2011TIP3    H2 6040   5.377   1.417   1.081  0.8259 -1.0607  0.2988
 2012TIP3   OH2 6041   4.790   1.039   1.300 -0.1712 -0.1502 -0.3448
 2012TIP3    H1 6042   4.873   1.019   1.342 -0.1959  0.0760 -0.1847
 2012TIP3    H2 6043   4.797   1.132   1.276 -0.6174  0.0404  0.2288
 2013TIP3   OH2 6044   5.895   4.019   3.207 -0.0308  0.0799  0.5636
 2013TIP3    H1 6045   5.941   3.938   3.232 -0.2165  0.2122  1.3641
 2013TIP3    H2 6046   5.923   4.083   3.273 -1.7863  0.0215  1.4201
 2014TIP3   OH2 6047   5.532   3.045   1.989  0.0010 -0.7973 -0.5517
 2014TIP3    H1 6048   5.580   3.104   1.930  0.0089  1.2229  1.3565
 2014TIP3    H2 6049   5.440   3.058   1.966  0.0205 -0.1924 -0.3307
 2015TIP3   OH2 6050   3.444   2.529   2.137  0.0931  0.7689 -1.0468
 2015TIP3    H1 6051   3.409   2.609   2.175  0.7196  0.4947  0.1461
 2015TIP3    H2 6052   3.506   2.496   2.202  0.4483 -0.2567 -1.8704
 2016TIP3   OH2 6053   3.608   0.006   0.444 -0.1540  0.0692 -0.3536
 2016TIP3    H1 6054   3.613  -0.000   0.539  0.0160  0.9041 -0.2985
 2016TIP3    H2 6055   3.698   0.022   0.415 -0.2682  0.2528 -0.6162
 2017TIP3   OH2 6056   2.917   4.690   0.763  1.1485  0.0490 -0.1197
 2017TIP3    H1 6057   2.930   4.622   0.829  0.6288  0.1983  0.1398
 2017TIP3    H2 6058   2.952   4.652   0.682  1.7035 -0.1723  0.2140
 2018TIP3   OH2 6059   4.812   1.292   1.144  0.6455 -0.2639  0.0165
 2018TIP3    H1 6060   4.788   1.377   1.180  1.6589 -0.6015  1.5805
 2018TIP3    H2 6061   4.753   1.279   1.070 -0.2176  1.3242  0.3987
 2019TIP3   OH2 6062   2.232   5.595   0.284  0.3997 -0.2582 -0.1287
 2019TIP3    H1 6063   2.212   5.519   0.339  0.4255 -0.0636  0.1526
 2019TIP3    H2 6064   2.155   5.651   0.292  0.1992 -0.4584 -0.6858
 2020TIP3   OH2 6065   4.133   2.563   2.916  0.6867 -0.8698  0.0655
 2020TIP3    H1 6066   4.220   2.589   2.887  0.7183 -0.5903  0.4110
 2020TIP3    H2 6067   4.113   2.484   2.865  0.6012 -0.2036 -0.9600
 2021TIP3   OH2 6068   1.003   0.360   2.508 -0.0961 -0.0428 -0.4851
 2021TIP3    H1 6069   0.943   0.426   2.542 -0.0398  0.3093 -1.0432
 2021TIP3    H2 6070   0.971   0.277   2.543  0.2808  0.3598  0.8383
 2022TIP3   OH2 6071   2.641   4.906   3.379  0.3323  0.5382 -0.1752
 2022TIP3    H1 6072   2.690   4.832   3.414 -1.7524 -1.1289 -0.5854
 2022TIP3    H2 6073   2.682   4.924   3.294  1.5777  0.6472  0.4294
 2023TIP3   OH2 6074   5.079   1.637   4.038  0.9929 -0.3381 -0.1872
 2023TIP3    H1 6075   5.006   1.683   4.078  0.5190  0.5559 -1.9762
 2023TIP3    H2 6076   5.156   1.664   4.089  0.4587  0.9703 -0.0382
 2024TIP3   OH2 6077   6.184   4.022   1.649  0.9799  0.2140  0.0648
 2024TIP3    H1 6078   6.208   4.038   1.741 -0.0353  1.3796  0.1498
 2024TIP3    H2 6079   6.128   4.096   1.625  0.3545 -0.6163 -1.1742
 2025TIP3   OH2 6080   2.109   4.028   3.931 -0.4630 -0.4014  0.2551
 2025TIP3    H1 6081   2.139   3.968   4.000 -0.5429 -1.7099 -0.8190
 2025TIP3    H2 6082   2.137   3.987   3.849 -1.5196  0.4626 -0.5717
 2026TIP3   OH2 6083   5.722   3.176   1.473 -0.0749  0.5838 -0.1541
 2026TIP3    H1 6084   5.661   3.246   1.497  0.6167  0.7698  1.1650
 2026TIP3    H2 6085   5.809   3.214   1.486  0.3477  0.1613 -1.5180
 2027TIP3   OH2 6086   4.507   1.803   2.537  0.1807  0.0805  0.3775
 2027TIP3    H1 6087   4.444   1.864   2.499 -3.3759 -2.8747  0.9448
 2027TIP3    H2 6088   4.532   1.745   2.465 -0.6936 -0.9676  0.8810
 2028TIP3   OH2 6089   0.365   5.558   0.273  0.0175  0.2635 -0.1100
 2028TIP3    H1 6090   0.382   5.533   0.364  0.7942  1.2586  0.0373
 2028TIP3    H2 6091   0.345   5.652   0.277 -1.3229  0.0327 -0.8176
 2029TIP3   OH2 6092   5.564   0.365   0.184  0.2899  0.3941  0.0728
 2029TIP3    H1 6093   5.602   0.350   0.097  0.3899 -1.3834  0.3853
 2029TIP3    H2 6094   5.470   0.378   0.167  0.1805 -0.7298 -0.2533
 2030TIP3   OH2 6095   2.958   5.682   1.236 -0.4625 -0.1883  0.0781
 2030TIP3    H1 6096   2.885   5.744   1.236  1.1215  1.7702 -0.0323
 2030TIP3    H2 6097   2.989   5.682   1.326  0.1838 -0.0258 -0.1418
 2031TIP3   OH2 6098   2.481   1.727   2.924  0.0681  0.3852 -0.5391
 2031TIP3    H1 6099   2.496   1.710   3.017  0.5973 -0.3183 -0.7459
 2031TIP3    H2 6100   2.391   1.760   2.920  0.4079  1.4970  0.3410
 2032TIP3   OH2 6101   1.709   3.072   4.084 -0.7741  0.8566 -0.0228
 2032TIP3    H1 6102   1.740   3.162   4.087  0.5465  0.4101  0.3060
 2032TIP3    H2 6103   1.682   3.059   3.993  0.4996  1.1185 -0.4596
 2033TIP3   OH2 6104   6.298   5.812   4.846  0.0963 -0.4620 -0.4055
 2033TIP3    H1 6105   6.312   5.870   4.921  2.1328 -1.1548 -0.1940
 2033TIP3    H2 6106   6.380   5.814   4.797 -1.1908  0.0138 -2.7144
 2034TIP3   OH2 6107   4.325   0.842   4.525 -0.1201  0.2499 -0.4161
 2034TIP3    H1 6108   4.265   0.902   4.570 -1.8479 -1.5714 -0.1367
 2034TIP3    H2 6109   4.403   0.842   4.580 -0.6138  1.1696  0.3321
 2035TIP3   OH2 6110   6.312   6.013   3.560  0.2520 -0.4936 -0.3475
 2035TIP3    H1 6111   6.233   5.960   3.566  0.6120 -1.2924 -2.0936
 2035TIP3    H2 6112   6.383   5.953   3.582  0.7709 -1.1891 -3.4015
 2036TIP3   OH2 6113   1.884   4.945   2.322  0.2413 -0.5300 -0.1707
 2036TIP3    H1 6114   1.969   4.982   2.346  0.0509 -0.2041  0.0059
 2036TIP3    H2 6115   1.841   4.928   2.405  0.0408 -0.4764 -0.2632
 2037TIP3   OH2 6116   4.301   3.130   2.158 -0.1952  0.1555  0.0128
 2037TIP3    H1 6117   4.338   3.160   2.241  0.0895 -2.2865  0.8662
 2037TIP3    H2 6118   4.206   3.129   2.172 -0.1893  0.3709  0.0665
 2038TIP3   OH2 6119   2.611   0.010   2.434 -0.4931 -0.2883 -0.0456
 2038TIP3    H1 6120   2.689   0.008   2.380  0.6773 -0.0936  1.5579
 2038TIP3    H2 6121   2.575   0.098   2.421 -0.2859 -0.2805 -0.5728
 2039TIP3   OH2 6122   2.591   3.768   5.105 -0.0390 -0.0041  0.0612
 2039TIP3    H1 6123   2.514   3.763   5.162 -1.5472 -0.6776 -1.9274
 2039TIP3    H2 6124   2.665   3.777   5.165 -1.5602 -0.4080  2.0924
 2040TIP3   OH2 6125   1.116   2.414   2.429 -0.4987 -0.1035  0.5836
 2040TIP3    H1 6126   1.035   2.390   2.383  0.1928 -0.3074 -0.5832
 2040TIP3    H2 6127   1.104   2.507   2.451 -0.9168 -0.0416  0.1267
 2041TIP3   OH2 6128   4.228   2.505   2.336  0.4104  0.2519  0.2524
 2041TIP3    H1 6129   4.254   2.514   2.245  1.2129 -0.2549  0.4164
 2041TIP3    H2 6130   4.270   2.579   2.381 -2.1836  2.1336 -0.1782
 2042TIP3   OH2 6131   3.011   3.414   1.089 -0.3659  0.2381 -0.1919
 2042TIP3    H1 6132   3.011   3.406   0.994 -2.1922  1.4355 -0.3309
 2042TIP3    H2 6133   2.986   3.327   1.121  0.3898 -0.2056 -0.7776
 2043TIP3   OH2 6134   1.373   1.957   4.931  0.7719 -0.3704  0.5277
 2043TIP3    H1 6135   1.359   1.863   4.919 -0.2202 -0.0352 -1.3371
 2043TIP3    H2 6136   1.296   1.988   4.978  0.1138 -0.1839 -0.6480
 2044TIP3   OH2 6137   3.412   5.149   5.106  0.0972 -0.0742 -0.6432
 2044TIP3    H1 6138   3.457   5.174   5.025 -0.6298  2.3866 -0.3734
 2044TIP3    H2 6139   3.470   5.177   5.176 -0.9941  1.5286 -0.3208
 2045TIP3   OH2 6140   2.105   0.689   1.586 -0.4475  0.2292  0.5245
 2045TIP3    H1 6141   2.010   0.691   1.574 -0.9018 -1.8092  2.8865
 2045TIP3    H2 6142   2.141   0.708   1.499 -3.0369 -0.3923 -0.7771
 2046TIP3   OH2 6143   3.784   4.629   3.350 -0.1596  0.6668 -0.0931
 2046TIP3    H1 6144   3.743   4.579   3.420 -0.0050  0.4474 -0.1568
 2046TIP3    H2 6145   3.774   4.721   3.376  2.2068  0.5526  1.5586
 2047TIP3   OH2 6146   3.449   3.862   2.270  0.7002  0.1776 -0.4659
 2047TIP3    H1 6147   3.521   3.821   2.317  0.0379 -0.4576  0.0284
 2047TIP3    H2 6148   3.377   3.862   2.333  0.5742  1.7794 -0.5827
 2048TIP3   OH2 6149   4.361   5.361   0.695 -0.1392  0.1478  0.5239
 2048TIP3    H1 6150   4.361   5.292   0.629 -2.9037  0.5082  0.0204
 2048TIP3    H2 6151   4.364   5.442   0.644  1.5854  0.4462  1.0497
 2049TIP3   OH2 6152   0.031   0.795   0.723  0.3958  0.1479 -0.0865
 2049TIP3    H1 6153  -0.013   0.879   0.710 -1.9924 -1.0530 -0.2535
 2049TIP3    H2 6154  -0.012   0.736   0.661  1.1259 -1.4914  0.9107
 2050TIP3   OH2 6155   5.390   4.250   4.311 -0.1928 -0.2545  0.4060
 2050TIP3    H1 6156   5.353   4.315   4.250 -0.0149 -0.9806 -0.4946
 2050TIP3    H2 6157   5.334   4.173   4.300 -0.5944 -0.1599  1.7014
 2051TIP3   OH2 6158   2.258   0.963   0.051 -0.1706  0.6875  0.0468
 2051TIP3    H1 6159   2.221   1.038   0.006  0.5726  0.5594 -0.8240
 2051TIP3    H2 6160   2.351   0.984   0.059 -0.2855  0.7161  1.5732
 2052TIP3   OH2 6161   2.109   3.405   3.843  0.3476  0.0041  0.5437
 2052TIP3    H1 6162   2.135   3.319   3.877 -0.0188 -0.0398  0.7156
 2052TIP3    H2 6163   2.089   3.457   3.922  1.8337  0.6662  0.5249
 2053TIP3   OH2 6164   0.083   3.225   3.297 -0.0273  0.2066  0.0114
 2053TIP3    H1 6165   0.092   3.288   3.225  1.3836  0.0940  0.0603
 2053TIP3    H2 6166   0.171   3.189   3.308 -0.7136 -1.4776  0.2583
 2054TIP3   OH2 6167   4.851   5.614   4.464 -0.1546  0.0264 -0.9161
 2054TIP3    H1 6168   4.824   5.536   4.513 -1.3715  1.1231  0.2394
 2054TIP3    H2 6169   4.789   5.620   4.392 -0.1909  0.0459 -0.8826
 2055TIP3   OH2 6170   6.221   5.763   4.489 -0.0624  0.1457  0.2241
 2055TIP3    H1 6171   6.312   5.739   4.505  0.0146  0.1650 -0.1653
 2055TIP3    H2 6172   6.175   5.738   4.569  0.3522  0.5171  0.5839
 2056TIP3   OH2 6173   1.267   5.485   2.659  0.1572 -0.0738 -0.5333
 2056TIP3    H1 6174   1.275   5.439   2.743 -0.6381 -1.3041 -1.1046
 2056TIP3    H2 6175   1.210   5.560   2.678  0.5174  0.0308  0.1608
 2057TIP3   OH2 6176   3.211   5.969   3.141 -0.0882  0.1522  0.1468
 2057TIP3    H1 6177   3.146   5.908   3.175  0.1544 -0.1297  0.1195
 2057TIP3    H2 6178   3.294   5.939   3.179  0.3157 -0.6596 -1.2645
 2058TIP3   OH2 6179   3.490   3.505   2.772 -0.4740  0.8398  0.4776
 2058TIP3    H1 6180   3.401   3.515   2.806  0.1063  1.4078  1.8772
 2058TIP3    H2 6181   3.544   3.562   2.827  0.9534 -0.4166  0.4352
 2059TIP3   OH2 6182   1.024   3.582   3.661 -0.1590 -0.0980  0.2332
 2059TIP3    H1 6183   1.007   3.647   3.729 -1.5435  0.0864 -0.2577
 2059TIP3    H2 6184   0.998   3.624   3.579  1.3035 -0.3868 -0.4162
 2060TIP3   OH2 6185   4.716   0.407   0.263  0.3381  0.3175  0.2368
 2060TIP3    H1 6186   4.650   0.401   0.333  0.2297  1.7445  0.2862
 2060TIP3    H2 6187   4.689   0.483   0.211 -0.4351 -1.5507 -2.2989
 2061TIP3   OH2 6188   3.248   5.863   0.627 -0.2641 -0.0961  0.2260
 2061TIP3    H1 6189   3.264   5.858   0.532  0.1770 -1.0505  0.3346
 2061TIP3    H2 6190   3.169   5.916   0.636 -0.1878  0.1822 -0.6662
 2062TIP3   OH2 6191   2.242   4.096   0.631 -0.2570 -0.2700 -1.1893
 2062TIP3    H1 6192   2.332   4.107   0.600 -0.3729  1.1075 -1.1255
 2062TIP3    H2 6193   2.241   4.011   0.673  0.6575 -0.9125 -2.3908
 2063TIP3   OH2 6194   2.758   1.011   0.573 -0.0449  0.6399  0.3123
 2063TIP3    H1 6195   2.839   0.976   0.608 -1.1189 -0.4127  1.8739
 2063TIP3    H2 6196   2.705   1.032   0.650 -1.9221 -0.3167 -0.6414
 2064TIP3   OH2 6197   5.197   3.266   1.617  0.1541 -0.5595 -0.3673
 2064TIP3    H1 6198   5.123   3.209   1.638  1.0518 -1.5583  0.2490
 2064TIP3    H2 6199   5.227   3.236   1.531  0.6742 -1.0936 -0.0088
 2065TIP3   OH2 6200   3.882   3.116   1.729 -0.7233 -0.2059  0.2164
 2065TIP3    H1 6201   3.831   3.059   1.786 -1.1953 -0.3782 -0.3661
 2065TIP3    H2 6202   3.851   3.096   1.640  0.0572 -0.0093 -0.1136
 2066TIP3   OH2 6203   1.097   0.785   3.660 -0.4121  0.1036 -0.6217
 2066TIP3    H1 6204   1.035   0.718   3.689 -1.8299  2.5643  2.6949
 2066TIP3    H2 6205   1.183   0.744   3.672 -1.2220 -1.2385  1.1399
 2067TIP3   OH2 6206   1.810   4.629   0.823 -0.6810  0.0579  0.5914
 2067TIP3    H1 6207   1.863   4.548   0.825 -0.6438  0.0672  0.1888
 2067TIP3    H2 6208   1.871   4.698   0.847  0.3104  0.4845 -2.5965
 2068TIP3   OH2 6209   1.845   3.778   0.035 -0.0647 -0.0940  0.3666
 2068TIP3    H1 6210   1.820   3.833   0.109  0.2474 -0.5571  0.8258
 2068TIP3    H2 6211   1.874   3.840  -0.032 -2.2727  0.4667 -0.1505
 2069TIP3   OH2 6212   1.281   1.770   1.683 -0.6931  1.2801  1.0057
 2069TIP3    H1 6213   1.196   1.809   1.702 -1.6880  0.3921 -1.2196
 2069TIP3    H2 6214   1.333   1.841   1.645 -0.3591  1.8485  2.4629
 2070TIP3   OH2 6215   5.202   0.177   3.013  1.0448 -0.8405 -0.0092
 2070TIP3    H1 6216   5.245   0.123   3.079 -0.1515 -0.6517  0.9621
 2070TIP3    H2 6217   5.108   0.159   3.025  0.7016  0.5701 -0.4197
 2071TIP3   OH2 6218   1.923   0.601   2.708  0.2854 -0.3678 -0.6210
 2071TIP3    H1 6219   1.866   0.564   2.641 -0.4208 -1.4553  0.5334
 2071TIP3    H2 6220   1.997   0.637   2.659  0.3472 -2.1189 -1.9422
 2072TIP3   OH2 6221   0.679   2.287   2.029 -0.0159 -0.2304  1.1830
 2072TIP3    H1 6222   0.644   2.375   2.042  1.6589  0.4347  1.4068
 2072TIP3    H2 6223   0.740   2.274   2.102 -0.7031 -1.8353  1.5106
 2073TIP3   OH2 6224   3.216   4.721   4.341  0.3112 -0.2088  0.3171
 2073TIP3    H1 6225   3.250   4.642   4.382 -1.4670 -1.0679  0.2320
 2073TIP3    H2 6226   3.189   4.776   4.415 -1.2523 -1.0067  0.3806
 2074TIP3   OH2 6227   4.307   1.081   1.658  0.0343 -0.4160 -0.5925
 2074TIP3    H1 6228   4.386   1.110   1.703  0.8491 -0.5146 -1.9028
 2074TIP3    H2 6229   4.255   1.037   1.725  0.0195  1.6409  0.8145
 2075TIP3   OH2 6230   6.196   1.761   2.287 -0.0559  0.2197 -0.4671
 2075TIP3    H1 6231   6.279   1.726   2.254  0.8161  2.6770 -1.1340
 2075TIP3    H2 6232   6.132   1.692   2.269  2.0770 -2.6803  1.9773
 2076TIP3   OH2 6233   5.362   1.338   5.083 -0.2181 -0.3322  0.0030
 2076TIP3    H1 6234   5.417   1.409   5.115 -0.4723 -0.3763  0.5556
 2076TIP3    H2 6235   5.411   1.301   5.010 -0.2715  0.6714 -0.5656
 2077TIP3   OH2 6236   3.591   5.307   4.093  0.0709 -0.3610  0.0046
 2077TIP3    H1 6237   3.589   5.253   4.014 -2.2870  0.1470 -0.3705
 2077TIP3    H2 6238   3.572   5.246   4.165  0.3235 -0.5135 -0.0588
 2078TIP3   OH2 6239   6.097   3.261   0.849  0.6982  0.1796  0.8972
 2078TIP3    H1 6240   6.004   3.241   0.858  1.0981 -2.9655 -0.7240
 2078TIP3    H2 6241   6.102   3.323   0.777 -0.0344 -2.1534 -1.2903
 2079TIP3   OH2 6242   1.435   2.630   1.961 -0.1261 -0.1586 -0.0205
 2079TIP3    H1 6243   1.417   2.541   1.991  0.6438  0.2179  1.6596
 2079TIP3    H2 6244   1.475   2.618   1.874 -2.7522 -1.2546 -1.1876
 2080TIP3   OH2 6245   3.827   2.749   1.834  0.3417  0.4255  0.1436
 2080TIP3    H1 6246   3.746   2.702   1.818 -0.1394  1.3934 -0.3256
 2080TIP3    H2 6247   3.806   2.841   1.818  1.2140  0.8407  1.1813
 2081TIP3   OH2 6248   4.742   3.853   0.683  0.0136 -0.3070  0.4429
 2081TIP3    H1 6249   4.817   3.810   0.724  0.0053 -2.3139 -1.4734
 2081TIP3    H2 6250   4.673   3.851   0.750  0.3748 -2.3400  0.8101
 2082TIP3   OH2 6251   5.372   4.143   1.579  0.2127  0.0329 -0.1438
 2082TIP3    H1 6252   5.433   4.196   1.631 -0.1579  1.4611 -1.1097
 2082TIP3    H2 6253   5.391   4.166   1.488  0.0736 -1.5752 -0.6147
 2083TIP3   OH2 6254   5.363   0.198   4.638  0.2537  0.4769 -0.5315
 2083TIP3    H1 6255   5.442   0.217   4.587  1.6063 -1.1889  0.7691
 2083TIP3    H2 6256   5.369   0.103   4.655 -1.5521  0.4912  0.3987
 2084TIP3   OH2 6257   1.981   2.089   0.181  0.2940  0.0202  0.0347
 2084TIP3    H1 6258   1.942   2.136   0.255 -1.0937  0.7056 -1.0936
 2084TIP3    H2 6259   2.075   2.109   0.186 -0.0374  1.5586  0.5521
 2085TIP3   OH2 6260   0.574   1.011   0.957  0.0825 -0.3112 -0.1216
 2085TIP3    H1 6261   0.626   0.969   1.026  0.4028  1.8893  1.0682
 2085TIP3    H2 6262   0.595   1.104   0.965 -2.6320  0.4457 -0.8165
 2086TIP3   OH2 6263   2.617   5.786   4.962 -0.1576 -0.3835  0.4114
 2086TIP3    H1 6264   2.660   5.871   4.969 -1.1096  0.5021 -2.9001
 2086TIP3    H2 6265   2.689   5.723   4.951  0.4640  0.5426 -1.0459
 2087TIP3   OH2 6266   0.177   4.997   0.808  0.3279  0.5006 -0.1589
 2087TIP3    H1 6267   0.217   5.073   0.766  0.3593  0.8110  0.4242
 2087TIP3    H2 6268   0.231   4.923   0.781 -0.3235  0.5222 -1.5978
 2088TIP3   OH2 6269   5.633   0.105   1.052  0.3624 -0.2515 -0.2459
 2088TIP3    H1 6270   5.614   0.148   1.136  0.0274  0.9741 -0.9301
 2088TIP3    H2 6271   5.552   0.113   1.002  0.4624 -1.2485 -0.5871
 2089TIP3   OH2 6272   2.735   1.406   5.188 -0.0070 -0.5289  0.9502
 2089TIP3    H1 6273   2.668   1.346   5.156  0.5189  0.0236 -1.3733
 2089TIP3    H2 6274   2.814   1.353   5.196  0.1487 -0.4389  0.1146
 2090TIP3   OH2 6275   6.200   4.697   0.167 -0.0799  0.0799  0.2764
 2090TIP3    H1 6276   6.190   4.690   0.072  0.3950 -1.2004  0.3034
 2090TIP3    H2 6277   6.243   4.782   0.180 -0.8144  0.6111 -0.5824
 2091TIP3   OH2 6278   0.965   3.525   0.832 -0.0533 -0.0909  0.2706
 2091TIP3    H1 6279   0.955   3.435   0.862  0.3472  0.0875  0.9446
 2091TIP3    H2 6280   1.044   3.523   0.778 -1.1940 -0.5797 -1.5032
 2092TIP3   OH2 6281   2.422   1.217   1.942  0.5243 -0.4223 -0.3585
 2092TIP3    H1 6282   2.419   1.245   2.033  0.4436 -0.5793 -0.3132
 2092TIP3    H2 6283   2.484   1.277   1.901 -0.5170  0.5681 -0.5236
 2093TIP3   OH2 6284   4.381   1.597   4.029  0.1704 -0.1711 -0.3349
 2093TIP3    H1 6285   4.289   1.575   4.013  0.5162 -0.9943 -1.3251
 2093TIP3    H2 6286   4.414   1.524   4.082  0.5049 -0.4508 -0.9048
 2094TIP3   OH2 6287   4.548   2.329   0.511  0.1374 -0.0336  0.3256
 2094TIP3    H1 6288   4.621   2.295   0.563  0.0416 -1.4091 -0.3951
 2094TIP3    H2 6289   4.590   2.369   0.434  0.1462 -3.1528 -1.4529
 2095TIP3   OH2 6290   4.132   0.076   2.711  0.3510 -0.2236  0.5382
 2095TIP3    H1 6291   4.121   0.114   2.624  0.4977  1.0270  1.0282
 2095TIP3    H2 6292   4.078  -0.003   2.711  0.2886 -0.1917 -0.6528
 2096TIP3   OH2 6293   5.165   2.526   0.716 -0.0448 -0.5791 -0.2091
 2096TIP3    H1 6294   5.159   2.450   0.774  0.0036 -0.7730 -0.4615
 2096TIP3    H2 6295   5.082   2.573   0.729  0.0860 -0.4586  0.2437
 2097TIP3   OH2 6296   1.427   2.685   1.046  0.6316 -0.3586 -0.9201
 2097TIP3    H1 6297   1.338   2.662   1.074 -0.0436 -0.3002 -2.8620
 2097TIP3    H2 6298   1.443   2.770   1.087 -0.0429 -0.5603 -0.2093
 2098TIP3   OH2 6299   3.596   1.738   0.541 -0.3820  0.0372 -0.8557
 2098TIP3    H1 6300   3.565   1.762   0.628  0.5836 -0.7621 -0.2666
 2098TIP3    H2 6301   3.516   1.732   0.488 -1.1428 -0.8027  0.3171
 2099TIP3   OH2 6302   3.331   3.599   2.138  0.5284  0.3703 -0.5500
 2099TIP3    H1 6303   3.268   3.558   2.079 -0.5154  1.1025  0.0170
 2099TIP3    H2 6304   3.361   3.676   2.091  2.1302 -0.7171 -1.4159
 2100TIP3   OH2 6305   4.775   3.990   1.094 -0.1124  0.0021 -0.4819
 2100TIP3    H1 6306   4.758   4.053   1.024 -1.8531 -0.2934 -0.3627
 2100TIP3    H2 6307   4.745   3.906   1.060 -2.3925  0.0909  1.0839
 2101TIP3   OH2 6308   6.246   2.992   4.052  0.4952 -0.4314  0.0962
 2101TIP3    H1 6309   6.212   2.932   4.118  1.2189 -0.6463  0.2752
 2101TIP3    H2 6310   6.330   3.023   4.087  0.7208 -0.2840 -0.5581
 2102TIP3   OH2 6311   0.209   0.330   4.696  0.3221  0.0803 -0.0441
 2102TIP3    H1 6312   0.158   0.298   4.622  0.0864 -0.2811  0.2682
 2102TIP3    H2 6313   0.211   0.425   4.685 -0.5085  0.1084 -0.0073
 2103TIP3   OH2 6314   3.773   4.186   4.971  0.4119  0.4622 -0.2228
 2103TIP3    H1 6315   3.827   4.245   5.024  0.4159  0.1828  0.0905
 2103TIP3    H2 6316   3.693   4.235   4.954  0.8753  0.9896 -0.9306
 2104TIP3   OH2 6317   4.048   3.316   1.802 -0.0017 -0.1241  0.4558
 2104TIP3    H1 6318   4.004   3.238   1.769  0.6593 -1.1372  1.8399
 2104TIP3    H2 6319   4.139   3.305   1.777 -0.3211  1.6973 -1.9147
 2105TIP3   OH2 6320   2.256   0.763   3.786  0.5156 -0.4473 -0.4893
 2105TIP3    H1 6321   2.230   0.780   3.695  1.0811 -0.8877 -0.7454
 2105TIP3    H2 6322   2.351   0.753   3.781  0.3729 -2.4681 -0.2037
 2106TIP3   OH2 6323   1.400   3.016   4.717  0.5157 -1.0153 -0.0083
 2106TIP3    H1 6324   1.446   3.100   4.704 -1.8523  0.5624  1.0613
 2106TIP3    H2 6325   1.465   2.960   4.759  1.8618  0.6754  0.3206
 2107TIP3   OH2 6326   6.129   2.917   3.820 -0.2120 -0.4227  0.0850
 2107TIP3    H1 6327   6.065   2.987   3.803 -0.7968 -0.8399  0.5508
 2107TIP3    H2 6328   6.178   2.948   3.897  0.9406  0.4254 -0.9328
 2108TIP3   OH2 6329   5.989   2.191   1.835 -0.4950  0.0820  0.7051
 2108TIP3    H1 6330   5.989   2.254   1.762  1.3218 -0.5735  0.1069
 2108TIP3    H2 6331   5.939   2.236   1.904 -2.0909  0.8001 -0.8367
 2109TIP3   OH2 6332   2.111   3.884   4.724 -0.5997  0.5479  0.2680
 2109TIP3    H1 6333   2.132   3.840   4.807 -0.3143  0.7128  0.2849
 2109TIP3    H2 6334   2.097   3.813   4.662 -0.0230  0.4320  0.2679
 2110TIP3   OH2 6335   3.255   1.071   0.216  0.1262 -0.3438  0.4635
 2110TIP3    H1 6336   3.333   1.028   0.251  0.1653 -0.5004  0.1856
 2110TIP3    H2 6337   3.249   1.040   0.126 -1.2790 -1.7770  0.9957
 2111TIP3   OH2 6338   5.320   3.565   0.203 -0.2219 -0.0179 -0.6533
 2111TIP3    H1 6339   5.252   3.627   0.230 -1.1015 -0.0395 -2.6393
 2111TIP3    H2 6340   5.337   3.587   0.112  1.5880 -0.8231 -0.5437
 2112TIP3   OH2 6341   0.199   5.367   1.919 -0.0905 -0.2954  0.2861
 2112TIP3    H1 6342   0.245   5.353   1.836 -1.3621 -1.3801 -0.2762
 2112TIP3    H2 6343   0.228   5.454   1.948  2.4718 -1.0317  0.1239
 2113TIP3   OH2 6344   0.795   4.570   3.410 -0.1764 -0.6041  0.2812
 2113TIP3    H1 6345   0.768   4.517   3.334  0.9719 -0.5664 -0.1703
 2113TIP3    H2 6346   0.823   4.654   3.372  1.0720 -0.8301  0.6628
 2114TIP3   OH2 6347   5.253   4.426   4.143 -0.5880  0.2433 -0.3573
 2114TIP3    H1 6348   5.271   4.520   4.146 -0.1744  0.1462  0.3953
 2114TIP3    H2 6349   5.261   4.403   4.050 -2.0129  1.1922 -0.7526
 2115TIP3   OH2 6350   2.935   2.896   1.431  0.0887 -0.3542  0.0558
 2115TIP3    H1 6351   2.888   2.897   1.514 -0.4452  0.1578 -0.2462
 2115TIP3    H2 6352   2.976   2.982   1.425 -0.6333 -0.0449 -0.6299
 2116TIP3   OH2 6353   5.221   5.471   1.043  0.0452 -0.5503  0.0450
 2116TIP3    H1 6354   5.305   5.463   1.088 -0.4266 -1.3098  0.8172
 2116TIP3    H2 6355   5.200   5.381   1.016  1.1480  0.0503 -3.3223
 2117TIP3   OH2 6356   3.808   3.391   1.149  0.3286  0.2038 -0.1005
 2117TIP3    H1 6357   3.887   3.357   1.106  0.3028  1.2139 -0.9962
 2117TIP3    H2 6358   3.745   3.319   1.144  1.1910 -0.6494  0.7010
 2118TIP3   OH2 6359   2.452   1.313   4.079  0.3210 -0.6032 -0.0441
 2118TIP3    H1 6360   2.432   1.245   4.015 -0.8291  1.0358 -1.5128
 2118TIP3    H2 6361   2.369   1.357   4.094  1.1211  0.7601  0.5454
 2119TIP3   OH2 6362   1.787   1.722   4.975  0.0638 -0.4870  0.7606
 2119TIP3    H1 6363   1.831   1.702   4.892 -0.6691 -0.6914  0.4121
 2119TIP3    H2 6364   1.808   1.814   4.992  0.7064 -0.6103  0.6604
 2120TIP3   OH2 6365   1.626   0.310   2.698  0.1130 -0.0433 -0.0525
 2120TIP3    H1 6366   1.568   0.384   2.714  1.0990  0.6327  0.5071
 2120TIP3    H2 6367   1.695   0.346   2.642  1.4365 -0.1082  1.4700
 2121TIP3   OH2 6368   1.578   2.162   0.577 -0.1858  0.4320 -0.0531
 2121TIP3    H1 6369   1.557   2.070   0.560  0.8320  0.1944 -0.0574
 2121TIP3    H2 6370   1.626   2.161   0.659  0.1814  0.9185 -0.2557
 2122TIP3   OH2 6371   5.965   1.437   0.241 -0.0846  0.2509  0.0128
 2122TIP3    H1 6372   5.931   1.480   0.319 -0.0477  1.1234 -0.4472
 2122TIP3    H2 6373   5.897   1.373   0.219  0.6138 -1.1382  1.6497
 2123TIP3   OH2 6374   5.957   5.142   1.521 -0.1293  0.3162 -0.0214
 2123TIP3    H1 6375   5.989   5.059   1.485  0.4152  0.5703 -0.1427
 2123TIP3    H2 6376   5.979   5.138   1.614 -1.4179 -0.2846  0.2768
 2124TIP3   OH2 6377   3.372   3.606   5.108  0.2117  0.2486 -0.4886
 2124TIP3    H1 6378   3.443   3.580   5.049 -0.2374  0.3659 -1.0901
 2124TIP3    H2 6379   3.318   3.665   5.056  0.1283  0.8179  0.2316
 2125TIP3   OH2 6380   5.996   4.425   5.091 -0.3947  0.4033  0.4807
 2125TIP3    H1 6381   6.058   4.457   5.155 -0.3607  1.6737 -0.1550
 2125TIP3    H2 6382   6.050   4.384   5.023 -0.4535 -1.3474  1.4357
 2126TIP3   OH2 6383   0.867   3.525   2.770  0.6225 -0.1741  0.7453
 2126TIP3    H1 6384   0.961   3.529   2.785  0.3245  2.3872  2.4541
 2126TIP3    H2 6385   0.847   3.601   2.715 -0.2871 -1.6378 -1.0889
 2127TIP3   OH2 6386   5.048   4.337   4.379  0.2724 -0.1265  0.3646
 2127TIP3    H1 6387   5.111   4.383   4.323  0.5240  0.9742  1.4969
 2127TIP3    H2 6388   4.976   4.398   4.390  0.1761 -0.3673  1.1408
 2128TIP3   OH2 6389   5.336   1.151   1.107 -0.3976 -0.3740  0.0297
 2128TIP3    H1 6390   5.285   1.080   1.067 -1.2278 -0.6752  1.5515
 2128TIP3    H2 6391   5.408   1.107   1.152  2.0010  0.1075 -3.0188
 2129TIP3   OH2 6392   1.204   4.920   0.240  0.0403 -0.4804  0.2501
 2129TIP3    H1 6393   1.184   4.944   0.149 -1.1140 -0.3882  0.5090
 2129TIP3    H2 6394   1.227   5.003   0.282 -0.2135 -0.3986  0.2307
 2130TIP3   OH2 6395   3.940   1.065   1.234  0.5144 -0.7471  0.2591
 2130TIP3    H1 6396   4.021   1.028   1.270  1.4328  1.7330  0.9154
 2130TIP3    H2 6397   3.966   1.149   1.196 -1.9654  0.9689  2.0485
 2131TIP3   OH2 6398   4.691   4.147   0.680 -0.2996 -0.4477 -0.5453
 2131TIP3    H1 6399   4.717   4.055   0.676  2.0874 -0.0253  2.1580
 2131TIP3    H2 6400   4.753   4.192   0.623  0.6006 -0.1994  0.6026
 2132TIP3   OH2 6401   3.010   5.321   3.700  0.0769 -0.2073 -0.0029
 2132TIP3    H1 6402   3.081   5.306   3.638  2.0849  2.2816  1.4478
 2132TIP3    H2 6403   3.019   5.250   3.764 -0.2386 -1.2107 -1.0488
 2133TIP3   OH2 6404   1.873   5.448   5.142 -0.3432 -0.6081 -0.2503
 2133TIP3    H1 6405   1.891   5.542   5.155  1.8976 -1.0815  0.6512
 2133TIP3    H2 6406   1.814   5.425   5.214  0.2125 -0.1387  0.3767
 2134TIP3   OH2 6407   0.208   2.908   0.522  0.0472  0.2517 -0.5557
 2134TIP3    H1 6408   0.201   2.893   0.616  0.9250 -0.7675 -0.6344
 2134TIP3    H2 6409   0.152   2.984   0.505 -0.0674  0.4812  0.7924
 2135TIP3   OH2 6410   1.211   4.941   5.092 -0.4423 -0.5148  0.0948
 2135TIP3    H1 6411   1.247   4.907   5.174 -2.0561 -1.0344  0.6259
 2135TIP3    H2 6412   1.215   4.866   5.032 -1.2413 -0.7915  0.3687
 2136TIP3   OH2 6413   1.248   3.024   1.248  0.6287 -0.0357  0.1895
 2136TIP3    H1 6414   1.329   3.003   1.295  1.2334  0.1693 -0.7338
 2136TIP3    H2 6415   1.194   2.946   1.256  0.1610  0.4591  2.3472
 2137TIP3   OH2 6416   5.214   0.154   3.373 -0.7865  0.4762  0.0252
 2137TIP3    H1 6417   5.265   0.221   3.419 -1.2847 -0.2986  1.8136
 2137TIP3    H2 6418   5.262   0.073   3.389 -0.2155  0.3485 -2.0759
 2138TIP3   OH2 6419   1.482   0.563   2.680 -0.2747  0.3380  0.0257
 2138TIP3    H1 6420   1.486   0.650   2.721 -1.7243  0.1755  0.5774
 2138TIP3    H2 6421   1.509   0.578   2.590  0.8922  1.0915  0.4768
 2139TIP3   OH2 6422   3.572   4.512   3.190 -0.0826 -0.5678  0.2410
 2139TIP3    H1 6423   3.600   4.436   3.240 -0.1894 -0.6935  0.1088
 2139TIP3    H2 6424   3.646   4.572   3.194  0.2221 -0.9121 -0.1347
 2140TIP3   OH2 6425   0.283   3.703   0.405  0.5076  0.1918 -0.3440
 2140TIP3    H1 6426   0.201   3.659   0.384  0.6740  0.1295 -0.8611
 2140TIP3    H2 6427   0.272   3.731   0.496  0.5524 -1.2759  0.1387
 2141TIP3   OH2 6428   2.497   5.186   0.092 -0.5873 -0.2679  0.0891
 2141TIP3    H1 6429   2.440   5.109   0.084  0.9513 -1.6803  1.6948
 2141TIP3    H2 6430   2.538   5.195   0.006 -2.2007 -0.0300 -0.6867
 2142TIP3   OH2 6431   0.970   3.272   0.555  0.0893  0.7207 -0.5378
 2142TIP3    H1 6432   0.989   3.181   0.579  2.4127  0.9169 -1.3749
 2142TIP3    H2 6433   0.945   3.314   0.637 -1.1635 -0.6775 -0.1599
 2143TIP3   OH2 6434   4.982   1.320   4.789  0.0592  0.1579 -0.3432
 2143TIP3    H1 6435   5.031   1.323   4.707  0.5550  2.5459 -0.0298
 2143TIP3    H2 6436   5.011   1.240   4.831  2.1367  0.4274 -1.1227
 2144TIP3   OH2 6437   2.091   5.848   1.600 -0.5974  0.7620 -0.1727
 2144TIP3    H1 6438   2.087   5.882   1.510  2.1231 -2.7382 -1.8816
 2144TIP3    H2 6439   2.047   5.763   1.595  2.2055 -0.8982  0.8611
 2145TIP3   OH2 6440   2.613   5.566   3.715  0.7696 -0.4893 -0.2804
 2145TIP3    H1 6441   2.628   5.562   3.621 -0.3089 -1.8583 -0.4334
 2145TIP3    H2 6442   2.572   5.482   3.736  1.2968 -0.3517  1.4737
 2146TIP3   OH2 6443   3.464   0.854   0.976 -0.5241  0.1645 -0.5452
 2146TIP3    H1 6444   3.494   0.903   1.052 -0.1830 -0.9660  0.0757
 2146TIP3    H2 6445   3.543   0.809   0.944 -1.1092 -1.2743 -0.0821
 2147TIP3   OH2 6446   0.644   2.246   1.556 -0.0171  0.3953 -0.3025
 2147TIP3    H1 6447   0.609   2.335   1.563  1.0260  0.7778  0.2438
 2147TIP3    H2 6448   0.721   2.246   1.613 -0.4111 -1.0711  0.2786
 2148TIP3   OH2 6449   0.611   0.109   3.998  0.2835  0.1829 -0.4557
 2148TIP3    H1 6450   0.701   0.107   4.032  0.2277  0.2015 -0.3052
 2148TIP3    H2 6451   0.564   0.165   4.060  0.3811  0.9503 -1.0617
 2149TIP3   OH2 6452   4.622   0.807   4.431 -0.3528  0.5819  0.8275
 2149TIP3    H1 6453   4.591   0.847   4.350  3.6898  2.2109 -0.1619
 2149TIP3    H2 6454   4.675   0.732   4.402  0.4246  0.6416  2.0139
 2150TIP3   OH2 6455   5.377   5.094   3.346 -0.9615 -0.7259  0.4426
 2150TIP3    H1 6456   5.324   5.088   3.426 -1.2485  1.9125  0.5526
 2150TIP3    H2 6457   5.314   5.119   3.278 -0.1730  0.7389  0.2095
 2151TIP3   OH2 6458   0.438   3.894   1.154 -0.1427  0.2693  0.2094
 2151TIP3    H1 6459   0.369   3.837   1.118  0.2453 -0.6798  0.9223
 2151TIP3    H2 6460   0.410   3.910   1.244 -1.3395  2.9986 -0.5618
 2152TIP3   OH2 6461   3.416   0.168   4.545 -0.3164 -0.2673 -1.0036
 2152TIP3    H1 6462   3.492   0.144   4.492 -1.4296 -2.0502 -1.8913
 2152TIP3    H2 6463   3.377   0.242   4.499  1.0943  0.9977 -0.2693
 2153TIP3   OH2 6464   2.123   0.425   3.087  0.2096  0.1188 -0.4901
 2153TIP3    H1 6465   2.119   0.385   3.174 -1.7428 -1.0418 -1.0521
 2153TIP3    H2 6466   2.061   0.498   3.091  1.3049  1.0705 -0.4602
 2154TIP3   OH2 6467   4.824   3.120   1.044  0.6934  0.1405 -0.2301
 2154TIP3    H1 6468   4.758   3.051   1.055 -1.6920  2.2371 -0.3278
 2154TIP3    H2 6469   4.788   3.194   1.092  2.9691  1.4535 -0.4432
 2155TIP3   OH2 6470   2.956   4.986   3.583  0.2021 -0.5756 -0.6072
 2155TIP3    H1 6471   3.004   4.905   3.563 -0.1603 -0.6144 -1.3711
 2155TIP3    H2 6472   2.918   4.971   3.669  0.9798 -0.8204 -0.2989
 2156TIP3   OH2 6473   5.707   5.022   2.301 -0.1241  0.2909 -0.3876
 2156TIP3    H1 6474   5.642   4.961   2.266  0.0373  0.5891 -1.2231
 2156TIP3    H2 6475   5.700   5.099   2.246  0.8437  0.3790 -0.4011
 2157TIP3   OH2 6476   1.922   2.786   4.290  0.2264  0.2972  0.1468
 2157TIP3    H1 6477   1.893   2.721   4.354 -1.2359 -0.2633 -1.0146
 2157TIP3    H2 6478   1.885   2.756   4.207  1.7483  1.2046 -0.9130
 2158TIP3   OH2 6479   2.643   1.252   3.528  0.4574 -0.2548  0.1011
 2158TIP3    H1 6480   2.599   1.333   3.550  0.6253 -0.0738 -0.2131
 2158TIP3    H2 6481   2.667   1.262   3.435  1.9074  0.0098  0.4722
 2159TIP3   OH2 6482   0.911   2.401   3.352 -0.2046  0.5362 -0.3445
 2159TIP3    H1 6483   0.827   2.402   3.307  0.6399  2.5794 -2.0825
 2159TIP3    H2 6484   0.916   2.486   3.395 -0.3991 -0.8484  2.6538
 2160TIP3   OH2 6485   3.621   0.897   3.132  0.2900 -0.6373  0.0693
 2160TIP3    H1 6486   3.696   0.956   3.137  0.2342 -0.6109  0.5962
 2160TIP3    H2 6487   3.547   0.949   3.161 -0.1261 -0.3584 -1.4058
 2161TIP3   OH2 6488   3.988   0.714   4.629  0.1346 -0.0011  0.2882
 2161TIP3    H1 6489   3.896   0.701   4.654  0.2799  0.4399  1.0955
 2161TIP3    H2 6490   3.985   0.781   4.561 -0.2568 -1.1147 -0.8450
 2162TIP3   OH2 6491   6.046   4.424   0.766  0.1021 -0.0769 -0.1058
 2162TIP3    H1 6492   5.952   4.426   0.747 -0.4568 -0.1159  2.2788
 2162TIP3    H2 6493   6.057   4.488   0.837  1.7411 -0.5793  0.1289
 2163TIP3   OH2 6494   3.451   5.394   1.459 -0.3352  0.1494 -0.1657
 2163TIP3    H1 6495   3.368   5.364   1.496 -0.0204 -1.2500 -0.5235
 2163TIP3    H2 6496   3.481   5.462   1.519 -0.8754 -0.5774  0.9661
 2164TIP3   OH2 6497   3.519   5.186   3.505 -0.0274 -0.0347 -0.1193
 2164TIP3    H1 6498   3.587   5.247   3.530  0.9607 -1.2718  0.3096
 2164TIP3    H2 6499   3.491   5.144   3.587 -0.4759 -0.3651 -0.4303
 2165TIP3   OH2 6500   6.312   4.771   3.986  0.2528 -0.5254  0.0836
 2165TIP3    H1 6501   6.224   4.806   3.972  0.3579 -0.5341 -0.6302
 2165TIP3    H2 6502   6.298   4.684   4.023 -0.0625 -0.9311 -0.9706
 2166TIP3   OH2 6503   6.120   4.146   4.111  0.3475 -0.4771  0.2720
 2166TIP3    H1 6504   6.044   4.089   4.097  0.3873 -0.1270 -1.7784
 2166TIP3    H2 6505   6.082   4.232   4.127  0.2756 -0.2852 -0.8344
 2167TIP3   OH2 6506   4.167   4.137   4.611 -0.3579  0.2400  0.2983
 2167TIP3    H1 6507   4.258   4.165   4.599  0.1015 -0.6646  1.4209
 2167TIP3    H2 6508   4.115   4.216   4.596  0.8489  1.7421  3.2272
 2168TIP3   OH2 6509   5.937   0.652   0.765 -0.6840  0.2965 -0.0381
 2168TIP3    H1 6510   5.863   0.621   0.714 -0.3206 -0.9791  0.1553
 2168TIP3    H2 6511   5.990   0.573   0.779  1.5885  1.4322 -1.6222
 2169TIP3   OH2 6512   5.324   1.569   0.383 -0.0518  0.6344  0.1505
 2169TIP3    H1 6513   5.291   1.600   0.298 -0.7104  0.6544  0.4090
 2169TIP3    H2 6514   5.254   1.514   0.417  0.7885 -0.5462  0.0465
 2170TIP3   OH2 6515   5.879   5.016   2.681  0.5643  0.0575 -0.0159
 2170TIP3    H1 6516   5.868   4.965   2.761 -1.9497 -0.0303 -0.3418
 2170TIP3    H2 6517   5.955   4.976   2.638  0.8323 -1.0789  1.4198
 2171TIP3   OH2 6518   1.518   0.576   4.243 -0.2767  0.3479 -0.2353
 2171TIP3    H1 6519   1.461   0.653   4.241  0.8004  1.1882  0.1012
 2171TIP3    H2 6520   1.543   0.567   4.335 -0.4600 -0.4653 -0.2574
 2172TIP3   OH2 6521   0.643   4.403   1.600  0.2407  0.1661 -0.0089
 2172TIP3    H1 6522   0.596   4.345   1.660  1.1817  1.6939  2.3546
 2172TIP3    H2 6523   0.708   4.347   1.558 -0.5951 -1.0086  0.2201
 2173TIP3   OH2 6524   4.983   5.649   2.839 -0.5597 -0.6925  0.2455
 2173TIP3    H1 6525   4.996   5.634   2.745  1.9887 -0.8301  0.5576
 2173TIP3    H2 6526   4.907   5.594   2.861 -0.1517 -2.0348 -1.3996
 2174TIP3   OH2 6527   5.436   0.345   3.550 -0.4306 -0.2254 -0.2195
 2174TIP3    H1 6528   5.370   0.305   3.607 -2.1392  2.2803 -0.2625
 2174TIP3    H2 6529   5.492   0.395   3.610 -0.5862  0.2596 -0.4705
 2175TIP3   OH2 6530   3.129   2.226   3.683 -0.4535  0.4475  0.7055
 2175TIP3    H1 6531   3.082   2.302   3.718 -0.8953 -0.5946  2.5091
 2175TIP3    H2 6532   3.064   2.180   3.630  0.0848  1.7810 -1.2244
 2176TIP3   OH2 6533   0.568   5.722   4.019  0.2739 -0.1330  0.1936
 2176TIP3    H1 6534   0.543   5.758   3.933  0.6891 -1.0130 -0.3061
 2176TIP3    H2 6535   0.623   5.791   4.058 -0.6807  0.6708  0.1631
 2177TIP3   OH2 6536   3.397   0.055   3.043  0.0904  0.1756 -0.7402
 2177TIP3    H1 6537   3.330   0.011   2.991 -0.4946 -0.5594  0.5899
 2177TIP3    H2 6538   3.351   0.129   3.084  0.3984  0.3956 -0.7838
 2178TIP3   OH2 6539   3.638   5.915   2.267  0.1516  0.0121  0.2480
 2178TIP3    H1 6540   3.620   5.907   2.173  1.0873  1.2182 -0.0660
 2178TIP3    H2 6541   3.554   5.897   2.309 -0.4518  0.1514 -0.8564
 2179TIP3   OH2 6542   4.150   1.496   0.374 -0.0260  0.1096  0.7531
 2179TIP3    H1 6543   4.143   1.522   0.466  1.6432  0.1565  0.9052
 2179TIP3    H2 6544   4.242   1.469   0.364  0.0269  0.8340 -1.0850
 2180TIP3   OH2 6545   0.327   3.006   0.982  0.9151  0.6471  0.0969
 2180TIP3    H1 6546   0.420   3.031   0.980  1.9678 -2.7541 -0.3470
 2180TIP3    H2 6547   0.310   2.982   1.073  0.6402  0.7130  0.0641
 2181TIP3   OH2 6548   4.619   4.262   0.288 -0.2426 -0.4798  0.1607
 2181TIP3    H1 6549   4.569   4.181   0.276 -0.7243 -0.1127 -0.3562
 2181TIP3    H2 6550   4.570   4.328   0.239 -0.1099  0.2305  0.9509
 2182TIP3   OH2 6551   3.964   0.627   3.388 -0.0694  0.1634 -0.0189
 2182TIP3    H1 6552   4.035   0.565   3.401  0.8507  1.3186  0.6811
 2182TIP3    H2 6553   4.007   0.706   3.354 -0.6838  1.5692  2.2883
 2183TIP3   OH2 6554   0.548   4.967   4.040 -0.4050  0.2246  0.8239
 2183TIP3    H1 6555   0.519   4.876   4.029  0.6350  0.0754 -1.0366
 2183TIP3    H2 6556   0.490   5.002   4.107 -2.0312 -1.2858  0.2862
 2184TIP3   OH2 6557   4.765   1.669   1.120  0.2604  0.1569 -0.2003
 2184TIP3    H1 6558   4.859   1.655   1.106  0.4258  0.2822  0.7265
 2184TIP3    H2 6559   4.740   1.602   1.183  0.1300  1.2880  0.9762
 2185TIP3   OH2 6560   0.470   0.910   5.045  0.0341  0.6833  0.4121
 2185TIP3    H1 6561   0.445   0.949   4.961 -1.5159 -1.1898 -0.0849
 2185TIP3    H2 6562   0.512   0.981   5.094 -0.8236  2.3607 -1.1848
 2186TIP3   OH2 6563   4.674   2.222   1.846  0.4057 -0.3084 -0.3554
 2186TIP3    H1 6564   4.689   2.290   1.912  0.6751  1.4023 -2.1079
 2186TIP3    H2 6565   4.710   2.258   1.765 -0.5907 -2.0303 -1.6321
 2187TIP3   OH2 6566   5.649   1.716   1.837  0.9734 -0.7153 -0.6029
 2187TIP3    H1 6567   5.664   1.751   1.750  1.2686 -0.1037 -0.3153
 2187TIP3    H2 6568   5.736   1.718   1.879  0.8731 -1.1888 -0.3653
 2188TIP3   OH2 6569   2.148   2.538   1.035 -0.1030 -0.0009  0.0165
 2188TIP3    H1 6570   2.191   2.462   0.996  0.6473  0.0175  0.7919
 2188TIP3    H2 6571   2.189   2.548   1.121  1.5157  2.7147 -0.9560
 2189TIP3   OH2 6572   0.658   3.146   2.492  0.7051 -0.4694  0.4955
 2189TIP3    H1 6573   0.576   3.102   2.514 -0.7951  0.9820 -1.8375
 2189TIP3    H2 6574   0.689   3.181   2.576 -2.2724  0.8766  1.1549
 2190TIP3   OH2 6575   1.059   1.633   4.423  0.2670 -0.4311 -0.5041
 2190TIP3    H1 6576   1.055   1.538   4.435 -0.3258 -0.4674 -0.9006
 2190TIP3    H2 6577   0.967   1.659   4.416  0.3583  0.3570  0.9343
 2191TIP3   OH2 6578   0.990   2.910   4.726  0.1466  0.1287 -0.5419
 2191TIP3    H1 6579   1.057   2.917   4.794  1.0572  0.0430 -1.4032
 2191TIP3    H2 6580   0.994   2.819   4.697 -1.8551 -0.4711  0.8556
 2192TIP3   OH2 6581   1.146   4.228   4.425 -0.6063 -0.0382 -0.6643
 2192TIP3    H1 6582   1.120   4.239   4.333  1.2714  0.5536 -1.1758
 2192TIP3    H2 6583   1.130   4.313   4.465 -0.5205 -0.0157 -0.6794
 2193TIP3   OH2 6584   2.666   4.473   3.691  0.2941 -0.5452 -0.6406
 2193TIP3    H1 6585   2.712   4.551   3.659  0.1648 -0.1441  0.1015
 2193TIP3    H2 6586   2.703   4.459   3.779  1.8524 -2.5892 -1.5351
 2194TIP3   OH2 6587   0.584   0.669   4.424 -0.9939  0.0709 -0.6289
 2194TIP3    H1 6588   0.502   0.639   4.463 -1.0778  0.3247 -0.6086
 2194TIP3    H2 6589   0.630   0.713   4.496 -1.3818  1.0071 -0.9414
 2195TIP3   OH2 6590   4.317   4.389   2.447  0.0314  0.3639 -0.2683
 2195TIP3    H1 6591   4.412   4.392   2.431  0.2671 -1.7945  0.4390
 2195TIP3    H2 6592   4.283   4.334   2.377 -0.2052 -1.5003  1.2307
 2196TIP3   OH2 6593   2.488   0.402   1.848  0.0859  0.5588  0.2230
 2196TIP3    H1 6594   2.394   0.386   1.842 -0.0170  1.3765 -0.9116
 2196TIP3    H2 6595   2.511   0.381   1.938 -1.0064 -0.5373  0.2683
 2197TIP3   OH2 6596   2.825   1.853   0.602  0.3236 -0.5778 -0.5202
 2197TIP3    H1 6597   2.882   1.919   0.563 -1.6449  1.5961  0.0387
 2197TIP3    H2 6598   2.797   1.799   0.528  1.4715 -0.3881 -1.1082
 2198TIP3   OH2 6599   5.557   4.350   0.019 -0.8553 -0.0909  1.1161
 2198TIP3    H1 6600   5.496   4.286   0.056 -0.7302  0.2283  1.8979
 2198TIP3    H2 6601   5.636   4.299  -0.000 -1.5493 -0.6391 -0.4973
 2199TIP3   OH2 6602   0.019   3.692   1.443 -0.3702  0.7645 -0.0458
 2199TIP3    H1 6603   0.046   3.658   1.529  0.5426  0.1794 -0.5495
 2199TIP3    H2 6604   0.044   3.784   1.445  0.1383  0.6282  0.1345
 2200TIP3   OH2 6605   1.169   3.205   1.074  0.2114 -0.1834 -0.1081
 2200TIP3    H1 6606   1.227   3.162   1.138  0.2910  1.2742  0.8393
 2200TIP3    H2 6607   1.084   3.165   1.090  0.3044 -0.0873  0.6952
 2201TIP3   OH2 6608   2.538   3.269   3.515 -0.4390  0.3175 -0.6439
 2201TIP3    H1 6609   2.480   3.210   3.564  0.1467  1.3494  1.4231
 2201TIP3    H2 6610   2.611   3.214   3.488 -0.1008 -0.0439  0.9060
 2202TIP3   OH2 6611   5.748   5.041   1.283  0.1645  0.0988 -0.3099
 2202TIP3    H1 6612   5.809   5.099   1.238  0.2446  0.3630  0.1249
 2202TIP3    H2 6613   5.748   4.960   1.232  0.5341  0.2609 -0.5672
 2203TIP3   OH2 6614   0.793   1.216   0.819  0.3102 -0.0635  0.5199
 2203TIP3    H1 6615   0.715   1.237   0.871 -1.5786 -1.3625 -1.5509
 2203TIP3    H2 6616   0.832   1.141   0.863 -1.0752 -0.9514  0.3140
 2204TIP3   OH2 6617   2.922   1.106   3.353  0.3716  0.4550 -0.8762
 2204TIP3    H1 6618   2.943   1.014   3.368 -0.9173  0.5231  2.0801
 2204TIP3    H2 6619   2.945   1.150   3.435 -0.8787  2.3962 -1.4769
 2205TIP3   OH2 6620   5.345   1.116   4.567 -0.2459  0.4188 -0.7160
 2205TIP3    H1 6621   5.309   1.052   4.506  0.0140  0.7478 -1.2159
 2205TIP3    H2 6622   5.271   1.171   4.592 -0.3998  0.1377 -0.5487
 2206TIP3   OH2 6623   2.103   2.018   4.487 -0.2731 -0.2412  0.3816
 2206TIP3    H1 6624   2.173   2.026   4.422  1.1834 -1.5369  1.6920
 2206TIP3    H2 6625   2.097   2.104   4.527  0.4034 -0.0425  0.0665
 2207TIP3   OH2 6626   5.320   3.149   1.350 -0.5016  0.1160  0.8666
 2207TIP3    H1 6627   5.373   3.136   1.429 -0.7037 -0.4567  0.9100
 2207TIP3    H2 6628   5.357   3.088   1.286 -0.5323  0.3631  0.6068
 2208TIP3   OH2 6629   2.005   1.272   2.791  0.1122 -0.3000 -0.4295
 2208TIP3    H1 6630   1.940   1.274   2.861 -0.4928  2.0534 -0.9568
 2208TIP3    H2 6631   1.960   1.234   2.716 -0.0266 -0.5029 -0.2423
 2209TIP3   OH2 6632   4.700   0.306  -0.006 -0.1084  0.1753  0.0404
 2209TIP3    H1 6633   4.751   0.235  -0.046 -1.3050  0.5343 -2.3168
 2209TIP3    H2 6634   4.699   0.285   0.087  2.1867 -1.1846 -0.1588
 2210TIP3   OH2 6635   0.838   2.636   1.824  0.0623  0.0214 -0.5551
 2210TIP3    H1 6636   0.885   2.630   1.908  1.8348  2.2413 -1.2716
 2210TIP3    H2 6637   0.775   2.706   1.838 -1.0308 -0.9536 -0.5096
 2211TIP3   OH2 6638   4.047   0.828   3.180 -0.0637  0.2573 -0.0184
 2211TIP3    H1 6639   4.106   0.826   3.105  1.5221  0.0576  1.1935
 2211TIP3    H2 6640   4.033   0.921   3.198  1.2173  0.3395  0.6658
 2212TIP3   OH2 6641   4.995   0.986   2.554 -0.3348  0.1413 -0.4550
 2212TIP3    H1 6642   5.029   1.022   2.636 -0.5873 -0.2947 -0.1620
 2212TIP3    H2 6643   5.010   0.892   2.560 -1.2897 -0.0188 -0.4651
 2213TIP3   OH2 6644   4.282   5.727   3.670  0.3913  0.2228  0.5989
 2213TIP3    H1 6645   4.342   5.770   3.731 -0.7105 -1.0094  2.6466
 2213TIP3    H2 6646   4.213   5.791   3.655 -0.4115 -0.1682  2.3644
 2214TIP3   OH2 6647   4.247   1.489   5.034  0.2061 -0.3333 -0.3271
 2214TIP3    H1 6648   4.310   1.557   5.058 -0.6996  0.3885  0.0588
 2214TIP3    H2 6649   4.246   1.430   5.109  1.3695 -1.0746 -0.8716
 2215TIP3   OH2 6650   5.837   3.171   0.872 -0.3861  0.4669 -0.0485
 2215TIP3    H1 6651   5.752   3.159   0.830 -0.3514  1.2880 -0.3790
 2215TIP3    H2 6652   5.820   3.157   0.965 -0.0167 -3.7975 -0.4188
 2216TIP3   OH2 6653   2.586   2.412   2.650 -0.3371  0.2155  0.5358
 2216TIP3    H1 6654   2.595   2.320   2.623 -0.6493  0.0710  0.9018
 2216TIP3    H2 6655   2.670   2.434   2.690 -0.3884 -0.0368  0.7934
 2217TIP3   OH2 6656   4.194   2.008   0.276 -0.3359 -0.8909 -0.1565
 2217TIP3    H1 6657   4.128   1.948   0.240 -0.5474 -1.8134  1.6386
 2217TIP3    H2 6658   4.143   2.071   0.328  0.1387 -1.3629  0.9093
 2218TIP3   OH2 6659   0.860   3.686   3.441  0.2139  0.3010 -0.2751
 2218TIP3    H1 6660   0.812   3.746   3.499 -0.2916  0.2388 -0.6250
 2218TIP3    H2 6661   0.801   3.612   3.430  0.6323 -0.0384 -0.2465
 2219TIP3   OH2 6662   5.171   0.434   3.143 -0.8692  0.1187 -0.3968
 2219TIP3    H1 6663   5.179   0.494   3.069  1.2373 -1.8296 -1.8799
 2219TIP3    H2 6664   5.140   0.352   3.105 -1.8410 -0.3383  1.2645
 2220TIP3   OH2 6665   0.161   0.396   4.099  0.2298  0.0879 -0.1423
 2220TIP3    H1 6666   0.224   0.448   4.049 -1.2942  0.6623 -1.5843
 2220TIP3    H2 6667   0.148   0.317   4.046  1.4498 -1.1509  1.3194
 2221TIP3   OH2 6668   5.231   1.970   0.259  0.8251  0.0665 -0.1039
 2221TIP3    H1 6669   5.258   1.989   0.169 -1.0054 -0.3097 -0.7828
 2221TIP3    H2 6670   5.194   1.882   0.254  0.3844  0.1864  0.9482
 2222TIP3   OH2 6671   6.079   3.636   0.914 -0.3374  0.1356  0.4510
 2222TIP3    H1 6672   6.153   3.584   0.881  0.5723  1.1405  0.8688
 2222TIP3    H2 6673   6.020   3.645   0.839  0.1531 -0.3385  0.0075
 2223TIP3   OH2 6674   1.154   3.291   3.807 -0.0256 -0.6374 -0.5483
 2223TIP3    H1 6675   1.119   3.257   3.890 -0.5480 -1.6945 -1.1822
 2223TIP3    H2 6676   1.248   3.299   3.822 -0.0475 -1.3101 -0.0163
 2224TIP3   OH2 6677   3.635   3.876   2.703 -0.3081  0.3432 -0.1988
 2224TIP3    H1 6678   3.640   3.961   2.660 -0.3654 -0.1507 -1.2107
 2224TIP3    H2 6679   3.708   3.875   2.764  0.1039  0.8560 -0.6792
 2225TIP3   OH2 6680   4.986   1.633   4.530 -0.4495 -0.4545 -0.5487
 2225TIP3    H1 6681   5.010   1.562   4.470  2.2202 -0.4058  0.3051
 2225TIP3    H2 6682   4.932   1.591   4.597  1.9106 -2.0505  0.5056
 2226TIP3   OH2 6683   4.483   3.468   2.923  0.0579  0.5318 -0.1406
 2226TIP3    H1 6684   4.528   3.551   2.940  0.1901  0.2182  1.1169
 2226TIP3    H2 6685   4.511   3.443   2.834 -0.2627  1.9941 -0.6739
 2227TIP3   OH2 6686   2.280   3.802   3.437 -0.0786  0.0405 -0.0580
 2227TIP3    H1 6687   2.364   3.826   3.398  0.7615 -1.2411  0.8713
 2227TIP3    H2 6688   2.218   3.803   3.364  1.1605 -0.9488 -1.1827
 2228TIP3   OH2 6689   5.083   0.107   2.582  0.1432  0.2296 -0.0168
 2228TIP3    H1 6690   5.041   0.036   2.533 -1.4131  0.9337  0.2423
 2228TIP3    H2 6691   5.057   0.091   2.673  2.6629 -0.8306  0.5945
 2229TIP3   OH2 6692   1.013   3.081   2.922 -0.5679 -0.4200 -0.0624
 2229TIP3    H1 6693   0.997   3.045   3.009 -4.0581  0.4018 -0.1912
 2229TIP3    H2 6694   1.015   3.004   2.865 -0.5369 -0.8454  0.5034
 2230TIP3   OH2 6695   5.633   3.768   0.371 -0.0959  0.8241  0.6211
 2230TIP3    H1 6696   5.602   3.858   0.365  0.7009  1.0969  0.4904
 2230TIP3    H2 6697   5.606   3.740   0.458  0.4076  1.4947  1.0104
 2231TIP3   OH2 6698   2.559   3.413   1.242  0.1426 -0.5303 -0.3953
 2231TIP3    H1 6699   2.502   3.378   1.310 -0.1197 -1.0084 -0.8585
 2231TIP3    H2 6700   2.646   3.414   1.282 -0.0847 -0.3936  0.0965
 2232TIP3   OH2 6701   2.924   0.463   1.882  0.1592  0.4140  0.0089
 2232TIP3    H1 6702   2.910   0.418   1.965  0.4246  2.4727  1.2489
 2232TIP3    H2 6703   2.997   0.417   1.841 -1.1811 -1.8028 -0.0098
 2233TIP3   OH2 6704   3.433   1.041   2.067 -0.1765 -0.8121  0.1684
 2233TIP3    H1 6705   3.492   0.995   2.128 -0.3994 -1.2009  0.0979
 2233TIP3    H2 6706   3.347   1.032   2.107 -0.3091 -0.9863 -0.1550
 2234TIP3   OH2 6707   1.723   5.150   3.945  0.2621  0.1329  0.4460
 2234TIP3    H1 6708   1.814   5.132   3.923  0.1068 -0.1351 -0.0016
 2234TIP3    H2 6709   1.705   5.236   3.906  0.6589  0.7291  1.5521
 2235TIP3   OH2 6710   3.564   4.150   0.944 -0.0069  0.9058 -0.0256
 2235TIP3    H1 6711   3.623   4.224   0.932  1.0719  0.4121  1.8794
 2235TIP3    H2 6712   3.620   4.073   0.935 -0.5126  0.4015  0.9924
 2236TIP3   OH2 6713   5.660   0.846   3.554 -0.6030 -0.5345  0.2849
 2236TIP3    H1 6714   5.620   0.926   3.519 -1.6184 -0.4852  1.4914
 2236TIP3    H2 6715   5.593   0.779   3.542  0.3173 -1.2938 -0.9100
 2237TIP3   OH2 6716   2.145   3.022   3.823  0.1287 -0.1955  0.5432
 2237TIP3    H1 6717   2.117   3.001   3.912  0.6389 -0.2028  0.7062
 2237TIP3    H2 6718   2.223   3.076   3.834 -0.3447  0.5921  0.1091
 2238TIP3   OH2 6719   0.660   5.790   4.501 -0.2991 -0.2495 -0.6427
 2238TIP3    H1 6720   0.622   5.789   4.413  2.5173 -1.1323 -1.9461
 2238TIP3    H2 6721   0.638   5.705   4.538 -1.0185 -0.0895 -0.6827
 2239TIP3   OH2 6722   0.129   3.765   2.998 -0.3748  0.1569  0.3689
 2239TIP3    H1 6723   0.190   3.838   3.007 -0.8185  0.5374  0.3822
 2239TIP3    H2 6724   0.104   3.743   3.087  0.9453 -1.0587  0.4658
 2240TIP3   OH2 6725   0.078   2.453   0.051 -0.3534 -0.1744  0.3698
 2240TIP3    H1 6726   0.005   2.513   0.066 -2.0107 -2.2089  0.9258
 2240TIP3    H2 6727   0.109   2.430   0.138 -1.7356 -2.3508  0.3722
 2241TIP3   OH2 6728   0.854   1.311   1.266 -0.4496  0.2183 -0.0812
 2241TIP3    H1 6729   0.908   1.318   1.187  0.8077 -0.2116  0.7112
 2241TIP3    H2 6730   0.856   1.399   1.304  0.6916 -0.0556  0.5521
 2242TIP3   OH2 6731   5.503   3.577   1.938  0.0930  0.4777  0.2125
 2242TIP3    H1 6732   5.444   3.571   1.863 -0.9672 -0.0651  1.0564
 2242TIP3    H2 6733   5.583   3.617   1.903  0.0982 -0.9136 -1.4657
 2243TIP3   OH2 6734   2.106   3.844   3.219  0.2472  0.3351  0.0329
 2243TIP3    H1 6735   2.082   3.815   3.131 -0.5876 -2.6785  1.1394
 2243TIP3    H2 6736   2.066   3.931   3.227 -1.3706 -0.1638 -1.8795
 2244TIP3   OH2 6737   3.390   3.867   1.095 -0.6385 -0.1947 -0.3306
 2244TIP3    H1 6738   3.479   3.901   1.085 -0.5961  0.7233  2.4773
 2244TIP3    H2 6739   3.334   3.942   1.080 -0.6940  0.3450  2.1912
 2245TIP3   OH2 6740   4.822   5.035   1.637 -0.3530 -0.0551 -0.2202
 2245TIP3    H1 6741   4.761   5.092   1.590 -1.2919  0.2366  1.2947
 2245TIP3    H2 6742   4.897   5.026   1.578  0.4152  3.7592 -0.1127
 2246TIP3   OH2 6743   0.187   1.595   1.366 -0.3874 -0.0775  0.0767
 2246TIP3    H1 6744   0.140   1.632   1.441  0.3602 -0.3962  0.7122
 2246TIP3    H2 6745   0.259   1.656   1.351 -0.8085  0.2427 -0.7006
 2247TIP3   OH2 6746   3.414   4.489   1.719  0.1750 -0.0084 -0.4455
 2247TIP3    H1 6747   3.481   4.549   1.687 -0.5660  0.9167 -0.3016
 2247TIP3    H2 6748   3.461   4.407   1.737  1.1070  0.3605 -1.1376
 2248TIP3   OH2 6749   1.655   5.290   4.199  0.0440 -0.6001  0.7025
 2248TIP3    H1 6750   1.650   5.233   4.122 -1.9766 -0.7318  0.8856
 2248TIP3    H2 6751   1.730   5.257   4.249  1.3918 -0.5292 -1.1477
 2249TIP3   OH2 6752   0.738   2.464   4.034 -0.3062 -0.9459  0.1659
 2249TIP3    H1 6753   0.783   2.511   3.964 -0.5352 -1.5774 -0.4164
 2249TIP3    H2 6754   0.665   2.521   4.058 -0.1296 -0.6508  0.0124
 2250TIP3   OH2 6755   2.407   0.516   4.080 -0.0675 -0.2954 -0.0440
 2250TIP3    H1 6756   2.338   0.458   4.111 -0.2388 -0.8789 -1.4413
 2250TIP3    H2 6757   2.425   0.573   4.154 -1.6066 -0.5390  0.5618
 2251TIP3   OH2 6758   4.162   1.742   3.748  0.3643  0.3834 -0.4214
 2251TIP3    H1 6759   4.128   1.680   3.813  2.2280 -0.9046 -0.5999
 2251TIP3    H2 6760   4.112   1.723   3.669 -0.0275  0.0441 -0.0993
 2252TIP3   OH2 6761   1.228   2.683   2.644 -0.1534 -0.1734  0.0443
 2252TIP3    H1 6762   1.289   2.669   2.717 -1.6193 -1.1306  1.1263
 2252TIP3    H2 6763   1.275   2.650   2.568 -0.0192 -2.8146  1.1664
 2253TIP3   OH2 6764   0.325   5.608   2.018 -0.0426  0.0093 -0.3579
 2253TIP3    H1 6765   0.341   5.665   1.943  1.3485 -0.7036 -0.6571
 2253TIP3    H2 6766   0.376   5.647   2.089  1.5433 -1.2011 -0.7652
 2254TIP3   OH2 6767   0.153   1.983   4.737  0.7097  0.3017 -0.3685
 2254TIP3    H1 6768   0.182   1.963   4.648  0.1899 -0.1009 -0.4513
 2254TIP3    H2 6769   0.079   1.925   4.751  0.3401  0.8724  0.0661
 2255TIP3   OH2 6770   0.935   4.743   2.008  0.1126  0.1576 -0.0802
 2255TIP3    H1 6771   0.995   4.676   1.976  0.5043  0.5911 -0.2703
 2255TIP3    H2 6772   0.902   4.786   1.928 -0.8630 -0.4261 -0.0025
 2256TIP3   OH2 6773   4.387   5.484   4.887  0.5557  0.1168  0.5157
 2256TIP3    H1 6774   4.374   5.531   4.970 -0.9573  1.6140 -0.5039
 2256TIP3    H2 6775   4.314   5.423   4.882 -0.2867  1.1687 -0.4247
 2257TIP3   OH2 6776   5.073   3.585   1.789  0.5890 -0.4334 -0.1266
 2257TIP3    H1 6777   5.020   3.560   1.714  0.3031  1.0469 -0.4643
 2257TIP3    H2 6778   5.044   3.529   1.861 -1.1527  0.0629 -0.4136
 2258TIP3   OH2 6779   4.524   1.705   4.232  0.4248  0.5520 -0.2325
 2258TIP3    H1 6780   4.498   1.783   4.281 -0.2562  1.3429 -1.7859
 2258TIP3    H2 6781   4.450   1.688   4.173  1.1268 -0.4845 -0.8541
 2259TIP3   OH2 6782   1.426   5.195   0.595 -0.2290  0.5103  0.3085
 2259TIP3    H1 6783   1.511   5.238   0.602 -1.0293  2.0224  1.2847
 2259TIP3    H2 6784   1.417   5.176   0.502  0.5866  1.5981 -0.0208
 2260TIP3   OH2 6785   3.422   1.209   1.843  0.3022  0.3831  0.5790
 2260TIP3    H1 6786   3.349   1.179   1.788 -0.2884  0.3643  1.3459
 2260TIP3    H2 6787   3.408   1.165   1.927  0.6904  1.0777  1.0189
 2261TIP3   OH2 6788   3.370   1.465   0.736  0.5837  0.2161  0.2224
 2261TIP3    H1 6789   3.308   1.523   0.780  1.6395  0.8523  0.9179
 2261TIP3    H2 6790   3.366   1.383   0.786 -0.1579  0.0156 -0.1412
 2262TIP3   OH2 6791   0.210   3.093   4.964 -0.4545 -0.2771  0.0268
 2262TIP3    H1 6792   0.216   3.163   5.029  1.3218 -0.4733  0.1321
 2262TIP3    H2 6793   0.253   3.130   4.886  0.0179 -1.0399 -0.0883
 2263TIP3   OH2 6794   2.511   5.926   2.989  0.7090 -0.2386 -0.1800
 2263TIP3    H1 6795   2.572   5.977   3.043 -0.6655 -0.1837  1.4149
 2263TIP3    H2 6796   2.566   5.861   2.945  1.9278 -0.2316  1.2449
 2264TIP3   OH2 6797   1.145   2.251   0.638  0.3340 -0.3818 -0.5425
 2264TIP3    H1 6798   1.109   2.250   0.727  1.2331  1.1377 -0.1342
 2264TIP3    H2 6799   1.227   2.299   0.646  0.6685 -0.6405 -2.1261
 2265TIP3   OH2 6800   6.241   4.322   2.873  0.1788 -0.2141  0.0313
 2265TIP3    H1 6801   6.302   4.353   2.806  1.2684  0.9243  1.4582
 2265TIP3    H2 6802   6.233   4.396   2.934 -1.4887 -0.8742  0.6636
 2266TIP3   OH2 6803   6.144   0.195   3.674 -0.0214 -0.1703  0.0472
 2266TIP3    H1 6804   6.078   0.250   3.633  1.6951  0.1482 -2.5147
 2266TIP3    H2 6805   6.195   0.256   3.727  0.1770  0.2087 -0.5644
 2267TIP3   OH2 6806   0.333   1.617   4.350 -0.0506  0.0825  0.5488
 2267TIP3    H1 6807   0.288   1.635   4.268  0.8011  0.0754  0.0663
 2267TIP3    H2 6808   0.426   1.624   4.328  0.1853  0.1369  1.5269
 2268TIP3   OH2 6809   1.994   0.656   3.199  0.1968  0.1028  0.1006
 2268TIP3    H1 6810   2.000   0.744   3.161  0.9630 -0.2392 -0.6187
 2268TIP3    H2 6811   1.913   0.657   3.250  0.7657  1.5832  1.0613
 2269TIP3   OH2 6812   5.831   2.183   1.041  0.1693 -0.8886 -0.0248
 2269TIP3    H1 6813   5.802   2.231   0.963  0.9455  0.2876  0.3911
 2269TIP3    H2 6814   5.750   2.153   1.082 -0.3241 -0.0701 -0.3767
 2270TIP3   OH2 6815   0.434   2.467   0.739  0.0785 -0.0018 -0.1008
 2270TIP3    H1 6816   0.525   2.494   0.728 -0.5913  1.6477 -2.5405
 2270TIP3    H2 6817   0.390   2.501   0.661 -2.8545  0.1833  1.5183
 2271TIP3   OH2 6818   2.901   1.727   0.013 -0.6960 -0.0241 -0.3405
 2271TIP3    H1 6819   2.992   1.730  -0.016 -0.6761 -1.0545 -0.4246
 2271TIP3    H2 6820   2.871   1.818   0.008  1.0775  0.8042  2.1762
 2272TIP3   OH2 6821   4.397   1.732   3.203 -0.2685  0.4237 -0.4488
 2272TIP3    H1 6822   4.386   1.714   3.110 -3.5758 -0.7541  0.0232
 2272TIP3    H2 6823   4.333   1.800   3.223  0.5064  0.7915  0.9459
 2273TIP3   OH2 6824   1.957   4.975   4.930 -0.3030  0.3269 -0.1594
 2273TIP3    H1 6825   1.919   5.050   4.975 -1.2137 -0.0631 -0.2714
 2273TIP3    H2 6826   1.899   4.903   4.950 -0.0319 -0.1200 -0.9540
 2274TIP3   OH2 6827   4.884   5.477   1.743  0.1910  0.1000 -0.2018
 2274TIP3    H1 6828   4.902   5.407   1.806  1.3223 -0.1585 -0.7924
 2274TIP3    H2 6829   4.841   5.432   1.670  0.6121  0.0757 -0.4356
 2275TIP3   OH2 6830   5.974   3.552   2.253  0.9616 -0.1538 -0.3976
 2275TIP3    H1 6831   5.878   3.557   2.258  1.0340  0.9183  0.0844
 2275TIP3    H2 6832   5.996   3.603   2.175  1.1929  0.2648 -0.0587
 2276TIP3   OH2 6833   3.869   0.134   3.257 -0.2848  0.4870  0.9787
 2276TIP3    H1 6834   3.785   0.150   3.299 -0.3158 -0.6415  1.3812
 2276TIP3    H2 6835   3.866   0.042   3.231  0.3136  0.7728 -0.1933
 2277TIP3   OH2 6836   0.974   4.513   2.363 -0.1934 -0.3400 -0.0769
 2277TIP3    H1 6837   0.958   4.428   2.404 -2.3666  0.1494  0.2175
 2277TIP3    H2 6838   0.951   4.577   2.430 -0.6610  0.4699 -0.9925
 2278TIP3   OH2 6839   0.945   2.133   3.493  0.0785 -1.2440  0.4489
 2278TIP3    H1 6840   0.995   2.162   3.416 -0.2629 -1.1338  0.2633
 2278TIP3    H2 6841   0.872   2.082   3.456 -0.3666 -0.7810  0.6667
 2279TIP3   OH2 6842   2.324   3.038   1.257 -0.1703  0.0790 -0.0030
 2279TIP3    H1 6843   2.247   2.988   1.230 -0.4848  0.3923  0.3048
 2279TIP3    H2 6844   2.367   3.062   1.175 -0.3071 -0.2418 -0.1690
 2280TIP3   OH2 6845   0.148   3.147   4.493  0.2691 -0.1248 -0.0655
 2280TIP3    H1 6846   0.110   3.086   4.555 -1.2488  0.4686 -0.3653
 2280TIP3    H2 6847   0.097   3.227   4.504  1.8953  0.9589 -0.0137
 2281TIP3   OH2 6848   2.256   2.046   3.717 -0.1234  0.0646 -0.4547
 2281TIP3    H1 6849   2.320   2.116   3.729 -0.3361  0.1704  0.0876
 2281TIP3    H2 6850   2.304   1.966   3.739  0.2663 -0.0290 -1.5600
 2282TIP3   OH2 6851   3.734   2.919   4.647  0.6248 -0.0748  0.4598
 2282TIP3    H1 6852   3.731   2.998   4.593  0.3319 -0.4884 -0.1395
 2282TIP3    H2 6853   3.697   2.946   4.731 -0.5854  0.1324 -0.1235
 2283TIP3   OH2 6854   2.872   1.446   1.439  0.1428 -0.7181  0.4097
 2283TIP3    H1 6855   2.835   1.533   1.450  0.3551 -0.4410 -0.9465
 2283TIP3    H2 6856   2.878   1.411   1.529  1.0604  1.0475  1.0794
 2284TIP3   OH2 6857   4.562   1.219   1.295 -0.3888 -0.3500  0.3563
 2284TIP3    H1 6858   4.566   1.249   1.204 -0.9203 -1.1877  0.0512
 2284TIP3    H2 6859   4.496   1.151   1.295 -0.6400 -0.1230  1.4479
 2285TIP3   OH2 6860   3.277   0.940   5.161 -0.3566 -0.2022 -0.0531
 2285TIP3    H1 6861   3.234   0.882   5.098 -1.7479 -0.3442  0.9747
 2285TIP3    H2 6862   3.347   0.983   5.111 -0.5778 -1.2776 -1.3350
 2286TIP3   OH2 6863   6.221   4.327   1.572 -0.8553 -0.9174 -0.0859
 2286TIP3    H1 6864   6.293   4.307   1.632  1.4723  1.3398 -1.9137
 2286TIP3    H2 6865   6.158   4.376   1.626 -0.5788 -2.0317  1.3098
 2287TIP3   OH2 6866   0.958   2.130   2.583 -0.3697 -0.3950 -0.2377
 2287TIP3    H1 6867   0.975   2.193   2.654 -0.7744  1.1374 -1.4464
 2287TIP3    H2 6868   0.937   2.185   2.507  0.1516 -1.9923 -1.5810
 2288TIP3   OH2 6869   2.820   2.561   2.477 -0.3564  0.0297  0.3549
 2288TIP3    H1 6870   2.868   2.637   2.510  0.2062 -0.4360  0.6120
 2288TIP3    H2 6871   2.728   2.584   2.490 -0.3399  1.7025 -1.7471
 2289TIP3   OH2 6872   5.372   4.492   0.499 -0.4255 -0.5883  0.1810
 2289TIP3    H1 6873   5.358   4.431   0.571  1.6403 -2.2915 -0.7452
 2289TIP3    H2 6874   5.337   4.445   0.422 -0.0737 -0.0181 -0.3333
 2290TIP3   OH2 6875   5.516   2.342   0.095 -0.0828  0.6065  0.0965
 2290TIP3    H1 6876   5.441   2.298   0.136 -0.2978  0.1658 -0.7460
 2290TIP3    H2 6877   5.507   2.322   0.002  3.0174 -2.5834  0.2924
 2291TIP3   OH2 6878   5.988   2.837   2.834 -0.2281 -0.1982  0.3283
 2291TIP3    H1 6879   5.972   2.910   2.775  1.2715  1.8886  2.3457
 2291TIP3    H2 6880   6.080   2.815   2.822 -0.2748 -0.7328  0.8447
 2292TIP3   OH2 6881   5.327   1.732   0.612  0.0523 -0.0349  0.6902
 2292TIP3    H1 6882   5.322   1.638   0.592 -1.5118  0.0023  0.8208
 2292TIP3    H2 6883   5.332   1.774   0.527 -0.1924 -0.1898  0.5989
 2293TIP3   OH2 6884   2.522   3.758   3.784 -0.1395  0.3258 -0.4436
 2293TIP3    H1 6885   2.444   3.705   3.772 -0.5714  0.6134  0.9965
 2293TIP3    H2 6886   2.509   3.802   3.868  0.8917  1.5333 -0.8891
 2294TIP3   OH2 6887   3.007   4.234   3.125 -0.0960  0.5235  0.7246
 2294TIP3    H1 6888   3.091   4.188   3.118 -1.4932 -2.4226  1.8933
 2294TIP3    H2 6889   3.012   4.301   3.056  2.4714 -0.7175 -0.4863
 2295TIP3   OH2 6890   2.028   5.325   4.022 -0.2629  0.0961  0.6118
 2295TIP3    H1 6891   2.058   5.364   4.104 -1.1135 -0.1674  1.0663
 2295TIP3    H2 6892   2.108   5.293   3.980  0.5273  2.5582  0.0501
 2296TIP3   OH2 6893   4.773   2.713   4.392 -0.4943  0.0430 -0.2987
 2296TIP3    H1 6894   4.795   2.756   4.310  0.6007 -0.3711 -0.2441
 2296TIP3    H2 6895   4.846   2.733   4.450 -0.1638 -1.4932 -0.1377
 2297TIP3   OH2 6896   2.276   5.743   3.019 -0.4860 -0.2357 -0.0805
 2297TIP3    H1 6897   2.229   5.765   2.938 -0.7168 -1.8115 -0.4037
 2297TIP3    H2 6898   2.359   5.789   3.011 -0.2740 -0.8213 -1.4983
 2298TIP3   OH2 6899   3.538   2.238   1.941 -0.7289 -0.0269 -0.2990
 2298TIP3    H1 6900   3.594   2.178   1.990 -0.9175 -1.2447 -1.4995
 2298TIP3    H2 6901   3.596   2.310   1.916 -0.6560  0.6504  1.7107
 2299TIP3   OH2 6902   3.411   4.145   1.950 -0.0096 -0.0852  0.1988
 2299TIP3    H1 6903   3.413   4.050   1.966 -0.9156 -0.1994 -0.3039
 2299TIP3    H2 6904   3.329   4.174   1.989 -1.5079 -0.1144 -2.6481
 2300TIP3   OH2 6905   0.158   4.053   4.473  0.3854 -0.5468 -0.2669
 2300TIP3    H1 6906   0.116   4.072   4.389  0.9982 -0.2813 -0.5203
 2300TIP3    H2 6907   0.245   4.022   4.449 -0.3520 -3.1397  0.1514
 2301TIP3   OH2 6908   3.189   1.785   5.110  0.3311  0.3018 -0.4017
 2301TIP3    H1 6909   3.260   1.754   5.167 -0.6102 -0.7702  0.2221
 2301TIP3    H2 6910   3.213   1.876   5.091  3.2578 -0.7463 -2.3980
 2302TIP3   OH2 6911   3.129   1.919   1.953 -0.1339  0.2278 -0.1768
 2302TIP3    H1 6912   3.139   2.008   1.988 -0.0576 -0.2704  1.1038
 2302TIP3    H2 6913   3.180   1.920   1.873  1.0878  0.9294  0.5781
 2303TIP3   OH2 6914   2.422   1.136   0.536  0.1962  0.4743  0.3926
 2303TIP3    H1 6915   2.492   1.103   0.592 -0.3369 -1.8842 -0.2192
 2303TIP3    H2 6916   2.342   1.095   0.571 -0.6073  1.5326 -0.1355
 2304TIP3   OH2 6917   3.436   2.895   1.912 -0.1594 -0.5974 -0.3857
 2304TIP3    H1 6918   3.457   2.944   1.833 -2.4915  0.9124 -0.1383
 2304TIP3    H2 6919   3.341   2.888   1.912 -0.1289 -1.8576  1.5648
 2305TIP3   OH2 6920   4.337   0.172   4.518 -0.2200  0.3114  0.4310
 2305TIP3    H1 6921   4.389   0.199   4.442  0.4015 -0.5743  0.5334
 2305TIP3    H2 6922   4.255   0.220   4.509 -0.8071 -0.9778 -1.6839
 2306TIP3   OH2 6923   5.347   1.783   1.220  0.3717  0.2097 -0.2793
 2306TIP3    H1 6924   5.277   1.732   1.261  0.6208 -0.1139 -0.2569
 2306TIP3    H2 6925   5.327   1.873   1.243 -0.7806  0.2611 -1.3435
 2307TIP3   OH2 6926   4.400   1.807   3.863  0.1266 -0.2142  0.0786
 2307TIP3    H1 6927   4.371   1.747   3.932 -1.2488  0.7151  0.3369
 2307TIP3    H2 6928   4.329   1.807   3.800  1.6181 -1.5173 -1.7138
 2308TIP3   OH2 6929   3.087   1.969   0.225  0.6157  0.1787  0.2877
 2308TIP3    H1 6930   3.109   1.888   0.179  0.0401 -0.0063  0.3351
 2308TIP3    H2 6931   3.093   2.037   0.158 -0.4228 -0.1184 -0.1203
 2309TIP3   OH2 6932   3.965   1.954   0.105 -0.2904 -0.0368  0.1667
 2309TIP3    H1 6933   3.870   1.957   0.097 -0.2376 -0.1401 -0.5893
 2309TIP3    H2 6934   3.994   2.043   0.086 -0.1303 -0.3909 -1.4437
 2310TIP3   OH2 6935   1.112   1.729   3.900 -0.0252  0.0608 -0.2140
 2310TIP3    H1 6936   1.114   1.633   3.900  0.0002 -0.0217 -2.9877
 2310TIP3    H2 6937   1.034   1.751   3.950  0.4026 -1.3531  1.1535
 2311TIP3   OH2 6938   6.210   5.439   2.052 -0.6614 -0.1383  0.6126
 2311TIP3    H1 6939   6.187   5.487   2.131  1.8474  0.0812  1.2799
 2311TIP3    H2 6940   6.264   5.366   2.083 -0.4226 -0.6065 -0.8192
 2312TIP3   OH2 6941   3.131   4.213   1.491  0.4694  0.3536  0.1641
 2312TIP3    H1 6942   3.099   4.290   1.537  3.4517  2.2425 -0.6165
 2312TIP3    H2 6943   3.178   4.163   1.557  1.3875  1.0226  0.0497
 2313TIP3   OH2 6944   5.472   4.569   2.964 -0.1007  0.1381 -0.1882
 2313TIP3    H1 6945   5.507   4.598   3.049  0.9961 -1.0465 -0.1980
 2313TIP3    H2 6946   5.524   4.617   2.899 -1.4826  1.6693 -0.2542
 2314TIP3   OH2 6947   1.630   0.567   1.286  0.1245 -0.3925 -0.1670
 2314TIP3    H1 6948   1.546   0.612   1.295  0.2105 -0.0779 -0.9404
 2314TIP3    H2 6949   1.630   0.532   1.197  0.3089 -1.4326  0.2202
 2315TIP3   OH2 6950   0.556   5.626   1.125 -0.5849  0.1829  0.0817
 2315TIP3    H1 6951   0.603   5.600   1.046 -1.5748 -0.2178 -0.3874
 2315TIP3    H2 6952   0.565   5.722   1.128  0.9939  0.0477  0.4894
 2316TIP3   OH2 6953   5.805   2.453   4.091 -0.0243  0.1676  0.4247
 2316TIP3    H1 6954   5.735   2.394   4.119 -0.2794  0.4345  0.3470
 2316TIP3    H2 6955   5.826   2.427   4.002  0.5200 -0.4276  0.7144
 2317TIP3   OH2 6956   3.837   5.021   3.650 -0.6158  0.3988 -0.1845
 2317TIP3    H1 6957   3.866   5.087   3.587 -3.1255  0.0117 -1.8603
 2317TIP3    H2 6958   3.819   5.070   3.730  1.2045  1.1121 -0.1666
 2318TIP3   OH2 6959   4.898   0.020   4.989  0.0407 -0.2023  0.1603
 2318TIP3    H1 6960   4.985   0.008   4.951  1.0087  0.6809  1.9327
 2318TIP3    H2 6961   4.873   0.109   4.963 -0.5859 -0.6351 -0.7676
 2319TIP3   OH2 6962   4.561   5.333   3.500 -0.0181 -0.4480 -0.5213
 2319TIP3    H1 6963   4.641   5.280   3.509 -0.0118 -0.2410  0.8577
 2319TIP3    H2 6964   4.593   5.420   3.478  0.0764 -0.5401 -0.7638
 2320TIP3   OH2 6965   4.955   3.851   1.499 -0.1557  0.2096  0.0067
 2320TIP3    H1 6966   5.014   3.910   1.545  0.7563 -0.3010 -0.4721
 2320TIP3    H2 6967   4.885   3.832   1.562 -1.2345  2.8495 -0.2869
 2321TIP3   OH2 6968   4.112   5.622   4.239  0.0874 -0.4766 -0.1027
 2321TIP3    H1 6969   4.124   5.689   4.171 -0.5481 -0.2726 -0.0133
 2321TIP3    H2 6970   4.038   5.570   4.209 -1.9107  1.1841  1.6633
 2322TIP3   OH2 6971   0.392   5.813   4.951 -0.2147  0.2120  0.1765
 2322TIP3    H1 6972   0.432   5.797   5.036 -0.0756 -1.1109 -0.1237
 2322TIP3    H2 6973   0.461   5.855   4.900 -0.0412  0.2669  0.4544
 2323TIP3   OH2 6974   6.219   4.310   3.748  0.4026 -0.3628  0.0532
 2323TIP3    H1 6975   6.207   4.217   3.769 -0.2518 -0.1021  0.8859
 2323TIP3    H2 6976   6.259   4.310   3.660 -0.1701 -1.4144 -0.2247
 2324TIP3   OH2 6977   1.526   4.033   0.259 -0.3439 -0.5363  0.5845
 2324TIP3    H1 6978   1.610   4.035   0.212 -0.3658 -0.7426  0.5356
 2324TIP3    H2 6979   1.539   4.093   0.332  0.0448 -0.9964  0.9037
 2325TIP3   OH2 6980   1.858   2.325   4.794  0.1597  0.0336 -1.1833
 2325TIP3    H1 6981   1.839   2.405   4.843  0.7336  1.1017 -2.6364
 2325TIP3    H2 6982   1.818   2.255   4.846  0.6180  1.1114  0.7094
 2326TIP3   OH2 6983   1.729   5.523   3.193  0.1909  0.3504 -0.4912
 2326TIP3    H1 6984   1.804   5.468   3.214  0.7898  1.6129  0.8242
 2326TIP3    H2 6985   1.653   5.468   3.212  0.7303  0.5759  2.8616
 2327TIP3   OH2 6986   5.258   1.717   1.708 -0.1502 -0.2115  0.0495
 2327TIP3    H1 6987   5.200   1.738   1.781 -1.6688 -1.6364 -0.6927
 2327TIP3    H2 6988   5.329   1.666   1.749 -0.7917 -0.6840  0.5950
 2328TIP3   OH2 6989   6.196   2.926   0.172 -0.1966  0.0586 -0.1135
 2328TIP3    H1 6990   6.137   2.851   0.161 -0.0957  0.0661 -0.7924
 2328TIP3    H2 6991   6.277   2.888   0.207 -0.7214  0.1044  1.2065
 2329TIP3   OH2 6992   0.616   0.508   3.559 -0.6010 -0.0177 -0.1108
 2329TIP3    H1 6993   0.569   0.528   3.640  0.6778 -0.5007  0.7765
 2329TIP3    H2 6994   0.614   0.590   3.510  0.1800  0.8324  1.2217
 2330TIP3   OH2 6995   4.069   3.427   3.986  0.4431  0.1964  0.1731
 2330TIP3    H1 6996   4.089   3.504   3.931 -0.9875  0.0268 -0.6274
 2330TIP3    H2 6997   4.030   3.364   3.925 -0.8646 -0.1370  1.3143
 2331TIP3   OH2 6998   4.381   4.275   3.251 -0.1542  0.0226 -0.0685
 2331TIP3    H1 6999   4.406   4.198   3.200  0.8792  0.1353  0.2537
 2331TIP3    H2 7000   4.404   4.349   3.195  0.1517  0.1264  0.1932
 2332TIP3   OH2 7001   3.994   0.396   0.128 -0.1174  0.4155  0.3573
 2332TIP3    H1 7002   4.064   0.446   0.170 -0.2060  1.3575 -0.5609
 2332TIP3    H2 7003   3.929   0.462   0.104 -2.3577 -0.6257  3.0292
 2333TIP3   OH2 7004   1.728   0.560   0.351 -0.0058 -0.2291 -0.0499
 2333TIP3    H1 7005   1.738   0.584   0.259 -1.9986 -1.2988 -0.6077
 2333TIP3    H2 7006   1.722   0.643   0.398 -1.6004  0.3890 -1.2591
 2334TIP3   OH2 7007   1.855   0.802   1.524  0.0317  0.0109  0.8115
 2334TIP3    H1 7008   1.828   0.805   1.432  2.0631 -1.2666  0.1077
 2334TIP3    H2 7009   1.774   0.784   1.572 -1.0623  0.6177 -0.7216
 2335TIP3   OH2 7010   4.458   0.806   2.709 -0.7337  0.2388 -0.6309
 2335TIP3    H1 7011   4.415   0.891   2.715 -0.0949  0.4615  1.7347
 2335TIP3    H2 7012   4.394   0.744   2.746 -0.7784 -0.1595 -1.3540
 2336TIP3   OH2 7013   2.407   3.314   2.541  0.2300  0.7203 -0.0482
 2336TIP3    H1 7014   2.429   3.333   2.450 -0.5402 -0.3153 -0.4682
 2336TIP3    H2 7015   2.329   3.366   2.558  0.2316  0.7239 -0.0520
 2337TIP3   OH2 7016   5.930   1.243   1.452 -0.0892 -0.4320  0.1100
 2337TIP3    H1 7017   5.890   1.202   1.376  0.6198  0.0424 -0.5297
 2337TIP3    H2 7018   6.000   1.183   1.478 -0.7082 -0.8832  0.7553
 2338TIP3   OH2 7019   5.893   0.085   1.915  0.0724 -0.5163 -0.7291
 2338TIP3    H1 7020   5.861   0.171   1.890 -1.1534 -0.8624 -0.4140
 2338TIP3    H2 7021   5.864   0.027   1.844 -0.0889 -0.8471 -0.3989
 2339TIP3   OH2 7022   4.061   5.937   1.788  0.4226 -0.4341  0.0255
 2339TIP3    H1 7023   4.079   5.901   1.875  2.8032 -0.1546 -0.3037
 2339TIP3    H2 7024   4.020   5.864   1.741  1.7532 -1.5636  0.5181
 2340TIP3   OH2 7025   4.283   1.575   3.436 -0.4127 -0.0500 -0.1006
 2340TIP3    H1 7026   4.283   1.585   3.341  0.3427  0.6256 -0.0435
 2340TIP3    H2 7027   4.367   1.612   3.464 -1.1756  0.9806  0.9441
 2341TIP3   OH2 7028   3.856   3.590   3.824 -0.3177 -0.4492  0.4114
 2341TIP3    H1 7029   3.929   3.652   3.823  0.1953 -1.0147  1.4203
 2341TIP3    H2 7030   3.843   3.567   3.732  1.8596 -1.5563  0.3054
 2342TIP3   OH2 7031   6.300   4.162   2.198  0.0516 -0.0239  0.4734
 2342TIP3    H1 7032   6.379   4.203   2.233 -0.6866  1.1773  0.8008
 2342TIP3    H2 7033   6.280   4.091   2.258  1.1561 -0.6585  0.1066
 2343TIP3   OH2 7034   2.755   2.007   4.847  0.0195 -0.0079 -0.3436
 2343TIP3    H1 7035   2.743   2.017   4.941  0.1099  0.6093 -0.3932
 2343TIP3    H2 7036   2.667   1.993   4.812 -0.1439  0.8989 -0.2977
 2344TIP3   OH2 7037   5.780   0.512   1.611 -0.6119  0.1012  0.3629
 2344TIP3    H1 7038   5.739   0.572   1.673  0.3874  0.7003  0.4645
 2344TIP3    H2 7039   5.800   0.566   1.535  0.6554  0.0072  0.6143
 2345TIP3   OH2 7040   3.013   1.193   2.286 -0.1486  0.4653  0.3702
 2345TIP3    H1 7041   2.940   1.155   2.335 -0.5303 -1.2141 -1.3553
 2345TIP3    H2 7042   2.975   1.220   2.202  1.2309 -0.9688 -0.7918
 2346TIP3   OH2 7043   2.312   2.684   2.956  0.3459 -0.1873 -0.0042
 2346TIP3    H1 7044   2.367   2.742   3.008  0.0655  0.0776 -0.0013
 2346TIP3    H2 7045   2.344   2.596   2.977 -0.3039 -0.1407  1.2426
 2347TIP3   OH2 7046   1.230   4.052   0.882 -0.3467  0.2013  0.1722
 2347TIP3    H1 7047   1.240   3.962   0.852  0.3977  0.3622 -0.0864
 2347TIP3    H2 7048   1.146   4.080   0.848 -0.4368 -0.2932 -0.0175
 2348TIP3   OH2 7049   6.260   0.225   0.054 -0.7339  0.1446 -0.7148
 2348TIP3    H1 7050   6.304   0.293   0.003 -0.1952  0.0909 -0.3367
 2348TIP3    H2 7051   6.232   0.270   0.134  1.8556 -0.5648  0.7141
 2349TIP3   OH2 7052   1.392   5.377   4.504  0.3839 -0.2417 -0.6006
 2349TIP3    H1 7053   1.399   5.337   4.590 -0.0768 -0.4510 -0.6571
 2349TIP3    H2 7054   1.330   5.449   4.516  2.0649  1.2121 -0.2314
 2350TIP3   OH2 7055   2.733   3.024   0.251 -0.5163 -0.1068 -0.4285
 2350TIP3    H1 7056   2.655   3.047   0.199  0.1023  1.5649 -0.6578
 2350TIP3    H2 7057   2.739   3.093   0.317  1.1369  0.1602 -0.8240
 2351TIP3   OH2 7058   0.358   3.380   0.420 -0.0225 -0.8066  0.4453
 2351TIP3    H1 7059   0.397   3.432   0.350  0.8306 -1.6854  0.2489
 2351TIP3    H2 7060   0.293   3.326   0.376 -0.2348 -0.6043  0.5053
 2352TIP3   OH2 7061   2.326   5.073   1.957 -0.2290  0.6148  0.0990
 2352TIP3    H1 7062   2.333   4.999   1.895  0.5640  1.0339 -0.3266
 2352TIP3    H2 7063   2.297   5.033   2.039  2.4136 -0.5755  0.5573
 2353TIP3   OH2 7064   0.775   5.294   2.803  0.1141 -0.2962 -0.1304
 2353TIP3    H1 7065   0.753   5.295   2.897  0.7295  2.2240  0.0557
 2353TIP3    H2 7066   0.758   5.204   2.776 -3.2637 -0.3918  1.6439
 2354TIP3   OH2 7067   2.300   5.400   0.971  0.3366  0.0265  0.0365
 2354TIP3    H1 7068   2.308   5.464   0.900  0.5911  0.7459  0.7039
 2354TIP3    H2 7069   2.379   5.346   0.964  1.8438  1.9122  1.5179
 2355TIP3   OH2 7070   2.746   5.800   4.121 -0.9801 -1.1255 -0.8583
 2355TIP3    H1 7071   2.758   5.895   4.129 -0.6586 -1.3039  1.4344
 2355TIP3    H2 7072   2.762   5.782   4.028  1.0262  0.7739 -0.9684
 2356TIP3   OH2 7073   2.860   0.443   4.617  0.1750  0.2989  0.2450
 2356TIP3    H1 7074   2.860   0.538   4.609 -0.3248  0.2583 -0.3978
 2356TIP3    H2 7075   2.873   0.426   4.710  0.2166  0.9963  0.3685
 2357TIP3   OH2 7076   2.459   3.621   1.520  0.2424  0.4738 -0.3737
 2357TIP3    H1 7077   2.522   3.693   1.511 -2.0005  2.7449  0.8054
 2357TIP3    H2 7078   2.463   3.598   1.613 -0.4129  0.3890 -0.3621
 2358TIP3   OH2 7079   1.361   5.692   4.258 -0.1614 -0.0250  0.2936
 2358TIP3    H1 7080   1.344   5.599   4.276 -0.0647 -0.1962 -0.4387
 2358TIP3    H2 7081   1.405   5.724   4.337  0.1435 -0.7002  0.4112
 2359TIP3   OH2 7082   1.832   5.586   0.153 -0.2782  0.0213 -0.3515
 2359TIP3    H1 7083   1.808   5.522   0.086  2.6436 -1.0907 -0.5058
 2359TIP3    H2 7084   1.875   5.656   0.105 -0.1040  0.2687  0.1552
 2360TIP3   OH2 7085   5.802   5.453   2.521  0.2005 -0.0700 -0.0149
 2360TIP3    H1 7086   5.726   5.469   2.464 -0.6596 -1.0329  0.8144
 2360TIP3    H2 7087   5.812   5.534   2.571  0.6132  0.5780 -1.1139
 2361TIP3   OH2 7088   5.186   1.236   0.434  0.2890  0.1250 -0.4062
 2361TIP3    H1 7089   5.153   1.308   0.488  0.7495 -0.9595  1.4045
 2361TIP3    H2 7090   5.192   1.273   0.345 -0.3199  2.0310  0.3012
 2362TIP3   OH2 7091   0.100   3.004  -0.004 -0.7409  0.6044  0.4492
 2362TIP3    H1 7092   0.010   2.969  -0.005 -0.9082  0.8469 -2.4136
 2362TIP3    H2 7093   0.154   2.928   0.019 -1.5553 -0.0051  0.4291
 2363TIP3   OH2 7094   3.581   3.329   3.859  0.6756  0.5854  0.5000
 2363TIP3    H1 7095   3.580   3.425   3.863 -0.0063  0.8135 -2.4389
 2363TIP3    H2 7096   3.507   3.307   3.802  1.2627 -1.6616  0.5152
 2364TIP3   OH2 7097   0.987   3.704   1.258  0.1465  0.1787  0.0200
 2364TIP3    H1 7098   1.036   3.706   1.176 -0.4768 -0.3113 -0.3736
 2364TIP3    H2 7099   1.045   3.660   1.320  1.3127  2.0384  0.3259
 2365TIP3   OH2 7100   2.648   4.946   0.591 -0.2317  0.1628 -0.1054
 2365TIP3    H1 7101   2.607   4.971   0.508 -2.5342 -0.1595  0.8352
 2365TIP3    H2 7102   2.606   4.863   0.613 -0.4793  0.7714  1.8713
 2366TIP3   OH2 7103   4.648   3.449   0.308  0.0723  0.1285 -0.3193
 2366TIP3    H1 7104   4.614   3.396   0.236 -0.8162  1.3483 -0.8413
 2366TIP3    H2 7105   4.736   3.416   0.323 -0.3643 -1.3170 -0.7785
 2367TIP3   OH2 7106   4.903   2.731   2.278 -0.1128  0.0371  0.6161
 2367TIP3    H1 7107   4.908   2.781   2.360  1.2988  0.6192  0.2192
 2367TIP3    H2 7108   4.909   2.798   2.209 -4.9560  0.0074 -0.1601
 2368TIP3   OH2 7109   2.279   3.640   1.344 -0.0019  0.1531  0.4278
 2368TIP3    H1 7110   2.352   3.609   1.397  0.6270 -2.2304 -1.6478
 2368TIP3    H2 7111   2.317   3.657   1.258 -1.4079  1.6072  0.0437
 2369TIP3   OH2 7112   0.272   4.744   3.815  0.2472  0.1089 -0.7842
 2369TIP3    H1 7113   0.187   4.714   3.783 -1.0696  2.7653 -0.0624
 2369TIP3    H2 7114   0.324   4.758   3.736 -0.8849  0.8750 -1.4166
 2370TIP3   OH2 7115   3.511   3.364   4.865 -0.4786 -0.3758 -0.3493
 2370TIP3    H1 7116   3.597   3.403   4.880 -0.7410  0.3967 -0.8384
 2370TIP3    H2 7117   3.464   3.427   4.810 -0.9647 -1.2915 -1.0248
 2371TIP3   OH2 7118   4.531   2.661   0.347 -0.2254  0.2155  0.3481
 2371TIP3    H1 7119   4.559   2.712   0.423  0.7587  0.9889 -0.5026
 2371TIP3    H2 7120   4.612   2.645   0.298 -0.9917  0.6845 -1.1125
 2372TIP3   OH2 7121   3.919   1.887   1.962  0.2693 -0.2532  0.0474
 2372TIP3    H1 7122   3.950   1.975   1.985  1.5149 -0.5389 -0.4393
 2372TIP3    H2 7123   3.957   1.830   2.030  0.0197 -0.4972 -0.0170
 2373TIP3   OH2 7124   1.488   4.634   4.970 -0.0168  0.0636  0.2088
 2373TIP3    H1 7125   1.421   4.656   4.905 -1.1770 -0.3890  1.2077
 2373TIP3    H2 7126   1.520   4.548   4.944  0.7792  0.6289 -0.7357
 2374TIP3   OH2 7127   0.655   3.826   4.463  0.0176 -0.2907 -0.1453
 2374TIP3    H1 7128   0.698   3.815   4.547 -1.5750 -0.6158  0.6721
 2374TIP3    H2 7129   0.721   3.867   4.407  0.6032  1.4681  1.7277
 2375TIP3   OH2 7130   6.349   1.040   4.370 -0.7457  0.6595 -0.0287
 2375TIP3    H1 7131   6.259   1.023   4.398 -0.9273 -0.2021 -1.0545
 2375TIP3    H2 7132   6.340   1.107   4.302 -0.8297 -0.6640 -1.3781
 2376TIP3   OH2 7133   0.066   4.423   2.646  0.2619  0.0919  0.0587
 2376TIP3    H1 7134   0.106   4.474   2.575  1.7535  0.6711  1.2780
 2376TIP3    H2 7135   0.137   4.409   2.708 -0.7836 -1.2607  0.9816
 2377TIP3   OH2 7136   0.198   3.413   2.085  0.0863 -0.4889 -0.8611
 2377TIP3    H1 7137   0.196   3.355   2.009 -1.3140  0.2375 -1.4182
 2377TIP3    H2 7138   0.143   3.487   2.060  0.6544  0.3808  0.3819
 2378TIP3   OH2 7139   3.210   3.795   4.177 -0.4631  0.1003  0.0104
 2378TIP3    H1 7140   3.119   3.808   4.151 -0.3764  1.1354  0.1738
 2378TIP3    H2 7141   3.253   3.877   4.154  0.5087 -0.4990 -0.3802
 2379TIP3   OH2 7142   1.935   5.577   1.595  0.6013  0.0562 -0.3204
 2379TIP3    H1 7143   1.844   5.557   1.574  0.4982  0.5429 -0.3331
 2379TIP3    H2 7144   1.972   5.492   1.623  0.1293 -0.1263 -0.2385
 2380TIP3   OH2 7145   2.097   4.259   5.177 -0.5426  0.0980 -0.2583
 2380TIP3    H1 7146   2.079   4.323   5.108  0.4142  0.1741 -0.4620
 2380TIP3    H2 7147   2.017   4.207   5.185 -1.2359  1.1397 -0.2828
 2381TIP3   OH2 7148   5.413   3.318   4.303  0.0382 -0.0384  0.0650
 2381TIP3    H1 7149   5.354   3.374   4.252  0.4114 -0.4855 -0.8873
 2381TIP3    H2 7150   5.499   3.358   4.293  0.5683 -1.5044 -1.8096
 2382TIP3   OH2 7151   1.294   2.909   3.285  0.1287 -0.6415 -0.5874
 2382TIP3    H1 7152   1.336   2.845   3.343  1.5598  1.6372  1.0517
 2382TIP3    H2 7153   1.287   2.988   3.338  1.4978  1.6172 -3.4892
 2383TIP3   OH2 7154   2.534   5.251   0.933 -0.1063  0.2235  0.3619
 2383TIP3    H1 7155   2.537   5.188   0.861 -0.2326  0.7315 -0.0934
 2383TIP3    H2 7156   2.624   5.283   0.941 -0.2986  0.9469 -0.2768
 2384TIP3   OH2 7157   2.653   1.725   1.013 -0.2653 -0.5731 -0.2589
 2384TIP3    H1 7158   2.594   1.652   0.994 -0.2360 -0.1583 -2.1269
 2384TIP3    H2 7159   2.595   1.801   1.023 -0.2470 -0.7107  1.0132
 2385TIP3   OH2 7160   4.817   0.546   2.420  0.3488 -0.2859  0.1285
 2385TIP3    H1 7161   4.885   0.589   2.368  1.3904 -1.5053  0.4108
 2385TIP3    H2 7162   4.753   0.515   2.356  2.1358 -2.7136 -0.6631
 2386TIP3   OH2 7163   0.295   3.736   0.899  0.1050 -0.6319 -0.0588
 2386TIP3    H1 7164   0.243   3.686   0.963 -0.8536  0.7872  0.3401
 2386TIP3    H2 7165   0.326   3.671   0.836 -1.0491 -1.7212  0.4550
 2387TIP3   OH2 7166   1.045   5.399   2.504 -0.2219  0.3885  0.1463
 2387TIP3    H1 7167   1.127   5.411   2.552 -0.3509  0.8140  0.2641
 2387TIP3    H2 7168   1.072   5.390   2.413 -0.1412  2.3083 -0.0646
 2388TIP3   OH2 7169   0.150   4.384   5.048 -0.0584  0.6617  0.0973
 2388TIP3    H1 7170   0.175   4.294   5.027  1.0532  1.1766 -0.8950
 2388TIP3    H2 7171   0.096   4.412   4.974  1.3851  1.4924 -0.6915
 2389TIP3   OH2 7172   1.132   2.408   1.854 -0.1391  0.4757 -0.1643
 2389TIP3    H1 7173   1.118   2.337   1.917 -1.8917 -1.1076 -2.1954
 2389TIP3    H2 7174   1.086   2.483   1.892 -2.8461 -0.9702 -0.3667
 2390TIP3   OH2 7175   3.394   1.756   2.143 -0.1038 -0.0302  0.6309
 2390TIP3    H1 7176   3.424   1.683   2.088 -2.2177  0.7636 -1.7669
 2390TIP3    H2 7177   3.301   1.740   2.157  0.1242  0.4000  3.1669
 2391TIP3   OH2 7178   3.109   3.857   3.740 -0.5567 -0.0974 -0.2244
 2391TIP3    H1 7179   3.023   3.897   3.755 -1.5610 -1.2716 -2.4087
 2391TIP3    H2 7180   3.129   3.810   3.821 -0.8810  1.9889  1.1444
 2392TIP3   OH2 7181   3.937   0.724   3.919 -0.3610  0.2965  0.8835
 2392TIP3    H1 7182   3.857   0.770   3.893 -0.7490 -0.9237 -0.1858
 2392TIP3    H2 7183   3.927   0.710   4.013 -1.4135  0.1576  0.7617
 2393TIP3   OH2 7184   6.166   2.689   2.326 -0.2829 -0.0896  0.4211
 2393TIP3    H1 7185   6.131   2.715   2.411 -1.9674 -0.7503 -0.0291
 2393TIP3    H2 7186   6.111   2.734   2.262 -0.1183 -0.9107 -0.3188
 2394TIP3   OH2 7187   0.316   0.878   0.108 -0.4752  0.2582  0.2196
 2394TIP3    H1 7188   0.296   0.885   0.202  3.9709  1.0118  1.3499
 2394TIP3    H2 7189   0.300   0.966   0.074 -2.3090 -0.0687  0.1450
 2395TIP3   OH2 7190   2.996   0.870   0.820 -0.1496  0.2038  0.0552
 2395TIP3    H1 7191   3.063   0.917   0.771 -0.3690  0.9956  0.4976
 2395TIP3    H2 7192   3.038   0.847   0.903 -0.5381  1.0706  0.5064
 2396TIP3   OH2 7193   2.341   2.355   3.741  0.5460  0.6087  0.0051
 2396TIP3    H1 7194   2.316   2.352   3.649  0.2363 -2.2050  0.0889
 2396TIP3    H2 7195   2.259   2.373   3.788 -0.1847 -2.0006 -0.1131
 2397TIP3   OH2 7196   0.727   4.745   1.799  0.5026  0.4762  0.3962
 2397TIP3    H1 7197   0.642   4.770   1.835  1.2850  0.6145  2.2788
 2397TIP3    H2 7198   0.711   4.733   1.705 -1.7398 -0.1907  0.8013
 2398TIP3   OH2 7199   5.037   5.698   0.987 -0.1035  0.2468  0.4705
 2398TIP3    H1 7200   5.070   5.614   1.015 -0.6195  0.0293  0.4476
 2398TIP3    H2 7201   4.957   5.677   0.939 -0.0538  0.7228  0.1710
 2399TIP3   OH2 7202   5.838   3.268   2.977  0.3134 -0.2533  0.3154
 2399TIP3    H1 7203   5.790   3.302   3.052 -0.4907  0.8671 -0.6800
 2399TIP3    H2 7204   5.861   3.345   2.926  0.7970 -1.0078 -0.6374
 2400TIP3   OH2 7205   0.875   0.855   4.923  0.1787  0.1325  0.8054
 2400TIP3    H1 7206   0.902   0.765   4.906  0.2740 -0.0042  1.6337
 2400TIP3    H2 7207   0.839   0.854   5.011 -0.2809  0.8118  0.6379
 2401TIP3   OH2 7208   0.037   4.052   2.628 -0.3993  0.3089 -0.5568
 2401TIP3    H1 7209   0.027   4.055   2.533  0.2053 -0.5807 -0.6568
 2401TIP3    H2 7210  -0.052   4.064   2.662 -0.3977  2.3753 -1.1660
 2402TIP3   OH2 7211   0.124   2.716   2.020 -0.3568 -0.2508  0.1375
 2402TIP3    H1 7212   0.103   2.675   2.104 -0.4231  0.5570  0.5199
 2402TIP3    H2 7213   0.041   2.751   1.989 -0.1119  0.4997  0.3134
 2403TIP3   OH2 7214   3.544   3.018   2.141 -0.0310 -0.0101 -0.2209
 2403TIP3    H1 7215   3.549   2.941   2.197 -0.3914  0.1202 -0.0058
 2403TIP3    H2 7216   3.521   2.983   2.055  0.9490 -0.2545 -0.4035
 2404TIP3   OH2 7217   0.125   1.032   1.462  0.2425  0.4361 -0.4520
 2404TIP3    H1 7218   0.145   0.996   1.375  0.7398 -0.4077 -0.0021
 2404TIP3    H2 7219   0.093   0.957   1.512 -0.6373  1.0447 -0.0754
 2405TIP3   OH2 7220   3.761   2.460   1.901  0.2026  0.0212  0.2087
 2405TIP3    H1 7221   3.833   2.505   1.858  0.5444 -1.1110 -0.4425
 2405TIP3    H2 7222   3.689   2.523   1.900 -0.1351 -0.2530 -2.9241
 2406TIP3   OH2 7223   2.093   4.127   0.897 -0.1776  0.1995 -0.4828
 2406TIP3    H1 7224   2.023   4.109   0.835 -0.7844 -1.8139  0.7233
 2406TIP3    H2 7225   2.161   4.064   0.876 -0.2701 -0.3097  0.6952
 2407TIP3   OH2 7226   4.506   1.450   1.059  0.2774  0.2505 -0.0271
 2407TIP3    H1 7227   4.527   1.454   0.966 -1.7352  2.8660 -0.5054
 2407TIP3    H2 7228   4.431   1.391   1.065  0.1818  0.3649 -0.1084
 2408TIP3   OH2 7229   0.476   2.495   1.740 -0.0087  0.0139 -0.9753
 2408TIP3    H1 7230   0.384   2.516   1.757 -0.7540 -2.4356 -1.5401
 2408TIP3    H2 7231   0.517   2.494   1.827 -1.1633 -1.4059 -0.4025
 2409TIP3   OH2 7232   4.611   0.783   3.128 -0.5204 -0.2958 -0.4319
 2409TIP3    H1 7233   4.679   0.724   3.161 -1.8735 -0.7890  1.6539
 2409TIP3    H2 7234   4.645   0.814   3.044  2.4498 -0.1673  0.7075
 2410TIP3   OH2 7235   4.336   4.964   0.687 -0.3214  0.3042 -0.3014
 2410TIP3    H1 7236   4.280   4.930   0.756  0.6231 -1.3194 -0.2885
 2410TIP3    H2 7237   4.286   4.948   0.606 -0.4078  0.0172 -0.1915
 2411TIP3   OH2 7238   3.025   1.089   0.332 -0.2823 -0.3164 -0.4671
 2411TIP3    H1 7239   3.041   1.008   0.381  2.5036 -0.5691 -1.5768
 2411TIP3    H2 7240   3.094   1.089   0.264 -0.4102  2.8086 -0.7260
 2412TIP3   OH2 7241   4.523   5.227   0.339 -0.4622 -0.3196 -0.5789
 2412TIP3    H1 7242   4.446   5.279   0.359  0.4254  0.6428  0.5025
 2412TIP3    H2 7243   4.544   5.183   0.421  0.9481  0.5792 -0.4103
 2413TIP3   OH2 7244   3.962   1.888   2.341  0.0786 -0.1588 -0.1441
 2413TIP3    H1 7245   3.975   1.976   2.378 -1.1677 -0.4229  1.0012
 2413TIP3    H2 7246   3.875   1.891   2.301  1.0391 -0.1581 -2.3626
 2414TIP3   OH2 7247   5.201   2.119   3.077  0.2248 -0.3764  0.0032
 2414TIP3    H1 7248   5.222   2.162   3.160 -0.3223  0.3783 -0.2421
 2414TIP3    H2 7249   5.111   2.146   3.058  0.7188  0.3860 -1.3982
 2415TIP3   OH2 7250   4.438   5.709   4.287  0.4226 -0.0299  0.0619
 2415TIP3    H1 7251   4.414   5.618   4.302 -0.5679  0.0583 -0.8274
 2415TIP3    H2 7252   4.371   5.741   4.227  2.2372  0.5515 -1.7591
 2416TIP3   OH2 7253   5.778   1.139   2.343 -0.2550  0.5333  0.5731
 2416TIP3    H1 7254   5.687   1.114   2.324 -0.4227  1.6160 -0.1734
 2416TIP3    H2 7255   5.770   1.215   2.400  0.2210 -0.3236  1.7973
 2417TIP3   OH2 7256   6.066   0.682   2.396 -0.2587 -0.0206 -0.4786
 2417TIP3    H1 7257   6.140   0.730   2.357 -0.0866 -1.4499 -1.9981
 2417TIP3    H2 7258   6.042   0.617   2.331 -3.0251  0.5106 -0.1061
 2418TIP3   OH2 7259   5.745   2.978   4.511 -0.0503 -0.3472 -0.3599
 2418TIP3    H1 7260   5.668   2.965   4.456 -1.3768 -2.4651  1.7946
 2418TIP3    H2 7261   5.779   2.890   4.527  1.8223  0.4078  0.1241
 2419TIP3   OH2 7262   0.723   4.376   4.837 -0.1858 -0.0676 -0.3473
 2419TIP3    H1 7263   0.755   4.466   4.845  0.5595 -0.2433 -1.3098
 2419TIP3    H2 7264   0.630   4.382   4.861 -0.3295  1.0985 -1.1051
 2420TIP3   OH2 7265   1.550   1.492   0.017 -0.0648 -0.3925 -1.2232
 2420TIP3    H1 7266   1.637   1.478   0.055 -0.6993 -1.2418  0.0008
 2420TIP3    H2 7267   1.510   1.559   0.073 -0.4002 -0.3989 -1.4516
 2421TIP3   OH2 7268   2.953   3.074   3.277  0.2105 -0.1524  0.5520
 2421TIP3    H1 7269   2.904   3.103   3.200  1.2423 -0.1692 -0.1319
 2421TIP3    H2 7270   3.018   3.144   3.291 -0.7400  0.4526  2.1535
 2422TIP3   OH2 7271   1.495   4.347   2.623  0.3282 -0.1044 -0.5724
 2422TIP3    H1 7272   1.430   4.309   2.683  0.5075  0.1199 -0.2335
 2422TIP3    H2 7273   1.483   4.441   2.632 -0.1640 -0.0732 -1.4684
 2423TIP3   OH2 7274   6.032   1.991   2.374  0.0467  0.0661  0.3326
 2423TIP3    H1 7275   6.076   2.073   2.352 -1.3487  0.9690  0.7732
 2423TIP3    H2 7276   6.063   1.929   2.307 -1.3225  1.7816 -2.0722
 2424TIP3   OH2 7277   2.788   1.622   0.422 -0.3904 -0.2671  0.7510
 2424TIP3    H1 7278   2.808   1.557   0.490 -2.7392 -1.4716  0.4250
 2424TIP3    H2 7279   2.747   1.570   0.353 -0.9725  1.3899 -0.1795
 2425TIP3   OH2 7280   1.440   5.063   0.069 -0.2202  0.2336  0.4783
 2425TIP3    H1 7281   1.422   5.069   0.163 -2.0950  0.3477  0.1504
 2425TIP3    H2 7282   1.353   5.060   0.028  0.5399  1.5497 -1.3529
 2426TIP3   OH2 7283   1.051   0.541   0.964 -0.3577  0.2953 -0.3404
 2426TIP3    H1 7284   1.137   0.516   0.929 -0.9043 -2.0013 -0.1991
 2426TIP3    H2 7285   0.988   0.504   0.901 -1.3337 -2.4799  2.0570
 2427TIP3   OH2 7286   2.183   0.944   4.776  0.2695  0.3317 -0.0966
 2427TIP3    H1 7287   2.235   0.893   4.714  0.6607  0.4179  0.1547
 2427TIP3    H2 7288   2.200   0.903   4.861 -0.0434  0.3885 -0.0046
 2428TIP3   OH2 7289   2.758   5.224   2.991 -0.5422 -0.5602  0.4378
 2428TIP3    H1 7290   2.805   5.219   3.074  1.0609  2.0513 -0.2303
 2428TIP3    H2 7291   2.762   5.135   2.956  0.7893 -1.1823  2.0579
 2429TIP3   OH2 7292   4.561   0.794   4.773  0.0587 -0.0606 -0.2904
 2429TIP3    H1 7293   4.513   0.827   4.849 -2.1274 -1.9590 -0.7536
 2429TIP3    H2 7294   4.644   0.843   4.774  0.4147 -0.4542  3.6643
 2430TIP3   OH2 7295   1.218   0.542   2.712  0.1430  0.0397  0.3528
 2430TIP3    H1 7296   1.190   0.467   2.764  0.3002 -0.1507  0.1659
 2430TIP3    H2 7297   1.309   0.523   2.689  0.8597  1.2168  1.9952
 2431TIP3   OH2 7298   1.679   4.898   0.399 -0.6308  0.5175  0.5823
 2431TIP3    H1 7299   1.723   4.923   0.481 -1.1863  0.8719  0.7741
 2431TIP3    H2 7300   1.743   4.918   0.331 -0.0074 -0.1577  0.9556
 2432TIP3   OH2 7301   2.719   1.423   2.253 -0.6710  0.2213  1.1191
 2432TIP3    H1 7302   2.722   1.517   2.237 -1.9242 -0.0109 -0.8141
 2432TIP3    H2 7303   2.763   1.384   2.177 -1.4249 -0.7934  1.1865
 2433TIP3   OH2 7304   2.570   3.708   4.840  0.3691  0.3449  0.1660
 2433TIP3    H1 7305   2.581   3.614   4.855  0.0356  0.1974 -0.4674
 2433TIP3    H2 7306   2.575   3.747   4.927  1.5110 -0.1523  0.3436
 2434TIP3   OH2 7307   1.577   5.823   2.058 -0.1425  0.0300  0.3856
 2434TIP3    H1 7308   1.613   5.903   2.097 -0.8169  0.1338  0.8153
 2434TIP3    H2 7309   1.639   5.754   2.082 -1.0797 -0.1140  2.6184
 2435TIP3   OH2 7310   5.203   0.121   4.114 -0.5156 -0.3098  0.1347
 2435TIP3    H1 7311   5.108   0.113   4.102 -0.4716  0.2517 -0.6870
 2435TIP3    H2 7312   5.214   0.148   4.205 -1.0796 -1.3668  0.5400
 2436TIP3   OH2 7313   1.833   5.989   3.636 -0.4477  0.5078  0.3426
 2436TIP3    H1 7314   1.918   6.031   3.626 -1.3148  2.1681 -0.5717
 2436TIP3    H2 7315   1.852   5.905   3.677  1.6459  0.7242 -0.0711
 2437TIP3   OH2 7316   5.692   5.849   1.772  0.0894 -0.0808 -0.3364
 2437TIP3    H1 7317   5.636   5.923   1.750  0.7975  0.4721 -0.3408
 2437TIP3    H2 7318   5.645   5.803   1.841 -0.1617  0.6300 -0.0225
 2438TIP3   OH2 7319   0.248   2.678   1.371  0.2621  0.3758  0.1256
 2438TIP3    H1 7320   0.174   2.730   1.400  1.0741  0.3503  2.4331
 2438TIP3    H2 7321   0.320   2.704   1.429  1.0400 -2.3027  0.4889
 2439TIP3   OH2 7322   3.345   5.468   2.904  0.0357 -0.2315  0.2152
 2439TIP3    H1 7323   3.272   5.461   2.843  0.5984  0.2272 -0.5275
 2439TIP3    H2 7324   3.403   5.395   2.881  1.7112  1.5889 -1.8443
 2440TIP3   OH2 7325   6.104   5.946   3.872  0.3897  0.4245  0.3014
 2440TIP3    H1 7326   6.093   5.960   3.778 -1.9657  1.0240  0.6100
 2440TIP3    H2 7327   6.158   6.020   3.900  1.2682  0.1412 -0.5783
 2441TIP3   OH2 7328   1.449   3.051   1.899  0.1111 -0.1013 -0.1571
 2441TIP3    H1 7329   1.496   3.097   1.830  0.1461  0.0307 -0.0451
 2441TIP3    H2 7330   1.507   2.979   1.925 -0.0061 -0.2935 -0.4320
 2442TIP3   OH2 7331   3.561   3.281   0.789 -0.2327  0.0819 -0.0433
 2442TIP3    H1 7332   3.566   3.376   0.798  2.2350 -0.0507  0.6953
 2442TIP3    H2 7333   3.623   3.261   0.718 -0.7865 -0.9750 -0.2364
 2443TIP3   OH2 7334   2.347   5.852   0.218  0.8630 -0.0522 -0.3145
 2443TIP3    H1 7335   2.315   5.762   0.225  0.2804  0.2485  1.1201
 2443TIP3    H2 7336   2.272   5.902   0.187  0.4163  0.3614  1.3836
 2444TIP3   OH2 7337   3.970   2.490   4.878  0.0025  0.1406  0.2321
 2444TIP3    H1 7338   3.941   2.581   4.888 -0.1273  0.1599 -0.3094
 2444TIP3    H2 7339   3.916   2.441   4.940 -0.2718  0.3648  0.1714
 2445TIP3   OH2 7340   4.358   4.736   0.271  0.0916 -0.2768  0.0603
 2445TIP3    H1 7341   4.401   4.731   0.357  1.0516 -0.0783 -0.3915
 2445TIP3    H2 7342   4.395   4.814   0.230 -0.0864 -0.5648 -0.6754
 2446TIP3   OH2 7343   0.382   0.027   1.516 -0.2619 -0.2967  0.7450
 2446TIP3    H1 7344   0.292   0.017   1.485 -0.2732  1.4814  0.0657
 2446TIP3    H2 7345   0.390   0.121   1.536  1.7211 -0.2142 -0.1745
 2447TIP3   OH2 7346   5.959   2.845   3.111  0.4508  0.3139 -0.1335
 2447TIP3    H1 7347   5.949   2.828   3.017 -1.7164 -2.9134  0.5149
 2447TIP3    H2 7348   6.030   2.786   3.139 -0.0687 -0.0292  0.4979
 2448TIP3   OH2 7349   1.458   1.568   1.230 -0.0805 -0.4260  0.2464
 2448TIP3    H1 7350   1.502   1.484   1.236  1.6214  0.5046  1.8655
 2448TIP3    H2 7351   1.382   1.560   1.288 -1.2696 -1.5471 -1.3934
 2449TIP3   OH2 7352   1.617   5.544   2.171 -0.1619 -0.2761 -0.9335
 2449TIP3    H1 7353   1.686   5.505   2.224  1.0091  2.1296 -0.5518
 2449TIP3    H2 7354   1.555   5.579   2.236  0.3371  1.0634 -1.1493
 2450TIP3   OH2 7355   5.798   5.821   5.071 -0.2897 -0.3168  0.3027
 2450TIP3    H1 7356   5.745   5.761   5.019  2.3247 -0.8459 -1.9373
 2450TIP3    H2 7357   5.754   5.906   5.062 -0.2221 -0.4968 -2.4754
 2451TIP3   OH2 7358   2.856   2.787   2.297 -0.0300 -0.5193 -0.8897
 2451TIP3    H1 7359   2.933   2.732   2.283  0.3867 -0.0586 -0.4742
 2451TIP3    H2 7360   2.865   2.817   2.388 -0.1418  0.3853 -1.1699
 2452TIP3   OH2 7361   4.020   2.772   4.753  0.5437  0.6299  0.8792
 2452TIP3    H1 7362   3.942   2.824   4.731 -0.3676 -0.4156  1.5365
 2452TIP3    H2 7363   4.053   2.742   4.668 -0.9743 -0.5793  0.6596
 2453TIP3   OH2 7364   1.172   5.590   4.484  0.5171  0.1699 -0.1889
 2453TIP3    H1 7365   1.129   5.540   4.415 -0.0836  0.0395  0.2629
 2453TIP3    H2 7366   1.114   5.666   4.498 -0.3265 -0.7159  1.3713
 2454TIP3   OH2 7367   3.778   0.266   3.615 -0.7313  0.0763 -0.1050
 2454TIP3    H1 7368   3.807   0.357   3.621 -2.1519  0.7070 -1.7675
 2454TIP3    H2 7369   3.853   0.214   3.643  1.0997  1.6835 -1.7829
 2455TIP3   OH2 7370   4.299   2.718   5.210 -0.0019 -0.6404 -0.0041
 2455TIP3    H1 7371   4.380   2.765   5.194 -0.8505  1.0710  0.4356
 2455TIP3    H2 7372   4.239   2.750   5.143 -0.4136 -1.6139 -0.1079
 2456TIP3   OH2 7373   2.257   1.803   2.171 -0.5601  0.0327 -0.6245
 2456TIP3    H1 7374   2.278   1.768   2.257 -0.7409 -1.0579 -1.0140
 2456TIP3    H2 7375   2.169   1.842   2.181 -1.2910 -1.5325 -0.7003
 2457TIP3   OH2 7376   4.871   2.260   0.566  0.4032 -0.4631 -0.0396
 2457TIP3    H1 7377   4.951   2.296   0.527 -0.4908  2.5211  0.6493
 2457TIP3    H2 7378   4.832   2.207   0.497  0.8433  1.5127 -1.8836
 2458TIP3   OH2 7379   4.590   4.788   0.731 -0.1605 -0.0439  0.1062
 2458TIP3    H1 7380   4.532   4.858   0.761 -2.8031 -0.5629 -3.2482
 2458TIP3    H2 7381   4.567   4.713   0.786 -2.1591 -0.0027 -0.6027
 2459TIP3   OH2 7382   5.031   0.323   0.016 -0.2584  0.6263 -0.1599
 2459TIP3    H1 7383   5.057   0.352   0.103  0.9306  1.4110 -0.7538
 2459TIP3    H2 7384   4.959   0.381  -0.008  0.0907  1.0765 -0.1137
 2460TIP3   OH2 7385   4.054   3.283   2.067 -0.2991 -0.1000 -0.3014
 2460TIP3    H1 7386   4.004   3.361   2.091  1.2692  0.9308 -0.2327
 2460TIP3    H2 7387   4.049   3.281   1.971  2.2063  1.9648 -0.5862
 2461TIP3   OH2 7388   1.174   4.646   0.265 -0.9258  0.6399  0.2388
 2461TIP3    H1 7389   1.199   4.738   0.253 -3.0990  1.3319  0.6471
 2461TIP3    H2 7390   1.125   4.625   0.186  0.9587 -0.7571 -0.6474
 2462TIP3   OH2 7391   1.991   2.436   2.477 -0.5863 -0.1603 -0.2670
 2462TIP3    H1 7392   1.993   2.341   2.468  0.5362 -0.0697 -1.1717
 2462TIP3    H2 7393   1.931   2.452   2.550 -0.2832 -1.5895  0.3291
 2463TIP3   OH2 7394   3.035   3.392   5.115  0.4203  0.2273 -0.2478
 2463TIP3    H1 7395   3.053   3.367   5.024 -2.7072  1.2309 -1.2683
 2463TIP3    H2 7396   3.048   3.311   5.165 -0.5691 -1.1077 -2.0409
 2464TIP3   OH2 7397   6.110   0.337   4.562 -0.1480 -0.1916  0.1661
 2464TIP3    H1 7398   6.089   0.244   4.569  0.8049 -0.4566 -0.1729
 2464TIP3    H2 7399   6.106   0.370   4.651  3.9954 -1.6395  1.1212
 2465TIP3   OH2 7400   1.721   4.748   3.918  0.4302  0.9249  0.0430
 2465TIP3    H1 7401   1.734   4.670   3.864  0.0269  0.9868 -0.1469
 2465TIP3    H2 7402   1.642   4.789   3.883  2.0424  2.8381 -1.5600
 2466TIP3   OH2 7403   2.913   4.936   2.802  0.3692 -0.1112 -0.0311
 2466TIP3    H1 7404   2.966   5.009   2.771  1.5580 -0.4674  1.0989
 2466TIP3    H2 7405   2.916   4.873   2.730 -2.5305  1.7474 -2.0206
 2467TIP3   OH2 7406   4.132   4.437   3.954  0.0840  0.0498  0.4075
 2467TIP3    H1 7407   4.044   4.441   3.918  0.2593 -1.4023 -0.2598
 2467TIP3    H2 7408   4.150   4.343   3.965  0.6828  0.3604  2.7149
 2468TIP3   OH2 7409   0.629   1.173   1.343 -0.2030 -0.1586 -0.3138
 2468TIP3    H1 7410   0.713   1.209   1.318 -0.2834 -1.0277 -1.9635
 2468TIP3    H2 7411   0.573   1.186   1.267 -0.7265 -2.1456 -0.3304
 2469TIP3   OH2 7412   5.010   5.608   3.399 -0.5504  0.5822 -0.0792
 2469TIP3    H1 7413   5.049   5.667   3.463 -0.6488  2.5073 -1.6931
 2469TIP3    H2 7414   5.064   5.619   3.321 -0.5861 -1.5077 -0.4592
 2470TIP3   OH2 7415   1.192   5.435   3.203  0.0318 -0.2922 -0.8069
 2470TIP3    H1 7416   1.223   5.501   3.140  1.8513 -1.4503 -1.1845
 2470TIP3    H2 7417   1.218   5.470   3.288  2.0132 -0.9718 -1.0768
 2471TIP3   OH2 7418   2.810   5.434   4.074  0.6139  0.3180 -0.0524
 2471TIP3    H1 7419   2.829   5.436   4.167 -1.9871  0.5941  0.5282
 2471TIP3    H2 7420   2.864   5.504   4.037  0.8710  0.9142  1.3858
 2472TIP3   OH2 7421   1.027   2.911   3.798  0.6547  0.1992 -0.1138
 2472TIP3    H1 7422   1.038   2.816   3.796 -1.2527 -0.0659 -1.1383
 2472TIP3    H2 7423   1.088   2.943   3.731  0.0756 -0.4986 -1.0082
 2473TIP3   OH2 7424   0.624   4.221   1.859 -0.2875  0.1577 -0.0477
 2473TIP3    H1 7425   0.612   4.138   1.904 -0.7745  0.1109 -0.2596
 2473TIP3    H2 7426   0.719   4.231   1.852 -0.2271 -0.5412 -0.3154
 2474TIP3   OH2 7427   1.650   1.249   4.022  0.0466 -0.2657  0.5786
 2474TIP3    H1 7428   1.684   1.250   4.111 -0.3037 -0.4168  0.7163
 2474TIP3    H2 7429   1.728   1.254   3.966  0.3304 -1.1393  0.8778
 2475TIP3   OH2 7430   0.342   4.760   0.834  0.5155  0.0883  0.1177
 2475TIP3    H1 7431   0.421   4.746   0.783  0.6893 -0.4036  0.5067
 2475TIP3    H2 7432   0.319   4.672   0.866  1.7174  0.6286  2.7574
 2476TIP3   OH2 7433   0.268   0.269   4.359  0.3002 -0.0843 -0.2027
 2476TIP3    H1 7434   0.218   0.232   4.286  0.0046  1.2035 -0.6805
 2476TIP3    H2 7435   0.207   0.271   4.432  0.1932 -0.1544 -0.2903
 2477TIP3   OH2 7436   1.319   3.833   1.629 -0.3803 -0.1004 -0.2247
 2477TIP3    H1 7437   1.334   3.927   1.624 -0.3551 -0.1549 -1.7145
 2477TIP3    H2 7438   1.306   3.815   1.722  1.0312  1.1417  0.2403
 2478TIP3   OH2 7439   4.339   5.421   3.304 -0.2920  0.0627 -0.1329
 2478TIP3    H1 7440   4.404   5.382   3.363 -0.1918  1.5034  0.7674
 2478TIP3    H2 7441   4.346   5.515   3.320 -1.9604  0.3169 -0.6989
 2479TIP3   OH2 7442   5.108   1.528   1.098 -0.4347 -0.1144 -0.2168
 2479TIP3    H1 7443   5.184   1.519   1.156  0.3385  1.8134 -0.8372
 2479TIP3    H2 7444   5.075   1.439   1.088  0.9838 -0.8406  1.0848
 2480TIP3   OH2 7445   1.347   1.633   4.376  0.2665  0.3312  0.5487
 2480TIP3    H1 7446   1.364   1.637   4.282  0.0012  1.0946  0.5298
 2480TIP3    H2 7447   1.253   1.617   4.383  0.2512  0.4906  0.6922
 2481TIP3   OH2 7448   2.439   1.097   2.241 -0.2431  0.2027 -0.0761
 2481TIP3    H1 7449   2.412   1.085   2.332 -0.4025  1.7886  0.1123
 2481TIP3    H2 7450   2.418   1.014   2.199 -0.2702 -0.5219  1.2994
 2482TIP3   OH2 7451   1.027   1.833   2.128 -0.3757  0.2676 -0.4991
 2482TIP3    H1 7452   0.969   1.887   2.182 -0.8588  0.5544 -1.2856
 2482TIP3    H2 7453   1.066   1.895   2.066 -1.9103 -0.4460 -2.2559
 2483TIP3   OH2 7454   5.526   2.550   1.643  0.8392  0.1448 -0.4471
 2483TIP3    H1 7455   5.607   2.599   1.659 -0.1037  1.2658  1.2613
 2483TIP3    H2 7456   5.528   2.531   1.549  1.8612  2.4260 -0.9696
 2484TIP3   OH2 7457   0.418   2.120   1.522 -0.1751 -0.2615 -0.4603
 2484TIP3    H1 7458   0.384   2.199   1.481  0.5684 -0.4615 -1.4980
 2484TIP3    H2 7459   0.500   2.148   1.563  0.6024 -0.6715 -1.6745
 2485TIP3   OH2 7460   3.213   1.105   0.619  0.4978 -0.5810  0.2869
 2485TIP3    H1 7461   3.275   1.040   0.653 -2.0207 -2.3259  1.9546
 2485TIP3    H2 7462   3.178   1.066   0.539  0.1750 -0.5227  0.3963
 2486TIP3   OH2 7463   1.704   4.355   1.711  0.3252 -0.2550  0.2993
 2486TIP3    H1 7464   1.653   4.409   1.771 -2.0697 -1.8282 -0.1373
 2486TIP3    H2 7465   1.675   4.382   1.624  2.2733  0.6157 -0.1365
 2487TIP3   OH2 7466   1.533   0.814   2.818 -0.0135  0.2411  0.4129
 2487TIP3    H1 7467   1.458   0.872   2.813 -0.1412  0.0746  0.3866
 2487TIP3    H2 7468   1.608   0.870   2.799 -0.0451  0.5798  1.2395
 2488TIP3   OH2 7469  -0.001   2.362   1.817 -0.1249 -0.0854 -0.2994
 2488TIP3    H1 7470   0.079   2.413   1.809 -0.0149 -0.4745 -1.8604
 2488TIP3    H2 7471  -0.016   2.326   1.730 -2.5987  0.8720 -0.3466
 2489TIP3   OH2 7472   3.192   2.948   3.396  0.0908 -0.3613  0.2452
 2489TIP3    H1 7473   3.106   2.922   3.363 -0.1384 -0.3124  0.7828
 2489TIP3    H2 7474   3.233   2.865   3.423 -0.5174 -0.2358  1.6712
 2490TIP3   OH2 7475   5.342   5.769   1.738 -0.6816 -0.3585  0.1719
 2490TIP3    H1 7476   5.389   5.718   1.803 -0.3831  2.3398  2.2826
 2490TIP3    H2 7477   5.251   5.739   1.745 -0.2366 -1.8268 -0.0172
 2491TIP3   OH2 7478   3.320   4.855   4.132  0.5018 -0.5648 -0.5001
 2491TIP3    H1 7479   3.263   4.807   4.192  0.2158  0.4307  0.0487
 2491TIP3    H2 7480   3.311   4.946   4.158  0.1560 -0.0690 -2.2479
 2492TIP3   OH2 7481   2.267   4.032   0.216 -0.0030  0.3935 -0.2280
 2492TIP3    H1 7482   2.312   4.117   0.221 -1.1236  1.1503 -2.0335
 2492TIP3    H2 7483   2.330   3.970   0.252  1.0811  1.8999  0.6174
 2493TIP3   OH2 7484   2.314   5.471   5.000  0.3562  0.2927 -0.0001
 2493TIP3    H1 7485   2.230   5.494   4.961  0.9881  1.0341 -1.0053
 2493TIP3    H2 7486   2.292   5.434   5.085 -0.9361  1.5619  0.2642
 2494TIP3   OH2 7487   5.774   5.776   2.310 -0.5011 -0.0409 -0.2263
 2494TIP3    H1 7488   5.760   5.870   2.297 -1.2098 -0.3221 -1.6339
 2494TIP3    H2 7489   5.868   5.764   2.293 -0.7862  0.1241 -2.0759
 2495TIP3   OH2 7490   1.375   1.338   4.012 -0.1265 -0.2615  0.2301
 2495TIP3    H1 7491   1.324   1.259   3.998 -1.2796  0.4084  0.5806
 2495TIP3    H2 7492   1.461   1.306   4.040 -0.9763 -1.3782  1.7021
 2496TIP3   OH2 7493   4.376   3.986   1.037  0.4822  0.3542 -0.2352
 2496TIP3    H1 7494   4.386   3.923   1.109  1.2239  0.4833 -0.2224
 2496TIP3    H2 7495   4.295   4.033   1.058  0.1549 -0.2914 -0.0174
 2497TIP3   OH2 7496   4.424   4.212   1.635  0.3360  0.3917  0.6118
 2497TIP3    H1 7497   4.475   4.132   1.621 -0.6148 -0.2518  0.7816
 2497TIP3    H2 7498   4.432   4.229   1.728 -0.4238 -0.1823  0.7939
 2498TIP3   OH2 7499   5.718   1.997   3.293 -0.1138 -0.2385  0.2142
 2498TIP3    H1 7500   5.677   1.985   3.379  0.1078 -0.6225  0.2658
 2498TIP3    H2 7501   5.668   1.941   3.234 -0.4197  0.2088  0.0411
 2499TIP3   OH2 7502   0.165   5.079   3.138  0.0967 -0.3346 -0.0534
 2499TIP3    H1 7503   0.199   5.167   3.125  0.6645 -0.5750 -0.2068
 2499TIP3    H2 7504   0.083   5.091   3.187  0.0576  0.2895 -0.2705
 2500TIP3   OH2 7505   2.272   5.957   2.449 -0.9534 -0.7344 -0.1828
 2500TIP3    H1 7506   2.203   5.913   2.500 -0.6078  1.0471  2.0038
 2500TIP3    H2 7507   2.248   6.049   2.453  1.0313 -0.1865 -0.2040
 2501TIP3   OH2 7508   5.146   2.178   2.787  0.0039  0.5087  0.7828
 2501TIP3    H1 7509   5.149   2.147   2.878 -0.9380 -1.2204  0.2711
 2501TIP3    H2 7510   5.062   2.147   2.754  0.1412  1.4973 -0.5686
 2502TIP3   OH2 7511   1.390   2.882   3.956  0.6759 -0.0566  0.2212
 2502TIP3    H1 7512   1.320   2.843   4.009  1.7083 -0.5660  1.2675
 2502TIP3    H2 7513   1.421   2.811   3.901  1.5708 -0.3530  1.0735
 2503TIP3   OH2 7514   4.081   0.259   4.136  0.2440 -0.0391 -0.1390
 2503TIP3    H1 7515   4.045   0.257   4.047 -0.7219  0.9589  0.2128
 2503TIP3    H2 7516   4.165   0.213   4.128 -0.0454 -0.4018 -1.4571
 2504TIP3   OH2 7517   1.830   2.329   0.256 -0.3948 -0.3153  0.2308
 2504TIP3    H1 7518   1.867   2.385   0.188  1.1829 -2.4060 -0.7610
 2504TIP3    H2 7519   1.902   2.319   0.319 -1.4212  0.5771  1.5906
 2505TIP3   OH2 7520   4.578   5.369   2.558  0.0189  0.2465 -0.2918
 2505TIP3    H1 7521   4.563   5.460   2.585 -1.1141  0.6239 -1.9957
 2505TIP3    H2 7522   4.493   5.326   2.571  0.0556 -0.1010 -1.1484
 2506TIP3   OH2 7523   2.156   3.865   0.035  0.2156 -0.1656  0.1711
 2506TIP3    H1 7524   2.187   3.916   0.110 -0.0231  1.4954 -0.8386
 2506TIP3    H2 7525   2.100   3.924  -0.013 -0.0491 -1.3841 -1.0632
 2507TIP3   OH2 7526   3.757   4.776   0.634 -0.2405 -0.1579 -0.0691
 2507TIP3    H1 7527   3.673   4.810   0.602  0.1375 -0.6470 -1.6697
 2507TIP3    H2 7528   3.809   4.762   0.555  1.6464  0.8548  0.9337
 2508TIP3   OH2 7529   5.703   5.301   3.572 -0.1811  0.0110 -0.0401
 2508TIP3    H1 7530   5.722   5.395   3.576  0.8086 -0.1899  0.2089
 2508TIP3    H2 7531   5.667   5.280   3.658 -2.0242  0.4724 -0.6454
 2509TIP3   OH2 7532   3.288   1.125   3.406  0.3526  0.1743 -0.3136
 2509TIP3    H1 7533   3.326   1.126   3.494  0.8321  0.5224 -0.5230
 2509TIP3    H2 7534   3.229   1.050   3.407  2.0412 -1.2190 -0.3987
 2510TIP3   OH2 7535   0.809   0.570   1.073 -0.0765  0.1138  0.3385
 2510TIP3    H1 7536   0.750   0.596   1.003  0.3910  0.4067  0.0438
 2510TIP3    H2 7537   0.894   0.558   1.029 -0.0473 -0.9003  0.6425
 2511TIP3   OH2 7538   4.506   5.002   3.640 -0.7036  0.2641 -0.3433
 2511TIP3    H1 7539   4.498   5.076   3.700  0.5185 -0.3010  0.5679
 2511TIP3    H2 7540   4.578   5.026   3.582 -1.3272  0.4448 -1.0473
 2512TIP3   OH2 7541   3.335   0.937   4.515 -0.5332 -0.0313  0.2547
 2512TIP3    H1 7542   3.271   1.003   4.487 -0.9636 -0.4148  0.3328
 2512TIP3    H2 7543   3.282   0.861   4.538 -0.0517 -0.3193  0.4072
 2513TIP3   OH2 7544   1.035   1.589   2.451  0.4637 -0.2194 -0.2145
 2513TIP3    H1 7545   1.018   1.682   2.470  0.6058  0.1743 -1.8676
 2513TIP3    H2 7546   1.004   1.543   2.529 -0.3644  1.1499  0.3091
 2514TIP3   OH2 7547   3.332   4.145   0.342 -0.6624 -0.4427 -0.2932
 2514TIP3    H1 7548   3.295   4.125   0.256 -0.1500  0.2441 -0.6885
 2514TIP3    H2 7549   3.395   4.075   0.358 -2.4452 -1.9181  0.6242
 2515TIP3   OH2 7550   2.503   3.500   0.736 -0.0447  0.0535 -0.2123
 2515TIP3    H1 7551   2.582   3.551   0.753  1.3847 -2.1779  0.2615
 2515TIP3    H2 7552   2.493   3.501   0.641  1.5723 -0.9799 -0.4340
 2516TIP3   OH2 7553   6.245   4.827   1.999  0.2052 -0.0534  0.1177
 2516TIP3    H1 7554   6.267   4.773   1.922  0.5711 -0.0995  0.2510
 2516TIP3    H2 7555   6.192   4.770   2.054  1.0559 -0.4783  0.5195
 2517TIP3   OH2 7556   1.844   2.609   4.034 -0.1454  0.1178 -0.3189
 2517TIP3    H1 7557   1.799   2.526   4.048 -0.9285  0.2506 -1.8494
 2517TIP3    H2 7558   1.775   2.676   4.044  0.4758  0.6208  0.9102
 2518TIP3   OH2 7559   4.143   0.323   2.841 -0.1530 -0.4291 -0.4487
 2518TIP3    H1 7560   4.117   0.256   2.779 -2.0245  0.8437 -1.1032
 2518TIP3    H2 7561   4.125   0.285   2.927 -1.6003 -0.6325 -0.8247
 2519TIP3   OH2 7562   5.864   2.079   3.696  0.6357 -0.4467 -0.4497
 2519TIP3    H1 7563   5.895   1.988   3.693 -0.4913 -0.8728  0.1695
 2519TIP3    H2 7564   5.785   2.075   3.750  1.4613  1.1708  0.9741
 2520TIP3   OH2 7565   1.368   0.328   1.450  0.1322 -0.1554  0.0796
 2520TIP3    H1 7566   1.324   0.367   1.374  1.2992  2.3425  0.5967
 2520TIP3    H2 7567   1.431   0.266   1.413 -1.5307 -1.4301 -0.7822
 2521TIP3   OH2 7568   5.011   3.630   4.512 -0.4557 -0.1187 -0.5083
 2521TIP3    H1 7569   4.987   3.538   4.523  1.2753 -0.6213 -0.6311
 2521TIP3    H2 7570   5.088   3.628   4.456  0.5084  1.3066  0.6793
 2522TIP3   OH2 7571   0.056   5.623   3.367  0.4750  0.0116 -0.4682
 2522TIP3    H1 7572   0.023   5.627   3.456  1.8659 -2.0034  0.1973
 2522TIP3    H2 7573   0.026   5.539   3.333  0.8939  0.2602 -1.5044
 2523TIP3   OH2 7574   3.021   3.741   4.823  0.1848  0.4680  0.7150
 2523TIP3    H1 7575   3.113   3.722   4.841  0.5080  0.8947 -0.4319
 2523TIP3    H2 7576   3.020   3.777   4.735 -1.0970  0.4145  0.6844
 2524TIP3   OH2 7577   5.506   3.385   0.676 -0.1605  0.1704 -0.3953
 2524TIP3    H1 7578   5.509   3.472   0.637  1.2294  1.0999  1.5919
 2524TIP3    H2 7579   5.441   3.337   0.625  0.8050  1.5739 -3.1039
 2525TIP3   OH2 7580   4.162   0.904   3.751  0.1524  0.1942  0.2766
 2525TIP3    H1 7581   4.070   0.913   3.773 -0.3351 -0.1250 -1.4945
 2525TIP3    H2 7582   4.208   0.921   3.833 -1.5257 -1.3843  1.6347
 2526TIP3   OH2 7583   1.423   0.746   1.198 -0.4390  0.2381 -0.1784
 2526TIP3    H1 7584   1.427   0.771   1.106  0.3970  0.9077  0.0269
 2526TIP3    H2 7585   1.340   0.783   1.229  0.0878  1.5236 -0.2435
 2527TIP3   OH2 7586   4.240   5.656   0.690  0.0312  0.4848  0.0764
 2527TIP3    H1 7587   4.206   5.739   0.657  0.3589  0.7169  0.3128
 2527TIP3    H2 7588   4.332   5.656   0.666 -0.2927 -0.5131 -1.2960
 2528TIP3   OH2 7589   3.390   0.759   3.705 -0.1105  0.4223 -0.4715
 2528TIP3    H1 7590   3.460   0.696   3.687  0.5179  1.0118 -0.1545
 2528TIP3    H2 7591   3.420   0.806   3.783 -1.0041  0.4863 -0.1543
 2529TIP3   OH2 7592   2.649   2.179   4.434  0.0107  0.2972 -0.3112
 2529TIP3    H1 7593   2.737   2.175   4.398  0.9106  1.3260  1.5973
 2529TIP3    H2 7594   2.656   2.241   4.507 -1.8759 -0.8944  0.9877
 2530TIP3   OH2 7595   4.999   4.108   1.847  0.1895  0.0099  0.0523
 2530TIP3    H1 7596   5.047   4.125   1.766 -1.0810 -1.2549 -1.0302
 2530TIP3    H2 7597   4.995   4.012   1.852  0.0197  0.0758  1.4862
 2531TIP3   OH2 7598   5.696   2.607   4.498 -0.4031 -0.4229  0.0328
 2531TIP3    H1 7599   5.771   2.650   4.540  0.1663  0.2601 -1.5891
 2531TIP3    H2 7600   5.682   2.658   4.418 -1.5307 -1.5809 -0.5281
 2532TIP3   OH2 7601   1.409   3.725   1.308  0.3833 -0.0039 -0.0388
 2532TIP3    H1 7602   1.328   3.695   1.348  1.0485 -0.0499  1.3178
 2532TIP3    H2 7603   1.382   3.763   1.224 -0.8290 -1.4641 -0.3429
 2533TIP3   OH2 7604   2.333   0.587   2.550  0.1473  0.5917 -0.1017
 2533TIP3    H1 7605   2.422   0.551   2.542  0.1417  0.3570  0.8054
 2533TIP3    H2 7606   2.281   0.513   2.581 -0.1978  0.9461  0.1652
 2534TIP3   OH2 7607  -0.025   0.302   3.322  0.0865 -0.3268  0.0419
 2534TIP3    H1 7608   0.045   0.301   3.257 -0.2486 -1.2410 -0.3248
 2534TIP3    H2 7609   0.007   0.244   3.391  0.4778  0.7038  0.7544
 2535TIP3   OH2 7610   5.491   0.765   0.345 -0.5502  0.5287 -0.0342
 2535TIP3    H1 7611   5.562   0.711   0.310 -0.4418  0.6050  0.0694
 2535TIP3    H2 7612   5.533   0.847   0.369 -0.4658  0.1761  1.0664
 2536TIP3   OH2 7613   0.748   0.531   4.266 -0.0651 -0.5983 -0.4923
 2536TIP3    H1 7614   0.708   0.581   4.337 -0.3120 -1.3176 -0.1153
 2536TIP3    H2 7615   0.746   0.441   4.297 -2.0586 -1.2248 -2.2564
 2537TIP3   OH2 7616   0.291   3.918   1.394 -0.1393 -0.0236  0.4483
 2537TIP3    H1 7617   0.206   3.950   1.425  0.1168  0.5706  0.5462
 2537TIP3    H2 7618   0.351   3.990   1.410  0.7613 -1.0564  2.0183
 2538TIP3   OH2 7619   6.080   4.621   1.244  0.1106  0.3599  0.2207
 2538TIP3    H1 7620   6.133   4.683   1.296  1.8027 -1.2280  0.4788
 2538TIP3    H2 7621   6.132   4.541   1.242 -2.3546 -1.3457  0.5384
 2539TIP3   OH2 7622   3.572   1.005   4.664 -0.0646  0.0681 -0.1367
 2539TIP3    H1 7623   3.502   0.978   4.605 -1.2781  0.9598  0.8483
 2539TIP3    H2 7624   3.546   1.092   4.695  0.2980 -0.5226  2.0354
 2540TIP3   OH2 7625   6.348   3.997   0.030  0.3058  0.6755 -0.0145
 2540TIP3    H1 7626   6.293   3.975  -0.045 -0.1920  0.1813  0.4838
 2540TIP3    H2 7627   6.335   3.924   0.091  1.5904  0.5001  0.0689
 2541TIP3   OH2 7628   3.592   5.362   1.193  0.3824  0.3438 -0.1760
 2541TIP3    H1 7629   3.530   5.310   1.244 -0.7608  1.7826 -0.0557
 2541TIP3    H2 7630   3.672   5.310   1.194  0.1168 -0.1430  2.2464
 2542TIP3   OH2 7631   0.182   4.638   2.819  0.2800 -0.2908  0.5412
 2542TIP3    H1 7632   0.102   4.620   2.769 -0.8256  2.5822  1.0418
 2542TIP3    H2 7633   0.165   4.723   2.860  2.7572 -0.6272  2.4937
 2543TIP3   OH2 7634   0.472   2.262   5.031  0.1124 -0.1723 -0.0020
 2543TIP3    H1 7635   0.408   2.255   4.960 -0.8260  1.2140  0.6634
 2543TIP3    H2 7636   0.475   2.356   5.051  2.1216 -0.2406  0.2171
 2544TIP3   OH2 7637   0.729   0.426   4.597 -0.3950 -0.2951  0.5510
 2544TIP3    H1 7638   0.744   0.452   4.688  0.0913 -0.8900  0.6413
 2544TIP3    H2 7639   0.644   0.381   4.598 -0.1051 -0.8402  0.8212
 2545TIP3   OH2 7640   6.067   4.581   3.514  0.5509  0.4621 -0.4694
 2545TIP3    H1 7641   6.015   4.652   3.478  1.2316  0.6604 -1.0759
 2545TIP3    H2 7642   6.102   4.616   3.596  1.2998  1.0261 -1.0136
 2546TIP3   OH2 7643   2.362   3.709   2.467  0.3711 -0.3876 -0.0329
 2546TIP3    H1 7644   2.425   3.649   2.429 -0.1983 -0.5547 -0.7365
 2546TIP3    H2 7645   2.278   3.664   2.460  0.2598 -0.5442  1.6774
 2547TIP3   OH2 7646   2.312   5.357   3.415  0.0661  0.9009 -0.3760
 2547TIP3    H1 7647   2.340   5.365   3.324 -0.3798  2.2020 -0.4165
 2547TIP3    H2 7648   2.366   5.286   3.450 -0.2812 -0.1433 -1.8434
 2548TIP3   OH2 7649   4.807   4.112   2.215  0.1092  0.0695  0.6263
 2548TIP3    H1 7650   4.739   4.067   2.264 -0.9746 -0.5379 -1.3118
 2548TIP3    H2 7651   4.866   4.042   2.186 -1.0213 -0.0814 -1.5406
 2549TIP3   OH2 7652   3.748   5.650   1.873 -0.6682 -0.0530  0.0976
 2549TIP3    H1 7653   3.745   5.734   1.827 -1.7695 -0.3023 -0.3126
 2549TIP3    H2 7654   3.836   5.647   1.911 -0.1209  0.6657 -1.0402
 2550TIP3   OH2 7655   1.410   2.228   1.366 -0.7143  0.5007  0.6086
 2550TIP3    H1 7656   1.462   2.249   1.443  0.9368 -0.6506 -0.1186
 2550TIP3    H2 7657   1.446   2.284   1.297  0.1650 -0.8701 -0.0893
 2551TIP3   OH2 7658   0.700   4.713   4.315  0.0231 -0.4338 -0.2178
 2551TIP3    H1 7659   0.683   4.619   4.316 -0.8545 -0.2795 -0.4881
 2551TIP3    H2 7660   0.614   4.754   4.326  0.5279  0.3312  1.3069
 2552TIP3   OH2 7661   2.931   3.039   2.168 -0.3368 -0.1989  0.1295
 2552TIP3    H1 7662   2.943   3.060   2.260 -1.5101  0.7125  0.0942
 2552TIP3    H2 7663   2.993   3.096   2.122 -1.2636  0.9366  0.2395
 2553TIP3   OH2 7664   3.908   0.560   0.344 -0.2387 -0.0937 -0.2311
 2553TIP3    H1 7665   3.971   0.602   0.286 -1.1799 -0.3375 -1.4729
 2553TIP3    H2 7666   3.839   0.625   0.356  0.2126  0.1642  1.0988
 2554TIP3   OH2 7667   1.275   2.303   2.618  0.1339  0.3327  0.2964
 2554TIP3    H1 7668   1.209   2.352   2.568 -0.1309  0.3915  0.6968
 2554TIP3    H2 7669   1.259   2.212   2.594  1.3562  0.4994 -1.3181
 2555TIP3   OH2 7670   0.768   4.579   1.078 -0.0090  0.1449 -0.0174
 2555TIP3    H1 7671   0.788   4.559   0.987  0.0644 -0.9328  0.2264
 2555TIP3    H2 7672   0.719   4.503   1.110  1.8652 -0.5152  1.4591
 2556TIP3   OH2 7673   2.996   5.465   4.720  0.2775  0.4741  0.2583
 2556TIP3    H1 7674   2.970   5.442   4.631  1.3886  0.8739 -0.1944
 2556TIP3    H2 7675   2.915   5.488   4.764 -0.1243  1.9435 -1.1569
 2557TIP3   OH2 7676   5.461   0.370   2.329 -0.7545  0.0583  0.5365
 2557TIP3    H1 7677   5.409   0.344   2.253 -2.2163  0.8942  1.2200
 2557TIP3    H2 7678   5.403   0.424   2.381  0.7539  0.8792  1.4399
 2558TIP3   OH2 7679   2.406   2.027   2.073  0.4482 -0.6552 -0.4211
 2558TIP3    H1 7680   2.347   1.953   2.086  0.6540 -0.9291 -1.0258
 2558TIP3    H2 7681   2.431   2.053   2.162 -1.0182 -0.1615 -0.1150
 2559TIP3   OH2 7682   5.480   5.788   1.346  0.1763  0.1122 -0.3741
 2559TIP3    H1 7683   5.454   5.712   1.398 -0.6165  0.9783  0.5241
 2559TIP3    H2 7684   5.430   5.780   1.264  0.2166 -0.4106 -0.3490
 2560TIP3   OH2 7685   2.967   4.286   5.040  0.4395  0.2850 -0.4995
 2560TIP3    H1 7686   3.002   4.375   5.029 -0.6018  1.2989  2.9662
 2560TIP3    H2 7687   2.873   4.296   5.032  0.0830  0.1322  2.2821
 2561TIP3   OH2 7688   2.129   3.284   2.997  0.2659  0.4898  0.3971
 2561TIP3    H1 7689   2.082   3.351   3.048 -0.3516  1.4170 -1.3135
 2561TIP3    H2 7690   2.181   3.334   2.935  0.6158 -0.6213 -0.2180
 2562TIP3   OH2 7691   5.333   5.229   3.716  0.1875  0.1016  0.1450
 2562TIP3    H1 7692   5.418   5.268   3.736  0.1399  0.3066 -0.0399
 2562TIP3    H2 7693   5.352   5.138   3.696  0.2089 -0.1675  1.3261
 2563TIP3   OH2 7694   4.424   0.458   4.158 -0.1133 -0.7864 -0.0584
 2563TIP3    H1 7695   4.348   0.493   4.112  1.3107  0.4156 -1.6174
 2563TIP3    H2 7696   4.488   0.440   4.089  1.4404 -0.7052  1.2955
 2564TIP3   OH2 7697   4.116   5.358   4.790 -0.2460 -0.2889 -0.3851
 2564TIP3    H1 7698   4.045   5.329   4.732  1.3522 -2.1981 -1.4958
 2564TIP3    H2 7699   4.087   5.334   4.878 -1.2147 -0.5156 -0.7566
 2565TIP3   OH2 7700   3.884   1.286   1.684 -0.1810 -0.1865 -0.1726
 2565TIP3    H1 7701   3.965   1.311   1.729  0.5521  0.3715 -1.7474
 2565TIP3    H2 7702   3.886   1.191   1.680  0.0138 -0.2135  0.4453
 2566TIP3   OH2 7703   3.322   4.966   3.638  0.1589  0.2363  0.3613
 2566TIP3    H1 7704   3.289   5.006   3.718 -2.3318 -0.7171 -0.1092
 2566TIP3    H2 7705   3.251   4.911   3.607  1.4030 -0.1874 -2.0154
 2567TIP3   OH2 7706   0.906   3.896   0.531 -0.3675  0.4633 -0.2479
 2567TIP3    H1 7707   0.943   3.973   0.487  2.0135  1.2203  2.7868
 2567TIP3    H2 7708   0.959   3.822   0.499 -1.2650  0.3165 -1.5210
 2568TIP3   OH2 7709   1.165   0.493   0.365  0.3656  0.3409  0.5654
 2568TIP3    H1 7710   1.190   0.462   0.278 -0.3828  0.5947  0.2519
 2568TIP3    H2 7711   1.185   0.420   0.424  1.1485  0.2777  0.2268
 2569TIP3   OH2 7712   5.277   4.779   0.597 -0.2291  0.0373  0.4972
 2569TIP3    H1 7713   5.240   4.865   0.612 -0.6802 -0.0989  0.1825
 2569TIP3    H2 7714   5.216   4.718   0.641 -1.2501 -0.3157 -1.3253
 2570TIP3   OH2 7715   1.957   4.809   3.198 -0.0748 -0.3120  0.2877
 2570TIP3    H1 7716   1.998   4.814   3.112  0.7194 -0.5142  0.6500
 2570TIP3    H2 7717   2.008   4.744   3.246 -0.8704 -0.6346  0.7262
 2571TIP3   OH2 7718   4.330   2.005   3.274 -0.3042 -0.2585  0.1348
 2571TIP3    H1 7719   4.255   2.049   3.234 -0.2029 -0.3440 -0.1473
 2571TIP3    H2 7720   4.405   2.033   3.222  0.1990  1.6043  1.7414
 2572TIP3   OH2 7721   1.255   4.066   2.319 -0.5789 -0.3808  0.2616
 2572TIP3    H1 7722   1.336   4.019   2.334 -0.6899 -0.7949 -0.4153
 2572TIP3    H2 7723   1.221   4.031   2.237 -1.0157  0.3852  0.1024
 2573TIP3   OH2 7724   1.237   0.953   2.299  0.1603 -0.2457 -0.5866
 2573TIP3    H1 7725   1.217   0.993   2.384  0.7378 -0.1782 -0.4744
 2573TIP3    H2 7726   1.323   0.989   2.276 -0.2371  0.1613 -1.4624
 2574TIP3   OH2 7727   3.530   1.398   0.048 -0.0185 -0.0407 -0.5082
 2574TIP3    H1 7728   3.601   1.461   0.057  0.3853 -0.5885  0.2838
 2574TIP3    H2 7729   3.471   1.416   0.121 -0.6800  0.3746 -1.1287
 2575TIP3   OH2 7730   0.423   0.881   3.808 -0.2580 -0.1762  0.4989
 2575TIP3    H1 7731   0.400   0.907   3.719 -1.5626 -0.6914  0.6643
 2575TIP3    H2 7732   0.354   0.920   3.863  0.5671  0.1919  1.2949
 2576TIP3   OH2 7733   0.007   5.437   0.490 -0.2637 -0.0182 -0.1165
 2576TIP3    H1 7734   0.044   5.508   0.542 -0.3127  2.1275 -2.7841
 2576TIP3    H2 7735   0.062   5.433   0.412 -1.6457 -1.3757 -1.0785
 2577TIP3   OH2 7736   0.277   2.422   3.664  0.0283 -0.1219  0.1801
 2577TIP3    H1 7737   0.312   2.484   3.600  0.4886 -1.3480 -0.8036
 2577TIP3    H2 7738   0.183   2.440   3.666  0.0725  0.2288 -0.5262
 2578TIP3   OH2 7739   4.373   2.537   3.071 -0.1463  0.3422  0.2798
 2578TIP3    H1 7740   4.280   2.513   3.062  0.0626 -1.1832  1.6292
 2578TIP3    H2 7741   4.421   2.463   3.034  0.5182  0.1968  1.3672
 2579TIP3   OH2 7742   4.161   2.857   3.686 -0.1870 -0.5194  0.0881
 2579TIP3    H1 7743   4.187   2.801   3.760  1.1763 -1.5730 -1.1410
 2579TIP3    H2 7744   4.218   2.934   3.693 -1.4637  0.3804  1.2671
 2580TIP3   OH2 7745   3.285   1.819   0.507 -0.0192 -0.1673  1.2417
 2580TIP3    H1 7746   3.220   1.750   0.517 -1.5109  1.1151  0.7280
 2580TIP3    H2 7747   3.245   1.897   0.547  1.1144  0.7109  0.7455
 2581TIP3   OH2 7748   0.759   3.314   0.803  0.5219 -0.4892 -0.0215
 2581TIP3    H1 7749   0.673   3.357   0.800  1.5687  1.9007  1.2810
 2581TIP3    H2 7750   0.781   3.311   0.896  1.0781 -2.8332 -0.1676
 2582TIP3   OH2 7751   2.265   3.285   1.728 -0.1164  0.3866  0.3554
 2582TIP3    H1 7752   2.219   3.295   1.645 -0.3103 -0.6022  0.3423
 2582TIP3    H2 7753   2.273   3.375   1.761 -0.7266  0.7120 -0.3505
 2583TIP3   OH2 7754   4.573   3.306   2.421 -0.1288 -0.2307 -0.0770
 2583TIP3    H1 7755   4.574   3.351   2.505  1.5205 -0.3189 -0.0089
 2583TIP3    H2 7756   4.576   3.213   2.444 -0.1277 -0.2699 -0.2344
 2584TIP3   OH2 7757   5.098   0.698   0.664  0.1010 -0.6938  0.0577
 2584TIP3    H1 7758   5.004   0.713   0.662  0.4493  1.7967 -0.5540
 2584TIP3    H2 7759   5.120   0.671   0.575  0.2223  0.8824 -0.4222
 2585TIP3   OH2 7760   3.030   2.818   0.733 -0.3009  0.1068 -0.3358
 2585TIP3    H1 7761   2.961   2.823   0.668  0.3267  0.7959 -0.9708
 2585TIP3    H2 7762   3.011   2.739   0.783 -0.6861 -0.5342 -1.4745
 2586TIP3   OH2 7763   0.735   2.416   5.084  0.0125  0.1900 -0.1248
 2586TIP3    H1 7764   0.645   2.384   5.080  0.4928 -1.3597  0.8230
 2586TIP3    H2 7765   0.769   2.401   4.996 -0.3089 -0.2863 -0.1705
 2587TIP3   OH2 7766   4.665   2.872   0.521  0.2146 -0.2089  0.1982
 2587TIP3    H1 7767   4.665   2.793   0.575  0.9019  0.0532  0.5990
 2587TIP3    H2 7768   4.755   2.880   0.489 -0.0345 -0.0105 -0.4795
 2588TIP3   OH2 7769   5.639   5.753   1.061  0.0777  0.3516 -0.7101
 2588TIP3    H1 7770   5.579   5.819   1.025  1.4607  1.6641 -0.7079
 2588TIP3    H2 7771   5.673   5.793   1.141 -1.4594 -1.7163  1.1185
 2589TIP3   OH2 7772   5.570   3.688   0.977  0.2788  0.3233 -0.3228
 2589TIP3    H1 7773   5.580   3.608   0.925 -3.3957 -0.9741  0.6820
 2589TIP3    H2 7774   5.614   3.669   1.060 -0.7473 -0.7482 -0.0182
 2590TIP3   OH2 7775   5.180   0.319   4.970  0.4466 -0.3253  0.0744
 2590TIP3    H1 7776   5.224   0.369   5.039 -1.3776 -0.6051  1.5202
 2590TIP3    H2 7777   5.215   0.230   4.977  2.0267  0.1753 -1.0018
 2591TIP3   OH2 7778   3.440   3.244   0.476 -0.4559 -0.7216 -0.2308
 2591TIP3    H1 7779   3.399   3.267   0.560  1.9829 -1.0438  1.1677
 2591TIP3    H2 7780   3.375   3.190   0.431 -2.8154  1.4496  0.3182
 2592TIP3   OH2 7781   5.736   4.900   3.170 -0.1280 -0.1851  0.1832
 2592TIP3    H1 7782   5.755   4.906   3.077 -2.3653  0.7363 -0.2777
 2592TIP3    H2 7783   5.687   4.979   3.190 -1.8621 -1.5120  1.5682
 2593TIP3   OH2 7784   4.487   5.065   4.710  0.0059 -0.4399 -0.0508
 2593TIP3    H1 7785   4.511   5.148   4.668 -0.5862 -0.0260  0.3907
 2593TIP3    H2 7786   4.399   5.082   4.745 -1.0031 -1.9160 -1.7285
 2594TIP3   OH2 7787   1.549   3.235   2.986 -0.2136 -0.1808 -0.5298
 2594TIP3    H1 7788   1.505   3.158   2.951  1.0360 -2.6456  2.8084
 2594TIP3    H2 7789   1.567   3.213   3.077  3.1553  2.7719 -0.2698
 2595TIP3   OH2 7790   4.823   2.730   1.661 -0.5764 -0.1097  0.1399
 2595TIP3    H1 7791   4.832   2.758   1.570  4.8967  4.2192  1.4390
 2595TIP3    H2 7792   4.869   2.646   1.665 -1.8875 -0.9316 -1.1295
 2596TIP3   OH2 7793   1.820   5.054   3.235  0.6566  0.5259  0.1772
 2596TIP3    H1 7794   1.866   5.136   3.254  1.1995  0.3919 -0.5053
 2596TIP3    H2 7795   1.889   4.995   3.202  0.0007  0.3420 -0.9309
 2597TIP3   OH2 7796   2.000   2.589   4.711  0.2025  0.8164 -0.1189
 2597TIP3    H1 7797   2.025   2.497   4.716 -0.1587  0.7754  1.2671
 2597TIP3    H2 7798   1.945   2.594   4.632 -0.5506 -0.3557  0.2999
 2598TIP3   OH2 7799   4.579   3.105   3.811  0.0833 -0.6418 -0.3429
 2598TIP3    H1 7800   4.655   3.082   3.864  1.1391  3.3705  0.2157
 2598TIP3    H2 7801   4.616   3.147   3.733 -1.5730 -2.0720 -2.0055
 2599TIP3   OH2 7802   2.636   0.648   1.030 -0.1441  0.0277  0.6188
 2599TIP3    H1 7803   2.643   0.672   1.123 -2.7396  0.6427  0.7370
 2599TIP3    H2 7804   2.711   0.590   1.015  1.5631  1.5734  2.5193
 2600TIP3   OH2 7805   1.496   5.026   4.018  0.6871  0.0216 -0.2087
 2600TIP3    H1 7806   1.457   5.015   3.931  1.2089  1.7535 -0.6822
 2600TIP3    H2 7807   1.571   5.083   4.004  0.9920  0.0314  1.3328
 2601TIP3   OH2 7808   5.927   3.527   2.889  0.7397 -0.5310  0.4468
 2601TIP3    H1 7809   5.977   3.598   2.930 -0.0995  0.9546 -0.9798
 2601TIP3    H2 7810   5.967   3.517   2.803 -0.2515 -0.5927 -0.0126
 2602TIP3   OH2 7811   1.537   4.429   0.602 -0.4515 -0.8595  0.3437
 2602TIP3    H1 7812   1.546   4.416   0.696  1.4246  0.1567  0.3558
 2602TIP3    H2 7813   1.550   4.523   0.589  2.9084 -1.3741 -1.1709
 2603TIP3   OH2 7814   5.470   2.263   4.793  0.1877 -0.4069 -0.6100
 2603TIP3    H1 7815   5.513   2.342   4.761 -0.3519  0.3349  0.4554
 2603TIP3    H2 7816   5.541   2.208   4.825  0.4632  0.1878 -0.1918
 2604TIP3   OH2 7817   1.632   1.000   1.419 -0.8811 -0.0897 -0.1926
 2604TIP3    H1 7818   1.558   0.944   1.444 -1.5867  1.1124  0.4909
 2604TIP3    H2 7819   1.670   0.956   1.343 -1.3416 -1.5592  0.3829
 2605TIP3   OH2 7820   5.397   3.787   1.161 -0.1901  0.6139 -1.0338
 2605TIP3    H1 7821   5.466   3.776   1.096  0.3936 -0.4043 -0.2659
 2605TIP3    H2 7822   5.337   3.715   1.145 -1.0573  1.4391 -1.6365
 2606TIP3   OH2 7823   2.024   0.197   5.072 -0.1432  0.0979  0.2968
 2606TIP3    H1 7824   2.063   0.111   5.087  1.5535  0.7911  0.0340
 2606TIP3    H2 7825   1.937   0.178   5.037 -0.2141 -1.4939  1.2482
 2607TIP3   OH2 7826   4.820   3.452   3.086  0.6335 -0.2320  0.3611
 2607TIP3    H1 7827   4.761   3.462   3.161  1.8542 -1.0094  1.4803
 2607TIP3    H2 7828   4.893   3.402   3.121  0.9472 -1.1605 -1.5417
 2608TIP3   OH2 7829   5.708   1.569   2.261  0.2072 -0.3389  0.5480
 2608TIP3    H1 7830   5.643   1.532   2.201  0.7764  1.2131 -1.1352
 2608TIP3    H2 7831   5.658   1.592   2.339 -0.7627 -1.5316  0.2984
 2609TIP3   OH2 7832   1.340   1.423   2.997 -0.9160 -0.2059 -0.7135
 2609TIP3    H1 7833   1.371   1.473   2.922  0.4217  0.3538  0.1689
 2609TIP3    H2 7834   1.393   1.343   2.995 -0.5517  0.0126 -0.1337
 2610TIP3   OH2 7835   3.974   1.263   1.034 -0.6231  0.0393 -0.2361
 2610TIP3    H1 7836   4.050   1.298   1.080 -0.4132  0.6488 -1.0265
 2610TIP3    H2 7837   3.927   1.340   1.003 -0.7956 -0.3519 -0.9802
 2611TIP3   OH2 7838   1.275   2.668   4.848  0.1567  0.3633 -0.3212
 2611TIP3    H1 7839   1.218   2.617   4.905 -0.2732 -0.4435 -1.4455
 2611TIP3    H2 7840   1.262   2.630   4.761  1.4353  1.0125 -0.8133
 2612TIP3   OH2 7841   0.704   5.941   0.179  0.3813  0.3231  0.1714
 2612TIP3    H1 7842   0.752   5.928   0.261  0.0127 -0.9149  0.2071
 2612TIP3    H2 7843   0.756   5.895   0.113 -0.6444 -0.8983  0.1818
 2613TIP3   OH2 7844   1.173   2.399   3.599 -0.5568 -0.0390  0.1945
 2613TIP3    H1 7845   1.094   2.442   3.568 -1.1900 -0.7223  0.8395
 2613TIP3    H2 7846   1.148   2.308   3.612  0.9033 -0.8022 -1.7019
 2614TIP3   OH2 7847   1.578   4.345   1.144 -0.6097  0.3635  0.6612
 2614TIP3    H1 7848   1.506   4.306   1.095 -0.3006  0.3993  0.1592
 2614TIP3    H2 7849   1.563   4.439   1.137 -0.0350  0.4050 -0.2214
 2615TIP3   OH2 7850   0.372   5.237   2.139 -0.8895  0.4349  0.2221
 2615TIP3    H1 7851   0.286   5.277   2.129 -2.2855 -2.4962 -0.5708
 2615TIP3    H2 7852   0.360   5.171   2.207  1.3756  1.4040  1.6744
 2616TIP3   OH2 7853   3.689   5.659   3.546  0.2599  0.3216  0.3019
 2616TIP3    H1 7854   3.599   5.674   3.517  1.7624  2.1945 -4.4186
 2616TIP3    H2 7855   3.703   5.722   3.617 -1.6087  1.4080 -0.2362
 2617TIP3   OH2 7856   0.210   0.644   0.899 -0.2783  0.1564 -0.2898
 2617TIP3    H1 7857   0.176   0.690   0.823 -0.3450  1.5180  0.5245
 2617TIP3    H2 7858   0.141   0.654   0.965  0.1359 -0.2679  0.2142
 2618TIP3   OH2 7859   2.156   3.405   2.583 -0.1132  0.2039  0.3590
 2618TIP3    H1 7860   2.075   3.380   2.538  1.0782 -1.2435 -1.1125
 2618TIP3    H2 7861   2.148   3.366   2.669 -0.6677 -0.5811 -0.0371
 2619TIP3   OH2 7862   3.667   3.451   3.131  0.0847 -0.1117 -0.6211
 2619TIP3    H1 7863   3.749   3.499   3.141  0.0323  0.3431 -2.1906
 2619TIP3    H2 7864   3.600   3.508   3.170  0.6131 -1.0561  1.9023
 2620TIP3   OH2 7865   1.097   3.341   3.557 -0.5464  0.2587  0.1783
 2620TIP3    H1 7866   1.072   3.434   3.554 -0.4982  0.2663 -0.0610
 2620TIP3    H2 7867   1.105   3.321   3.650 -0.1650  0.6014  0.2217
 2621TIP3   OH2 7868   4.858   0.137   2.101 -0.0788 -0.2488  0.3521
 2621TIP3    H1 7869   4.809   0.219   2.105  1.7225  0.8418  2.1258
 2621TIP3    H2 7870   4.829   0.088   2.179  0.0754 -0.5559  0.2164
 2622TIP3   OH2 7871   2.603   4.947   1.232 -0.5593 -0.0217 -0.1362
 2622TIP3    H1 7872   2.543   4.899   1.175  0.4350 -2.5773  0.8065
 2622TIP3    H2 7873   2.565   5.034   1.239 -1.7759 -0.1862 -3.0642
 2623TIP3   OH2 7874   3.449   0.820   1.317 -0.4769 -0.0689 -0.4389
 2623TIP3    H1 7875   3.447   0.786   1.407  0.5154  3.2282  0.9673
 2623TIP3    H2 7876   3.524   0.776   1.277 -0.6705 -1.2790  0.4444
 2624TIP3   OH2 7877   3.784   1.553   4.761  0.2511  0.4014 -0.0327
 2624TIP3    H1 7878   3.711   1.599   4.718 -0.0131  0.5661  0.5888
 2624TIP3    H2 7879   3.857   1.616   4.757  0.0568  0.6503  0.2909
 2625TIP3   OH2 7880   0.850   0.257   0.335 -0.5211  0.0495  0.2315
 2625TIP3    H1 7881   0.860   0.339   0.383 -2.7577  0.4914  0.0626
 2625TIP3    H2 7882   0.940   0.230   0.313  0.2902  2.1211  0.8140
 2626TIP3   OH2 7883   1.331   0.925   0.542 -0.7839  0.1400 -0.2547
 2626TIP3    H1 7884   1.248   0.926   0.494  0.3009 -1.1471 -2.3737
 2626TIP3    H2 7885   1.365   1.014   0.534 -0.5532 -0.0661 -2.1938
 2627TIP3   OH2 7886   5.121   0.105   2.083  0.1111 -0.2769 -0.4552
 2627TIP3    H1 7887   5.028   0.125   2.085  0.5045  1.8732  0.7011
 2627TIP3    H2 7888   5.132   0.045   2.010 -2.1244 -0.3615 -0.7958
 2628TIP3   OH2 7889   0.153   2.055   1.797  0.2116  0.3425 -0.0316
 2628TIP3    H1 7890   0.165   2.059   1.702  1.4120  0.6266  0.1206
 2628TIP3    H2 7891   0.186   2.139   1.829  1.7817 -0.5396  0.8177
 2629TIP3   OH2 7892   0.350   2.709   1.049 -0.0028 -0.2956  0.1341
 2629TIP3    H1 7893   0.389   2.640   1.103  0.7722  0.0777  0.0629
 2629TIP3    H2 7894   0.424   2.751   1.006 -0.5155  0.2069 -0.2816
 2630TIP3   OH2 7895   5.673   4.174   3.480 -0.2192  0.1743  0.1981
 2630TIP3    H1 7896   5.613   4.099   3.483 -0.5099  0.3966  0.0271
 2630TIP3    H2 7897   5.657   4.214   3.395  1.0394 -0.4629 -0.3701
 2631TIP3   OH2 7898   2.060   1.531   0.486  0.2838 -0.2965  0.0666
 2631TIP3    H1 7899   2.155   1.528   0.477  0.7388 -0.1670  3.3959
 2631TIP3    H2 7900   2.034   1.439   0.493  0.2225 -0.3056 -0.2522
 2632TIP3   OH2 7901   1.951   5.650   3.620 -0.2057 -0.1100  0.3517
 2632TIP3    H1 7902   1.994   5.565   3.612 -0.6345 -0.2137 -1.0427
 2632TIP3    H2 7903   1.954   5.687   3.532 -1.2378  0.7311  0.6510
 2633TIP3   OH2 7904   2.666   1.327   3.233 -0.6431 -0.4295 -0.3166
 2633TIP3    H1 7905   2.732   1.388   3.200 -2.2970  2.0650  0.6847
 2633TIP3    H2 7906   2.666   1.255   3.169  3.1281 -0.7231 -0.2355
 2634TIP3   OH2 7907   1.323   2.272   1.050  0.2623  0.0975 -0.3788
 2634TIP3    H1 7908   1.317   2.366   1.035  0.0867  0.1941  0.2574
 2634TIP3    H2 7909   1.414   2.250   1.030  0.8675  0.7773  1.4451
 2635TIP3   OH2 7910   6.009   0.667   3.680 -0.2010 -0.0376 -0.2374
 2635TIP3    H1 7911   6.008   0.577   3.650  0.6951  0.0921 -0.6849
 2635TIP3    H2 7912   6.025   0.661   3.774  1.2978 -0.3104 -0.4879
 2636TIP3   OH2 7913   5.734   3.674   4.646 -0.4068 -0.2151  0.4911
 2636TIP3    H1 7914   5.823   3.638   4.646  0.0969  0.9805  0.6036
 2636TIP3    H2 7915   5.678   3.598   4.662  0.7751 -0.5781  3.5407
 2637TIP3   OH2 7916   2.097   2.055   3.504  0.4593  0.3703 -0.1143
 2637TIP3    H1 7917   2.146   2.083   3.581  1.9150 -1.0619 -0.4692
 2637TIP3    H2 7918   2.020   2.010   3.539  1.2489 -0.5106  0.5274
 2638TIP3   OH2 7919   4.525   1.927   4.377 -0.4151 -0.0608  0.1807
 2638TIP3    H1 7920   4.601   1.898   4.428  0.7811  0.5902 -1.1850
 2638TIP3    H2 7921   4.560   1.992   4.316 -1.9788 -0.1157 -0.8260
 2639TIP3   OH2 7922   4.772   2.434   0.732  0.7928 -0.7705 -0.7956
 2639TIP3    H1 7923   4.840   2.486   0.690 -0.2614 -0.3207 -2.0028
 2639TIP3    H2 7924   4.787   2.344   0.700  1.1853 -0.7922 -0.5615
 2640TIP3   OH2 7925   2.064   0.804   0.252  0.3035 -0.0839  0.1290
 2640TIP3    H1 7926   2.030   0.803   0.342  1.4252 -1.1795  0.5647
 2640TIP3    H2 7927   2.103   0.891   0.242 -1.7700  0.8833 -0.0892
 2641TIP3   OH2 7928   2.594   4.467   0.960  0.5399  0.6199 -0.6534
 2641TIP3    H1 7929   2.601   4.561   0.944  0.4185  1.1571  1.9156
 2641TIP3    H2 7930   2.525   4.438   0.902  2.2883  1.5335 -3.4135
 2642TIP3   OH2 7931   4.250   2.000   4.470 -0.2479 -0.4057 -0.0017
 2642TIP3    H1 7932   4.259   2.082   4.519 -2.0659 -0.0319 -0.2134
 2642TIP3    H2 7933   4.337   1.984   4.432  0.1317  1.4477  0.0122
 2643TIP3   OH2 7934   3.316   0.341   0.148  0.0220 -0.5067 -0.0744
 2643TIP3    H1 7935   3.235   0.366   0.191  1.0498 -0.0440  1.6869
 2643TIP3    H2 7936   3.367   0.297   0.216  2.9875  2.9602  0.2435
 2644TIP3   OH2 7937   5.201   0.692   4.493  0.3464  0.4958 -0.1834
 2644TIP3    H1 7938   5.264   0.726   4.428  1.4691 -1.3454 -0.1089
 2644TIP3    H2 7939   5.121   0.742   4.476  1.3211  1.7359 -1.3934
 2645TIP3   OH2 7940   3.267   0.777   0.281  0.0664 -0.3762 -0.0396
 2645TIP3    H1 7941   3.177   0.772   0.314 -0.3544  0.4803 -1.0089
 2645TIP3    H2 7942   3.319   0.794   0.359 -0.4297 -2.1795  0.7422
 2646TIP3   OH2 7943   1.767   0.457   2.044 -0.9316  0.4215 -0.0788
 2646TIP3    H1 7944   1.773   0.516   1.968 -0.3722  0.3812 -0.0654
 2646TIP3    H2 7945   1.780   0.369   2.007 -2.9026  0.1712 -0.2819
 2647TIP3   OH2 7946   5.959   4.300   3.298  0.0451  0.5878  0.1951
 2647TIP3    H1 7947   6.010   4.281   3.377 -0.1253  1.7299  0.6036
 2647TIP3    H2 7948   6.020   4.286   3.226  0.3636  0.0674  0.5597
 2648TIP3   OH2 7949   5.722   3.677   2.149 -0.5719  0.0363  0.8326
 2648TIP3    H1 7950   5.633   3.696   2.179 -0.5692 -0.8887  1.4699
 2648TIP3    H2 7951   5.770   3.759   2.164 -1.2670  0.4776  0.6646
 2649TIP3   OH2 7952   6.298   1.263   3.098 -0.4387 -0.3267 -0.0164
 2649TIP3    H1 7953   6.314   1.177   3.136 -0.1705  0.0913  0.8444
 2649TIP3    H2 7954   6.219   1.251   3.044 -0.4297 -1.0915  0.1292
 2650TIP3   OH2 7955   3.823   2.548   3.928 -0.4925  0.7472  0.4778
 2650TIP3    H1 7956   3.762   2.579   3.996 -0.9527 -1.3101  1.0768
 2650TIP3    H2 7957   3.774   2.557   3.846 -1.2562  0.0595  0.8402
 2651TIP3   OH2 7958   4.832   3.244   2.184 -0.0525  0.0439  0.0988
 2651TIP3    H1 7959   4.754   3.198   2.153  0.8365 -1.1403 -0.4561
 2651TIP3    H2 7960   4.821   3.249   2.279 -0.1873 -1.3166  0.1758
 2652TIP3   OH2 7961   1.644   0.645   2.189  0.3014  0.7912 -0.0299
 2652TIP3    H1 7962   1.694   0.571   2.155  1.0002  1.5746 -0.7850
 2652TIP3    H2 7963   1.573   0.657   2.126 -0.3938  0.1636  0.6224
 2653TIP3   OH2 7964   2.278   1.974   0.430 -0.0318  0.8026  0.2455
 2653TIP3    H1 7965   2.292   2.012   0.516  0.6862  0.9256  0.0782
 2653TIP3    H2 7966   2.322   2.033   0.369  2.5620 -1.0477  0.1238
 2654TIP3   OH2 7967   1.421   0.468   3.986 -0.1793 -0.1520  0.5029
 2654TIP3    H1 7968   1.434   0.537   4.051  1.5634  0.9212 -0.8713
 2654TIP3    H2 7969   1.489   0.403   4.006  0.1791  0.0467 -0.0374
 2655TIP3   OH2 7970   0.347   3.199   3.646  0.2233 -0.3900 -0.2205
 2655TIP3    H1 7971   0.303   3.179   3.729 -1.1091 -2.2905 -1.2909
 2655TIP3    H2 7972   0.333   3.120   3.592  1.0457  0.7700 -2.2500
 2656TIP3   OH2 7973   6.367   3.269   2.279 -0.2601 -0.1039  0.0079
 2656TIP3    H1 7974   6.350   3.323   2.202 -1.0408  0.8278  0.8149
 2656TIP3    H2 7975   6.308   3.303   2.346  0.0570 -1.2179  0.8815
 2657TIP3   OH2 7976   5.108   4.062   1.587 -0.4424 -0.0574 -0.1297
 2657TIP3    H1 7977   5.057   4.141   1.569 -1.1156 -0.2300  0.9398
 2657TIP3    H2 7978   5.199   4.088   1.573 -0.6638  0.9000  0.1505
 2658TIP3   OH2 7979   2.989   1.453   2.872 -0.4745 -0.3382  0.1156
 2658TIP3    H1 7980   2.917   1.460   2.809 -0.9684  0.4533  0.7512
 2658TIP3    H2 7981   3.052   1.394   2.830 -0.3294  0.9438 -1.5463
 2659TIP3   OH2 7982   4.390   5.566   0.499 -0.1956 -0.0838 -0.1073
 2659TIP3    H1 7983   4.369   5.517   0.419  0.2805 -0.4898  0.0100
 2659TIP3    H2 7984   4.331   5.641   0.498 -0.9488 -0.6731 -0.2843
 2660TIP3   OH2 7985   1.486   4.331   4.840 -0.0694  0.6538  0.1724
 2660TIP3    H1 7986   1.567   4.350   4.792 -0.1632 -0.2802 -0.3924
 2660TIP3    H2 7987   1.516   4.291   4.922  0.0960 -2.4721 -1.2427
 2661TIP3   OH2 7988   5.560   1.679   4.727 -0.2810 -0.0566  0.2763
 2661TIP3    H1 7989   5.591   1.672   4.636  1.0723 -1.5159  0.8027
 2661TIP3    H2 7990   5.623   1.736   4.770 -0.1284 -0.4653  0.6052
 2662TIP3   OH2 7991   5.793   4.361   0.228  0.8631 -0.1495  0.3699
 2662TIP3    H1 7992   5.859   4.354   0.159  0.0927  0.2810 -0.4331
 2662TIP3    H2 7993   5.721   4.410   0.188  0.6631  0.6810  1.6820
 2663TIP3   OH2 7994   2.568   1.582   4.560 -0.0313 -0.1245  0.5445
 2663TIP3    H1 7995   2.495   1.578   4.498  0.2851  1.0350  0.0679
 2663TIP3    H2 7996   2.596   1.491   4.570 -0.4138 -0.3931 -0.6419
 2664TIP3   OH2 7997   4.024   0.707   1.475 -0.1485 -0.6606  0.2959
 2664TIP3    H1 7998   3.991   0.624   1.441  1.3052 -1.4804  0.8115
 2664TIP3    H2 7999   3.945   0.757   1.498 -1.0395 -2.0168  0.2787
 2665TIP3   OH2 8000   4.768   5.524   5.100  0.2231 -0.1286 -0.1786
 2665TIP3    H1 8001   4.777   5.529   5.005 -0.4996 -2.8370 -0.4537
 2665TIP3    H2 8002   4.681   5.562   5.118  0.5139  0.7308 -0.5130
 2666TIP3   OH2 8003   3.292   3.767   4.888 -0.3062  0.2127  0.4405
 2666TIP3    H1 8004   3.372   3.763   4.836  1.3123 -1.2287  2.8337
 2666TIP3    H2 8005   3.299   3.849   4.936  0.1611 -0.2793  1.2315
 2667TIP3   OH2 8006   2.911   3.161   1.141 -0.3830 -0.5127  0.3754
 2667TIP3    H1 8007   2.882   3.134   1.054  1.2199 -3.5945  0.6674
 2667TIP3    H2 8008   2.865   3.103   1.201  1.3860 -1.0389  1.2739
 2668TIP3   OH2 8009   6.237   0.875   1.240 -0.2711  0.1413  0.1985
 2668TIP3    H1 8010   6.150   0.877   1.201 -0.3846 -1.4331  0.2964
 2668TIP3    H2 8011   6.292   0.923   1.178 -1.1466  0.8940 -0.0113
 2669TIP3   OH2 8012   2.349   4.363   2.924 -0.3862 -0.0737 -0.2589
 2669TIP3    H1 8013   2.410   4.426   2.885  0.8221 -1.6681 -1.0520
 2669TIP3    H2 8014   2.397   4.326   2.998  0.6297 -2.9767 -2.2059
 2670TIP3   OH2 8015   4.955   4.422   4.881 -0.1633  0.4295  0.1743
 2670TIP3    H1 8016   5.014   4.478   4.831  0.9986 -0.6442  0.2956
 2670TIP3    H2 8017   5.012   4.355   4.920 -1.4067 -0.4033  0.6338
 2671TIP3   OH2 8018   0.242   4.863   1.296  0.0235 -0.1424  0.4612
 2671TIP3    H1 8019   0.290   4.830   1.372  1.7010 -1.1879 -0.9684
 2671TIP3    H2 8020   0.302   4.926   1.256 -0.6896  0.1416 -0.1794
 2672TIP3   OH2 8021   4.396   4.726   2.046 -0.6810  0.0851 -0.6328
 2672TIP3    H1 8022   4.317   4.733   1.993 -1.9241 -1.2175  0.9594
 2672TIP3    H2 8023   4.435   4.643   2.020 -1.4901 -0.7373  0.6854
 2673TIP3   OH2 8024   4.426   2.259   4.303  0.1386  0.1326  0.4103
 2673TIP3    H1 8025   4.339   2.231   4.274 -0.5327  2.2115  0.2240
 2673TIP3    H2 8026   4.428   2.236   4.396  0.1989 -1.7119 -0.0125
 2674TIP3   OH2 8027   3.357   0.154   4.829  0.2103 -0.0366  0.2955
 2674TIP3    H1 8028   3.394   0.188   4.748 -0.3003  0.2307  0.1713
 2674TIP3    H2 8029   3.286   0.096   4.801 -0.8565  1.1003  0.5702
 2675TIP3   OH2 8030   3.263   5.205   0.050  0.0468 -0.8527  0.2666
 2675TIP3    H1 8031   3.180   5.221   0.093 -0.5735 -0.8413 -0.9006
 2675TIP3    H2 8032   3.324   5.266   0.091 -0.7331 -0.2233  0.5072
 2676TIP3   OH2 8033   0.501   3.626   3.872 -0.4144  0.2943  0.0655
 2676TIP3    H1 8034   0.567   3.608   3.804 -3.3481  0.4152 -3.1050
 2676TIP3    H2 8035   0.495   3.544   3.922 -0.2403 -0.9482 -1.8345
 2677TIP3   OH2 8036   5.927   0.275   1.594  0.4951  0.1235  0.1575
 2677TIP3    H1 8037   5.886   0.356   1.564  0.2673 -0.4542 -1.1992
 2677TIP3    H2 8038   5.922   0.217   1.518 -0.4118 -1.5872  1.4580
 2678TIP3   OH2 8039   4.613   0.624   0.107  0.0173 -0.5924  0.0203
 2678TIP3    H1 8040   4.525   0.650   0.081 -0.2682  0.0172  1.5185
 2678TIP3    H2 8041   4.671   0.684   0.060 -0.5202  0.9606  1.2356
 2679TIP3   OH2 8042   4.853   0.301   1.580 -0.4316 -0.2549 -0.1618
 2679TIP3    H1 8043   4.852   0.228   1.642 -0.9355 -0.1546 -0.0479
 2679TIP3    H2 8044   4.932   0.350   1.602 -1.3793  0.6469  1.4443
 2680TIP3   OH2 8045   5.990   5.483   4.438  0.0664  0.1026  0.5716
 2680TIP3    H1 8046   6.008   5.404   4.488  1.0382 -0.0413  0.0168
 2680TIP3    H2 8047   6.074   5.529   4.435 -0.1315  0.4144 -0.3830
 2681TIP3   OH2 8048   1.940   4.652   0.555  0.2490 -0.3265  0.1426
 2681TIP3    H1 8049   1.910   4.572   0.598 -1.1212  0.0522 -0.0581
 2681TIP3    H2 8050   1.881   4.720   0.586  0.1416  0.2291 -1.2094
 2682TIP3   OH2 8051   5.973   3.789   2.803 -0.0293 -0.5878  0.4706
 2682TIP3    H1 8052   5.941   3.854   2.865  0.4163 -0.0437  0.1452
 2682TIP3    H2 8053   5.895   3.740   2.777 -0.4343  0.0642  0.4409
 2683TIP3   OH2 8054   2.718   3.064   1.917  0.3731  0.0197  0.1356
 2683TIP3    H1 8055   2.755   3.139   1.964 -0.3648  0.9203 -0.6943
 2683TIP3    H2 8056   2.675   3.012   1.986 -3.1444  2.7303  0.3049
 2684TIP3   OH2 8057   6.339   1.577   1.583  0.4286 -0.3156 -0.1008
 2684TIP3    H1 8058   6.386   1.544   1.660 -1.1122 -0.7273  0.7198
 2684TIP3    H2 8059   6.290   1.653   1.615 -0.4881 -0.6865 -0.5684
 2685TIP3   OH2 8060   1.862   0.373   1.168 -0.0304  0.0854  0.1573
 2685TIP3    H1 8061   1.881   0.279   1.179 -0.1406  0.0642  0.1701
 2685TIP3    H2 8062   1.777   0.385   1.211  0.7516  0.5192  1.6342
 2686TIP3   OH2 8063   2.406   2.331   2.284  0.1062  0.3124 -0.1521
 2686TIP3    H1 8064   2.357   2.356   2.362  0.4318 -1.3994  0.6318
 2686TIP3    H2 8065   2.488   2.380   2.290 -0.2223  0.8316  0.1370
 2687TIP3   OH2 8066   3.094   2.005   2.854  0.1484  0.2175 -0.2895
 2687TIP3    H1 8067   3.185   2.023   2.832  0.5774  0.6448  1.6217
 2687TIP3    H2 8068   3.099   1.951   2.933 -1.2594  0.9879  0.3616
 2688TIP3   OH2 8069   1.091   1.432   4.140 -0.1977 -0.3571  0.3863
 2688TIP3    H1 8070   1.062   1.404   4.053 -0.2147  1.4480 -0.2451
 2688TIP3    H2 8071   1.180   1.399   4.148  0.9020  1.8282 -1.5828
 2689TIP3   OH2 8072   2.597   2.852   1.223 -0.1006  0.1734 -0.2652
 2689TIP3    H1 8073   2.542   2.834   1.147  0.0074 -0.4755 -0.1985
 2689TIP3    H2 8074   2.670   2.790   1.214 -0.1574  0.0006  0.4334
 2690TIP3   OH2 8075   2.105   3.752   1.545  0.1742 -0.3249  0.3531
 2690TIP3    H1 8076   2.035   3.773   1.483 -0.2192 -1.4214  0.4115
 2690TIP3    H2 8077   2.167   3.700   1.494  0.2410 -0.5622  0.6792
 2691TIP3   OH2 8078   0.126   2.173   0.335  0.1718 -0.1959 -0.4930
 2691TIP3    H1 8079   0.096   2.250   0.384  0.3412 -0.6374  0.3278
 2691TIP3    H2 8080   0.130   2.103   0.400 -1.9921 -1.4581 -1.6192
 2692TIP3   OH2 8081   2.141   1.999   4.969  0.4208  0.5030  0.0532
 2692TIP3    H1 8082   2.151   1.995   4.874 -0.4920  1.8728 -0.1406
 2692TIP3    H2 8083   2.203   1.935   5.003  0.5282 -0.2411 -1.4751
 2693TIP3   OH2 8084   0.282   4.508   0.896 -0.5239 -0.0308  0.0311
 2693TIP3    H1 8085   0.350   4.441   0.898  1.1977  1.6213  1.1962
 2693TIP3    H2 8086   0.201   4.461   0.880  0.5794 -2.3886  0.9674
 2694TIP3   OH2 8087   5.879   1.274   0.711  0.0030  0.0780 -0.3697
 2694TIP3    H1 8088   5.968   1.308   0.723 -0.5356  1.3312  0.3327
 2694TIP3    H2 8089   5.834   1.342   0.661 -1.2233  0.6660  1.4062
 2695TIP3   OH2 8090   0.407   4.333   4.408 -0.1264 -0.1757 -0.1102
 2695TIP3    H1 8091   0.429   4.426   4.412  0.0926 -0.2523  0.5503
 2695TIP3    H2 8092   0.342   4.326   4.337  0.7520  0.2934 -0.9905
 2696TIP3   OH2 8093   3.111   0.341   0.767  0.1708  0.2474  0.4114
 2696TIP3    H1 8094   3.088   0.250   0.751  1.0463  0.3206 -1.6075
 2696TIP3    H2 8095   3.120   0.380   0.679  2.1008  1.6563  1.1433
 2697TIP3   OH2 8096   6.299   0.802   3.502 -0.7033  0.2074  0.0648
 2697TIP3    H1 8097   6.223   0.782   3.557 -0.7974 -0.6281 -0.3546
 2697TIP3    H2 8098   6.314   0.722   3.452  0.4038  0.3942  0.0779
 2698TIP3   OH2 8099   2.185   3.412   0.424  0.1930  0.7236  0.7607
 2698TIP3    H1 8100   2.100   3.453   0.408 -0.8205 -1.3940  0.3160
 2698TIP3    H2 8101   2.249   3.479   0.402 -1.3381  1.7933 -0.6555
 2699TIP3   OH2 8102   5.556   1.139   3.381  0.0612  0.4614 -0.2149
 2699TIP3    H1 8103   5.507   1.220   3.368  0.5509  1.1649  1.9597
 2699TIP3    H2 8104   5.636   1.151   3.331 -0.4805  0.7076 -1.0472
 2700TIP3   OH2 8105   2.532   1.050   3.671  0.6755 -0.1822  0.1564
 2700TIP3    H1 8106   2.554   1.124   3.615 -0.3830  0.2084  0.2396
 2700TIP3    H2 8107   2.503   0.982   3.609  0.3941 -0.0676  0.1581
 2701TIP3   OH2 8108   5.058   4.216   0.802 -0.6035  0.2854 -0.3072
 2701TIP3    H1 8109   5.004   4.266   0.740  0.0425  0.3223 -0.8558
 2701TIP3    H2 8110   5.058   4.268   0.882 -0.8952  0.5773 -0.4941
 2702TIP3   OH2 8111   0.041   3.399   4.896  0.0117  0.5183  0.1935
 2702TIP3    H1 8112  -0.033   3.358   4.940  1.5543 -0.8372  1.6436
 2702TIP3    H2 8113   0.114   3.389   4.956  1.6286  0.9644 -1.5839
 2703TIP3   OH2 8114   2.417   4.410   3.971  0.3115 -0.1696 -0.1483
 2703TIP3    H1 8115   2.384   4.330   4.013  0.5739  0.1665  0.7121
 2703TIP3    H2 8116   2.388   4.402   3.880  0.2264 -1.1871 -0.0509
 2704TIP3   OH2 8117   5.397   4.932   1.202  0.4156  0.1923  0.6261
 2704TIP3    H1 8118   5.383   4.918   1.108 -0.8722 -0.4868  0.8951
 2704TIP3    H2 8119   5.458   4.863   1.228  1.1043  0.6325  0.2293
 2705TIP3   OH2 8120   2.381   0.340   3.289 -0.6039  0.0734  0.2705
 2705TIP3    H1 8121   2.382   0.390   3.207  0.1557 -2.3071 -1.2642
 2705TIP3    H2 8122   2.291   0.311   3.299 -0.6414  0.1418  0.1265
 2706TIP3   OH2 8123   2.056   1.448   0.195  0.4018  0.1890  0.1286
 2706TIP3    H1 8124   2.139   1.401   0.191  1.6565  2.2677 -3.5032
 2706TIP3    H2 8125   2.077   1.531   0.238 -0.0418  0.3005  0.1424
 2707TIP3   OH2 8126   2.875   4.009   3.842  0.9559  0.9258 -0.0160
 2707TIP3    H1 8127   2.854   4.050   3.927  1.5302 -0.8528  1.0382
 2707TIP3    H2 8128   2.798   4.027   3.788 -0.9330 -0.6160  1.9396
 2708TIP3   OH2 8129   3.844   5.658   0.008 -0.0221 -0.8229  0.0457
 2708TIP3    H1 8130   3.771   5.691  -0.046  1.3403  0.6582 -0.9843
 2708TIP3    H2 8131   3.812   5.665   0.098 -1.4166 -0.9182 -0.4186
 2709TIP3   OH2 8132   1.910   1.611   3.315 -0.0157 -0.1936  0.2554
 2709TIP3    H1 8133   1.906   1.705   3.299  1.5904 -0.3987 -1.6984
 2709TIP3    H2 8134   2.002   1.595   3.338 -0.5863 -1.1103  2.0995
 2710TIP3   OH2 8135   4.564   5.375   4.042  0.1335 -0.9655  0.1632
 2710TIP3    H1 8136   4.575   5.302   4.103 -0.3909 -0.9572  0.2683
 2710TIP3    H2 8137   4.469   5.386   4.035  0.1413 -1.7078 -1.5458
 2711TIP3   OH2 8138   4.377   4.160   4.140  0.2860  0.1906  0.0970
 2711TIP3    H1 8139   4.310   4.100   4.176 -1.8186  2.4762  0.2520
 2711TIP3    H2 8140   4.391   4.223   4.210  0.7849  1.1457 -0.8471
 2712TIP3   OH2 8141   1.247   1.768   0.590  0.1936 -0.6449  0.4375
 2712TIP3    H1 8142   1.207   1.847   0.552 -1.7174 -0.8680  1.8598
 2712TIP3    H2 8143   1.275   1.795   0.677  0.7865 -1.2002  0.4261
 2713TIP3   OH2 8144   1.022   1.873   1.112  0.1349 -0.2213 -0.3371
 2713TIP3    H1 8145   1.024   1.798   1.171  0.4601 -0.6179 -0.8341
 2713TIP3    H2 8146   1.058   1.945   1.163 -1.8070  0.0567  0.7241
 2714TIP3   OH2 8147   1.018   2.396   3.888  0.8979  0.4365  0.0721
 2714TIP3    H1 8148   0.962   2.371   3.815  1.0526  0.8562 -0.1927
 2714TIP3    H2 8149   0.980   2.351   3.964  1.9989 -1.7529 -0.5922
 2715TIP3   OH2 8150   1.448   2.186   4.780  0.4390 -0.0531 -0.1647
 2715TIP3    H1 8151   1.534   2.228   4.783  0.2370  0.3447  2.1213
 2715TIP3    H2 8152   1.442   2.140   4.864 -1.6406  0.0959 -0.1963
 2716TIP3   OH2 8153   5.277   2.384   2.331 -0.0528  0.0236  0.6283
 2716TIP3    H1 8154   5.311   2.445   2.396 -1.7644  0.4746  1.1542
 2716TIP3    H2 8155   5.210   2.434   2.284 -0.6763 -1.0945  0.2864
 2717TIP3   OH2 8156   4.837   5.617   2.548 -0.0991  0.2900  0.4202
 2717TIP3    H1 8157   4.929   5.590   2.543 -0.5065 -0.9973 -1.0338
 2717TIP3    H2 8158   4.831   5.665   2.630  2.1554  1.5339 -0.0437
 2718TIP3   OH2 8159   0.035   5.534   1.769  0.3004 -0.1876  0.7344
 2718TIP3    H1 8160   0.073   5.466   1.824 -0.8549 -1.8230 -0.4028
 2718TIP3    H2 8161  -0.054   5.545   1.802  0.4326  0.7007  0.8214
 2719TIP3   OH2 8162   3.393   2.417   1.373  0.7082  0.1959 -0.0569
 2719TIP3    H1 8163   3.419   2.472   1.298  0.9507 -1.4527 -1.2389
 2719TIP3    H2 8164   3.306   2.386   1.350  0.5845  0.0631  0.5941
 2720TIP3   OH2 8165   2.065   3.486   1.271 -0.5286 -0.0226 -0.0852
 2720TIP3    H1 8166   2.142   3.537   1.296  0.4819 -1.0883 -0.9533
 2720TIP3    H2 8167   2.032   3.529   1.192 -0.1238 -0.2473 -0.3810
 2721TIP3   OH2 8168   2.686   4.973   0.274  0.3181 -0.1118 -0.3018
 2721TIP3    H1 8169   2.639   4.945   0.197 -0.5925 -0.0044  0.1976
 2721TIP3    H2 8170   2.742   4.899   0.297 -1.6695 -1.3866  0.7137
 2722TIP3   OH2 8171   1.641   4.084   1.622  0.1929 -0.1979  0.0390
 2722TIP3    H1 8172   1.658   4.050   1.710  1.5642 -0.1589 -0.1866
 2722TIP3    H2 8173   1.560   4.133   1.630  0.8250  0.6540  1.5210
 2723TIP3   OH2 8174   0.171   3.091   0.282 -0.0828  0.5327 -0.1261
 2723TIP3    H1 8175   0.086   3.099   0.325  0.1065 -1.9796  0.8936
 2723TIP3    H2 8176   0.152   3.048   0.199  0.0838  0.7879 -0.2960
 2724TIP3   OH2 8177   3.400   0.022   2.633  0.1143  0.0196  0.1351
 2724TIP3    H1 8178   3.374   0.102   2.680 -0.8245 -0.0504 -0.2396
 2724TIP3    H2 8179   3.495   0.020   2.640  0.0605  0.5289  1.1930
 2725TIP3   OH2 8180   4.812   3.167   2.630 -0.0409 -0.1869  0.0749
 2725TIP3    H1 8181   4.848   3.150   2.717 -0.6741 -1.6968  0.0665
 2725TIP3    H2 8182   4.887   3.163   2.571  0.0924 -1.2733  0.3026
 2726TIP3   OH2 8183   1.380   2.398   1.774 -0.3773 -0.2222  0.5794
 2726TIP3    H1 8184   1.409   2.374   1.862 -2.3471 -0.1143  1.3183
 2726TIP3    H2 8185   1.286   2.414   1.784 -0.9323 -1.5513 -1.8252
 2727TIP3   OH2 8186   0.689   1.634   1.883 -0.4943 -0.0648 -0.0005
 2727TIP3    H1 8187   0.722   1.714   1.842 -2.4060  1.0639  0.5326
 2727TIP3    H2 8188   0.715   1.641   1.974 -0.0339 -0.4060 -0.1068
 2728TIP3   OH2 8189   1.719   3.349   1.984  0.4176  0.9208 -0.4028
 2728TIP3    H1 8190   1.664   3.277   2.014  0.5785  0.5918 -0.8930
 2728TIP3    H2 8191   1.658   3.410   1.942  0.1274  1.5800  0.9060
 2729TIP3   OH2 8192   2.507   0.535   1.437  0.1453  0.1066 -0.1172
 2729TIP3    H1 8193   2.577   0.470   1.444  0.4819  0.4801 -0.0364
 2729TIP3    H2 8194   2.443   0.508   1.503  0.0386 -0.4462 -0.4409
 2730TIP3   OH2 8195   2.186   5.111   0.796 -0.2994  0.0036 -0.2032
 2730TIP3    H1 8196   2.269   5.146   0.766 -0.7440  0.3809 -1.0294
 2730TIP3    H2 8197   2.208   5.027   0.836  0.6380  0.7004  0.8100
 2731TIP3   OH2 8198   0.082   5.778   4.276  0.0511  0.3683  0.7669
 2731TIP3    H1 8199   0.144   5.705   4.286 -1.2621 -1.1127 -1.1080
 2731TIP3    H2 8200  -0.004   5.738   4.287 -0.6791  1.8032  0.5160
 2732TIP3   OH2 8201   6.195   3.530   4.740  0.1633  0.2357 -0.8251
 2732TIP3    H1 8202   6.139   3.456   4.762  0.2705 -0.4533 -2.7190
 2732TIP3    H2 8203   6.282   3.505   4.773  0.0708 -0.2361 -0.9310
 2733TIP3   OH2 8204   1.475   2.892   2.460  0.0209  0.1317  0.1450
 2733TIP3    H1 8205   1.541   2.866   2.395  0.2404 -0.5413  0.6221
 2733TIP3    H2 8206   1.407   2.936   2.409  1.4340  2.0671 -0.2200
 2734TIP3   OH2 8207   2.084   5.762   0.660 -0.3151 -0.1673 -0.5157
 2734TIP3    H1 8208   2.134   5.806   0.591  0.6255 -0.4872 -0.0602
 2734TIP3    H2 8209   2.149   5.741   0.727 -1.0923 -0.4889  0.1540
 2735TIP3   OH2 8210   3.655   0.036   0.717  0.0213 -0.4082  0.3547
 2735TIP3    H1 8211   3.750   0.046   0.710 -0.0721  0.5129  0.3759
 2735TIP3    H2 8212   3.631   0.084   0.796 -0.4835 -0.5605  0.3007
 2736TIP3   OH2 8213   3.028   4.421   3.957 -0.6262  0.2447 -0.0142
 2736TIP3    H1 8214   3.122   4.416   3.972 -0.6701 -2.1128 -0.1984
 2736TIP3    H2 8215   2.991   4.447   4.042  0.1368  0.5257  0.2349
 2737TIP3   OH2 8216   3.311   0.558   2.593 -0.1525 -0.2810  0.6904
 2737TIP3    H1 8217   3.367   0.566   2.670 -1.2124 -1.8601  1.7077
 2737TIP3    H2 8218   3.222   0.566   2.627 -0.6534 -1.0919 -0.3465
 2738TIP3   OH2 8219   5.185   0.717   0.376 -0.5446 -0.3124 -0.3490
 2738TIP3    H1 8220   5.278   0.731   0.355 -0.3538  0.0346  0.6613
 2738TIP3    H2 8221   5.140   0.791   0.336  0.0091  1.2376  1.7353
 2739TIP3   OH2 8222   0.295   1.348   1.394 -0.4040 -0.0487  0.3663
 2739TIP3    H1 8223   0.251   1.431   1.374  0.8197  0.6506  0.4656
 2739TIP3    H2 8224   0.265   1.326   1.482 -0.1932  0.6873  0.6370
 2740TIP3   OH2 8225   6.200   5.158   5.107 -0.0619  0.4972  0.0911
 2740TIP3    H1 8226   6.237   5.203   5.183  0.3207 -0.5584  0.5546
 2740TIP3    H2 8227   6.135   5.219   5.072  1.1628  1.8549  0.0530
 2741TIP3   OH2 8228   2.790   3.531   3.072 -0.2571 -0.1460 -0.1244
 2741TIP3    H1 8229   2.699   3.509   3.092 -0.0612 -0.1534  0.8016
 2741TIP3    H2 8230   2.831   3.543   3.158  0.9988 -1.6731 -0.4514
 2742TIP3   OH2 8231   3.830   2.793   0.338 -0.6087 -0.1066  0.1302
 2742TIP3    H1 8232   3.798   2.814   0.426 -0.4609 -1.9721  0.6574
 2742TIP3    H2 8233   3.882   2.869   0.313  1.4968 -0.5687  2.7413
 2743TIP3   OH2 8234   5.762   4.408   2.046 -0.1521  0.4998 -0.2791
 2743TIP3    H1 8235   5.757   4.395   1.951  1.3711  0.0193 -0.3304
 2743TIP3    H2 8236   5.854   4.431   2.061 -0.8062  2.6883  0.8501
 2744TIP3   OH2 8237   3.241   5.531   1.137  0.1658 -0.1839  0.3282
 2744TIP3    H1 8238   3.271   5.613   1.174 -0.8662  0.8263 -0.9695
 2744TIP3    H2 8239   3.277   5.531   1.048  0.8591 -1.5627  0.5722
 2745TIP3   OH2 8240   1.561   2.056   3.696 -0.1070  0.8257  0.4790
 2745TIP3    H1 8241   1.496   2.027   3.759 -0.6259 -0.0852 -0.4553
 2745TIP3    H2 8242   1.516   2.052   3.611  0.6225  1.8748  0.0145
 2746TIP3   OH2 8243   0.023   1.524   1.872  0.1038 -0.1343  0.2682
 2746TIP3    H1 8244  -0.046   1.529   1.939 -0.2240  0.7399 -0.1090
 2746TIP3    H2 8245   0.091   1.470   1.911 -1.1683 -1.7799  0.3208
 2747TIP3   OH2 8246   5.605   5.812   0.704  0.6206  0.6254  0.0126
 2747TIP3    H1 8247   5.632   5.845   0.618  0.0318 -0.6297 -0.6890
 2747TIP3    H2 8248   5.517   5.845   0.716 -0.0454 -0.7633 -0.7795
 2748TIP3   OH2 8249   0.514   1.147   0.115  0.4001  0.4840  0.1118
 2748TIP3    H1 8250   0.434   1.151   0.062  0.3570  1.2384  0.2270
 2748TIP3    H2 8251   0.510   1.225   0.170 -0.6150 -1.3140  2.7591
 2749TIP3   OH2 8252   2.986   2.795   3.515  0.5107  0.0304 -0.0413
 2749TIP3    H1 8253   3.061   2.760   3.563  0.0228 -0.2948  0.5034
 2749TIP3    H2 8254   2.941   2.717   3.482  0.3293  0.2148 -0.2253
 2750TIP3   OH2 8255   1.525   0.876   0.925 -0.6963  0.6006 -0.4460
 2750TIP3    H1 8256   1.503   0.821   0.851 -1.0275  0.6812 -0.4065
 2750TIP3    H2 8257   1.617   0.900   0.910 -0.5038 -0.0666 -0.3956
 2751TIP3   OH2 8258   1.537   4.019   2.537  0.5768  0.0848  0.2113
 2751TIP3    H1 8259   1.601   4.084   2.569  0.9332 -0.2560  0.2035
 2751TIP3    H2 8260   1.585   3.936   2.541 -0.0233 -0.2432  0.6513
 2752TIP3   OH2 8261   0.554   1.531   1.382  0.2221 -0.0086  0.6921
 2752TIP3    H1 8262   0.497   1.455   1.391 -0.2318  0.4405  1.7545
 2752TIP3    H2 8263   0.495   1.607   1.390  0.7166  0.4637  0.0190
 2753TIP3   OH2 8264   4.967   2.846   4.529  0.1260  0.1023  0.2339
 2753TIP3    H1 8265   5.034   2.913   4.543 -0.3611  0.8109 -0.6811
 2753TIP3    H2 8266   4.955   2.805   4.615  0.1184  1.5055  0.9318
 2754TIP3   OH2 8267   4.558   3.844   0.879  0.2179 -0.1413  0.3226
 2754TIP3    H1 8268   4.489   3.781   0.856 -0.3373  0.2858  0.7820
 2754TIP3    H2 8269   4.513   3.911   0.930  1.1891 -0.4760  1.6846
 2755TIP3   OH2 8270   0.776   0.396   4.853 -0.7698  0.7006  0.3032
 2755TIP3    H1 8271   0.710   0.429   4.914  0.3949 -0.6810  2.3836
 2755TIP3    H2 8272   0.742   0.311   4.824 -0.4851  0.5597  0.3847
 2756TIP3   OH2 8273   4.133   1.303   4.334  0.7321  0.2073  0.0250
 2756TIP3    H1 8274   4.210   1.275   4.284  1.0417 -0.1418  0.6985
 2756TIP3    H2 8275   4.142   1.398   4.341  1.1844  0.1480  0.2378
 2757TIP3   OH2 8276   2.941   0.999   2.576 -0.3539  0.1395 -0.0654
 2757TIP3    H1 8277   2.855   0.956   2.571 -0.0253 -0.3752 -1.8831
 2757TIP3    H2 8278   2.997   0.947   2.519  1.1496  0.5830  0.9471
 2758TIP3   OH2 8279   0.876   3.292   1.532  0.3120  0.1213 -0.0757
 2758TIP3    H1 8280   0.787   3.269   1.503 -0.1077  1.4422  0.1175
 2758TIP3    H2 8281   0.923   3.208   1.531 -0.6476 -0.4416 -1.1451
 2759TIP3   OH2 8282   6.260   3.202   3.723  0.5870  0.6082 -0.0177
 2759TIP3    H1 8283   6.185   3.223   3.778 -0.6628 -0.8676 -1.0689
 2759TIP3    H2 8284   6.254   3.262   3.649 -0.2653 -0.2792 -0.6862
 2760TIP3   OH2 8285   5.681   1.613   4.443  0.3472  0.5586  0.4928
 2760TIP3    H1 8286   5.736   1.545   4.482  0.5193  0.6273  0.3711
 2760TIP3    H2 8287   5.709   1.617   4.351 -1.3247 -0.9292 -0.1670
 2761TIP3   OH2 8288   4.500   3.071   0.787  0.5790  0.0810 -0.0839
 2761TIP3    H1 8289   4.523   2.987   0.825 -0.0122 -0.1544 -0.2343
 2761TIP3    H2 8290   4.584   3.111   0.763  0.8277 -0.8093 -0.7395
 2762TIP3   OH2 8291   1.993   3.451   3.144 -0.0084 -0.7089 -0.0543
 2762TIP3    H1 8292   2.000   3.493   3.230  0.0432 -0.1860 -0.3058
 2762TIP3    H2 8293   1.921   3.498   3.101  0.8552 -0.0309 -0.7984
 2763TIP3   OH2 8294   5.805   1.628   0.880  0.4932  0.0497 -0.3853
 2763TIP3    H1 8295   5.788   1.722   0.878 -1.0487 -0.2131 -1.4376
 2763TIP3    H2 8296   5.895   1.621   0.914  0.7728  1.8927 -0.6064
 2764TIP3   OH2 8297   1.582   1.403   4.675  0.3266  0.1636  0.0313
 2764TIP3    H1 8298   1.637   1.404   4.597  0.5369  0.0939  0.1769
 2764TIP3    H2 8299   1.627   1.343   4.735  0.7170  0.9838  0.5870
 2765TIP3   OH2 8300   2.440   1.358   2.208 -0.3456 -0.0725  0.2143
 2765TIP3    H1 8301   2.463   1.268   2.231  0.1964 -0.6516 -2.2647
 2765TIP3    H2 8302   2.523   1.405   2.211 -0.1272 -0.3321 -1.1429
 2766TIP3   OH2 8303   5.234   0.200   4.381  0.1645 -0.9828 -0.0069
 2766TIP3    H1 8304   5.229   0.187   4.475  1.1776  2.7373  0.7328
 2766TIP3    H2 8305   5.319   0.243   4.367 -0.5171 -0.2613 -2.4105
 2767TIP3   OH2 8306   1.427   5.646   1.397 -0.1639 -0.0210  0.0338
 2767TIP3    H1 8307   1.459   5.717   1.452  0.2352 -0.5523  0.4874
 2767TIP3    H2 8308   1.334   5.665   1.386 -0.6308 -0.7735  2.2328
 2768TIP3   OH2 8309   3.937   1.920   2.695 -0.5972  0.0601 -0.2487
 2768TIP3    H1 8310   4.018   1.889   2.654 -0.1494  1.7079 -0.6658
 2768TIP3    H2 8311   3.886   1.840   2.709  0.7199 -0.9202 -0.7777
 2769TIP3   OH2 8312   4.805   2.356   3.204 -0.1441 -0.7754  0.2044
 2769TIP3    H1 8313   4.873   2.378   3.267 -1.0997  0.0788  0.9776
 2769TIP3    H2 8314   4.759   2.282   3.244 -0.0895 -0.9179  0.0037
 2770TIP3   OH2 8315   4.588   0.907   2.251  0.1588  0.3215  0.5992
 2770TIP3    H1 8316   4.543   0.833   2.292  0.3849  0.5891  1.3495
 2770TIP3    H2 8317   4.645   0.867   2.186 -0.8574 -0.0545 -0.0940
 2771TIP3   OH2 8318   2.678   3.872   2.220  0.3343  0.1767 -0.0970
 2771TIP3    H1 8319   2.704   3.795   2.170 -1.3908 -0.5084 -0.0096
 2771TIP3    H2 8320   2.715   3.946   2.171 -0.8893 -0.4915 -2.1498
 2772TIP3   OH2 8321   3.548   2.938   3.041 -0.2318  0.1667  0.1504
 2772TIP3    H1 8322   3.482   2.887   3.088  1.1610 -1.2115  0.6888
 2772TIP3    H2 8323   3.554   3.021   3.089 -0.8954 -0.0654  0.6443
 2773TIP3   OH2 8324   0.796   1.486   3.430 -0.4531 -0.2695  0.0628
 2773TIP3    H1 8325   0.747   1.473   3.348  1.5088 -0.5577 -1.1372
 2773TIP3    H2 8326   0.730   1.480   3.499 -1.9610 -1.4731 -1.4005
 2774TIP3   OH2 8327   5.536   4.387   3.282 -0.0560 -0.0459  0.2301
 2774TIP3    H1 8328   5.522   4.474   3.318  1.8143  0.3647  0.0728
 2774TIP3    H2 8329   5.451   4.343   3.292 -1.0359  1.7635  0.3085
 2775TIP3   OH2 8330   6.138   4.222   3.095  0.0006  0.2995  0.3828
 2775TIP3    H1 8331   6.149   4.267   3.011 -0.5080 -1.8468 -0.9241
 2775TIP3    H2 8332   6.208   4.157   3.097 -1.5009 -1.4168  0.3506
 2776TIP3   OH2 8333   5.925   0.479   2.592  0.4726  0.4083  0.3105
 2776TIP3    H1 8334   5.906   0.495   2.499 -0.9184 -1.3391  0.2503
 2776TIP3    H2 8335   6.021   0.481   2.597  0.5760  0.4298 -1.1833
 2777TIP3   OH2 8336   0.050   1.946   0.159  0.2177 -0.6450  0.2100
 2777TIP3    H1 8337   0.088   2.008   0.222  1.8566 -0.2131 -1.1419
 2777TIP3    H2 8338  -0.042   1.973   0.152  0.7357  1.2567  0.1474
 2778TIP3   OH2 8339   0.171   4.216   1.243 -0.3279  0.2156  0.2142
 2778TIP3    H1 8340   0.107   4.211   1.313 -0.8896 -1.8089 -0.3869
 2778TIP3    H2 8341   0.170   4.130   1.202  0.4734  1.1041 -1.8626
 2779TIP3   OH2 8342   2.874   4.129   1.412 -0.1537 -0.0747 -0.6687
 2779TIP3    H1 8343   2.852   4.076   1.488 -1.6145 -0.7109 -1.4895
 2779TIP3    H2 8344   2.935   4.195   1.445 -1.5756  0.3527  1.3024
 2780TIP3   OH2 8345   5.250   5.441   1.581 -0.2561 -0.1465 -0.2930
 2780TIP3    H1 8346   5.240   5.512   1.644  0.9388 -1.1835  1.1288
 2780TIP3    H2 8347   5.313   5.474   1.517 -0.8072  0.5950 -0.4608
 2781TIP3   OH2 8348   4.048   0.206   3.074 -0.1921  0.0295 -0.4362
 2781TIP3    H1 8349   4.069   0.128   3.022  0.9549  1.1308 -1.6603
 2781TIP3    H2 8350   3.962   0.186   3.111  0.0152 -1.7731 -0.8051
 2782TIP3   OH2 8351   3.056   4.009   1.850  0.3181  0.1084  0.0631
 2782TIP3    H1 8352   3.119   4.047   1.789  1.9241 -2.4047 -0.0137
 2782TIP3    H2 8353   3.068   4.058   1.931  2.0972 -0.0143 -0.0848
 2783TIP3   OH2 8354   1.576   3.565   4.830 -0.2944  0.6594  0.1522
 2783TIP3    H1 8355   1.574   3.660   4.840 -1.3656  0.4852  2.1271
 2783TIP3    H2 8356   1.484   3.538   4.840  0.1123 -0.6462  0.6044
 2784TIP3   OH2 8357   0.617   2.900   2.828  0.1648 -0.2454 -0.5615
 2784TIP3    H1 8358   0.529   2.871   2.854  0.5047 -0.7931  0.0034
 2784TIP3    H2 8359   0.666   2.901   2.910  0.4783  0.8225 -0.7475
 2785TIP3   OH2 8360   0.244   2.211   3.128 -0.3640  0.2043 -0.4682
 2785TIP3    H1 8361   0.226   2.146   3.060  0.6832 -0.3423 -0.2443
 2785TIP3    H2 8362   0.271   2.290   3.080  0.5761 -0.2453 -0.7040
 2786TIP3   OH2 8363   1.936   3.894   1.054  0.4978 -0.4377  0.2004
 2786TIP3    H1 8364   2.024   3.930   1.067  0.7623 -1.0036  0.0335
 2786TIP3    H2 8365   1.879   3.951   1.105  1.0525 -0.4686  0.8792
 2787TIP3   OH2 8366   4.819   4.523   4.385  0.0423 -0.4699  0.4736
 2787TIP3    H1 8367   4.749   4.521   4.320 -1.4640 -1.8776  2.0540
 2787TIP3    H2 8368   4.812   4.609   4.426  0.4820  0.1100 -0.6315
 2788TIP3   OH2 8369   0.889   0.536   0.525  0.5121  0.0744  0.9557
 2788TIP3    H1 8370   0.922   0.550   0.436  0.1982  0.1813  0.8511
 2788TIP3    H2 8371   0.845   0.619   0.546  2.1543  0.7447  1.9218
 2789TIP3   OH2 8372   3.626   0.114   1.264  0.3654 -0.0411 -0.0611
 2789TIP3    H1 8373   3.566   0.043   1.240  0.7219 -0.9461  1.5624
 2789TIP3    H2 8374   3.638   0.164   1.183 -1.0897 -0.9361 -0.8748
 2790TIP3   OH2 8375   5.667   0.611   4.467 -0.4453 -0.7848 -0.3363
 2790TIP3    H1 8376   5.630   0.639   4.550  2.7800 -0.9087  1.2667
 2790TIP3    H2 8377   5.760   0.600   4.484  0.7548  1.0723 -4.4655
 2791TIP3   OH2 8378   0.686   4.038   4.729  0.1233 -0.4395  0.4299
 2791TIP3    H1 8379   0.769   4.051   4.683  0.9363  0.9997  2.1536
 2791TIP3    H2 8380   0.626   4.098   4.685  0.2493 -0.7610 -0.1972
 2792TIP3   OH2 8381   2.801   5.559   4.953 -0.0290 -1.1979 -0.1570
 2792TIP3    H1 8382   2.743   5.483   4.953  0.6826 -1.7513 -0.5073
 2792TIP3    H2 8383   2.842   5.557   5.040 -2.0103  0.3647  0.8728
 2793TIP3   OH2 8384   3.139   1.368   0.485  0.1284  0.2260 -0.2354
 2793TIP3    H1 8385   3.131   1.280   0.522 -2.7517  0.0810 -1.0075
 2793TIP3    H2 8386   3.222   1.366   0.436  1.2600 -1.2828  1.5763
 2794TIP3   OH2 8387   0.709   1.039   0.608  0.2646  0.4824  0.5349
 2794TIP3    H1 8388   0.778   0.994   0.657  0.0388 -1.2786 -0.6438
 2794TIP3    H2 8389   0.669   1.098   0.671  0.4976 -1.1158  2.2694
 2795TIP3   OH2 8390   1.416   5.896   3.236  0.2214  0.1139  0.6641
 2795TIP3    H1 8391   1.435   5.972   3.291  3.1268  1.3122 -1.7345
 2795TIP3    H2 8392   1.363   5.931   3.164 -1.2125 -0.8740  1.1924
 2796TIP3   OH2 8393   2.616   0.129   2.029 -0.2554 -0.1570  0.0464
 2796TIP3    H1 8394   2.616   0.224   2.042 -1.2885 -0.3580  1.8530
 2796TIP3    H2 8395   2.678   0.096   2.094 -0.3318 -0.7423 -0.1742
 2797TIP3   OH2 8396   0.573   3.322   2.960 -0.1986  0.4839 -0.1345
 2797TIP3    H1 8397   0.631   3.278   2.898 -0.8416  1.0601 -1.1773
 2797TIP3    H2 8398   0.550   3.404   2.917  0.0273  1.3054  1.2603
 2798TIP3   OH2 8399   4.762   4.272   3.399  0.7908 -0.4168 -0.1237
 2798TIP3    H1 8400   4.729   4.280   3.310 -1.0395 -0.7803  0.4759
 2798TIP3    H2 8401   4.733   4.352   3.443 -0.3490 -1.2397  0.7081
 2799TIP3   OH2 8402   4.649   3.799   4.225  0.1357  0.2673  0.0077
 2799TIP3    H1 8403   4.670   3.707   4.215 -0.8117  0.0990 -0.6099
 2799TIP3    H2 8404   4.555   3.805   4.204  0.2232  1.3892 -0.1721
 2800TIP3   OH2 8405   3.390   4.563   1.984 -0.1653  0.5902 -0.4215
 2800TIP3    H1 8406   3.478   4.536   2.011 -0.0926  0.9420 -0.3019
 2800TIP3    H2 8407   3.380   4.526   1.896 -0.8856 -1.6401  0.5125
 2801TIP3   OH2 8408   6.015   3.534   3.486 -0.0582 -0.0921 -0.0632
 2801TIP3    H1 8409   6.044   3.575   3.568 -2.3444 -0.9017  1.2349
 2801TIP3    H2 8410   5.986   3.446   3.512 -2.5586  0.2533 -1.3565
 2802TIP3   OH2 8411   0.075   5.354   3.003 -0.1105 -0.4931 -0.2440
 2802TIP3    H1 8412   0.109   5.372   2.916  0.0044  0.2088 -0.0611
 2802TIP3    H2 8413  -0.010   5.312   2.988 -0.4002  0.2330 -0.7021
 2803TIP3   OH2 8414   2.409   5.089   4.872  0.1237  0.1698  0.5964
 2803TIP3    H1 8415   2.363   5.100   4.955 -2.2045  0.1150 -0.6003
 2803TIP3    H2 8416   2.361   5.146   4.811  0.3910 -1.4271 -1.1906
 2804TIP3   OH2 8417   3.748   3.197   2.129  0.8766 -0.6098 -0.4163
 2804TIP3    H1 8418   3.762   3.249   2.208  0.8608 -1.5689  0.2408
 2804TIP3    H2 8419   3.666   3.151   2.146  0.2178  0.1090 -1.5280
 2805TIP3   OH2 8420   1.370   0.232   3.301  0.4488 -0.1555 -0.5792
 2805TIP3    H1 8421   1.384   0.287   3.379  0.9120  0.7223 -1.2671
 2805TIP3    H2 8422   1.406   0.147   3.325 -0.7670 -0.3556  0.7036
 2806TIP3   OH2 8423   5.798   0.239   3.027 -0.3162 -0.2183  0.1501
 2806TIP3    H1 8424   5.831   0.227   2.938 -0.7003  0.5266 -0.1028
 2806TIP3    H2 8425   5.741   0.163   3.042 -1.2204  0.2639 -0.7058
 2807TIP3   OH2 8426   1.158   5.158   0.402 -0.4910  0.1664  0.3497
 2807TIP3    H1 8427   1.165   5.209   0.483  0.2235  2.3082 -0.9596
 2807TIP3    H2 8428   1.111   5.217   0.342  2.0225  0.1343 -1.8429
 2808TIP3   OH2 8429   6.294   0.123   2.961 -0.4935 -0.3105 -0.0123
 2808TIP3    H1 8430   6.357   0.181   3.004  0.8362 -0.7404 -1.2864
 2808TIP3    H2 8431   6.211   0.170   2.965 -0.0564  0.3963  1.4862
 2809TIP3   OH2 8432   4.215   5.956   2.042 -0.8840  0.0326 -0.0814
 2809TIP3    H1 8433   4.221   5.913   2.127  0.6341  0.3208 -0.0009
 2809TIP3    H2 8434   4.161   6.034   2.058 -2.2843 -0.9620  0.1386
 2810TIP3   OH2 8435   2.936   4.455   0.443  0.2369  0.4698 -0.6826
 2810TIP3    H1 8436   3.007   4.497   0.492  1.3772 -0.1691 -1.6978
 2810TIP3    H2 8437   2.976   4.434   0.358 -0.8878 -0.8219 -0.9209
 2811TIP3   OH2 8438   2.995   1.969   1.465 -0.5017  0.1409  0.6332
 2811TIP3    H1 8439   3.067   2.028   1.485  0.2244 -0.1871 -0.8555
 2811TIP3    H2 8440   3.032   1.881   1.478 -1.4888 -0.0435  2.5749
 2812TIP3   OH2 8441   3.341   3.974   3.617  0.1627 -0.0148 -0.3238
 2812TIP3    H1 8442   3.256   3.933   3.627 -0.4083  1.2489  0.2622
 2812TIP3    H2 8443   3.389   3.950   3.696  0.3322 -0.6749 -0.6245
 2813TIP3   OH2 8444   4.718   2.559   4.815  0.3560 -0.0913 -0.2319
 2813TIP3    H1 8445   4.666   2.594   4.742 -1.8548 -0.2987  1.1459
 2813TIP3    H2 8446   4.744   2.472   4.787  0.5899  0.2840 -1.2297
 2814TIP3   OH2 8447   3.660   3.088   1.528 -0.4760  0.0833  0.0471
 2814TIP3    H1 8448   3.660   3.177   1.561 -0.5667  0.0199  0.2230
 2814TIP3    H2 8449   3.594   3.043   1.581  2.3317 -1.1271  2.7696
 2815TIP3   OH2 8450   4.685   2.115   4.184 -0.3469 -0.6472  0.3914
 2815TIP3    H1 8451   4.637   2.198   4.175  1.4499  0.3119 -0.9893
 2815TIP3    H2 8452   4.639   2.055   4.126  0.7550  0.6176 -1.9342
 2816TIP3   OH2 8453   2.813   3.845   1.911 -0.4476 -0.4315 -0.1194
 2816TIP3    H1 8454   2.806   3.927   1.960 -1.1567 -1.1480  1.0248
 2816TIP3    H2 8455   2.906   3.822   1.917 -0.5839 -0.7225  1.3002
 2817TIP3   OH2 8456   4.037   5.077   2.351 -0.1787  0.4573 -0.6828
 2817TIP3    H1 8457   4.063   4.987   2.332  0.1250  0.1599  1.0267
 2817TIP3    H2 8458   4.024   5.080   2.446 -2.6886  1.5578 -0.9653
 2818TIP3   OH2 8459   6.099   0.661   4.988  0.5178 -0.0004  0.3034
 2818TIP3    H1 8460   6.052   0.727   4.938 -0.1074  0.3222  1.2914
 2818TIP3    H2 8461   6.090   0.689   5.079 -0.6590 -1.9628  0.8523
 2819TIP3   OH2 8462   2.397   5.192   4.130 -0.2049 -0.2286 -0.0940
 2819TIP3    H1 8463   2.379   5.281   4.159  0.9979 -0.2154  0.6478
 2819TIP3    H2 8464   2.491   5.181   4.141 -0.3956 -1.7341  0.2552
 2820TIP3   OH2 8465   5.725   1.586   1.451  0.2199  0.5358  0.1021
 2820TIP3    H1 8466   5.815   1.557   1.437 -0.3423 -2.4769  1.8198
 2820TIP3    H2 8467   5.675   1.542   1.382 -0.0332  2.0133 -0.7011
 2821TIP3   OH2 8468   4.961   5.785   0.588  0.0163 -1.0379  0.1316
 2821TIP3    H1 8469   5.023   5.770   0.659  0.7277  0.2269 -0.1969
 2821TIP3    H2 8470   4.954   5.700   0.545  2.0572 -1.0755 -0.2335
 2822TIP3   OH2 8471   1.275   4.090   3.744 -0.7143  0.3730 -0.0169
 2822TIP3    H1 8472   1.333   4.021   3.774  0.2338  0.4911 -1.5082
 2822TIP3    H2 8473   1.211   4.100   3.815  1.7370  1.0660  2.2467
 2823TIP3   OH2 8474   5.188   1.711   1.428  0.5646  0.6782  0.1450
 2823TIP3    H1 8475   5.160   1.802   1.420 -0.5946  0.2020 -1.7697
 2823TIP3    H2 8476   5.213   1.701   1.520 -0.0283  2.7050  0.5545
 2824TIP3   OH2 8477   1.139   1.474   3.819  0.0235  0.0401 -0.0418
 2824TIP3    H1 8478   1.225   1.433   3.807  0.4191  0.6109  0.7242
 2824TIP3    H2 8479   1.092   1.456   3.737  0.8023 -0.4402 -0.3977
 2825TIP3   OH2 8480   4.964   2.688   4.758  0.0311  0.7201 -0.1908
 2825TIP3    H1 8481   4.897   2.644   4.810  1.2555 -0.0513  0.7998
 2825TIP3    H2 8482   5.026   2.723   4.823  1.4815 -0.0608 -1.0991
 2826TIP3   OH2 8483   0.065   3.101   2.051 -0.3994 -0.6078 -0.0123
 2826TIP3    H1 8484  -0.025   3.118   2.024 -0.2859  0.7682  0.4040
 2826TIP3    H2 8485   0.076   3.152   2.131  1.6440  1.7783 -1.6425
 2827TIP3   OH2 8486   3.626   5.518   2.527 -0.0290 -0.3874  0.0374
 2827TIP3    H1 8487   3.685   5.552   2.461  0.7361  0.0338  0.9218
 2827TIP3    H2 8488   3.600   5.594   2.579  0.1694 -0.8448  0.8354
 2828TIP3   OH2 8489   3.337   2.114   2.803 -0.3524  0.2871 -0.4418
 2828TIP3    H1 8490   3.414   2.128   2.858  0.8400 -0.3602 -1.8702
 2828TIP3    H2 8491   3.362   2.148   2.717 -2.1341  1.2120 -0.6521
 2829TIP3   OH2 8492   0.376   0.497   3.991 -0.0706  0.6328  0.0274
 2829TIP3    H1 8493   0.402   0.571   4.046 -1.0416  0.1226  1.2225
 2829TIP3    H2 8494   0.395   0.525   3.901  1.9066  1.3457  0.6339
 2830TIP3   OH2 8495   0.299   0.269   1.837 -0.3534  0.0290 -0.3574
 2830TIP3    H1 8496   0.282   0.207   1.909 -0.0011 -1.5201 -1.5590
 2830TIP3    H2 8497   0.212   0.292   1.805 -0.4758 -0.2120 -0.2063
 2831TIP3   OH2 8498   0.448   4.179   1.071 -0.2777  0.4413 -0.2673
 2831TIP3    H1 8499   0.423   4.096   1.112  0.0439  0.1555 -0.6404
 2831TIP3    H2 8500   0.540   4.167   1.046  0.5791  1.7881  1.9046
 2832TIP3   OH2 8501   0.537   2.482   1.108 -0.0529 -0.8055 -0.0398
 2832TIP3    H1 8502   0.606   2.500   1.044  1.2401 -1.8980  0.9974
 2832TIP3    H2 8503   0.544   2.388   1.125 -1.0721 -0.7265  0.9034
 2833TIP3   OH2 8504   0.835   1.777   4.361  0.4562 -0.4777 -0.4913
 2833TIP3    H1 8505   0.880   1.859   4.383 -0.0626 -0.0260 -1.0741
 2833TIP3    H2 8506   0.743   1.801   4.354  0.3311 -1.0639 -0.9219
 2834TIP3   OH2 8507   1.000   5.424   5.046 -0.0641  0.0211 -0.1037
 2834TIP3    H1 8508   0.999   5.335   5.082 -1.9393  0.4001  0.9013
 2834TIP3    H2 8509   0.999   5.481   5.123 -1.6814  0.8638 -0.7072
 2835TIP3   OH2 8510   2.050   4.321   2.839 -0.2217 -0.2856  0.0256
 2835TIP3    H1 8511   2.118   4.381   2.810 -0.6915 -0.3934 -1.4191
 2835TIP3    H2 8512   2.059   4.317   2.934  1.3910  0.1541 -0.0869
 2836TIP3   OH2 8513   1.849   0.995   0.917 -0.7549 -0.4481 -0.5207
 2836TIP3    H1 8514   1.819   1.086   0.923 -1.6622 -0.7887  0.3339
 2836TIP3    H2 8515   1.893   0.979   1.001 -2.2140 -1.3343  0.1148
 2837TIP3   OH2 8516   1.270   3.401   0.482 -0.0460 -0.5805  0.0947
 2837TIP3    H1 8517   1.280   3.496   0.491 -1.1424 -0.3987 -0.4966
 2837TIP3    H2 8518   1.186   3.382   0.524  0.6002 -1.4349  1.0520
 2838TIP3   OH2 8519   3.948   5.850   0.472  0.3521 -0.5713 -0.1824
 2838TIP3    H1 8520   3.880   5.907   0.509 -0.9619 -2.3575  0.3450
 2838TIP3    H2 8521   3.923   5.840   0.380  1.9070  1.4830 -0.8785
 2839TIP3   OH2 8522   2.524   0.642   3.307  0.2077  0.2882  0.2383
 2839TIP3    H1 8523   2.534   0.563   3.256  0.7498  0.7421 -0.3694
 2839TIP3    H2 8524   2.435   0.672   3.288  0.4339  0.5010 -0.5192
 2840TIP3   OH2 8525   5.824   0.890   1.460  0.4664  0.5925  0.6826
 2840TIP3    H1 8526   5.874   0.940   1.396 -1.1429  1.7900  0.2935
 2840TIP3    H2 8527   5.886   0.873   1.531  1.4633  1.8821  0.1678
 2841TIP3   OH2 8528   5.988   2.460   4.487 -0.9844 -0.5107 -0.5604
 2841TIP3    H1 8529   6.000   2.501   4.402 -2.9464 -0.4581 -0.8377
 2841TIP3    H2 8530   6.002   2.531   4.550  1.0693 -0.6745 -0.7436
 2842TIP3   OH2 8531   3.562   1.388   3.869  0.4095 -0.7031 -0.4278
 2842TIP3    H1 8532   3.620   1.430   3.806 -1.2266  0.2069 -1.4014
 2842TIP3    H2 8533   3.533   1.459   3.927  0.4560 -1.1901  0.2067
 2843TIP3   OH2 8534   3.479   4.548   0.656  0.3472 -0.4580 -0.3898
 2843TIP3    H1 8535   3.468   4.494   0.734 -0.8481 -0.5455 -0.5905
 2843TIP3    H2 8536   3.495   4.485   0.586  1.6987 -0.3634 -0.1955
 2844TIP3   OH2 8537   1.930   5.089   1.035 -0.3413  0.3043  0.2061
 2844TIP3    H1 8538   1.994   5.159   1.048  0.2238 -0.4124  1.5382
 2844TIP3    H2 8539   1.898   5.069   1.123 -0.7403 -0.8703 -0.1855
 2845TIP3   OH2 8540   0.209   1.765   3.751  0.3217  0.2850  0.4974
 2845TIP3    H1 8541   0.259   1.775   3.833 -0.4769  1.2121  0.8969
 2845TIP3    H2 8542   0.196   1.855   3.720  0.3131 -0.0399 -0.4721
 2846TIP3   OH2 8543   5.906   2.741   4.617 -0.3581 -0.5342  0.6813
 2846TIP3    H1 8544   5.893   2.790   4.698 -1.3732  0.5810 -0.1177
 2846TIP3    H2 8545   5.993   2.701   4.627 -1.0404 -1.6366  2.9072
 2847TIP3   OH2 8546   3.296   0.815   3.224  0.1526 -0.0573 -0.2219
 2847TIP3    H1 8547   3.353   0.889   3.203  0.3447 -0.4665 -1.1930
 2847TIP3    H2 8548   3.222   0.854   3.271  0.1146  0.7871 -0.9661
 2848TIP3   OH2 8549   5.462   0.320   3.191 -0.1495  0.3835 -0.0826
 2848TIP3    H1 8550   5.510   0.331   3.109  0.4607 -1.4918 -0.0331
 2848TIP3    H2 8551   5.370   0.312   3.164  0.0551 -0.2715 -0.6134
 2849TIP3   OH2 8552   4.347   1.605   1.599 -0.7691  0.0689  0.1972
 2849TIP3    H1 8553   4.305   1.686   1.626 -0.2929  0.2197  0.5095
 2849TIP3    H2 8554   4.374   1.620   1.509  0.7934  0.8888  0.7567
 2850TIP3   OH2 8555   6.290   4.022   5.132 -0.3477 -0.2097 -0.3782
 2850TIP3    H1 8556   6.354   3.970   5.181 -1.2906 -0.5083  0.5611
 2850TIP3    H2 8557   6.260   3.964   5.063 -0.5796 -0.5285 -0.0111
 2851TIP3   OH2 8558   5.274   3.673   3.462 -0.1838 -0.0378  0.2143
 2851TIP3    H1 8559   5.367   3.687   3.444  0.3825 -0.7106  2.3012
 2851TIP3    H2 8560   5.273   3.597   3.521 -1.9077  1.0150  1.6066
 2852TIP3   OH2 8561   5.892   0.853   2.546  0.2959 -0.9213 -0.1638
 2852TIP3    H1 8562   5.940   0.789   2.494 -1.3812 -0.9308 -1.7976
 2852TIP3    H2 8563   5.810   0.810   2.569 -0.3928  0.2318 -0.3549
 2853TIP3   OH2 8564   4.226   3.060   0.868  0.4297 -0.2623  0.6340
 2853TIP3    H1 8565   4.314   3.093   0.848  0.0290  1.1089  1.0201
 2853TIP3    H2 8566   4.167   3.117   0.819 -0.3570  0.5469  2.4277
 2854TIP3   OH2 8567   0.430   4.693   1.117 -0.8554  0.3747  0.0946
 2854TIP3    H1 8568   0.390   4.606   1.122 -2.7728  1.2276  0.3863
 2854TIP3    H2 8569   0.441   4.709   1.023 -0.6225 -0.1051  0.0349
 2855TIP3   OH2 8570   1.110   0.214   3.221 -0.2199 -0.0768 -0.1361
 2855TIP3    H1 8571   1.203   0.235   3.228 -0.0564  0.0494 -2.0986
 2855TIP3    H2 8572   1.105   0.120   3.237  0.2209 -0.0636  0.0894
 2856TIP3   OH2 8573   3.250   2.463   1.961  0.4801  0.4299  0.0071
 2856TIP3    H1 8574   3.296   2.514   2.028 -0.0714  1.3074 -0.2745
 2856TIP3    H2 8575   3.199   2.527   1.912 -1.0163 -0.5063  0.2632
 2857TIP3   OH2 8576   2.691   5.136   1.492  0.2362  0.8351  0.4678
 2857TIP3    H1 8577   2.723   5.123   1.402 -0.6590 -1.9198  0.4478
 2857TIP3    H2 8578   2.632   5.211   1.485  1.6064  1.8646 -0.8232
 2858TIP3   OH2 8579   6.132   4.350   2.582  0.0444  0.0133 -0.7165
 2858TIP3    H1 8580   6.111   4.262   2.613  0.0054  0.5847  0.9970
 2858TIP3    H2 8581   6.225   4.362   2.605 -0.1578  0.6927 -0.2394
 2859TIP3   OH2 8582   2.636   3.788   0.499 -0.4837 -0.5123 -0.0987
 2859TIP3    H1 8583   2.720   3.798   0.454 -0.5408 -0.2373 -0.1480
 2859TIP3    H2 8584   2.657   3.742   0.580 -0.4116 -1.2077 -0.5071
 2860TIP3   OH2 8585   1.693   0.261   0.540  0.0499  0.1782  0.0334
 2860TIP3    H1 8586   1.636   0.322   0.493 -0.7505  0.1724  0.9542
 2860TIP3    H2 8587   1.658   0.175   0.520  0.0292  0.1424  0.2223
 2861TIP3   OH2 8588   4.826   4.311   2.892  0.2732 -0.2866  0.2977
 2861TIP3    H1 8589   4.889   4.383   2.896  0.2605 -0.2867  0.5309
 2861TIP3    H2 8590   4.743   4.353   2.868  0.1238 -0.1289  1.0739
 2862TIP3   OH2 8591   1.941   5.475   0.415  0.7853 -0.0972 -0.0582
 2862TIP3    H1 8592   1.941   5.542   0.347  0.7046  0.1407  0.1755
 2862TIP3    H2 8593   1.901   5.517   0.491  2.5564  0.2470  0.7312
 2863TIP3   OH2 8594   2.395   4.330   0.772  0.3664 -0.6584 -0.0792
 2863TIP3    H1 8595   2.380   4.254   0.829  0.4901  0.7506  1.9448
 2863TIP3    H2 8596   2.307   4.357   0.745  0.3294 -1.5672 -0.8885
 2864TIP3   OH2 8597   1.340   4.210   1.056  0.3131  0.3139 -0.3887
 2864TIP3    H1 8598   1.311   4.132   1.009  1.2519  0.8023 -1.8362
 2864TIP3    H2 8599   1.279   4.279   1.030  0.5174  0.4613 -0.4846
 2865TIP3   OH2 8600   3.171   0.277   1.716  0.1239 -0.3672 -0.8978
 2865TIP3    H1 8601   3.136   0.356   1.676  1.1224  0.6591  0.1786
 2865TIP3    H2 8602   3.094   0.221   1.729 -0.7003  0.6752 -1.1337
 2866TIP3   OH2 8603   0.452   1.880   3.950  0.0091  0.2324 -0.1876
 2866TIP3    H1 8604   0.513   1.806   3.951  1.1725  1.1645  0.7420
 2866TIP3    H2 8605   0.478   1.932   3.874  1.1519  1.1977  0.8048
 2867TIP3   OH2 8606   0.538   5.347   4.854  0.0852  0.1381 -0.6716
 2867TIP3    H1 8607   0.493   5.264   4.837 -0.3461  0.1222  0.4709
 2867TIP3    H2 8608   0.631   5.323   4.852 -0.0261 -0.3210 -0.6214
 2868TIP3   OH2 8609   3.896   4.866   2.021  0.3589 -0.0762 -0.1140
 2868TIP3    H1 8610   3.828   4.911   2.072  0.4408  2.4193 -2.0206
 2868TIP3    H2 8611   3.858   4.858   1.933  1.8232 -0.3660 -0.7419
 2869TIP3   OH2 8612   0.765   5.432   2.201  0.3865  0.1433 -0.5972
 2869TIP3    H1 8613   0.748   5.338   2.188 -0.5992  0.3873 -1.2112
 2869TIP3    H2 8614   0.855   5.436   2.233 -0.0520 -1.1183  0.8836
 2870TIP3   OH2 8615   3.950   2.032   2.958  0.0108  0.1806  0.6840
 2870TIP3    H1 8616   3.903   1.956   2.991  1.9363 -1.6143 -0.4998
 2870TIP3    H2 8617   3.932   2.032   2.864  1.3149  0.2482  0.4287
 2871TIP3   OH2 8618   3.603   4.150   2.262 -0.2182 -0.2613 -0.0162
 2871TIP3    H1 8619   3.612   4.062   2.298 -1.1229 -0.5956 -0.5759
 2871TIP3    H2 8620   3.590   4.136   2.168 -2.3450  0.3422  0.1304
 2872TIP3   OH2 8621   1.157   1.351   1.264 -0.1441  0.2432 -0.2988
 2872TIP3    H1 8622   1.156   1.256   1.275  0.9930  0.2458 -0.0297
 2872TIP3    H2 8623   1.200   1.383   1.343 -0.7193  1.0133 -0.2806
 2873TIP3   OH2 8624   4.977   0.431   5.114 -0.2997 -0.4260 -0.1524
 2873TIP3    H1 8625   4.974   0.395   5.203 -2.2500 -0.1680 -0.0481
 2873TIP3    H2 8626   5.032   0.371   5.065  1.6864 -0.0193  1.4316
 2874TIP3   OH2 8627   4.198   3.980   0.112 -0.3018 -0.0607  0.7660
 2874TIP3    H1 8628   4.254   4.048   0.075 -0.0107 -0.2653  0.8233
 2874TIP3    H2 8629   4.232   3.966   0.201 -0.5178 -0.1048  0.8440
 2875TIP3   OH2 8630   0.076   3.772   4.763 -0.5638  0.2095 -0.2131
 2875TIP3    H1 8631   0.132   3.791   4.839  0.1076 -1.7849 -0.1405
 2875TIP3    H2 8632  -0.006   3.741   4.801  0.1766 -1.9239 -0.2093
 2876TIP3   OH2 8633   0.025   0.956   4.821  0.7227  0.9047  0.2074
 2876TIP3    H1 8634   0.044   0.867   4.852 -0.3414  0.7203  0.3651
 2876TIP3    H2 8635  -0.048   0.985   4.875  0.7124  1.6764 -0.2087
 2877TIP3   OH2 8636   5.384   2.773   2.099 -0.4596  0.3078 -0.1950
 2877TIP3    H1 8637   5.397   2.829   2.176  2.2121 -0.1476 -0.2185
 2877TIP3    H2 8638   5.429   2.691   2.121 -0.4450 -0.1750 -1.8713
 2878TIP3   OH2 8639   2.029   3.226   1.412  0.1345 -1.0190 -0.0995
 2878TIP3    H1 8640   2.053   3.135   1.394 -1.1897 -0.8963 -2.9978
 2878TIP3    H2 8641   2.057   3.273   1.334  0.7037  1.0938  1.3064
 2879TIP3   OH2 8642   1.317   5.868   2.121  0.2782 -0.3511 -0.3542
 2879TIP3    H1 8643   1.323   5.940   2.058  2.2202  0.4629  0.7018
 2879TIP3    H2 8644   1.404   5.828   2.121  0.0010 -1.0223  1.0213
 2880TIP3   OH2 8645   4.085   3.607   4.837  0.0537  0.3804 -0.5826
 2880TIP3    H1 8646   4.048   3.598   4.925 -2.3582 -0.3640 -1.5808
 2880TIP3    H2 8647   4.132   3.690   4.839 -1.9924  1.6045  0.7856
 2881TIP3   OH2 8648   0.575   0.217   0.537  0.0866 -0.0880 -0.2591
 2881TIP3    H1 8649   0.550   0.146   0.478 -0.0563  0.7499 -1.2267
 2881TIP3    H2 8650   0.663   0.194   0.566 -1.1406 -2.3499  2.0871
 2882TIP3   OH2 8651   1.008   3.098   2.567 -0.2969  0.0506 -0.3833
 2882TIP3    H1 8652   1.012   3.021   2.624  1.7851  0.6729  0.3863
 2882TIP3    H2 8653   0.965   3.067   2.488  1.8821 -2.3725 -0.7372
 2883TIP3   OH2 8654   1.337   2.616   3.532 -0.3019  0.0685 -0.5300
 2883TIP3    H1 8655   1.275   2.545   3.550  0.3248 -0.5237 -0.6356
 2883TIP3    H2 8656   1.420   2.583   3.567  0.0565  0.6351 -0.8472
 2884TIP3   OH2 8657   4.633   1.566   3.841  0.2659 -0.3485  0.2678
 2884TIP3    H1 8658   4.563   1.585   3.903  0.3726  1.8299 -0.2093
 2884TIP3    H2 8659   4.672   1.651   3.822  1.7262 -1.2606 -1.0285
 2885TIP3   OH2 8660   1.958   1.008   2.591  0.0238 -0.2131 -0.3897
 2885TIP3    H1 8661   2.013   0.932   2.610  0.2560  0.1722  0.5341
 2885TIP3    H2 8662   1.881   0.997   2.646 -0.6308 -0.5224 -1.3515
 2886TIP3   OH2 8663   5.688   3.421   4.262  0.1171 -0.2276  0.0708
 2886TIP3    H1 8664   5.715   3.345   4.313  0.8788  0.7427  1.1890
 2886TIP3    H2 8665   5.761   3.437   4.202 -0.0800 -0.4344 -0.2220
 2887TIP3   OH2 8666   4.545   3.258   2.719  0.0282  0.4431  0.3759
 2887TIP3    H1 8667   4.609   3.207   2.669 -0.6946  0.7231 -0.9022
 2887TIP3    H2 8668   4.468   3.201   2.723  0.0316  0.4820  1.0791
 2888TIP3   OH2 8669   2.007   3.196   0.429 -0.0536  0.3766 -0.7190
 2888TIP3    H1 8670   2.084   3.253   0.428  0.6984 -0.5877 -2.2764
 2888TIP3    H2 8671   1.948   3.236   0.365  1.3069 -1.5495 -3.3588
 2889TIP3   OH2 8672   1.417   1.279   1.720  0.3834 -0.2162  0.1304
 2889TIP3    H1 8673   1.382   1.361   1.754  0.4910  0.7416 -1.8970
 2889TIP3    H2 8674   1.464   1.240   1.794 -0.6061  0.9880  1.4445
 2890TIP3   OH2 8675   2.274   0.779   4.956 -0.4852  0.1244  0.1142
 2890TIP3    H1 8676   2.347   0.719   4.969 -1.1421 -0.5905  0.5646
 2890TIP3    H2 8677   2.196   0.723   4.953 -1.0537  0.8949 -0.0854
 2891TIP3   OH2 8678   4.303   5.754   2.718 -0.8027  0.5356  0.2117
 2891TIP3    H1 8679   4.215   5.779   2.748 -1.3617  0.4596 -1.2778
 2891TIP3    H2 8680   4.308   5.660   2.738 -1.6750  0.1950 -1.0727
 2892TIP3   OH2 8681   0.799   1.294   0.506 -0.1944 -0.2404 -0.5562
 2892TIP3    H1 8682   0.817   1.220   0.447 -0.4503 -0.2958 -0.5659
 2892TIP3    H2 8683   0.809   1.257   0.594  1.3815  0.1285 -0.5481
 2893TIP3   OH2 8684   3.762   5.818   4.692 -0.1157 -0.2281  0.2855
 2893TIP3    H1 8685   3.755   5.770   4.774 -1.2358 -1.3632 -0.4427
 2893TIP3    H2 8686   3.726   5.759   4.626 -0.3094  1.1003 -0.8508
 2894TIP3   OH2 8687   0.349   3.957   3.021 -0.0294  0.4126 -0.4186
 2894TIP3    H1 8688   0.388   4.041   3.043  0.6081  0.0037  0.0728
 2894TIP3    H2 8689   0.423   3.904   2.989  0.2129 -0.9169  2.0635
 2895TIP3   OH2 8690   1.535   2.336   3.389  0.5594 -0.0846 -0.1044
 2895TIP3    H1 8691   1.613   2.390   3.376  1.9451 -1.9599 -0.0626
 2895TIP3    H2 8692   1.494   2.331   3.303 -1.0721  3.0160  0.3544
 2896TIP3   OH2 8693   0.404   4.725   4.055  0.3274  0.2217 -0.0321
 2896TIP3    H1 8694   0.356   4.753   4.133 -0.9119 -0.6104 -0.4605
 2896TIP3    H2 8695   0.340   4.730   3.984  1.4863  1.1632 -1.0519
 2897TIP3   OH2 8696   5.501  -0.002   5.094 -0.4973 -0.2460  0.1404
 2897TIP3    H1 8697   5.483   0.091   5.111 -1.3078 -0.5363  0.9309
 2897TIP3    H2 8698   5.469  -0.047   5.172 -0.4379 -1.2304 -0.3917
 2898TIP3   OH2 8699   0.865   0.924   2.022 -0.0523 -0.1308  0.0416
 2898TIP3    H1 8700   0.828   0.977   2.093 -0.9760  0.2932 -0.7421
 2898TIP3    H2 8701   0.960   0.932   2.034 -0.1914  0.5582  0.7725
 2899TIP3   OH2 8702   4.666   5.441   3.183  0.2150 -0.2263  0.0261
 2899TIP3    H1 8703   4.755   5.436   3.148  0.1347 -3.0274 -0.0116
 2899TIP3    H2 8704   4.677   5.446   3.278  0.4473 -1.8263  0.1005
 2900TIP3   OH2 8705   0.379   3.889   4.468  0.9128 -0.8239  0.3046
 2900TIP3    H1 8706   0.463   3.845   4.461  0.4857 -1.6939  0.5459
 2900TIP3    H2 8707   0.318   3.821   4.495 -0.1145 -0.4882 -1.0573
 2901TIP3   OH2 8708   4.575   4.568   4.219  0.5157 -0.4055  0.5058
 2901TIP3    H1 8709   4.509   4.505   4.250 -0.1084 -0.0775 -0.1366
 2901TIP3    H2 8710   4.535   4.654   4.234  1.1679 -0.1647  0.9281
 2902TIP3   OH2 8711   3.020   1.225   0.814 -0.0267  0.3658 -0.5974
 2902TIP3    H1 8712   3.094   1.202   0.758 -1.0571 -0.4214 -1.6854
 2902TIP3    H2 8713   3.051   1.208   0.903  0.8090 -0.8550 -1.0947
 2903TIP3   OH2 8714   1.054   1.320   2.177  0.7958  0.6109  0.5383
 2903TIP3    H1 8715   0.992   1.390   2.155  0.3144  0.0373  0.0579
 2903TIP3    H2 8716   1.043   1.308   2.271 -1.8151 -1.3260  0.0938
 2904TIP3   OH2 8717   1.293   3.784   2.685 -0.2147  1.1011 -0.5802
 2904TIP3    H1 8718   1.278   3.708   2.742  0.0805  0.9997 -0.6367
 2904TIP3    H2 8719   1.386   3.802   2.693 -0.1086  0.8795 -1.2895
 2905TIP3   OH2 8720   2.470   5.744   3.898 -0.0589  0.4559  0.2305
 2905TIP3    H1 8721   2.518   5.690   3.835  0.3305 -1.1160  1.8195
 2905TIP3    H2 8722   2.400   5.688   3.930  0.9721  0.4334  2.6805
 2906TIP3   OH2 8723   0.929   1.565   2.117  0.3180 -0.5584 -0.0856
 2906TIP3    H1 8724   0.967   1.652   2.105  0.5937 -0.8876 -1.8044
 2906TIP3    H2 8725   0.840   1.582   2.146  1.1448  0.2426  2.2061
 2907TIP3   OH2 8726   3.594   0.315   0.099  0.1805  0.2091 -0.7280
 2907TIP3    H1 8727   3.621   0.397   0.058  1.8197  0.2888  0.4369
 2907TIP3    H2 8728   3.499   0.324   0.109  0.4059  2.3000  0.0595
 2908TIP3   OH2 8729   5.160   0.492   1.331  0.3377 -0.3882  0.3005
 2908TIP3    H1 8730   5.116   0.574   1.309 -3.0645 -1.9711  0.5487
 2908TIP3    H2 8731   5.182   0.452   1.247  1.3597  0.3810  0.1772
 2909TIP3   OH2 8732   3.504   2.118   1.047  0.0447  0.6218  0.2067
 2909TIP3    H1 8733   3.409   2.117   1.060 -0.0711 -1.4354 -0.4268
 2909TIP3    H2 8734   3.531   2.207   1.070 -1.8325  0.8301  1.8086
 2910TIP3   OH2 8735   2.652   3.417   2.756 -0.1000 -0.1671 -0.0417
 2910TIP3    H1 8736   2.603   3.499   2.758  0.7379  0.3378  1.0726
 2910TIP3    H2 8737   2.628   3.372   2.836  1.5626  0.3129  0.7778
 2911TIP3   OH2 8738   3.867   5.290   1.704 -0.2854 -0.7165 -0.6949
 2911TIP3    H1 8739   3.831   5.283   1.793 -1.7385  1.0016 -1.0809
 2911TIP3    H2 8740   3.874   5.200   1.674 -0.8154 -1.2863  0.7677
 2912TIP3   OH2 8741   6.142   3.116   1.945 -1.0524  0.6545 -0.3342
 2912TIP3    H1 8742   6.164   3.208   1.962 -1.5538  0.7119  0.0393
 2912TIP3    H2 8743   6.194   3.093   1.868 -0.4699  1.0728 -0.0736
 2913TIP3   OH2 8744   3.253   4.276   5.028 -0.0474  0.6692  0.6780
 2913TIP3    H1 8745   3.168   4.264   5.069 -1.3371  1.0297 -1.7021
 2913TIP3    H2 8746   3.286   4.359   5.064 -1.0830  0.9496  1.0032
 2914TIP3   OH2 8747   0.830   0.077   1.442  0.5207 -0.2139  0.1809
 2914TIP3    H1 8748   0.773   0.123   1.380  1.0332 -0.1032 -0.2143
 2914TIP3    H2 8749   0.804  -0.015   1.435  2.4351 -0.6656 -2.2956
 2915TIP3   OH2 8750   0.999   0.499   3.223  0.4153 -0.5196 -0.4437
 2915TIP3    H1 8751   1.028   0.411   3.199 -1.8757 -1.6293  0.5930
 2915TIP3    H2 8752   0.967   0.490   3.312 -0.0615  1.3333 -0.3964
 2916TIP3   OH2 8753   0.540   1.822   3.319  0.0191 -0.4613  0.9581
 2916TIP3    H1 8754   0.555   1.728   3.325  0.5137 -0.3424  1.6391
 2916TIP3    H2 8755   0.516   1.837   3.227  1.8608 -0.9825  0.3500
 2917TIP3   OH2 8756   2.628   0.254   3.370  0.0993 -0.0438 -0.5608
 2917TIP3    H1 8757   2.533   0.256   3.370 -0.0515 -2.0560  1.9628
 2917TIP3    H2 8758   2.653   0.283   3.282 -2.7693  1.3366 -1.0259
 2918TIP3   OH2 8759   0.326   2.985   2.403  0.3269  0.1192 -0.1370
 2918TIP3    H1 8760   0.346   2.918   2.337 -0.2352  2.7055 -3.2017
 2918TIP3    H2 8761   0.231   2.990   2.404  0.3629  1.3284 -0.5578
 2919TIP3   OH2 8762   1.192   3.943   0.480 -0.0783  0.3340  0.0236
 2919TIP3    H1 8763   1.172   3.988   0.398 -1.5841 -1.0803 -0.4330
 2919TIP3    H2 8764   1.253   4.002   0.525 -0.6698  2.0225 -1.2693
 2920TIP3   OH2 8765   0.269   4.361   0.374 -0.3629 -0.5756  0.0185
 2920TIP3    H1 8766   0.199   4.341   0.436 -0.8054 -3.1315 -1.1835
 2920TIP3    H2 8767   0.224   4.399   0.299 -0.1646 -0.1513  0.1083
 2921TIP3   OH2 8768   2.326   1.047   1.405 -0.1893 -0.2780  0.3241
 2921TIP3    H1 8769   2.317   1.110   1.477 -1.7929  0.2057 -0.2459
 2921TIP3    H2 8770   2.350   1.101   1.329 -0.8494 -0.4413 -0.0079
 2922TIP3   OH2 8771   1.187   4.291   1.823  0.2468 -0.1580 -0.0130
 2922TIP3    H1 8772   1.224   4.255   1.904  1.9793  1.9976  0.2384
 2922TIP3    H2 8773   1.118   4.350   1.853 -0.8917 -1.2990 -0.2954
 2923TIP3   OH2 8774   5.721   5.777   4.280 -0.7286 -0.2132  0.0819
 2923TIP3    H1 8775   5.745   5.691   4.248 -1.3058 -0.2055 -0.3783
 2923TIP3    H2 8776   5.754   5.779   4.370 -0.0482 -0.6259 -0.1476
 2924TIP3   OH2 8777   1.018   2.251   1.666  0.9355  0.1302  0.7514
 2924TIP3    H1 8778   1.100   2.252   1.715  0.1164 -0.0731  2.2009
 2924TIP3    H2 8779   0.952   2.281   1.729 -0.3806 -1.4284  0.2083
 2925TIP3   OH2 8780   0.839   0.351   1.217  0.0239  0.1807 -0.1044
 2925TIP3    H1 8781   0.753   0.313   1.238 -0.4891  1.0108 -0.6342
 2925TIP3    H2 8782   0.820   0.416   1.149  1.2070 -0.2503 -0.8742
 2926TIP3   OH2 8783   3.675   1.013   2.817  0.0441  0.3681 -0.2676
 2926TIP3    H1 8784   3.674   1.098   2.774 -1.3468 -0.2429 -1.5091
 2926TIP3    H2 8785   3.655   1.033   2.909  0.8054  1.4655 -0.3245
 2927TIP3   OH2 8786   1.689   4.088   4.648 -0.5955 -0.3769 -0.2015
 2927TIP3    H1 8787   1.661   4.175   4.621 -0.4666 -0.7482 -1.6331
 2927TIP3    H2 8788   1.780   4.099   4.676 -0.2287 -0.2263 -1.4162
 2928TIP3   OH2 8789   0.732   4.827   2.474 -0.5136  0.4306 -0.1204
 2928TIP3    H1 8790   0.657   4.787   2.518 -0.8785  0.4797 -0.6770
 2928TIP3    H2 8791   0.719   4.805   2.381 -0.6143  1.6512 -0.4108
 2929TIP3   OH2 8792   3.490   2.068   3.980  0.0203  0.8997  0.1588
 2929TIP3    H1 8793   3.584   2.082   3.992 -0.1365  2.1199  0.0985
 2929TIP3    H2 8794   3.460   2.147   3.936 -1.1219  0.7252  0.6004
 2930TIP3   OH2 8795   5.320   3.776   4.596  0.2540 -0.0229 -0.0765
 2930TIP3    H1 8796   5.326   3.868   4.619 -2.5207  0.4953 -1.0107
 2930TIP3    H2 8797   5.308   3.731   4.679  1.7596  0.3913  0.3966
 2931TIP3   OH2 8798   1.547   0.389   0.003 -0.7731 -0.1632  0.1660
 2931TIP3    H1 8799   1.552   0.461  -0.060 -0.1540 -0.1123  0.2684
 2931TIP3    H2 8800   1.479   0.416   0.064 -1.2293 -0.1150 -0.3581
 2932TIP3   OH2 8801   2.733   3.697   0.741  0.1074 -0.2455  0.4977
 2932TIP3    H1 8802   2.711   3.751   0.817 -0.4148 -0.1825  0.3014
 2932TIP3    H2 8803   2.825   3.674   0.755  1.0583  2.4957 -0.4738
 2933TIP3   OH2 8804   1.157   2.429   4.186  0.0177  0.2019 -0.1664
 2933TIP3    H1 8805   1.181   2.340   4.162 -0.3388 -0.4911  1.8587
 2933TIP3    H2 8806   1.063   2.434   4.171  0.1217  0.4170 -0.7696
 2934TIP3   OH2 8807   4.938   0.311   3.605  0.5942  0.4245 -0.3743
 2934TIP3    H1 8808   4.848   0.344   3.601 -0.0048 -0.8160  1.5754
 2934TIP3    H2 8809   4.936   0.229   3.555  0.4589  0.0813  0.1789
 2935TIP3   OH2 8810   6.079   0.453   0.510 -0.0484 -0.5493  0.6411
 2935TIP3    H1 8811   6.008   0.395   0.482  0.4290 -1.5449  1.4297
 2935TIP3    H2 8812   6.103   0.422   0.597  0.4787  0.6164  0.9379
 2936TIP3   OH2 8813   2.665   5.021   4.817  0.1798  0.2793  0.4780
 2936TIP3    H1 8814   2.709   5.082   4.875 -0.4496  2.0524 -0.8262
 2936TIP3    H2 8815   2.572   5.030   4.838  0.2053 -1.7590  1.6549
 2937TIP3   OH2 8816   0.096   4.912   5.095  0.3739 -0.7654 -0.5682
 2937TIP3    H1 8817   0.048   4.830   5.090 -0.2534 -0.5961  1.5849
 2937TIP3    H2 8818   0.036   4.972   5.139  0.4311  1.2040 -2.9682
 2938TIP3   OH2 8819   3.427   1.479   2.340  0.4799  0.1098 -0.1601
 2938TIP3    H1 8820   3.502   1.537   2.350  1.3156 -1.2367  2.2845
 2938TIP3    H2 8821   3.464   1.391   2.330 -0.7557 -0.3982 -0.5706
 2939TIP3   OH2 8822   0.418   3.384   2.590  0.0501 -0.0765  0.2220
 2939TIP3    H1 8823   0.435   3.384   2.496  0.3586 -1.0750  0.2711
 2939TIP3    H2 8824   0.409   3.292   2.613 -0.8730  0.1952  1.0254
 2940TIP3   OH2 8825   5.804   1.543   4.174 -0.1514  0.0294 -0.5406
 2940TIP3    H1 8826   5.899   1.554   4.170 -0.1501  0.1529 -0.1839
 2940TIP3    H2 8827   5.768   1.626   4.143 -0.1390  0.5527  0.7677
 2941TIP3   OH2 8828   2.923   0.857   2.264  0.2740  0.2142  0.5836
 2941TIP3    H1 8829   2.869   0.936   2.261 -0.4287 -0.2603  0.5055
 2941TIP3    H2 8830   2.881   0.797   2.202  0.8182 -0.2122  0.6185
 2942TIP3   OH2 8831   4.392   3.459   5.002 -0.9191 -0.3839  0.0222
 2942TIP3    H1 8832   4.352   3.523   5.062 -1.6379 -1.9393  1.2726
 2942TIP3    H2 8833   4.341   3.379   5.016 -0.3768 -1.1068 -1.8827
 2943TIP3   OH2 8834   5.695   2.607   0.917  0.1932  0.1545 -0.0279
 2943TIP3    H1 8835   5.600   2.605   0.910  0.1470  1.0462  0.2195
 2943TIP3    H2 8836   5.713   2.673   0.985  0.8801 -1.9882  2.0300
 2944TIP3   OH2 8837   5.652   0.064   4.728 -0.1775 -0.5907  0.0710
 2944TIP3    H1 8838   5.724   0.002   4.740 -0.6180 -1.1330 -0.0544
 2944TIP3    H2 8839   5.573   0.013   4.744 -0.6107 -0.3676 -1.2480
 2945TIP3   OH2 8840   4.611   3.534   1.919  0.3258  0.6084 -0.1898
 2945TIP3    H1 8841   4.681   3.596   1.937  0.5366 -0.0897  1.6099
 2945TIP3    H2 8842   4.609   3.476   1.996 -0.8298 -0.6971 -1.1399
 2946TIP3   OH2 8843   0.094   3.117   0.744  0.0438  0.6789 -0.1888
 2946TIP3    H1 8844   0.148   3.195   0.757 -0.3862  1.2521 -1.6917
 2946TIP3    H2 8845   0.056   3.101   0.831  0.8956  1.5492  0.3769
 2947TIP3   OH2 8846   3.356   0.971   1.577 -0.0868 -0.1821 -0.0878
 2947TIP3    H1 8847   3.286   0.918   1.539 -1.4813 -0.1810  2.2513
 2947TIP3    H2 8848   3.310   1.035   1.632  1.7242 -0.1367  1.4749
 2948TIP3   OH2 8849   5.933   5.512   1.666 -0.2593  0.2018  0.2923
 2948TIP3    H1 8850   5.892   5.460   1.596  0.4151  1.8491 -1.3871
 2948TIP3    H2 8851   5.859   5.550   1.712 -0.7059  0.2294 -0.4210
 2949TIP3   OH2 8852   4.001   3.949   4.727  0.2003 -0.4403 -0.1968
 2949TIP3    H1 8853   4.048   3.914   4.802 -1.1458  0.2920  1.0370
 2949TIP3    H2 8854   4.063   4.010   4.686  1.5662 -2.1194 -0.7466
 2950TIP3   OH2 8855   4.523   2.489   2.692  0.2057  0.4691 -0.6760
 2950TIP3    H1 8856   4.453   2.550   2.715  1.5653  2.0520 -0.5265
 2950TIP3    H2 8857   4.505   2.466   2.600  0.2812  2.0190 -1.1075
 2951TIP3   OH2 8858   5.792   2.358   1.938  0.2264  0.2996 -0.1631
 2951TIP3    H1 8859   5.834   2.416   2.001 -0.4471  0.8722 -0.2316
 2951TIP3    H2 8860   5.741   2.417   1.882  0.5674 -0.2288 -1.0536
 2952TIP3   OH2 8861   3.060   1.467   1.250  0.6894  0.2122  0.0988
 2952TIP3    H1 8862   2.997   1.440   1.316  2.2511  0.1386  1.6388
 2952TIP3    H2 8863   3.017   1.539   1.203 -0.4082  0.3696  1.3030
 2953TIP3   OH2 8864   3.302   5.576   0.775  0.2516  0.0802  0.1576
 2953TIP3    H1 8865   3.241   5.517   0.732  0.2272 -0.5955  1.0920
 2953TIP3    H2 8866   3.375   5.520   0.802  0.7411  0.6702  0.0946
 2954TIP3   OH2 8867   5.238   1.589   2.280 -0.0297  0.2142 -0.2875
 2954TIP3    H1 8868   5.250   1.605   2.374 -0.0200 -1.6349  0.0510
 2954TIP3    H2 8869   5.300   1.520   2.259  0.6911  1.2915 -1.9199
 2955TIP3   OH2 8870   2.631   2.369   1.848 -0.8220 -0.4898 -0.1131
 2955TIP3    H1 8871   2.709   2.320   1.873 -1.0812 -0.3713  1.0020
 2955TIP3    H2 8872   2.636   2.450   1.900 -1.9963 -0.7659  0.4757
 2956TIP3   OH2 8873   4.951   0.804   0.901  0.4355 -0.2545 -0.8846
 2956TIP3    H1 8874   4.901   0.877   0.866  2.2871  1.9620  0.7647
 2956TIP3    H2 8875   5.026   0.795   0.842  1.4122  0.7607  0.1639
 2957TIP3   OH2 8876   3.115   2.681   2.736  0.5223 -0.2412 -0.1130
 2957TIP3    H1 8877   3.055   2.696   2.663  0.3209  0.5871  0.2132
 2957TIP3    H2 8878   3.163   2.763   2.745  1.6472 -0.8669 -0.3107
 2958TIP3   OH2 8879   2.485   2.744   5.084 -0.4640 -0.7016  0.5404
 2958TIP3    H1 8880   2.512   2.718   5.171  1.4932 -2.2115 -0.4408
 2958TIP3    H2 8881   2.567   2.766   5.039 -1.3545 -0.6207 -1.1276
 2959TIP3   OH2 8882   4.336   4.689  -0.020 -0.2774 -0.4003  0.6125
 2959TIP3    H1 8883   4.241   4.680  -0.029 -0.3768  0.3178  0.8844
 2959TIP3    H2 8884   4.350   4.711   0.072  0.2701 -1.9078  0.9149
 2960TIP3   OH2 8885   0.935   2.500   2.036  0.5213 -0.0581 -0.2034
 2960TIP3    H1 8886   0.923   2.479   2.129 -2.0705  2.6942  0.2320
 2960TIP3    H2 8887   0.895   2.426   1.990 -0.2559 -0.3911  0.9447
 2961TIP3   OH2 8888   3.771   2.189   2.561  0.2589  0.2294 -0.3580
 2961TIP3    H1 8889   3.730   2.137   2.630  0.2500  0.3110 -0.3017
 2961TIP3    H2 8890   3.711   2.181   2.486  0.3188  0.0601 -0.3878
 2962TIP3   OH2 8891   2.659   2.952   2.170  0.0170  0.6547  0.1603
 2962TIP3    H1 8892   2.650   2.876   2.227  0.3775 -0.1408 -0.8075
 2962TIP3    H2 8893   2.737   2.997   2.202  0.6062 -0.1538 -0.0848
 2963TIP3   OH2 8894   2.228   1.870   0.776 -0.5866 -0.0242 -0.3054
 2963TIP3    H1 8895   2.213   1.784   0.814 -0.2048  0.3703  0.7720
 2963TIP3    H2 8896   2.315   1.863   0.735 -0.0084  0.1841  0.8351
 2964TIP3   OH2 8897   2.555   0.160   4.530 -0.3730 -0.3042  0.1879
 2964TIP3    H1 8898   2.503   0.103   4.472 -1.8969  0.3811  0.8236
 2964TIP3    H2 8899   2.521   0.248   4.514  0.8093  0.2215  0.4373
 2965TIP3   OH2 8900   2.113   5.405   3.626  0.7248  0.3526 -0.2366
 2965TIP3    H1 8901   2.141   5.352   3.700 -1.2303 -2.0489 -1.0727
 2965TIP3    H2 8902   2.169   5.378   3.554 -0.2981 -0.6967 -0.6729
 2966TIP3   OH2 8903   3.999   4.739   1.173 -0.0522 -0.0072  0.2774
 2966TIP3    H1 8904   4.061   4.793   1.222 -1.9055  1.3329  1.2797
 2966TIP3    H2 8905   3.964   4.798   1.106  0.1257 -0.9010 -0.6159
 2967TIP3   OH2 8906   0.391   3.611   3.324  0.2107 -0.1528 -0.4457
 2967TIP3    H1 8907   0.335   3.621   3.247 -1.3480 -0.5843  0.5824
 2967TIP3    H2 8908   0.330   3.607   3.398  1.5082 -2.1302  0.6085
 2968TIP3   OH2 8909   4.561   5.120   0.587 -0.2566 -0.4283  0.3533
 2968TIP3    H1 8910   4.623   5.122   0.660  0.0706 -0.6487  0.0807
 2968TIP3    H2 8911   4.494   5.058   0.615 -1.5395  1.3933  1.5959
 2969TIP3   OH2 8912   4.769   4.710   3.222  0.2093  0.6114 -0.0445
 2969TIP3    H1 8913   4.700   4.701   3.155  1.4807  1.7973 -1.5995
 2969TIP3    H2 8914   4.804   4.622   3.232 -0.3581  0.3171 -0.5740
 2970TIP3   OH2 8915   2.725   1.686   1.462 -0.5066  0.4804 -0.7610
 2970TIP3    H1 8916   2.634   1.657   1.471 -0.4235  0.4074 -0.1278
 2970TIP3    H2 8917   2.719   1.778   1.436 -0.7600  0.4072 -0.9668
 2971TIP3   OH2 8918   1.460   1.323   2.226 -0.0305  0.6249 -0.2195
 2971TIP3    H1 8919   1.467   1.354   2.136 -1.0057 -0.6831 -0.7759
 2971TIP3    H2 8920   1.386   1.372   2.262  0.8153  1.6801  0.1207
 2972TIP3   OH2 8921   6.138   4.917   4.960 -0.2217  0.5106 -0.4990
 2972TIP3    H1 8922   6.046   4.921   4.986  0.1282  0.7382  0.7601
 2972TIP3    H2 8923   6.178   4.995   4.999  1.1620 -1.2002  1.8077
 2973TIP3   OH2 8924   5.302   5.802   2.568  0.2981  0.1457  0.2457
 2973TIP3    H1 8925   5.320   5.807   2.661 -1.1998 -1.1476  0.6466
 2973TIP3    H2 8926   5.377   5.756   2.531 -0.0851 -1.2959  1.1815
 2974TIP3   OH2 8927   4.297   5.769   4.043 -0.1092  0.4514  0.0217
 2974TIP3    H1 8928   4.363   5.776   3.974  0.2258  1.4829  0.4202
 2974TIP3    H2 8929   4.226   5.826   4.014  0.2622  1.3200  0.7508
 2975TIP3   OH2 8930   5.310   4.528   1.512  0.2876 -0.2352  0.0999
 2975TIP3    H1 8931   5.386   4.483   1.475  0.4542  0.1556 -0.0434
 2975TIP3    H2 8932   5.291   4.480   1.592 -0.3923 -1.4132 -0.7292
 2976TIP3   OH2 8933   5.016   3.461   3.961 -0.4330 -0.2374 -0.2163
 2976TIP3    H1 8934   5.000   3.484   4.052 -0.7025 -1.4391  0.0569
 2976TIP3    H2 8935   5.046   3.542   3.920 -0.1631  0.2747  0.9735
 2977TIP3   OH2 8936   6.238   5.244   4.828  0.1431  0.3692  0.5709
 2977TIP3    H1 8937   6.279   5.327   4.854  0.2181  0.3467  0.5269
 2977TIP3    H2 8938   6.273   5.180   4.890  1.0944  0.1294 -0.1799
 2978TIP3   OH2 8939   1.320   3.502   4.812  0.1565 -0.5881 -0.5488
 2978TIP3    H1 8940   1.299   3.560   4.739 -0.4111  0.4757  0.4232
 2978TIP3    H2 8941   1.256   3.432   4.807 -2.1092  1.2492  0.8419
 2979TIP3   OH2 8942   1.211   3.083   1.998  0.2228  0.4258  1.2189
 2979TIP3    H1 8943   1.299   3.057   1.972 -0.1589 -0.9909  1.2441
 2979TIP3    H2 8944   1.187   3.022   2.067 -1.2558 -0.0532  0.3283
 2980TIP3   OH2 8945   1.733   5.540   1.923 -0.9284  0.1512  0.4093
 2980TIP3    H1 8946   1.808   5.484   1.944 -0.4934  0.7771  0.5662
 2980TIP3    H2 8947   1.679   5.539   2.001 -0.4666  0.6498  0.7479
 2981TIP3   OH2 8948   4.125   3.356   0.949 -0.1148 -0.2248  0.5026
 2981TIP3    H1 8949   4.033   3.382   0.942  0.0578  0.2362 -0.2149
 2981TIP3    H2 8950   4.151   3.336   0.859  0.2822 -1.0768  0.8046
 2982TIP3   OH2 8951   0.491   0.754   4.814 -0.3330  0.1868 -0.0264
 2982TIP3    H1 8952   0.467   0.839   4.776 -0.8940 -0.6076 -1.5541
 2982TIP3    H2 8953   0.491   0.769   4.908 -0.8848  1.7600 -0.2360
 2983TIP3   OH2 8954   3.833   3.873   1.230 -0.1345  0.5612  0.0198
 2983TIP3    H1 8955   3.838   3.967   1.248  1.1795  0.6460 -0.6591
 2983TIP3    H2 8956   3.875   3.832   1.305  0.5872  0.6076 -0.3533
 2984TIP3   OH2 8957   4.941   4.479   4.015  0.3922  0.2711 -0.8029
 2984TIP3    H1 8958   4.932   4.418   4.089  0.2606 -0.5137 -1.4561
 2984TIP3    H2 8959   4.946   4.565   4.056  2.4596 -0.2956  0.2527
 2985TIP3   OH2 8960   2.394   2.629   2.691  0.1286  0.0613 -0.3136
 2985TIP3    H1 8961   2.347   2.609   2.772 -0.8431 -0.3618 -0.9631
 2985TIP3    H2 8962   2.452   2.555   2.678 -0.0553 -0.0968 -0.2452
 2986TIP3   OH2 8963   2.955   0.288   3.161  0.3287 -0.3747  0.1034
 2986TIP3    H1 8964   2.869   0.328   3.168  0.5208  0.1365 -0.3700
 2986TIP3    H2 8965   2.946   0.225   3.089  0.3808 -0.2412 -0.0199
 2987TIP3   OH2 8966   2.572   2.085   1.648  0.1577  0.3359  0.3505
 2987TIP3    H1 8967   2.662   2.118   1.649  0.0292  0.6900  0.6540
 2987TIP3    H2 8968   2.573   2.011   1.709  0.3522  0.0393 -0.0125
 2988TIP3   OH2 8969   4.993   3.581   0.113  0.4778 -0.3909  0.5181
 2988TIP3    H1 8970   4.940   3.503   0.130  0.6361 -0.8919 -1.1080
 2988TIP3    H2 8971   4.932   3.642   0.072  0.8183 -0.4242 -0.0439
 2989TIP3   OH2 8972   2.672   3.416   4.284  0.3289 -0.1023 -0.2881
 2989TIP3    H1 8973   2.740   3.479   4.261  1.0098 -1.0873 -1.0755
 2989TIP3    H2 8974   2.695   3.386   4.372  0.7418 -0.1906 -0.4230
 2990TIP3   OH2 8975   6.240   5.746   0.996  0.3248  0.4704  0.3087
 2990TIP3    H1 8976   6.260   5.827   0.949 -1.3545  0.1708 -1.0400
 2990TIP3    H2 8977   6.149   5.756   1.023  0.2518 -0.7502  0.5698
 2991TIP3   OH2 8978   2.907   4.064   2.612 -0.2727 -0.5348  0.1711
 2991TIP3    H1 8979   2.860   4.147   2.616  0.5557 -0.0225 -0.4785
 2991TIP3    H2 8980   2.954   4.067   2.528  3.1355  0.1926  1.9300
 2992TIP3   OH2 8981   0.051   2.374   4.010 -0.0179  0.7689  0.6538
 2992TIP3    H1 8982   0.054   2.346   3.919 -1.4137  0.6133  0.6398
 2992TIP3    H2 8983   0.137   2.350   4.045  0.0392 -0.4509 -0.2497
 2993TIP3   OH2 8984   4.213   3.301   0.710 -0.4197  0.0077  0.3832
 2993TIP3    H1 8985   4.208   3.287   0.616 -1.0686 -0.9062  0.5340
 2993TIP3    H2 8986   4.300   3.338   0.725 -0.7963  1.3960 -0.7046
 2994TIP3   OH2 8987   1.869   0.312   4.500  0.0186 -0.6740  0.1241
 2994TIP3    H1 8988   1.873   0.219   4.476  0.8489 -0.2591 -1.4619
 2994TIP3    H2 8989   1.948   0.350   4.463  0.0520  0.5569  1.3656
 2995TIP3   OH2 8990   0.080   1.450   4.009 -0.8013 -0.0499  0.0401
 2995TIP3    H1 8991   0.078   1.441   3.914  0.3064  2.0851 -0.2580
 2995TIP3    H2 8992   0.169   1.481   4.028 -0.2146 -2.6611  2.0475
 2996TIP3   OH2 8993   6.316   3.950   3.624  0.0740  0.1005  0.5342
 2996TIP3    H1 8994   6.377   3.997   3.682  1.0024 -0.3778 -0.0346
 2996TIP3    H2 8995   6.232   3.955   3.670  0.7106  0.0264  1.7650
 2997TIP3   OH2 8996   0.184   4.264   4.693 -0.5567 -0.7629 -0.3334
 2997TIP3    H1 8997   0.269   4.233   4.723 -0.2972 -0.9215 -1.1830
 2997TIP3    H2 8998   0.162   4.207   4.619 -1.4175 -0.7451 -0.1079
 2998TIP3   OH2 8999   4.831   4.112   0.199  0.0677  0.6031 -0.2651
 2998TIP3    H1 9000   4.785   4.184   0.243 -0.3170  1.1468 -1.4824
 2998TIP3    H2 9001   4.784   4.033   0.226  0.2869  0.8365  0.8338
 2999TIP3   OH2 9002   5.999   3.613   4.602 -0.0863 -0.3629  0.1831
 2999TIP3    H1 9003   6.076   3.611   4.659  0.2774 -2.2948 -0.3044
 2999TIP3    H2 9004   6.017   3.547   4.536 -1.9587 -0.4908 -0.2358
 3000TIP3   OH2 9005   4.099   2.257   2.965 -0.5434  0.1379 -0.0573
 3000TIP3    H1 9006   4.051   2.176   2.949  1.4306 -1.3979  1.4272
 3000TIP3    H2 9007   4.155   2.267   2.888 -0.2480 -0.3249  0.0953
 3001TIP3   OH2 9008   1.916   1.468   3.843  0.3353 -0.2052 -0.8533
 3001TIP3    H1 9009   1.864   1.540   3.879  0.1659 -0.5034 -0.4995
 3001TIP3    H2 9010   1.864   1.389   3.860  0.9530 -0.5189 -0.3966
 3002TIP3   OH2 9011   3.947   4.797   1.646  0.5465 -0.1555 -0.4956
 3002TIP3    H1 9012   4.028   4.747   1.649  0.6993  0.0248 -1.3326
 3002TIP3    H2 9013   3.905   4.771   1.564  0.1743  0.3892 -0.4848
 3003TIP3   OH2 9014   0.549   5.675   4.277  0.6044 -0.3859  0.0211
 3003TIP3    H1 9015   0.542   5.697   4.184 -1.2658  0.1467  0.2634
 3003TIP3    H2 9016   0.483   5.607   4.292  2.2959 -2.0227  0.5625
 3004TIP3   OH2 9017   0.052   0.294   5.072 -0.6794  0.0632  0.1418
 3004TIP3    H1 9018   0.067   0.220   5.130 -0.8326 -0.3025 -0.2743
 3004TIP3    H2 9019   0.040   0.254   4.985 -0.1144  0.6215 -0.1988
 3005TIP3   OH2 9020   2.252   0.525   4.371  0.3673 -0.6382 -0.4091
 3005TIP3    H1 9021   2.167   0.562   4.393 -0.2102 -0.8996 -2.0693
 3005TIP3    H2 9022   2.232   0.446   4.320  1.5808 -2.3261  1.5528
 3006TIP3   OH2 9023   5.603   4.313   0.859 -0.3499  0.0379  0.0053
 3006TIP3    H1 9024   5.609   4.246   0.790 -3.3365 -0.4091  0.0214
 3006TIP3    H2 9025   5.635   4.393   0.818 -0.0935 -0.6688 -1.2258
 3007TIP3   OH2 9026   3.088   1.686   2.104  0.4623  0.0295 -0.1184
 3007TIP3    H1 9027   3.095   1.768   2.055 -0.6195  0.8769  1.0678
 3007TIP3    H2 9028   3.007   1.646   2.073 -0.5068  0.8282  1.2840
 3008TIP3   OH2 9029   5.202   5.027   0.711  0.0957 -0.0331 -0.2394
 3008TIP3    H1 9030   5.112   5.060   0.703  0.1211 -0.0012 -0.4088
 3008TIP3    H2 9031   5.255   5.106   0.721  0.0918 -0.0592 -0.0086
 3009TIP3   OH2 9032   0.345   5.092   1.552  0.0408  0.5691 -0.3456
 3009TIP3    H1 9033   0.307   5.096   1.464 -0.7058 -0.2196 -0.0707
 3009TIP3    H2 9034   0.308   5.013   1.591  0.9220  0.5172  0.4313
 3010TIP3   OH2 9035   0.969   4.305   2.538  0.3415 -0.3547 -0.6595
 3010TIP3    H1 9036   0.882   4.277   2.566  0.2027  1.5329  0.9843
 3010TIP3    H2 9037   1.029   4.247   2.585 -0.0040 -0.9016 -0.8884
 3011TIP3   OH2 9038   4.095   5.924   2.769 -0.3279  0.7704  0.2001
 3011TIP3    H1 9039   4.152   5.965   2.833 -1.8328  2.6490  0.4431
 3011TIP3    H2 9040   4.102   5.979   2.691  0.8502 -1.0137 -1.0388
 3012TIP3   OH2 9041   5.800   5.843   0.307  0.4080  0.2706  0.0051
 3012TIP3    H1 9042   5.792   5.884   0.220 -0.7174 -1.3611 -0.6999
 3012TIP3    H2 9043   5.713   5.851   0.345  0.2988 -0.9926  0.0523
 3013TIP3   OH2 9044   4.249   2.497   4.762  0.3518 -0.6134  0.2856
 3013TIP3    H1 9045   4.165   2.512   4.805  0.4756 -0.1494  0.3789
 3013TIP3    H2 9046   4.227   2.493   4.669  0.1872 -0.7926  0.3317
 3014TIP3   OH2 9047   4.607   3.221   4.884 -0.2332 -0.3620  0.2293
 3014TIP3    H1 9048   4.636   3.130   4.890 -2.4752 -1.1960 -0.5309
 3014TIP3    H2 9049   4.548   3.232   4.959 -0.4931  0.2422 -0.0550
 3015TIP3   OH2 9050   1.169   2.954   4.916  0.1039  0.0722  0.1253
 3015TIP3    H1 9051   1.233   2.901   4.867 -0.7766 -1.6908  0.7929
 3015TIP3    H2 9052   1.146   2.899   4.991 -2.6417  0.3705 -0.4084
 3016TIP3   OH2 9053   2.450   1.717   1.437  0.3059  0.0872  0.2820
 3016TIP3    H1 9054   2.438   1.720   1.532 -0.8284 -1.2282  0.2099
 3016TIP3    H2 9055   2.394   1.645   1.408  0.0381  0.9524 -1.4811
 3017TIP3   OH2 9056   1.634   0.670   1.614 -0.2707 -0.2345 -0.4490
 3017TIP3    H1 9057   1.551   0.650   1.658 -0.9091  0.8204 -1.1278
 3017TIP3    H2 9058   1.632   0.617   1.534 -0.4021 -0.0414 -0.5755
 3018TIP3   OH2 9059   0.808   0.520   2.640  0.2333 -0.0768 -0.4527
 3018TIP3    H1 9060   0.744   0.456   2.670  0.2314  0.2710  0.2922
 3018TIP3    H2 9061   0.796   0.523   2.545 -0.2200 -0.6898 -0.4165
 3019TIP3   OH2 9062   4.532   2.137   3.133  0.1761 -0.8972 -0.4338
 3019TIP3    H1 9063   4.581   2.081   3.073  0.8511  0.2788 -1.0198
 3019TIP3    H2 9064   4.559   2.226   3.110 -0.2439 -0.3668  1.0066
 3020TIP3   OH2 9065   2.677   4.559   0.442  0.6131 -0.1497 -0.0715
 3020TIP3    H1 9066   2.641   4.472   0.427  0.2046  0.4582 -3.2173
 3020TIP3    H2 9067   2.772   4.545   0.452  0.4207 -1.0285  0.5963
 3021TIP3   OH2 9068   5.150   2.287   5.175 -0.6709 -0.4398  0.0024
 3021TIP3    H1 9069   5.147   2.211   5.118 -1.1259  0.0344 -0.6303
 3021TIP3    H2 9070   5.089   2.349   5.135 -2.2028 -0.6566  1.8283
 3022TIP3   OH2 9071   3.635   2.491   2.388  0.5790  0.4096 -0.5590
 3022TIP3    H1 9072   3.729   2.472   2.391  0.1725 -1.9285 -0.2601
 3022TIP3    H2 9073   3.595   2.406   2.369 -1.5442  1.1272  0.4534
 3023TIP3   OH2 9074   1.667   2.802   4.081  0.5243 -0.2369  0.1956
 3023TIP3    H1 9075   1.676   2.893   4.110 -0.9172 -0.1990  0.6089
 3023TIP3    H2 9076   1.580   2.798   4.041  1.3891 -0.9514 -1.7081
 3024TIP3   OH2 9077   2.494   4.184   2.291  0.2480 -0.0499  0.4872
 3024TIP3    H1 9078   2.489   4.137   2.374  1.7426  1.6732  1.5985
 3024TIP3    H2 9079   2.472   4.274   2.312 -1.7955  0.0103 -1.4767
 3025TIP3   OH2 9080   5.522   2.225   1.974  0.2690  0.2560  0.2804
 3025TIP3    H1 9081   5.608   2.207   2.011  0.1340  2.1453  1.7043
 3025TIP3    H2 9082   5.502   2.314   2.003 -2.2073 -0.1620  0.0752
 3026TIP3   OH2 9083   0.354   5.805   1.808 -0.5316 -0.2297  0.1373
 3026TIP3    H1 9084   0.332   5.759   1.727 -0.4972 -0.9466  0.5178
 3026TIP3    H2 9085   0.280   5.865   1.823 -0.8254 -0.5244 -0.1138
 3027TIP3   OH2 9086   4.223   3.256   0.416  0.2659 -0.2664 -0.3039
 3027TIP3    H1 9087   4.314   3.246   0.444 -0.2811 -2.6926  0.7954
 3027TIP3    H2 9088   4.213   3.196   0.343 -0.2380  0.6929 -1.0502
 3028TIP3   OH2 9089   1.795   2.584   1.792  0.5413  0.0799 -0.3681
 3028TIP3    H1 9090   1.790   2.639   1.871  0.3477  0.6180 -0.7485
 3028TIP3    H2 9091   1.716   2.606   1.743 -0.5230 -1.8924  0.3229
 3029TIP3   OH2 9092   2.166   0.451   2.779  0.6166  0.6140  0.2215
 3029TIP3    H1 9093   2.126   0.394   2.714  1.8326  1.0890 -0.9934
 3029TIP3    H2 9094   2.098   0.462   2.846 -1.0799  0.9452 -1.4522
 3030TIP3   OH2 9095   0.250   5.342   1.299  0.0817  0.4528 -0.1659
 3030TIP3    H1 9096   0.234   5.254   1.265 -0.2099 -0.0342  1.1801
 3030TIP3    H2 9097   0.337   5.365   1.266  0.1118 -0.2882 -0.6258
 3031TIP3   OH2 9098   3.576   0.161   0.959  0.2663 -0.1094 -0.3353
 3031TIP3    H1 9099   3.497   0.116   0.988  0.5818  0.3650  1.3574
 3031TIP3    H2 9100   3.545   0.247   0.929 -0.2084 -1.0140 -2.6396
 3032TIP3   OH2 9101   4.441   2.328   4.814  0.2454 -0.0984 -0.0234
 3032TIP3    H1 9102   4.487   2.366   4.889 -0.7512 -1.6432  1.4299
 3032TIP3    H2 9103   4.381   2.397   4.785 -0.3264  0.0740  1.4873
 3033TIP3   OH2 9104   6.154   2.975   0.664 -0.2099 -0.9303  0.1317
 3033TIP3    H1 9105   6.210   2.980   0.741  0.8780 -1.5900 -0.5908
 3033TIP3    H2 9106   6.105   3.057   0.664 -0.2103 -0.9109  1.4919
 3034TIP3   OH2 9107   1.163   2.464  -0.013  0.0046 -0.0963  0.3395
 3034TIP3    H1 9108   1.114   2.410   0.049  0.4397 -0.5827  0.2714
 3034TIP3    H2 9109   1.255   2.442   0.003  0.2656  1.2809  0.9118
 3035TIP3   OH2 9110   5.425   5.586   1.906  0.0053 -0.0184  0.7152
 3035TIP3    H1 9111   5.374   5.507   1.927  0.0733 -0.4108 -0.5180
 3035TIP3    H2 9112   5.464   5.612   1.990 -1.0253 -0.5631  1.3891
 3036TIP3   OH2 9113   1.402   2.988   3.016  0.2117  0.1234  0.1879
 3036TIP3    H1 9114   1.443   2.915   2.970 -0.2239  1.1157 -1.8926
 3036TIP3    H2 9115   1.375   2.950   3.100 -0.6922 -2.3368 -1.0924
 3037TIP3   OH2 9116   0.606   3.115   4.629  0.6346 -0.3239 -0.0037
 3037TIP3    H1 9117   0.673   3.181   4.646  0.5622 -0.8932  3.0365
 3037TIP3    H2 9118   0.654   3.042   4.590  1.1913  0.4407 -0.8003
 3038TIP3   OH2 9119   2.992   5.777   3.186 -0.3921 -0.4610  0.4263
 3038TIP3    H1 9120   3.045   5.698   3.179  0.5260  0.1741 -0.0542
 3038TIP3    H2 9121   2.909   5.747   3.223  0.3970 -1.4314  1.4909
 3039TIP3   OH2 9122   2.853   4.006   3.079  0.2836  0.6232 -0.5740
 3039TIP3    H1 9123   2.921   4.068   3.107  1.2819 -0.2831 -0.9423
 3039TIP3    H2 9124   2.901   3.930   3.047 -0.8335 -1.7201  2.7104
 3040TIP3   OH2 9125   4.438   4.315   1.014 -0.1462 -0.0873  0.3088
 3040TIP3    H1 9126   4.433   4.348   1.104 -2.0599  0.1427  0.1534
 3040TIP3    H2 9127   4.351   4.278   0.997 -0.6629  2.0515 -2.2795
 3041TIP3   OH2 9128   5.526   0.403   1.892  0.4187 -0.7252  0.1371
 3041TIP3    H1 9129   5.529   0.498   1.898 -0.7001 -0.7145  0.8441
 3041TIP3    H2 9130   5.435   0.380   1.911  0.8746 -1.9853  1.0190
 3042TIP3   OH2 9131   1.512   5.773   4.479  0.3878  0.4661  0.1950
 3042TIP3    H1 9132   1.553   5.852   4.444 -0.4135  0.8499  0.1121
 3042TIP3    H2 9133   1.444   5.804   4.538 -1.2834 -0.0923 -1.3536
 3043TIP3   OH2 9134   0.478   2.782   0.168  0.2352  0.0481  0.0424
 3043TIP3    H1 9135   0.487   2.771   0.263  0.1143 -1.8587 -0.1326
 3043TIP3    H2 9136   0.556   2.832   0.143  0.2946  0.5320  1.1241
 3044TIP3   OH2 9137   2.165   1.172   1.873 -0.4058 -0.2802  0.4628
 3044TIP3    H1 9138   2.255   1.191   1.899  0.0410  0.7806 -1.6469
 3044TIP3    H2 9139   2.113   1.185   1.952  0.9413  2.0219  1.0364
 3045TIP3   OH2 9140   3.997   4.408   0.153  0.0121  0.0427  0.2282
 3045TIP3    H1 9141   3.973   4.483   0.206 -1.1130  0.8435 -1.3260
 3045TIP3    H2 9142   3.948   4.335   0.191 -0.3365  0.4832  0.6315
 3046TIP3   OH2 9143   4.357   3.208   4.605 -0.2401  0.2952  0.1118
 3046TIP3    H1 9144   4.333   3.172   4.519  0.8622 -0.7234  0.2046
 3046TIP3    H2 9145   4.425   3.272   4.587  2.2832 -2.1318  0.4012
 3047TIP3   OH2 9146   4.691   2.651   2.842  0.0169  0.3669  0.1303
 3047TIP3    H1 9147   4.658   2.724   2.788 -1.3759 -0.0647  0.3419
 3047TIP3    H2 9148   4.655   2.573   2.800 -0.9433  0.0092  1.5387
 3048TIP3   OH2 9149   1.080   3.749   2.329 -0.4342 -0.1000  0.5793
 3048TIP3    H1 9150   1.057   3.672   2.277 -1.2716  1.4644 -1.4758
 3048TIP3    H2 9151   1.159   3.722   2.378 -1.6219 -2.7601  1.2207
 3049TIP3   OH2 9152   3.018   4.996   5.041 -0.2971  0.3459  0.2385
 3049TIP3    H1 9153   3.020   4.945   5.122  0.6332 -0.4225 -0.2520
 3049TIP3    H2 9154   2.977   4.939   4.977 -2.4615  1.5066  0.4862
 3050TIP3   OH2 9155   5.431   3.128   0.368  0.2335  0.5206  0.1450
 3050TIP3    H1 9156   5.516   3.147   0.328 -0.0196 -0.8280 -1.1378
 3050TIP3    H2 9157   5.446   3.048   0.419 -0.8590 -1.4645 -2.4630
 3051TIP3   OH2 9158   0.842   3.023   2.334 -0.1244  0.3125 -0.9680
 3051TIP3    H1 9159   0.808   2.948   2.284  0.3636 -1.6096  1.3945
 3051TIP3    H2 9160   0.765   3.061   2.375 -0.1081 -0.5854 -0.0638
 3052TIP3   OH2 9161   2.213   2.613   5.012 -0.1815 -0.4129  0.8130
 3052TIP3    H1 9162   2.303   2.643   5.014  1.0533 -3.6924  1.8424
 3052TIP3    H2 9163   2.185   2.625   4.921  3.3791 -4.3375 -1.1857
 3053TIP3   OH2 9164   2.144   2.733   3.349  0.2615 -0.4606  0.3910
 3053TIP3    H1 9165   2.105   2.801   3.404  0.9749  0.9422 -0.7693
 3053TIP3    H2 9166   2.079   2.719   3.279  1.7694  2.1170 -1.7334
 3054TIP3   OH2 9167   3.836   4.219   4.710  0.1605  0.4664  0.3240
 3054TIP3    H1 9168   3.816   4.207   4.803  0.4651 -2.2988  0.1074
 3054TIP3    H2 9169   3.904   4.286   4.708 -2.3502  3.2607  1.7568
 3055TIP3   OH2 9170   2.945   4.134   0.267 -0.0013  0.0375  0.6887
 3055TIP3    H1 9171   2.880   4.138   0.196 -3.1134 -0.4523  3.2472
 3055TIP3    H2 9172   2.998   4.212   0.256 -0.9549  0.4409 -1.6225
 3056TIP3   OH2 9173   6.061   2.738   0.026 -0.1630  0.4057  0.8316
 3056TIP3    H1 9174   6.089   2.783  -0.053  0.3184  1.6381  1.6583
 3056TIP3    H2 9175   5.966   2.752   0.029 -0.8447 -2.7168 -1.3285
 3057TIP3   OH2 9176   1.118   2.163   4.809 -0.3337  0.1650  0.1882
 3057TIP3    H1 9177   1.202   2.158   4.765 -0.4370 -0.8208  0.0900
 3057TIP3    H2 9178   1.057   2.191   4.741 -0.2317  0.0731  0.0578
 3058TIP3   OH2 9179   3.088   1.624   0.507  0.2048 -0.2288 -0.3410
 3058TIP3    H1 9180   3.030   1.634   0.431 -1.6686  0.8269  1.1256
 3058TIP3    H2 9181   3.095   1.529   0.519 -0.6132 -0.3905 -1.0121
 3059TIP3   OH2 9182   6.226   1.270   4.839  0.4284  0.4467  0.6008
 3059TIP3    H1 9183   6.319   1.281   4.821  0.4850  1.3835  1.4215
 3059TIP3    H2 9184   6.222   1.220   4.920  0.2067 -0.0096  0.3138
 3060TIP3   OH2 9185   2.675   0.127   1.095  0.0985  0.5523 -0.0635
 3060TIP3    H1 9186   2.608   0.180   1.138  1.1632  0.7359  1.4305
 3060TIP3    H2 9187   2.706   0.182   1.023  0.1710  1.3694  0.5733
 3061TIP3   OH2 9188   6.055   5.867   5.105 -0.3372  0.2918 -0.1625
 3061TIP3    H1 9189   6.055   5.956   5.070  0.8632 -0.1555 -1.3623
 3061TIP3    H2 9190   5.962   5.848   5.120 -0.9091  0.6750 -2.7480
 3062TIP3   OH2 9191   4.617   4.334   1.434 -0.4025 -0.3586  0.0584
 3062TIP3    H1 9192   4.563   4.259   1.410 -0.6618 -1.2122  2.8490
 3062TIP3    H2 9193   4.661   4.360   1.353 -2.8615 -1.3524 -1.7238
 3063TIP3   OH2 9194   5.100   1.535   2.519  0.1603 -0.3176 -0.0101
 3063TIP3    H1 9195   5.044   1.480   2.465 -1.0381  0.3887  0.4606
 3063TIP3    H2 9196   5.106   1.489   2.603  0.3288 -0.4191 -0.0778
 3064TIP3   OH2 9197   5.879   4.420   0.473 -0.2651 -0.6059  0.6020
 3064TIP3    H1 9198   5.969   4.413   0.442 -0.0737  0.7366  0.7775
 3064TIP3    H2 9199   5.826   4.403   0.396  0.1530 -0.8889  0.3754
 3065TIP3   OH2 9200   2.458   5.370   4.355 -0.7236 -0.4932  0.3451
 3065TIP3    H1 9201   2.519   5.434   4.318 -1.4371 -0.1507 -0.2911
 3065TIP3    H2 9202   2.506   5.328   4.425 -0.1851  0.6603  0.6941
 3066TIP3   OH2 9203   1.779   3.102   2.910  0.0834 -0.1900 -0.5645
 3066TIP3    H1 9204   1.753   3.050   2.835 -1.3154 -1.3169  0.6289
 3066TIP3    H2 9205   1.710   3.168   2.918  0.9816  0.8456 -1.0916
 3067TIP3   OH2 9206   0.473   4.884   2.669  0.1357 -0.0929 -0.2400
 3067TIP3    H1 9207   0.381   4.896   2.646  0.4665  0.2130 -1.4853
 3067TIP3    H2 9208   0.473   4.819   2.739 -1.0633  0.3373  0.1730
 3068TIP3   OH2 9209   5.909   1.026   1.238 -0.1579  0.1406 -0.2969
 3068TIP3    H1 9210   5.949   1.084   1.172  0.9498  0.0011  0.2271
 3068TIP3    H2 9211   5.925   0.938   1.205  0.1120  0.0796 -0.0049
 3069TIP3   OH2 9212   4.510   1.739   2.097  0.0586 -0.5724 -0.0225
 3069TIP3    H1 9213   4.581   1.698   2.145  0.8236  0.6604 -0.0536
 3069TIP3    H2 9214   4.546   1.823   2.069 -1.0952 -0.3463 -0.8764
 3070TIP3   OH2 9215   4.513   2.043   2.330  0.1119 -0.2374 -0.5214
 3070TIP3    H1 9216   4.584   2.017   2.272  0.4506  1.8000 -1.1025
 3070TIP3    H2 9217   4.521   2.138   2.336 -0.3640 -0.2940  2.3061
 3071TIP3   OH2 9218   2.611   0.320   1.628 -0.4216  0.7546  0.3501
 3071TIP3    H1 9219   2.542   0.357   1.682 -0.1207 -0.3470  1.5319
 3071TIP3    H2 9220   2.573   0.239   1.592  0.5782 -0.4888  1.9493
 3072TIP3   OH2 9221   3.206   3.522   1.899  0.1173 -0.3334  0.3018
 3072TIP3    H1 9222   3.279   3.503   1.841  1.1932  0.0618  1.4826
 3072TIP3    H2 9223   3.140   3.456   1.878  0.6759 -0.5007 -0.9924
 3073TIP3   OH2 9224   2.456   2.003   2.396  0.2320 -0.4809  0.3386
 3073TIP3    H1 9225   2.362   2.003   2.377  0.1929  3.0912  0.0080
 3073TIP3    H2 9226   2.462   2.001   2.491 -0.2015 -0.1335  0.3727
 3074TIP3   OH2 9227   2.408   3.115   4.481  0.0555 -0.3502 -0.3785
 3074TIP3    H1 9228   2.430   3.151   4.395 -0.8410 -1.4334 -1.0943
 3074TIP3    H2 9229   2.352   3.040   4.461 -1.9089  0.6139  1.2330
 3075TIP3   OH2 9230   3.259   2.862   1.534 -0.3659  0.0441  0.0137
 3075TIP3    H1 9231   3.185   2.802   1.545 -0.3014  0.1362  1.0059
 3075TIP3    H2 9232   3.294   2.841   1.447  0.8585 -2.7289  1.0447
 3076TIP3   OH2 9233   4.422   0.620   0.872  0.2501 -0.3130 -0.5137
 3076TIP3    H1 9234   4.391   0.650   0.958 -0.5797  0.4348 -1.0606
 3076TIP3    H2 9235   4.517   0.619   0.880  0.1958  0.0533  0.3165
 3077TIP3   OH2 9236   3.552   4.748   1.286  0.0261  0.1501 -0.5685
 3077TIP3    H1 9237   3.531   4.803   1.361  0.3351  0.4878 -0.7238
 3077TIP3    H2 9238   3.587   4.667   1.323  2.9835  1.3948 -0.3204
 3078TIP3   OH2 9239   5.075   0.055   0.466 -0.4461 -0.2580  0.1705
 3078TIP3    H1 9240   5.165   0.087   0.454  0.0752 -0.8868  2.0607
 3078TIP3    H2 9241   5.022   0.111   0.409  1.1792 -0.2062 -1.3942
 3079TIP3   OH2 9242   5.009   3.768   5.115  0.1255  0.5280 -0.4121
 3079TIP3    H1 9243   4.990   3.812   5.032  1.5274  1.1840 -0.4101
 3079TIP3    H2 9244   5.097   3.731   5.104  1.5592  2.9931  1.6546
 3080TIP3   OH2 9245   5.106   0.917   4.899 -0.4422  0.3976 -0.2165
 3080TIP3    H1 9246   5.137   1.001   4.932  0.0177 -0.4514  1.6636
 3080TIP3    H2 9247   5.056   0.939   4.820 -1.1674  2.5288  0.7507
 3081TIP3   OH2 9248   2.766   5.045   0.943  0.0976  0.0918  0.0176
 3081TIP3    H1 9249   2.850   5.030   0.987 -0.0665  0.1241  0.3455
 3081TIP3    H2 9250   2.777   5.006   0.856  0.3591 -0.1414  0.1530
 3082TIP3   OH2 9251   3.673   5.149   0.274  0.0900  0.4804 -0.5527
 3082TIP3    H1 9252   3.655   5.077   0.334 -0.3923  1.4270  0.4831
 3082TIP3    H2 9253   3.749   5.194   0.312 -0.2813  1.1508 -0.5862
 3083TIP3   OH2 9254   3.247   5.756   3.650 -0.1305 -0.5513  0.6897
 3083TIP3    H1 9255   3.284   5.705   3.578 -1.5263 -1.6163  0.6652
 3083TIP3    H2 9256   3.316   5.759   3.715  0.8786 -0.2689 -0.3516
 3084TIP3   OH2 9257   1.987   0.100   0.186 -0.0036  0.1204 -0.3870
 3084TIP3    H1 9258   1.911   0.151   0.159 -0.9983 -0.7342  0.6477
 3084TIP3    H2 9259   2.062   0.147   0.150 -0.8735  2.1449  0.2933
 3085TIP3   OH2 9260   2.683   2.567   1.637 -0.0764  0.1879 -0.5562
 3085TIP3    H1 9261   2.648   2.505   1.701  0.9370  0.0643 -0.0955
 3085TIP3    H2 9262   2.653   2.652   1.668 -0.7086  0.0171 -0.6785
 3086TIP3   OH2 9263   6.150   3.671   5.032 -0.2237 -0.2829 -0.5526
 3086TIP3    H1 9264   6.219   3.694   5.095 -0.1635  0.0429 -0.7351
 3086TIP3    H2 9265   6.186   3.597   4.984 -0.2985 -0.5837 -0.1574
 3087TIP3   OH2 9266   5.247   2.252   0.249 -0.1930  0.3394  0.5041
 3087TIP3    H1 9267   5.268   2.256   0.342  0.0942 -0.1409  0.4587
 3087TIP3    H2 9268   5.225   2.161   0.233  0.2428  0.3219 -0.0068
 3088TIP3   OH2 9269   0.359   0.473   1.206  0.0515  0.3698  0.1982
 3088TIP3    H1 9270   0.332   0.404   1.146 -0.7001  2.5383 -2.1037
 3088TIP3    H2 9271   0.287   0.479   1.270 -0.4075 -0.1978 -0.2598
 3089TIP3   OH2 9272   5.021   3.141   4.758 -0.0033  0.2392  0.6589
 3089TIP3    H1 9273   4.983   3.216   4.712  0.5315  0.7008  0.9562
 3089TIP3    H2 9274   5.021   3.166   4.850 -0.1724 -0.2826  0.8028
 3090TIP3   OH2 9275   4.182   0.643   1.710  0.3096  0.3773  0.2880
 3090TIP3    H1 9276   4.141   0.575   1.763  0.5547 -0.3109 -0.3732
 3090TIP3    H2 9277   4.111   0.677   1.655  0.1007  0.9448  0.8982
 3091TIP3   OH2 9278   4.989   3.160   2.875  0.3075  0.6628  0.0598
 3091TIP3    H1 9279   4.967   3.072   2.906  1.3669  0.3759  0.0497
 3091TIP3    H2 9280   4.997   3.212   2.954  0.8835  0.4491  0.1466
 3092TIP3   OH2 9281   2.406   4.585   1.648 -0.2484  1.0518 -0.1069
 3092TIP3    H1 9282   2.319   4.576   1.686  0.1300  1.0555  0.7668
 3092TIP3    H2 9283   2.425   4.679   1.651 -1.1961  1.3909 -2.5464
 3093TIP3   OH2 9284   6.025   0.797   2.807 -0.3207  0.5172  0.2796
 3093TIP3    H1 9285   5.952   0.787   2.868 -0.8245  0.1122 -0.3794
 3093TIP3    H2 9286   5.985   0.832   2.727 -0.1571 -1.6227 -0.8014
 3094TIP3   OH2 9287   1.968   1.380   4.669  0.4608  0.4828  0.5023
 3094TIP3    H1 9288   1.971   1.421   4.582 -0.4922 -0.4393  0.0148
 3094TIP3    H2 9289   1.885   1.332   4.670  0.9665 -0.4030  1.5304
 3095TIP3   OH2 9290   4.901   2.763   3.293 -0.2590 -0.4612 -0.7670
 3095TIP3    H1 9291   4.969   2.755   3.225 -0.2821 -0.7925 -0.7512
 3095TIP3    H2 9292   4.821   2.734   3.250 -0.5114  0.4661 -0.9587
 3096TIP3   OH2 9293   2.624   0.922   4.189  0.2426  0.0756 -0.1675
 3096TIP3    H1 9294   2.630   0.920   4.093 -2.2551  1.4775 -0.4279
 3096TIP3    H2 9295   2.548   0.867   4.209  0.4085  0.2527  0.9918
 3097TIP3   OH2 9296   3.744   2.075   3.246 -0.5318  0.2529  0.5745
 3097TIP3    H1 9297   3.752   2.080   3.151 -1.0549 -2.5291  0.2932
 3097TIP3    H2 9298   3.670   2.132   3.267 -0.8511  0.3731 -0.7780
 3098TIP3   OH2 9299   1.040   5.070   4.400 -0.4959 -0.5558  0.2818
 3098TIP3    H1 9300   1.125   5.028   4.418 -0.0007  0.5831  0.7103
 3098TIP3    H2 9301   0.977   4.998   4.402  0.4964 -1.4762 -0.3645
 3099TIP3   OH2 9302   1.137   2.004   0.537  0.6612  0.1323 -0.2952
 3099TIP3    H1 9303   1.066   2.023   0.475 -0.1072 -2.4657 -0.2952
 3099TIP3    H2 9304   1.144   2.084   0.589 -2.0020  0.6541 -0.5689
 3100TIP3   OH2 9305   4.098   0.545   0.886 -0.3110 -0.0191  0.5187
 3100TIP3    H1 9306   4.083   0.504   0.972 -2.9898  2.1831  1.2479
 3100TIP3    H2 9307   4.042   0.495   0.826 -1.4050  0.7347  0.8680
 3101TIP3   OH2 9308   3.859   1.687   1.770 -0.2225 -0.2980 -0.2026
 3101TIP3    H1 9309   3.796   1.618   1.792 -0.7366 -0.2006 -1.3142
 3101TIP3    H2 9310   3.878   1.730   1.854 -0.3435 -1.4021  0.4104
 3102TIP3   OH2 9311   4.941   1.236   3.542 -0.1185 -0.6746 -0.0383
 3102TIP3    H1 9312   5.014   1.255   3.483 -0.3393 -1.2955 -0.5285
 3102TIP3    H2 9313   4.872   1.295   3.515  0.7172  1.0991  1.5061
 3103TIP3   OH2 9314   5.568   0.666   4.733 -0.4536  0.2841  0.3451
 3103TIP3    H1 9315   5.567   0.605   4.807 -3.6738  0.7411  0.8393
 3103TIP3    H2 9316   5.476   0.678   4.711  0.3206  0.8817 -3.2314
 3104TIP3   OH2 9317   4.777   5.466   2.063 -0.6228  0.2997  0.1392
 3104TIP3    H1 9318   4.807   5.386   2.020  1.2524  0.6433  0.6830
 3104TIP3    H2 9319   4.749   5.438   2.150 -1.3760  0.0435 -0.1809
 3105TIP3   OH2 9320   0.035   0.868   2.021 -0.4072  0.0016  0.2446
 3105TIP3    H1 9321   0.120   0.853   2.062 -1.6373 -1.9266  2.3162
 3105TIP3    H2 9322   0.057   0.897   1.932  2.4102 -0.8263  0.5492
 3106TIP3   OH2 9323   4.972   5.404   3.148  0.8530  0.0059 -0.5000
 3106TIP3    H1 9324   4.994   5.362   3.065  0.5778  1.0112 -1.1052
 3106TIP3    H2 9325   5.017   5.489   3.144 -0.3932  0.6985 -0.3043
 3107TIP3   OH2 9326   3.834   1.277   3.625  0.3454  0.1092  0.0947
 3107TIP3    H1 9327   3.930   1.284   3.623  0.4562 -1.1817 -2.1049
 3107TIP3    H2 9328   3.803   1.356   3.582  0.4407  0.2318  0.2483
 3108TIP3   OH2 9329   2.251   0.051   0.823  0.2304  1.2231  0.0886
 3108TIP3    H1 9330   2.258   0.002   0.741 -1.9166  0.7670  0.1201
 3108TIP3    H2 9331   2.246   0.143   0.796 -0.3096  1.0846 -0.2931
 3109TIP3   OH2 9332   5.918   2.236   2.689  0.1598  0.3748 -0.2039
 3109TIP3    H1 9333   5.846   2.173   2.689  1.5619 -1.3150 -0.6398
 3109TIP3    H2 9334   5.988   2.191   2.737  1.4483  1.2965 -1.1804
 3110TIP3   OH2 9335   4.308   3.159   2.597 -0.2653 -0.0967  0.1042
 3110TIP3    H1 9336   4.220   3.128   2.574  0.6471 -2.1685 -0.9261
 3110TIP3    H2 9337   4.367   3.109   2.540  1.7005 -0.0944  1.9868
 3111TIP3   OH2 9338   3.113   0.741   2.759  0.7061  0.3227  0.7153
 3111TIP3    H1 9339   3.150   0.715   2.843 -2.1401 -1.1885  1.6073
 3111TIP3    H2 9340   3.022   0.714   2.762  0.5924 -0.3768 -3.1037
 3112TIP3   OH2 9341   5.109   3.925   3.511 -0.4943  0.5851  0.3635
 3112TIP3    H1 9342   5.145   3.837   3.497 -0.5004  0.4640  1.1034
 3112TIP3    H2 9343   5.182   3.984   3.490 -1.1329  0.5417 -2.4617
 3113TIP3   OH2 9344   4.600   2.308   2.375 -0.4683  0.0754 -0.0845
 3113TIP3    H1 9345   4.599   2.398   2.343 -0.7059  0.9548  2.2159
 3113TIP3    H2 9346   4.688   2.276   2.353 -0.5624  0.6292 -1.4114
 3114TIP3   OH2 9347   4.697   5.849   3.323  0.3101 -0.3612 -0.4225
 3114TIP3    H1 9348   4.781   5.841   3.279  0.6872  0.1874  0.1898
 3114TIP3    H2 9349   4.718   5.852   3.417 -0.4236 -0.7409 -0.2323
 3115TIP3   OH2 9350   1.918   2.685   3.749  0.1754  0.4804  0.1017
 3115TIP3    H1 9351   1.902   2.651   3.837 -1.7245 -2.0379 -1.0479
 3115TIP3    H2 9352   1.922   2.606   3.694  0.3572  1.9839 -2.1758
 3116TIP3   OH2 9353   0.609   2.644   3.840 -0.1303  0.5005 -0.1959
 3116TIP3    H1 9354   0.533   2.592   3.866  0.1532 -0.0573 -0.4507
 3116TIP3    H2 9355   0.583   2.735   3.857  0.1805  0.1851  2.4244
 3117TIP3   OH2 9356   5.478   4.607   0.051  0.6343  0.2219 -0.0018
 3117TIP3    H1 9357   5.466   4.512   0.043  0.2331  0.2413  0.3354
 3117TIP3    H2 9358   5.565   4.623   0.015  0.6632 -0.2611 -0.1577
 3118TIP3   OH2 9359   3.795   4.222   1.541 -0.1078 -0.0424  0.0235
 3118TIP3    H1 9360   3.847   4.164   1.596  0.5713  0.9023  0.4182
 3118TIP3    H2 9361   3.721   4.248   1.595 -0.5784 -0.7758 -0.2630
 3119TIP3   OH2 9362   5.524   2.735   0.354 -0.2037 -0.2475  0.2852
 3119TIP3    H1 9363   5.601   2.792   0.347 -0.1518 -0.4749 -1.7994
 3119TIP3    H2 9364   5.494   2.746   0.444  0.4446  2.2261  0.2837
 3120TIP3   OH2 9365   2.981   5.324   1.705  0.1799  0.0629 -0.5649
 3120TIP3    H1 9366   2.913   5.303   1.641  0.3395 -1.2114 -0.3465
 3120TIP3    H2 9367   3.063   5.314   1.657  0.3372 -1.7161  0.0213
 3121TIP3   OH2 9368   0.327   2.601   3.122 -0.2448  0.0447 -0.1746
 3121TIP3    H1 9369   0.353   2.663   3.190  0.7657 -1.2464  0.6880
 3121TIP3    H2 9370   0.267   2.541   3.167 -1.2085  0.3718 -0.9894
 3122TIP3   OH2 9371   4.081   0.140  -0.011  0.1278 -0.0550 -0.0978
 3122TIP3    H1 9372   4.023   0.078   0.033  2.5941 -0.8572  2.2567
 3122TIP3    H2 9373   4.072   0.221   0.040  0.5105  0.0352 -0.1728
 3123TIP3   OH2 9374   0.436   4.119   3.615  0.4407 -0.2195 -0.0024
 3123TIP3    H1 9375   0.397   4.047   3.564 -0.7873  0.7307 -0.4760
 3123TIP3    H2 9376   0.452   4.187   3.550  0.1506  0.5014  0.6748
 3124TIP3   OH2 9377   1.049   4.833   3.066 -0.3988  0.1924 -0.8225
 3124TIP3    H1 9378   0.995   4.845   2.987 -0.1323 -0.1719 -1.0631
 3124TIP3    H2 9379   1.130   4.881   3.046 -0.4362  0.3249 -0.6588
 3125TIP3   OH2 9380   4.783   4.643   2.398  0.7329 -0.5453 -0.6704
 3125TIP3    H1 9381   4.871   4.666   2.367  1.0972  0.3455  0.9144
 3125TIP3    H2 9382   4.776   4.549   2.381  1.8687 -0.5752 -1.0929
 3126TIP3   OH2 9383   6.104   2.225   2.251  0.0251 -0.3490 -0.5630
 3126TIP3    H1 9384   6.091   2.297   2.313 -0.5911 -1.3978  0.5761
 3126TIP3    H2 9385   6.149   2.265   2.177 -0.5309  1.2583 -0.0811
 3127TIP3   OH2 9386   5.424   1.362   2.302 -0.2678 -0.2826  0.5611
 3127TIP3    H1 9387   5.485   1.368   2.376  2.0155  0.4082 -1.2490
 3127TIP3    H2 9388   5.474   1.316   2.235 -1.2629  1.4862 -1.4855
 3128TIP3   OH2 9389   6.057   1.199   4.635  0.6894 -0.3773 -0.5196
 3128TIP3    H1 9390   6.088   1.195   4.725 -0.7126  1.5571  0.1222
 3128TIP3    H2 9391   5.974   1.152   4.636  0.6233 -0.2681 -0.7800
 3129TIP3   OH2 9392   5.392   0.225   3.957 -0.0468  0.2439 -0.0140
 3129TIP3    H1 9393   5.310   0.208   4.003 -0.2134  0.6199 -0.1686
 3129TIP3    H2 9394   5.391   0.166   3.882  0.5675 -0.9148  0.8562
 3130TIP3   OH2 9395   4.711   4.847   5.052  0.1741 -0.7360 -0.1275
 3130TIP3    H1 9396   4.685   4.771   5.103  1.1354 -0.0352  1.4791
 3130TIP3    H2 9397   4.797   4.872   5.088 -0.7130  1.9206  0.3759
 3131TIP3   OH2 9398   0.731   3.269   2.726 -0.5421  0.6651  0.0736
 3131TIP3    H1 9399   0.727   3.362   2.701 -1.7129  0.6074 -0.0460
 3131TIP3    H2 9400   0.809   3.261   2.780  0.4569  1.3993 -1.2126
 3132TIP3   OH2 9401   0.084   3.855   3.290  0.0096  0.8142  0.7458
 3132TIP3    H1 9402   0.036   3.773   3.281  1.1103  0.0784  1.2897
 3132TIP3    H2 9403   0.047   3.897   3.367  1.0230 -0.3415  1.9115
 3133TIP3   OH2 9404   3.924   5.719   4.001 -0.2182 -0.2713 -0.3866
 3133TIP3    H1 9405   3.932   5.628   3.970 -1.0358 -0.0350 -1.3327
 3133TIP3    H2 9406   3.838   5.722   4.043 -0.6670  0.3342 -1.3284
 3134TIP3   OH2 9407   0.179   4.022   1.844 -0.0775  0.9472  0.0184
 3134TIP3    H1 9408   0.223   4.024   1.930  0.1992  1.5889 -0.1328
 3134TIP3    H2 9409   0.241   4.064   1.785  0.1991 -0.4648 -0.7286
 3135TIP3   OH2 9410   1.644   4.891   0.077 -0.2913 -0.3546  0.2750
 3135TIP3    H1 9411   1.723   4.942   0.063  0.8082 -2.1718 -0.5998
 3135TIP3    H2 9412   1.572   4.953   0.063  0.9523  0.8879 -0.9110
 3136TIP3   OH2 9413   0.567   2.667   4.811  0.0078 -0.2465 -1.1002
 3136TIP3    H1 9414   0.526   2.754   4.803  3.5225  1.5710 -1.4621
 3136TIP3    H2 9415   0.562   2.631   4.722  0.7818  0.8014 -1.6034
 3137TIP3   OH2 9416   5.528   2.904   2.808  0.1074  0.8951  0.2255
 3137TIP3    H1 9417   5.534   2.999   2.800  1.4343  0.7849 -0.3587
 3137TIP3    H2 9418   5.599   2.871   2.754 -0.5255 -0.4497  0.1776
 3138TIP3   OH2 9419   5.816   2.661   0.641  0.3926 -0.1800 -0.2154
 3138TIP3    H1 9420   5.774   2.619   0.716 -1.3605  3.2028  0.9032
 3138TIP3    H2 9421   5.898   2.696   0.675  0.3171  0.0612 -0.2805
 3139TIP3   OH2 9422   6.283   0.665   2.614  0.1200  0.5031  0.5380
 3139TIP3    H1 9423   6.211   0.660   2.551  1.2973  1.3313 -0.9287
 3139TIP3    H2 9424   6.313   0.756   2.608  1.4782  0.0872  0.9048
 3140TIP3   OH2 9425   4.156   4.316   4.887 -0.2800  0.3027  0.5045
 3140TIP3    H1 9426   4.169   4.271   4.804 -1.1350 -1.5404  1.3067
 3140TIP3    H2 9427   4.208   4.396   4.880  0.7943 -0.4984 -1.2445
 3141TIP3   OH2 9428   2.141   5.724   1.186 -0.3978  0.4716  0.0752
 3141TIP3    H1 9429   2.236   5.719   1.169 -0.5598  2.0752 -1.7175
 3141TIP3    H2 9430   2.117   5.635   1.212  1.0784 -0.8525 -2.5918
 3142TIP3   OH2 9431   2.628   4.233   0.703 -0.7326 -0.2381  0.1010
 3142TIP3    H1 9432   2.554   4.289   0.726  0.2455  1.0034  0.3558
 3142TIP3    H2 9433   2.661   4.201   0.787 -0.4910 -0.1183  0.0538
 3143TIP3   OH2 9434   5.534   0.407   1.504 -0.1565 -0.3817  0.4203
 3143TIP3    H1 9435   5.623   0.388   1.533  0.3665 -0.2215 -1.0435
 3143TIP3    H2 9436   5.521   0.499   1.524 -0.9498 -0.9361  2.9684
 3144TIP3   OH2 9437   1.039   4.587   1.201 -0.0348 -0.0249  0.2927
 3144TIP3    H1 9438   0.948   4.610   1.184 -0.2317 -0.4268  0.7845
 3144TIP3    H2 9439   1.084   4.672   1.206 -0.5230  0.2104  0.8021
 3145TIP3   OH2 9440   3.977   5.308   4.516  0.6533  0.2388 -0.2751
 3145TIP3    H1 9441   3.983   5.351   4.431  3.0790 -1.0169 -0.8079
 3145TIP3    H2 9442   3.951   5.218   4.496 -0.3796  0.3391  0.4931
 3146TIP3   OH2 9443   3.515   4.906   3.222  0.0221 -0.1251  0.1472
 3146TIP3    H1 9444   3.540   4.989   3.264 -0.7758  0.2464 -0.0954
 3146TIP3    H2 9445   3.479   4.853   3.293 -1.9283  0.7427 -0.1255
 3147TIP3   OH2 9446   1.586   1.983   3.995 -0.1256 -0.0007  0.2076
 3147TIP3    H1 9447   1.512   1.930   4.024  0.9939 -0.8318  1.6574
 3147TIP3    H2 9448   1.638   1.923   3.941 -0.0232  0.3154 -0.0493
 3148TIP3   OH2 9449   1.482   5.608   5.136  0.6590 -0.3650 -0.3351
 3148TIP3    H1 9450   1.532   5.551   5.195  0.9884  0.6246  0.3670
 3148TIP3    H2 9451   1.405   5.633   5.187 -0.3364 -1.4801 -1.2360
 3149TIP3   OH2 9452   2.264   2.368   3.488 -0.5596 -0.1589 -0.1928
 3149TIP3    H1 9453   2.208   2.300   3.450 -0.0111 -0.6231 -0.1834
 3149TIP3    H2 9454   2.328   2.387   3.420  0.8767 -1.5126  0.7155
 3150TIP3   OH2 9455   1.727   2.975   3.819 -0.4678  0.3967  0.5967
 3150TIP3    H1 9456   1.665   2.995   3.748 -0.3517 -0.9108  0.0930
 3150TIP3    H2 9457   1.717   2.881   3.833  1.6084  0.1026  0.3089
 3151TIP3   OH2 9458   0.345   0.504   0.384 -0.2796  0.2767  0.1219
 3151TIP3    H1 9459   0.290   0.494   0.306  0.1057 -0.1749 -0.0948
 3151TIP3    H2 9460   0.411   0.568   0.359 -0.1254  0.0937  0.0619
 3152TIP3   OH2 9461   0.961   5.671   0.316 -0.0715  0.8618  0.4532
 3152TIP3    H1 9462   0.961   5.752   0.367  2.4806  2.0739 -1.2577
 3152TIP3    H2 9463   1.054   5.647   0.310 -0.6444 -1.4584 -0.2798
 3153TIP3   OH2 9464   5.085   2.808   0.884  0.3768 -0.1127 -0.3534
 3153TIP3    H1 9465   5.035   2.733   0.914  0.0279  0.9590  1.9274
 3153TIP3    H2 9466   5.026   2.852   0.821 -0.8685  0.1507  0.9528
 3154TIP3   OH2 9467   0.394   5.233   2.663  0.3397  0.6224  0.7107
 3154TIP3    H1 9468   0.353   5.152   2.632 -0.1391  1.0877  0.0961
 3154TIP3    H2 9469   0.474   5.240   2.612 -0.7561  1.7188 -0.9950
 3155TIP3   OH2 9470   5.509   1.349   3.022  0.4014 -0.3302  0.2577
 3155TIP3    H1 9471   5.421   1.312   3.030  0.9264 -1.8439 -0.6961
 3155TIP3    H2 9472   5.539   1.359   3.112 -0.7400  0.2686  0.6033
 3156TIP3   OH2 9473   4.131   2.099   1.263 -0.4028 -0.0816  0.5902
 3156TIP3    H1 9474   4.222   2.127   1.274 -0.7129  1.8077 -1.0901
 3156TIP3    H2 9475   4.138   2.011   1.225  0.7156 -0.0148  0.6011
 3157TIP3   OH2 9476   1.373   2.166   4.086 -0.7506  0.1474  0.2175
 3157TIP3    H1 9477   1.317   2.191   4.013  1.6552  1.0237 -1.4271
 3157TIP3    H2 9478   1.399   2.076   4.067  0.8554  0.7756 -0.7255
 3158TIP3   OH2 9479   4.227   2.485   1.658 -0.0738  0.0095 -0.0915
 3158TIP3    H1 9480   4.313   2.525   1.649 -0.3691  0.6062 -0.3340
 3158TIP3    H2 9481   4.245   2.394   1.682  0.6174  0.1490 -0.0574
 3159TIP3   OH2 9482   0.631   3.652   2.277  0.1877  0.0098  0.0546
 3159TIP3    H1 9483   0.681   3.589   2.329  0.6512  2.2303  2.5022
 3159TIP3    H2 9484   0.565   3.600   2.232  2.2769 -2.5368 -0.2993
 3160TIP3   OH2 9485   3.813   1.281   4.512 -0.1434  0.0686 -0.3724
 3160TIP3    H1 9486   3.869   1.357   4.493  0.8250 -1.0422 -2.2742
 3160TIP3    H2 9487   3.861   1.231   4.577  0.3902 -0.1392 -0.9211
 3161TIP3   OH2 9488   3.735   3.522   4.088 -0.1109 -0.8109 -0.1838
 3161TIP3    H1 9489   3.684   3.441   4.082 -0.3514 -0.6747 -0.0279
 3161TIP3    H2 9490   3.780   3.529   4.004  1.8488 -2.3615  0.6710
 3162TIP3   OH2 9491   3.920   5.260   0.284  0.1407 -0.1449 -0.6707
 3162TIP3    H1 9492   3.924   5.349   0.321 -1.1675 -0.8310  1.3241
 3162TIP3    H2 9493   4.007   5.224   0.297  0.1755  0.2400  0.2336
 3163TIP3   OH2 9494   5.776   4.540   2.448  0.3486  0.0386  0.2266
 3163TIP3    H1 9495   5.721   4.560   2.524 -1.0591 -1.8224 -0.2257
 3163TIP3    H2 9496   5.717   4.549   2.373  1.5148  1.0648 -0.5943
 3164TIP3   OH2 9497   1.450   4.829   1.451  0.1274  0.8214  0.3267
 3164TIP3    H1 9498   1.507   4.839   1.527  0.5373  0.5580  0.0539
 3164TIP3    H2 9499   1.493   4.878   1.381  1.1941 -1.1627 -0.5003
 3165TIP3   OH2 9500   6.287   3.080   4.920  0.4935  0.0087 -0.3492
 3165TIP3    H1 9501   6.383   3.084   4.921  0.4894  0.1164  0.6156
 3165TIP3    H2 9502   6.261   3.109   5.007 -0.3883 -0.7192 -0.3538
 3166TIP3   OH2 9503   3.608   5.070   0.738 -0.4410  0.3206  0.0804
 3166TIP3    H1 9504   3.529   5.095   0.690 -0.4575  0.3906  0.1443
 3166TIP3    H2 9505   3.587   4.984   0.774 -0.2376  0.0351 -0.4715
 3167TIP3   OH2 9506   0.916   5.608   3.024 -0.5508  0.0094  0.4041
 3167TIP3    H1 9507   0.975   5.665   3.074  0.8610 -0.4344 -0.6754
 3167TIP3    H2 9508   0.910   5.650   2.938  0.2484 -1.2734 -0.2989
 3168TIP3   OH2 9509   3.068   1.587   4.044  0.4385  0.3432 -0.3546
 3168TIP3    H1 9510   3.090   1.679   4.058 -1.4152  0.6651  0.6928
 3168TIP3    H2 9511   2.988   1.589   3.991 -0.5715 -0.5971  1.0725
 3169TIP3   OH2 9512   3.142   0.713   1.831 -0.0698 -0.6408  0.0002
 3169TIP3    H1 9513   3.226   0.678   1.859 -0.0425 -0.3631  0.2763
 3169TIP3    H2 9514   3.078   0.675   1.891  0.1794  1.2721  1.6038
 3170TIP3   OH2 9515   0.390   3.825   2.341 -0.3717  0.0672  0.1605
 3170TIP3    H1 9516   0.354   3.750   2.386  2.2252 -0.2558  1.9204
 3170TIP3    H2 9517   0.479   3.835   2.376  0.0675  2.8255 -1.3526
 3171TIP3   OH2 9518   6.289   1.802   4.808 -0.5852  0.2966  0.3278
 3171TIP3    H1 9519   6.218   1.853   4.848 -1.4354 -0.3989 -0.2438
 3171TIP3    H2 9520   6.244   1.727   4.769  0.4975 -0.2275  0.0695
 3172TIP3   OH2 9521   6.307   1.561   4.553 -0.2782 -0.0513  0.3567
 3172TIP3    H1 9522   6.289   1.470   4.529 -1.7337  0.5764 -1.0902
 3172TIP3    H2 9523   6.244   1.580   4.622 -0.0822 -0.0729  0.5448
 3173TIP3   OH2 9524   5.935   1.530   2.475  0.5598  0.0806 -0.3254
 3173TIP3    H1 9525   5.969   1.444   2.454 -2.0574 -1.2074  0.3335
 3173TIP3    H2 9526   5.889   1.558   2.396 -4.1743 -2.1561  1.2818
 3174TIP3   OH2 9527   2.630   0.202   2.906  0.2972 -0.3760  0.1604
 3174TIP3    H1 9528   2.650   0.135   2.840 -0.6468 -1.5798  1.0421
 3174TIP3    H2 9529   2.584   0.154   2.975 -1.0717  1.3323  0.4989
 3175TIP3   OH2 9530   1.657   3.740   3.316  0.2597 -0.1042 -0.1063
 3175TIP3    H1 9531   1.618   3.809   3.370  0.5663 -1.0337  1.3756
 3175TIP3    H2 9532   1.670   3.781   3.230  0.7627  1.8027  0.8131
 3176TIP3   OH2 9533   5.198   0.470   2.211 -0.2492  0.7340 -0.6526
 3176TIP3    H1 9534   5.146   0.433   2.282  0.3021  1.5092  0.1783
 3176TIP3    H2 9535   5.225   0.394   2.158 -1.1319  0.2069 -0.3625
 3177TIP3   OH2 9536   5.279   1.854   3.069 -0.0014 -0.3015 -0.0616
 3177TIP3    H1 9537   5.342   1.850   2.997 -0.2827 -0.3595 -0.3062
 3177TIP3    H2 9538   5.258   1.946   3.078  1.4706 -0.0527  1.2057
 3178TIP3   OH2 9539   5.927   5.447   0.781 -0.5165 -0.4757  0.1438
 3178TIP3    H1 9540   5.875   5.407   0.711 -2.1758  1.2486  0.3049
 3178TIP3    H2 9541   5.944   5.536   0.750  1.3620 -0.6210  0.6401
 3179TIP3   OH2 9542   0.512   4.358   0.581 -0.1036  0.2729 -0.7932
 3179TIP3    H1 9543   0.425   4.380   0.548 -0.4593 -0.1176 -0.1408
 3179TIP3    H2 9544   0.502   4.356   0.676  1.1900  2.6676 -0.5347
 3180TIP3   OH2 9545   3.437   2.918   4.606  0.0468 -0.0682  0.1889
 3180TIP3    H1 9546   3.476   2.985   4.663  0.5361 -0.1233 -0.0765
 3180TIP3    H2 9547   3.508   2.857   4.588 -0.2207 -0.2891 -0.1291
 3181TIP3   OH2 9548   0.846   3.023   0.339 -0.3269 -0.3089  0.1443
 3181TIP3    H1 9549   0.882   2.986   0.420 -0.8204 -2.0055 -0.3793
 3181TIP3    H2 9550   0.817   3.110   0.364 -0.6547 -0.8741  1.8614
 3182TIP3   OH2 9551   4.088   0.053   2.202 -0.3687  0.7629  0.1495
 3182TIP3    H1 9552   4.172   0.090   2.231  0.6155  0.3459 -1.9888
 3182TIP3    H2 9553   4.112  -0.024   2.150 -2.2178 -0.7268  1.3655
 3183TIP3   OH2 9554   3.089   4.506   2.038  0.4961 -0.0186  0.1553
 3183TIP3    H1 9555   3.170   4.544   2.072 -0.8300  0.9300  2.4193
 3183TIP3    H2 9556   3.096   4.413   2.060  1.2648 -0.0909 -0.3332
 3184TIP3   OH2 9557   2.545   3.474   0.435 -0.2815  0.4619  0.1690
 3184TIP3    H1 9558   2.618   3.527   0.402 -0.7379  0.3232 -1.1047
 3184TIP3    H2 9559   2.480   3.478   0.366 -1.3367  0.2568  1.1265
 3185TIP3   OH2 9560   3.458   3.046   3.376 -0.1493  0.2117 -0.1097
 3185TIP3    H1 9561   3.366   3.020   3.367  0.1676 -0.2542 -2.7329
 3185TIP3    H2 9562   3.468   3.120   3.317  0.6892  1.8167  1.8988
 3186TIP3   OH2 9563   5.714   0.317   4.872 -0.4155 -0.2043  0.0073
 3186TIP3    H1 9564   5.765   0.272   4.940  3.5282 -0.6327 -2.8576
 3186TIP3    H2 9565   5.704   0.252   4.802  1.4039  1.8394 -2.3614
 3187TIP3   OH2 9566   4.127   3.602   1.412  0.0057  0.4137  0.0391
 3187TIP3    H1 9567   4.032   3.611   1.418  0.0305  0.6446  0.1281
 3187TIP3    H2 9568   4.146   3.517   1.452  0.0145  1.2385  1.8912
 3188TIP3   OH2 9569   3.061   2.314   1.702  0.2831 -0.3530  0.0526
 3188TIP3    H1 9570   3.061   2.317   1.798 -0.0311 -0.7428  0.0640
 3188TIP3    H2 9571   3.137   2.367   1.677  1.4727 -1.7508  0.5555
 3189TIP3   OH2 9572   5.963   5.095   3.269  0.2606  0.2253 -0.2773
 3189TIP3    H1 9573   5.878   5.105   3.226  0.7268  0.4762 -1.1527
 3189TIP3    H2 9574   5.968   5.002   3.290  0.1405  0.0455 -1.0075
 3190TIP3   OH2 9575   0.155   4.867   1.607 -0.0951 -0.2393 -0.3546
 3190TIP3    H1 9576   0.095   4.808   1.561  1.3901 -2.6695  0.6147
 3190TIP3    H2 9577   0.243   4.837   1.582  0.7849  2.2687 -0.5951
 3191TIP3   OH2 9578   4.650   1.204   2.078 -0.1931  0.2840 -0.3729
 3191TIP3    H1 9579   4.688   1.169   2.158  1.9626  3.0925 -0.0110
 3191TIP3    H2 9580   4.560   1.226   2.101 -0.6844 -2.0567  0.1999
 3192TIP3   OH2 9581   1.494   5.639   4.857  0.4432  0.1514 -0.0391
 3192TIP3    H1 9582   1.500   5.625   4.952  0.4070 -0.3165 -0.1072
 3192TIP3    H2 9583   1.535   5.725   4.844  0.4793  0.2059  0.3950
 3193TIP3   OH2 9584   4.022   3.644   3.470  0.3658 -0.5576  0.0996
 3193TIP3    H1 9585   3.970   3.568   3.496  1.6724 -2.1709 -1.6651
 3193TIP3    H2 9586   3.961   3.700   3.421 -0.1129 -1.5834 -0.5059
 3194TIP3   OH2 9587   5.407   0.183   2.616 -0.1120  0.2210 -0.0145
 3194TIP3    H1 9588   5.321   0.217   2.640  0.1130  0.3631  0.5833
 3194TIP3    H2 9589   5.450   0.255   2.569 -0.0969  0.3492  0.1960
 3195TIP3   OH2 9590   2.479   2.850   0.630 -0.0908 -0.3196 -0.1697
 3195TIP3    H1 9591   2.406   2.789   0.623 -1.0721  0.7991  0.0026
 3195TIP3    H2 9592   2.438   2.936   0.633  1.1350  0.2611  1.6471
 3196TIP3   OH2 9593   0.641   3.198   1.778  0.2694 -0.2494  0.0250
 3196TIP3    H1 9594   0.680   3.233   1.858 -1.7033  0.8424  0.5671
 3196TIP3    H2 9595   0.706   3.217   1.710  1.0476  0.7516  1.0084
 3197TIP3   OH2 9596   3.374   3.550   4.351  0.3188 -0.8101 -0.4311
 3197TIP3    H1 9597   3.370   3.545   4.256 -0.7932  0.7519 -0.4939
 3197TIP3    H2 9598   3.398   3.641   4.370  0.6395 -1.1197  0.7907
 3198TIP3   OH2 9599   3.271   1.048   1.268  0.2620  0.5203 -0.2662
 3198TIP3    H1 9600   3.271   0.952   1.267  1.2175  0.5063  0.5627
 3198TIP3    H2 9601   3.203   1.071   1.204 -0.5054 -0.7031  0.0550
 3199TIP3   OH2 9602   1.044   1.466   4.924 -0.4141 -0.0668  0.6851
 3199TIP3    H1 9603   1.007   1.432   5.005  1.1553 -0.7248  1.1758
 3199TIP3    H2 9604   1.138   1.474   4.943 -0.2685  1.5365 -0.4694
 3200TIP3   OH2 9605   5.707   5.516   1.863  0.3375 -0.2512 -0.1474
 3200TIP3    H1 9606   5.620   5.482   1.842 -0.2938  1.2133 -0.0018
 3200TIP3    H2 9607   5.760   5.438   1.879 -0.1993 -1.3124 -3.0078
 3201TIP3   OH2 9608   4.607   4.408   2.748 -0.7303  0.3983 -0.2205
 3201TIP3    H1 9609   4.525   4.456   2.742 -0.5049  0.7094 -0.8895
 3201TIP3    H2 9610   4.612   4.359   2.666 -0.4226  0.0998 -0.0264
 3202TIP3   OH2 9611   1.999   1.767   1.518  0.7223  0.0282 -0.1320
 3202TIP3    H1 9612   2.067   1.701   1.531  0.0152 -0.8077 -0.5923
 3202TIP3    H2 9613   1.981   1.800   1.606  1.6541  0.1934  0.0029
 3203TIP3   OH2 9614   0.274   4.714   3.442  0.7179 -0.0462 -0.1513
 3203TIP3    H1 9615   0.320   4.797   3.454  1.2807 -0.2817 -0.6041
 3203TIP3    H2 9616   0.325   4.669   3.375 -0.0336 -0.4291 -0.4653
 3204TIP3   OH2 9617   1.206   0.359   3.709 -0.0003 -0.0577 -0.0506
 3204TIP3    H1 9618   1.288   0.336   3.754 -0.3488  1.1723  1.2647
 3204TIP3    H2 9619   1.155   0.278   3.710  0.2059 -0.1854  1.3603
 3205TIP3   OH2 9620   2.000   5.785   2.077  0.4423 -0.4983 -0.0853
 3205TIP3    H1 9621   2.019   5.694   2.100  1.5011 -0.4561 -0.7226
 3205TIP3    H2 9622   1.962   5.781   1.990 -2.1646 -0.5317  0.9812
 3206TIP3   OH2 9623   4.335   5.701   3.364  0.1628  0.2034 -0.4539
 3206TIP3    H1 9624   4.316   5.730   3.454  0.9436 -0.4602 -0.0605
 3206TIP3    H2 9625   4.291   5.766   3.309 -1.5535 -0.1864  0.3866
 3207TIP3   OH2 9626   0.013   4.934   0.169 -0.5362  1.0760 -0.4383
 3207TIP3    H1 9627  -0.031   4.993   0.230  1.4379  1.9905  0.1763
 3207TIP3    H2 9628   0.058   4.992   0.108  0.0178  0.1813 -0.9039
 3208TIP3   OH2 9629   3.363   1.217   0.927 -0.3476 -0.4755 -0.0617
 3208TIP3    H1 9630   3.346   1.123   0.922  0.4502 -0.5765 -1.6282
 3208TIP3    H2 9631   3.413   1.228   1.007 -0.3626 -1.4067  0.0892
 3209TIP3   OH2 9632   3.229   1.484   1.697  0.0553  0.3220  0.2025
 3209TIP3    H1 9633   3.282   1.507   1.621  0.7033 -0.3307  0.4411
 3209TIP3    H2 9634   3.265   1.401   1.727 -0.1542  0.6020  1.2656
 3210TIP3   OH2 9635   2.731   0.554   2.292  0.1956 -0.0324  0.6873
 3210TIP3    H1 9636   2.697   0.641   2.269  1.5520  0.0544 -1.2255
 3210TIP3    H2 9637   2.814   0.572   2.335  0.1598 -0.3803  0.9018
 3211TIP3   OH2 9638   1.559   1.871   0.675  0.0405 -0.3483  0.1081
 3211TIP3    H1 9639   1.616   1.892   0.749 -0.3627  0.8091  0.1261
 3211TIP3    H2 9640   1.473   1.855   0.715 -0.0382 -0.3343 -0.0529
 3212TIP3   OH2 9641   1.076   2.700   3.457  0.1485  0.2559 -0.0592
 3212TIP3    H1 9642   1.101   2.777   3.406 -0.9671 -0.0509 -1.1454
 3212TIP3    H2 9643   1.158   2.659   3.482  0.8210 -0.1956 -2.6337
 3213TIP3   OH2 9644   1.300   5.856   4.643  0.2730  0.3092 -0.2130
 3213TIP3    H1 9645   1.252   5.847   4.725  0.7921  0.3990  0.1097
 3213TIP3    H2 9646   1.287   5.947   4.617 -2.0262 -0.3494 -1.6025
 3214TIP3   OH2 9647   5.837   4.066   1.161  0.2260 -0.0934  0.2689
 3214TIP3    H1 9648   5.885   4.003   1.107  0.5343  1.1831 -0.9969
 3214TIP3    H2 9649   5.860   4.042   1.251  0.3557 -1.7496 -0.1621
 3215TIP3   OH2 9650   5.346   4.117   2.991  0.6586 -0.6915  0.2210
 3215TIP3    H1 9651   5.284   4.045   3.003  0.3614 -0.6036 -0.7100
 3215TIP3    H2 9652   5.431   4.075   2.983  0.2018 -1.2626 -3.2474
 3216TIP3   OH2 9653   3.165   5.707   5.025  0.1947  0.1813  0.5738
 3216TIP3    H1 9654   3.255   5.718   5.056 -0.1164  0.2065  1.5045
 3216TIP3    H2 9655   3.165   5.623   4.979  0.8012  0.4183  0.1159
 3217TIP3   OH2 9656   3.896   3.622   3.139 -0.3606  0.3733 -0.3404
 3217TIP3    H1 9657   3.949   3.625   3.059 -0.4864  0.8951 -0.4081
 3217TIP3    H2 9658   3.948   3.668   3.204  0.3076 -1.1274  0.2348
 3218TIP3   OH2 9659   3.666   1.338   2.308 -0.6579  0.1806 -0.0802
 3218TIP3    H1 9660   3.696   1.429   2.315  1.2518 -0.4310  0.3407
 3218TIP3    H2 9661   3.680   1.315   2.217  0.0980 -0.0794  0.0976
 3219TIP3   OH2 9662   0.022   3.490   4.406  0.2212  0.1092  0.7940
 3219TIP3    H1 9663   0.098   3.496   4.349  0.4894 -0.2343  1.1134
 3219TIP3    H2 9664  -0.004   3.581   4.423  1.4395  0.2818  1.8621
 3220TIP3   OH2 9665   3.134   5.914   4.699 -0.1301 -0.0712 -0.1020
 3220TIP3    H1 9666   3.140   5.890   4.606  0.4718  0.7764 -0.2936
 3220TIP3    H2 9667   3.040   5.922   4.716 -0.2092  0.9839 -0.9632
 3221TIP3   OH2 9668   3.287   5.036   4.863 -0.3383  0.1437 -0.2413
 3221TIP3    H1 9669   3.272   5.072   4.950 -0.0261 -0.3060  0.0014
 3221TIP3    H2 9670   3.229   5.087   4.806  0.6685  1.5735 -0.0351
 3222TIP3   OH2 9671   4.178   5.921   4.694  0.0489 -0.5954 -0.5211
 3222TIP3    H1 9672   4.164   5.849   4.755  2.9128 -0.6421  0.2372
 3222TIP3    H2 9673   4.209   5.879   4.613  2.4285 -0.3190  0.1504
 3223TIP3   OH2 9674   3.803   0.754   3.588 -0.4587 -0.0544 -0.0800
 3223TIP3    H1 9675   3.873   0.748   3.523  0.3609  3.3087  0.2774
 3223TIP3    H2 9676   3.722   0.758   3.536 -0.0591 -0.2866 -0.7288
 3224TIP3   OH2 9677   2.324   1.485   0.408  0.0952 -0.4494 -0.3445
 3224TIP3    H1 9678   2.353   1.395   0.393  1.7235  0.2480 -1.6899
 3224TIP3    H2 9679   2.330   1.497   0.503  0.1410 -1.6570 -0.1840
 3225TIP3   OH2 9680   0.695   5.499   0.256  0.1773  0.4099  0.4819
 3225TIP3    H1 9681   0.624   5.545   0.302  1.5996  1.2453  1.9399
 3225TIP3    H2 9682   0.759   5.568   0.237  0.5135 -0.2885 -1.0446
 3226TIP3   OH2 9683   5.771   4.321   1.071 -0.1001 -0.6147 -0.0104
 3226TIP3    H1 9684   5.797   4.230   1.090 -0.4261 -0.7101 -0.0254
 3226TIP3    H2 9685   5.734   4.318   0.983  1.3319 -0.1879 -0.6740
 3227TIP3   OH2 9686   3.667   2.851   0.567  0.5827  0.1374  0.2310
 3227TIP3    H1 9687   3.722   2.921   0.602  1.7562 -0.6810  0.0745
 3227TIP3    H2 9688   3.617   2.893   0.497  2.5064  0.4747 -1.0256
 3228TIP3   OH2 9689   5.489   1.904   0.345  0.3621 -0.1689 -0.1860
 3228TIP3    H1 9690   5.414   1.960   0.324  0.0041 -0.8327 -0.6940
 3228TIP3    H2 9691   5.511   1.861   0.263 -0.3139 -1.9170  0.5229
 3229TIP3   OH2 9692   0.320   2.388   2.650 -0.1957  0.8553 -0.2278
 3229TIP3    H1 9693   0.404   2.434   2.647 -0.3796  1.1613 -2.4816
 3229TIP3    H2 9694   0.254   2.457   2.637 -0.6459  0.3188 -0.8645
 3230TIP3   OH2 9695   2.849   1.568   3.884  1.5418  0.0830  0.6807
 3230TIP3    H1 9696   2.768   1.614   3.861  1.4595 -0.7744 -0.8403
 3230TIP3    H2 9697   2.819   1.492   3.935  1.2237 -1.0242 -1.0871
 3231TIP3   OH2 9698   1.099   3.815   3.834  0.0920  0.0587  1.0737
 3231TIP3    H1 9699   1.075   3.845   3.746  0.0780 -1.1703  0.6426
 3231TIP3    H2 9700   1.090   3.893   3.888  0.5932  0.9684 -0.0963
 3232TIP3   OH2 9701   1.964   3.036   1.797  0.1013  0.0666  0.4783
 3232TIP3    H1 9702   2.020   3.015   1.871  1.9254  0.2751 -0.7847
 3232TIP3    H2 9703   1.974   3.130   1.785 -0.3406  0.0685  0.0778
 3233TIP3   OH2 9704   3.094   3.622   0.513  0.1244  0.0012  0.7836
 3233TIP3    H1 9705   3.057   3.636   0.600 -1.5671  0.0101  0.1021
 3233TIP3    H2 9706   3.053   3.689   0.459  1.5943  0.3602  0.0894
 3234TIP3   OH2 9707   6.290   0.040   0.285 -0.3908  0.3644 -0.1283
 3234TIP3    H1 9708   6.293   0.114   0.225 -0.3633 -0.2786 -0.9413
 3234TIP3    H2 9709   6.200   0.009   0.280 -0.2477 -0.0358 -0.2804
 3235TIP3   OH2 9710   4.927   1.007   1.917 -0.1147 -0.1747  0.6467
 3235TIP3    H1 9711   4.899   1.034   1.830  1.9399  0.5492  0.1663
 3235TIP3    H2 9712   4.941   0.913   1.910  0.5543 -0.0372  0.0252
 3236TIP3   OH2 9713   3.938   1.642   2.505 -0.0964 -0.0439  0.2898
 3236TIP3    H1 9714   3.913   1.734   2.495  1.8891  0.3392 -2.0102
 3236TIP3    H2 9715   3.879   1.594   2.447  0.5578  0.1311 -0.5382
 3237TIP3   OH2 9716   1.885   5.743   1.816 -0.7908  0.1141  0.1363
 3237TIP3    H1 9717   1.935   5.703   1.744  0.5149 -0.0165  1.0738
 3237TIP3    H2 9718   1.843   5.669   1.860 -0.6317  0.0578  0.1968
 3238TIP3   OH2 9719   1.114   0.576   4.056 -0.0052  0.0649 -0.7143
 3238TIP3    H1 9720   1.098   0.484   4.034  1.1089 -0.3608  0.1025
 3238TIP3    H2 9721   1.066   0.590   4.137 -1.9186  0.8596 -1.9063
 3239TIP3   OH2 9722   0.403   0.080   3.158  0.0137  0.4698  0.1901
 3239TIP3    H1 9723   0.457   0.014   3.201  0.5559  0.4807 -0.4557
 3239TIP3    H2 9724   0.351   0.030   3.094 -0.7194  0.4646  0.7773
 3240TIP3   OH2 9725   5.917   3.408   4.136  0.6497 -0.1349 -0.3823
 3240TIP3    H1 9726   5.968   3.328   4.122  0.7435 -0.3921  1.2180
 3240TIP3    H2 9727   5.982   3.476   4.154  0.5105 -0.4609  1.6478
 3241TIP3   OH2 9728   4.885   3.709   3.091  0.6790 -0.8549 -0.2411
 3241TIP3    H1 9729   4.805   3.727   3.141  1.6374 -0.6117  1.2732
 3241TIP3    H2 9730   4.886   3.614   3.081 -0.7632 -0.7335 -2.0052
 3242TIP3   OH2 9731   5.452   3.097   1.571  0.3926  0.0218 -0.1161
 3242TIP3    H1 9732   5.474   3.189   1.581  0.7636 -0.2744  2.7073
 3242TIP3    H2 9733   5.477   3.057   1.655 -0.0284 -2.5913 -1.1352
 3243TIP3   OH2 9734   2.750   3.312   4.534 -0.2084  0.3333 -0.2667
 3243TIP3    H1 9735   2.806   3.238   4.559 -0.0614  0.3096 -0.6557
 3243TIP3    H2 9736   2.772   3.380   4.597  0.0566  0.2305 -0.2459
 3244TIP3   OH2 9737   3.068   4.691   2.776 -0.2456 -0.1617  0.0414
 3244TIP3    H1 9738   3.090   4.718   2.865 -1.7524 -0.7173  0.6195
 3244TIP3    H2 9739   3.122   4.746   2.719  0.4952  0.4277  1.2869
 3245TIP3   OH2 9740   4.427   4.170   1.925 -0.2915 -0.7864  0.1637
 3245TIP3    H1 9741   4.450   4.077   1.921  0.1530 -0.6515 -0.7781
 3245TIP3    H2 9742   4.432   4.192   2.018 -1.3006 -1.9156  0.5158
 3246TIP3   OH2 9743   2.765   2.812   3.948 -0.3570  0.7912  0.1233
 3246TIP3    H1 9744   2.707   2.838   3.876 -0.7703 -0.7308 -0.1394
 3246TIP3    H2 9745   2.853   2.819   3.912 -0.6009 -1.1489 -1.0269
 3247TIP3   OH2 9746   6.340   2.480   3.694 -0.2127 -0.4762 -0.3788
 3247TIP3    H1 9747   6.285   2.437   3.629 -0.4531 -2.2649  0.9270
 3247TIP3    H2 9748   6.316   2.572   3.689 -0.7673 -0.6858 -2.2570
 3248TIP3   OH2 9749   5.723   4.491   4.169  0.5525 -0.2049  0.5520
 3248TIP3    H1 9750   5.714   4.527   4.257  1.2922  1.0163  0.1581
 3248TIP3    H2 9751   5.679   4.555   4.112  1.3369 -0.2262 -0.0978
 3249TIP3   OH2 9752   2.843   0.860   5.075  0.2098 -0.1420  0.0376
 3249TIP3    H1 9753   2.902   0.789   5.052  1.3844  0.5057  0.9107
 3249TIP3    H2 9754   2.884   0.901   5.151 -0.1412  1.7986 -0.7578
 3250TIP3   OH2 9755   0.760   1.321   2.462  0.1037 -0.1824  0.0645
 3250TIP3    H1 9756   0.704   1.281   2.395  0.0592  0.7499 -0.4641
 3250TIP3    H2 9757   0.844   1.276   2.453 -0.8578 -2.5083  1.7075
 3251TIP3   OH2 9758   1.332   1.561   0.434 -0.3641 -0.2843  0.0487
 3251TIP3    H1 9759   1.263   1.509   0.392  0.0499 -0.6479 -0.1862
 3251TIP3    H2 9760   1.285   1.618   0.494 -0.9528  0.0424 -0.6947
 3252TIP3   OH2 9761   0.608   2.186   3.401 -0.0237 -0.0628  0.2333
 3252TIP3    H1 9762   0.626   2.272   3.364  0.3136 -0.1286  0.2377
 3252TIP3    H2 9763   0.568   2.136   3.330  0.5275 -0.1581 -0.0155
 3253TIP3   OH2 9764   1.467   3.529   0.045 -0.2499 -0.1727 -0.6380
 3253TIP3    H1 9765   1.465   3.620   0.074 -0.3669  0.0628 -1.3700
 3253TIP3    H2 9766   1.431   3.480   0.119 -0.7659  0.4391 -0.4708
 3254TIP3   OH2 9767   3.733   1.491   3.372  0.0228  0.1266  0.0231
 3254TIP3    H1 9768   3.685   1.573   3.355 -1.2272 -0.4350  0.7087
 3254TIP3    H2 9769   3.796   1.485   3.300 -2.1177  0.0085 -1.9654
 3255TIP3   OH2 9770   3.930   6.002   4.049 -0.1728 -0.3152 -0.3925
 3255TIP3    H1 9771   3.910   5.912   4.076 -0.4316 -0.4513 -1.0338
 3255TIP3    H2 9772   3.894   6.009   3.961 -0.8310  0.6535 -0.0595
 3256TIP3   OH2 9773   3.804   1.731   4.407  0.6112  0.2981 -0.1020
 3256TIP3    H1 9774   3.793   1.766   4.495  0.5693 -1.2116  0.5354
 3256TIP3    H2 9775   3.877   1.779   4.370  0.2913  1.3099  0.5616
 3257TIP3   OH2 9776   4.766   3.149   0.767 -0.0550  0.3237  0.4976
 3257TIP3    H1 9777   4.808   3.152   0.852 -0.4170  1.2115  0.6573
 3257TIP3    H2 9778   4.804   3.223   0.718 -0.2003  0.1159  0.0604
 3258TIP3   OH2 9779   3.139   2.812   2.175 -0.7593  0.2633 -0.6424
 3258TIP3    H1 9780   3.073   2.881   2.183 -0.5674  0.3324  0.3874
 3258TIP3    H2 9781   3.138   2.789   2.082 -1.2379  1.2409 -0.8873
 3259TIP3   OH2 9782   1.234   1.629   0.969  0.6755  0.1409  0.2120
 3259TIP3    H1 9783   1.173   1.628   1.042  0.4186 -0.1010 -0.0022
 3259TIP3    H2 9784   1.195   1.569   0.904 -0.3472  2.1417 -1.1370
 3260TIP3   OH2 9785   2.869   4.810   4.825  0.5404  0.1477 -0.7204
 3260TIP3    H1 9786   2.854   4.720   4.798  0.2055  0.1406 -0.5264
 3260TIP3    H2 9787   2.786   4.855   4.805  1.2665  0.8201 -2.4309
 3261TIP3   OH2 9788   1.702   1.751   1.125  0.3482 -0.1878 -0.4507
 3261TIP3    H1 9789   1.759   1.712   1.191  1.2923 -1.4088 -1.8946
 3261TIP3    H2 9790   1.615   1.753   1.165  0.9156 -0.7293  0.8646
 3262TIP3   OH2 9791   5.651   0.722   2.598 -0.4741  0.1526 -0.0356
 3262TIP3    H1 9792   5.592   0.751   2.529 -1.5505 -0.2219  0.6927
 3262TIP3    H2 9793   5.624   0.631   2.616 -0.3136  0.2875  0.9560
 3263TIP3   OH2 9794   1.097   0.939   3.382  0.7376 -0.2801  0.0720
 3263TIP3    H1 9795   1.089   0.896   3.467 -0.8496  0.7820  0.5012
 3263TIP3    H2 9796   1.019   0.912   3.334  1.9153 -1.3613 -1.3291
 3264TIP3   OH2 9797   6.275   1.753   0.388  0.2389 -0.0467 -0.7198
 3264TIP3    H1 9798   6.314   1.677   0.344  0.0621 -1.1356  0.8961
 3264TIP3    H2 9799   6.192   1.720   0.422 -0.8123  1.4652 -1.7063
 3265TIP3   OH2 9800   1.737   5.202   1.833 -0.1967  0.3171  0.0519
 3265TIP3    H1 9801   1.708   5.212   1.924  0.1103 -0.0447  0.1905
 3265TIP3    H2 9802   1.830   5.183   1.839 -0.0530  0.8388 -0.3666
 3266TIP3   OH2 9803   3.524   4.938   1.551  0.0739  0.2191  0.5280
 3266TIP3    H1 9804   3.430   4.940   1.535  0.0954 -1.4894 -0.0397
 3266TIP3    H2 9805   3.553   5.028   1.539 -1.3788  0.6324 -0.0155
 3267TIP3   OH2 9806   1.753   1.651   2.703  0.2892 -0.7628  0.5947
 3267TIP3    H1 9807   1.772   1.575   2.647  0.6685  0.8658 -1.6117
 3267TIP3    H2 9808   1.816   1.644   2.774  1.3822 -1.6754 -0.4200
 3268TIP3   OH2 9809   1.204   1.226   1.966 -0.2008  0.3513 -0.3757
 3268TIP3    H1 9810   1.280   1.280   1.946 -0.6472  1.3135  0.4831
 3268TIP3    H2 9811   1.156   1.274   2.033 -0.9261 -0.8291 -0.0063
 3269TIP3   OH2 9812   4.284   3.689   3.369  0.0203 -0.3594  0.6684
 3269TIP3    H1 9813   4.203   3.692   3.420  0.3511 -0.8542  1.2362
 3269TIP3    H2 9814   4.293   3.778   3.334 -0.1505  0.0349  1.5832
 3270TIP3   OH2 9815   1.079   0.931   4.387 -0.1900  0.3084  0.4421
 3270TIP3    H1 9816   1.133   1.005   4.360  0.9511 -0.6471  0.0691
 3270TIP3    H2 9817   0.997   0.943   4.339  0.8131  0.1139 -1.3930
 3271TIP3   OH2 9818   5.577   3.023   5.089 -0.1947 -0.4457 -0.1283
 3271TIP3    H1 9819   5.558   3.093   5.027 -0.7904 -1.8611 -1.6005
 3271TIP3    H2 9820   5.498   3.018   5.143 -0.7137 -0.8742 -0.9110
 3272TIP3   OH2 9821   4.875   2.758   1.370  0.0422 -0.1135 -0.1970
 3272TIP3    H1 9822   4.970   2.769   1.359  0.1873 -0.0229  1.0273
 3272TIP3    H2 9823   4.838   2.839   1.335  0.5832  0.8717  1.4112
 3273TIP3   OH2 9824   0.738   0.610   0.795  0.4547 -0.1930 -0.0047
 3273TIP3    H1 9825   0.701   0.522   0.792 -0.0897  0.0461 -0.4894
 3273TIP3    H2 9826   0.662   0.667   0.810  0.8468  0.1643  0.6766
 3274TIP3   OH2 9827   0.566   5.745   0.732 -0.0109 -0.5144  0.2859
 3274TIP3    H1 9828   0.549   5.796   0.811 -2.4467 -0.5045 -0.1764
 3274TIP3    H2 9829   0.610   5.666   0.763 -1.8282 -0.9862  1.8285
 3275TIP3   OH2 9830   4.383   0.284   5.114 -0.0388  0.6819  0.4297
 3275TIP3    H1 9831   4.304   0.336   5.132 -0.3211  0.9905 -1.4915
 3275TIP3    H2 9832   4.357   0.194   5.137 -0.1068  1.1189  2.1589
 3276TIP3   OH2 9833   5.419   4.470   1.087 -0.1027 -0.2227 -0.0813
 3276TIP3    H1 9834   5.443   4.395   1.033 -1.4226 -1.2158  0.6625
 3276TIP3    H2 9835   5.406   4.542   1.024  1.3620 -0.5421 -0.7763
 3277TIP3   OH2 9836   1.561   4.381   2.100  0.2294 -0.1535  0.4636
 3277TIP3    H1 9837   1.599   4.323   2.034 -0.4006 -0.2093  0.1428
 3277TIP3    H2 9838   1.551   4.326   2.178 -1.1175 -0.7155 -0.0805
 3278TIP3   OH2 9839   3.469   3.851   0.113 -0.1310 -0.9125 -0.4968
 3278TIP3    H1 9840   3.490   3.788   0.044 -2.0087 -2.9474  0.6556
 3278TIP3    H2 9841   3.482   3.802   0.194 -0.5757  0.5666  0.4958
 3279TIP3   OH2 9842   1.797   5.412   3.894  0.3720 -0.3504  0.8067
 3279TIP3    H1 9843   1.883   5.385   3.925  0.5127  0.7663  1.4403
 3279TIP3    H2 9844   1.767   5.476   3.959 -0.3647  0.2647 -0.1167
 3280TIP3   OH2 9845   4.489   5.440   1.956  0.3048  0.3756  0.3020
 3280TIP3    H1 9846   4.548   5.364   1.956  0.3363  0.3555  2.4122
 3280TIP3    H2 9847   4.536   5.507   1.906  1.1917 -0.3101  0.1986
 3281TIP3   OH2 9848   0.452   4.275   3.153 -0.6231  0.3694 -0.2379
 3281TIP3    H1 9849   0.369   4.268   3.107 -1.2057  1.6150  0.5485
 3281TIP3    H2 9850   0.461   4.193   3.201 -2.5188  1.0243  1.3951
 3282TIP3   OH2 9851   3.612   5.470   2.062  0.4778 -0.6883 -0.3777
 3282TIP3    H1 9852   3.556   5.518   2.123 -0.3486 -1.3886 -0.5607
 3282TIP3    H2 9853   3.673   5.535   2.029 -1.0342  0.4138 -1.1295
 3283TIP3   OH2 9854   0.583   4.485   2.236  0.8415  0.2839  0.5073
 3283TIP3    H1 9855   0.635   4.546   2.289  0.7872  1.1714 -0.4474
 3283TIP3    H2 9856   0.635   4.471   2.157 -0.3840  1.2597 -0.5152
 3284TIP3   OH2 9857   2.054   3.449   1.570  0.0052  0.1471 -0.0287
 3284TIP3    H1 9858   2.107   3.499   1.508  0.5697  0.1328  0.4265
 3284TIP3    H2 9859   2.022   3.374   1.520 -1.8308  1.5314 -1.0552
 3285TIP3   OH2 9860   3.672   1.075   2.432  0.1437  0.5267 -0.3288
 3285TIP3    H1 9861   3.597   1.085   2.491  0.3759  0.0205  0.0547
 3285TIP3    H2 9862   3.681   1.160   2.390 -0.4308  0.6953 -0.1213
 3286TIP3   OH2 9863   2.152   1.284   3.790 -0.2376 -0.3363 -0.0215
 3286TIP3    H1 9864   2.156   1.334   3.709 -0.7334 -0.0874  0.1057
 3286TIP3    H2 9865   2.081   1.221   3.776 -1.0257  0.3926  0.5967
 3287TIP3   OH2 9866   0.802   3.461   4.063  0.0218 -0.1335 -0.1364
 3287TIP3    H1 9867   0.817   3.400   3.991  1.2346 -0.8777  0.7096
 3287TIP3    H2 9868   0.783   3.404   4.138 -1.2030  0.6266  0.1558
 3288TIP3   OH2 9869   1.287   1.959   2.849 -0.3241  0.2508 -0.4400
 3288TIP3    H1 9870   1.378   1.989   2.848 -0.3034  0.2060  0.0332
 3288TIP3    H2 9871   1.253   1.982   2.762 -0.6637  2.7333  0.2863
 3289TIP3   OH2 9872   3.745   2.906   4.213  0.1347  0.5559  0.5654
 3289TIP3    H1 9873   3.683   2.979   4.206  0.2907  0.8439  2.0044
 3289TIP3    H2 9874   3.816   2.939   4.268  1.7288  0.3005 -1.2319
 3290TIP3   OH2 9875   3.826   0.624   0.019 -0.1273 -0.2415 -0.3190
 3290TIP3    H1 9876   3.898   0.653  -0.036  1.2829 -0.7850  1.1701
 3290TIP3    H2 9877   3.798   0.703   0.066 -0.5652 -0.0195 -0.9378
 3291TIP3   OH2 9878   4.647   1.781   1.437  0.0773  0.7070 -0.3297
 3291TIP3    H1 9879   4.698   1.862   1.445  1.8293 -0.2761 -0.9492
 3291TIP3    H2 9880   4.601   1.790   1.354 -0.5802  1.4988  0.1087
 3292TIP3   OH2 9881   3.881   2.845   3.919 -0.7838  0.0530 -0.1854
 3292TIP3    H1 9882   3.839   2.892   3.991  1.5578  0.5316  0.9556
 3292TIP3    H2 9883   3.875   2.753   3.945  0.3338  0.2433  0.8286
 3293TIP3   OH2 9884   4.945   4.575   1.652 -0.1379 -0.0457  0.2677
 3293TIP3    H1 9885   4.858   4.538   1.664 -0.1568  0.0138  0.3154
 3293TIP3    H2 9886   4.990   4.557   1.735  0.0560 -0.5150  0.0633
 3294TIP3   OH2 9887   5.703   0.252   2.302  0.1888  0.8231  0.1818
 3294TIP3    H1 9888   5.692   0.163   2.269  1.0033  0.9841 -0.5580
 3294TIP3    H2 9889   5.614   0.280   2.324 -0.0098 -0.3957  1.0601
 3295TIP3   OH2 9890   2.733   3.080   1.370 -0.1035  0.5359 -0.0691
 3295TIP3    H1 9891   2.657   3.039   1.329  0.8007  0.5710 -1.8582
 3295TIP3    H2 9892   2.753   3.024   1.445  0.3018 -1.6224 -1.6738
 3296TIP3   OH2 9893   0.990   1.402   3.614  0.5667 -0.0608 -0.5350
 3296TIP3    H1 9894   0.949   1.435   3.534 -1.0976  1.0670  0.7127
 3296TIP3    H2 9895   0.953   1.315   3.625  0.0848  0.1407 -0.5184
 3297TIP3   OH2 9896   4.768   5.621   0.418 -0.3498 -0.3072 -0.0673
 3297TIP3    H1 9897   4.857   5.585   0.423  0.0309  0.3583 -1.4454
 3297TIP3    H2 9898   4.743   5.609   0.327 -0.0123  3.2272 -0.7691
 3298TIP3   OH2 9899   5.714   3.483   2.357  0.3908 -0.2986  0.1947
 3298TIP3    H1 9900   5.656   3.413   2.325 -0.1801  0.4108 -0.3678
 3298TIP3    H2 9901   5.708   3.551   2.290  2.2302 -0.3727 -0.1067
 3299TIP3   OH2 9902   4.469   5.729   2.449  0.1195  0.0946 -0.4058
 3299TIP3    H1 9903   4.560   5.757   2.462  0.3211 -1.2831  1.6648
 3299TIP3    H2 9904   4.418   5.788   2.505 -0.2672  0.7040 -1.3735
 3300TIP3   OH2 9905   5.904   0.107   3.803 -0.3876 -0.4839 -0.2633
 3300TIP3    H1 9906   5.985   0.117   3.753 -0.1359  0.8354  0.3604
 3300TIP3    H2 9907   5.903   0.182   3.862 -0.7147 -1.9253  1.6632
 3301TIP3   OH2 9908   4.811   5.480   0.185 -0.3328 -0.5213  0.6908
 3301TIP3    H1 9909   4.856   5.416   0.241 -1.4037 -1.9474 -0.0146
 3301TIP3    H2 9910   4.844   5.461   0.097 -1.2931 -0.6824  0.3585
 3302TIP3   OH2 9911   5.574   0.467   2.735  0.4585  0.1353  0.4332
 3302TIP3    H1 9912   5.662   0.490   2.764  0.6048  0.5381 -0.3093
 3302TIP3    H2 9913   5.536   0.421   2.810  1.8888 -1.5857  0.1821
 3303TIP3   OH2 9914   5.964   3.304   1.197 -0.5483  0.2770  0.2785
 3303TIP3    H1 9915   5.882   3.288   1.150 -0.0309  0.0791 -0.5935
 3303TIP3    H2 9916   6.014   3.223   1.187 -0.4138  0.2424  1.1662
 3304TIP3   OH2 9917   3.178   1.105   4.834  0.0460  0.8236 -0.0704
 3304TIP3    H1 9918   3.223   1.157   4.900 -1.3062  0.6165  1.0574
 3304TIP3    H2 9919   3.196   1.014   4.857 -0.9824  0.7364  0.4522
 3305TIP3   OH2 9920   2.478   4.184   2.687 -0.4557 -0.0792 -0.4368
 3305TIP3    H1 9921   2.456   4.091   2.673 -1.8963  0.2674 -0.6819
 3305TIP3    H2 9922   2.406   4.231   2.645  0.6007  1.1696 -0.8753
 3306TIP3   OH2 9923   1.571   4.922   4.485  0.0950  0.5001  0.2689
 3306TIP3    H1 9924   1.619   4.923   4.402 -0.7812 -0.1111 -0.2537
 3306TIP3    H2 9925   1.627   4.973   4.545  1.5559 -0.4613 -0.2202
 3307TIP3   OH2 9926   3.548   0.777   2.600 -0.7409 -0.7583 -0.2878
 3307TIP3    H1 9927   3.527   0.869   2.614 -1.8523 -0.9953 -0.2793
 3307TIP3    H2 9928   3.582   0.747   2.685 -1.8839 -0.7310  0.2056
 3308TIP3   OH2 9929   4.128   0.736   2.630  0.2043  0.1192 -0.0300
 3308TIP3    H1 9930   4.097   0.820   2.662  0.4396  1.1512 -2.3802
 3308TIP3    H2 9931   4.056   0.675   2.648 -0.5707  1.1218  0.3181
 3309TIP3   OH2 9932   1.903   4.544   2.272  0.4622 -0.4605  0.2879
 3309TIP3    H1 9933   1.834   4.478   2.279  1.2778 -1.3438  0.0829
 3309TIP3    H2 9934   1.856   4.623   2.245 -1.0050 -0.0553  3.5592
 3310TIP3   OH2 9935   5.760   4.874   4.163 -0.1702  0.0418  0.0890
 3310TIP3    H1 9936   5.829   4.833   4.111  2.0330  0.9360  2.1219
 3310TIP3    H2 9937   5.807   4.922   4.231 -2.8229  1.0702  1.3221
 3311TIP3   OH2 9938   3.312   2.936  -0.008 -0.3716 -0.0390  0.2222
 3311TIP3    H1 9939   3.299   2.843  -0.026 -1.3291 -0.0768  1.0011
 3311TIP3    H2 9940   3.376   2.938   0.063 -1.9081 -0.2416  1.6868
 3312TIP3   OH2 9941   5.571   5.435   2.929 -0.4894  0.0475  0.1526
 3312TIP3    H1 9942   5.546   5.525   2.907  2.0769  0.9599  0.6015
 3312TIP3    H2 9943   5.660   5.443   2.964  0.2196 -2.7879 -0.7605
 3313TIP3   OH2 9944   2.310   4.901   1.160  0.4584  0.1939  0.7266
 3313TIP3    H1 9945   2.354   4.986   1.155  2.3165 -0.6789  1.2430
 3313TIP3    H2 9946   2.284   4.883   1.070  2.0908  0.3191  0.1968
 3314TIP3   OH2 9947   2.940   1.686   1.698  0.6031  0.5198 -0.8200
 3314TIP3    H1 9948   3.004   1.752   1.670  0.6307  0.5716 -0.6337
 3314TIP3    H2 9949   2.866   1.697   1.637  0.1174  1.4983 -0.0724
 3315TIP3   OH2 9950   0.584   1.122   2.590 -0.5637  0.0141  0.3735
 3315TIP3    H1 9951   0.598   1.070   2.669  0.2259 -2.5923 -1.3276
 3315TIP3    H2 9952   0.660   1.179   2.585  0.3246 -1.1095  0.5865
 3316TIP3   OH2 9953   4.789   1.761   2.841  0.1378 -0.1756  0.4446
 3316TIP3    H1 9954   4.860   1.752   2.904  0.1299 -1.3656  0.3055
 3316TIP3    H2 9955   4.830   1.745   2.756 -0.1516 -0.1271  0.2941
 3317TIP3   OH2 9956   0.556   2.731   0.446 -0.1726  0.1345  0.0006
 3317TIP3    H1 9957   0.599   2.653   0.411 -0.0267  0.1705  0.1007
 3317TIP3    H2 9958   0.626   2.780   0.488 -0.4185 -0.0975  0.6914
 3318TIP3   OH2 9959   4.378   1.195   2.228  0.2191 -0.4511  0.1565
 3318TIP3    H1 9960   4.333   1.271   2.264  0.1572  0.1270 -1.0993
 3318TIP3    H2 9961   4.447   1.175   2.292 -0.1019  0.3305  0.7591
 3319TIP3   OH2 9962   6.151   1.038   2.264 -1.0258  0.3130 -0.0903
 3319TIP3    H1 9963   6.200   1.008   2.340 -0.0603  0.0880 -0.7790
 3319TIP3    H2 9964   6.073   0.983   2.261  0.9100 -2.5888 -1.6021
 3320TIP3   OH2 9965   5.535   5.766   3.410 -0.1755 -0.5060  0.6072
 3320TIP3    H1 9966   5.499   5.705   3.473  0.8022 -2.2640 -0.4459
 3320TIP3    H2 9967   5.608   5.719   3.370  0.5035  1.2885 -0.4068
 3321TIP3   OH2 9968   0.378   1.234   1.179 -0.7517  0.1444 -0.0443
 3321TIP3    H1 9969   0.327   1.296   1.230  0.0751 -0.2924  1.3857
 3321TIP3    H2 9970   0.373   1.152   1.229 -1.1694 -0.7268 -1.4766
 3322TIP3   OH2 9971   3.672   3.136   2.602  0.1354 -0.3300 -0.2851
 3322TIP3    H1 9972   3.675   3.042   2.620 -1.4215 -0.5434 -0.9666
 3322TIP3    H2 9973   3.615   3.172   2.670  1.2596  0.2646  0.3872
 3323TIP3   OH2 9974   5.635   4.210   4.719  0.2365  1.1736  0.2775
 3323TIP3    H1 9975   5.642   4.115   4.730 -1.0732  1.0585  0.3082
 3323TIP3    H2 9976   5.693   4.247   4.785  1.0108  0.4009  0.0512
 3324TIP3   OH2 9977   4.278   2.725   3.464 -0.4670  0.3977  0.4070
 3324TIP3    H1 9978   4.224   2.766   3.531 -0.3393 -0.9523  1.3684
 3324TIP3    H2 9979   4.342   2.792   3.440 -0.8614  1.0844  1.2301
 3325TIP3   OH2 9980   5.619   5.831   2.036  0.5911 -0.3738 -0.6971
 3325TIP3    H1 9981   5.636   5.923   2.057 -1.2952  0.3405 -2.0599
 3325TIP3    H2 9982   5.643   5.784   2.117  0.6995  1.3908  0.3589
 3326TIP3   OH2 9983   5.748   2.882   0.293  0.4375 -0.6185  0.5363
 3326TIP3    H1 9984   5.762   2.897   0.199  1.2788 -1.0754  0.5772
 3326TIP3    H2 9985   5.744   2.970   0.331 -0.2421 -0.4206  0.0388
 3327TIP3   OH2 9986   0.952   5.322   4.599 -0.1527  0.1759  0.0655
 3327TIP3    H1 9987   0.863   5.356   4.604 -0.9718 -1.8842  0.5088
 3327TIP3    H2 9988   0.975   5.329   4.506 -0.4740  1.4090  0.0683
 3328TIP3   OH2 9989   5.337   4.645   0.872 -0.2115 -0.6852  0.4660
 3328TIP3    H1 9990   5.264   4.612   0.819  1.0153  0.3166 -2.0142
 3328TIP3    H2 9991   5.331   4.740   0.864  2.3064 -0.5728 -1.3422
 3329TIP3   OH2 9992   2.033   2.523   4.246 -0.1490 -0.3441  0.1508
 3329TIP3    H1 9993   2.102   2.487   4.191 -1.1182 -2.0967  0.0007
 3329TIP3    H2 9994   1.973   2.566   4.184  1.1550  1.9140  0.3569
 3330TIP3   OH2 9995   2.547   5.636   4.226  0.9730 -0.2363 -0.1174
 3330TIP3    H1 9996   2.519   5.601   4.141 -0.6995  1.8535 -0.5152
 3330TIP3    H2 9997   2.619   5.696   4.204  0.1564  0.7528 -0.1889
 3331TIP3   OH2 9998   0.164   3.596   2.341 -0.0401 -0.3513 -0.3974
 3331TIP3    H1 9999   0.182   3.549   2.259  0.7697 -0.1570 -0.3354
 3331TIP3    H210000   0.073   3.624   2.332  0.0309 -0.3488 -1.2245
 3332TIP3   OH210001   4.030   5.455   3.027  0.3969 -0.3042 -0.0275
 3332TIP3    H110002   3.969   5.463   3.100 -0.2868 -2.1866 -0.3540
 3332TIP3    H210003   4.029   5.542   2.986  0.5574  0.6916  1.9793
 3333TIP3   OH210004   2.895   1.766   4.250 -0.0061 -0.2452  0.2010
 3333TIP3    H110005   2.859   1.828   4.313  1.8516  1.7986 -0.6061
 3333TIP3    H210006   2.973   1.810   4.216  1.4519 -3.0852 -0.3903
 3334TIP3   OH210007   3.582   5.563   1.653  0.0006 -0.5119 -0.0410
 3334TIP3    H110008   3.608   5.575   1.745  1.6370 -1.0067 -0.4091
 3334TIP3    H210009   3.664   5.546   1.607 -0.9746 -2.0388 -1.3106
 3335TIP3   OH210010   3.622   4.492   3.519 -0.2697 -0.0215  0.5042
 3335TIP3    H110011   3.533   4.501   3.485 -0.2274  0.3881  0.4862
 3335TIP3    H210012   3.612   4.451   3.605 -0.4126 -0.6725  0.1741
 3336TIP3   OH210013   3.773   4.516   1.796  0.9892  0.0926  0.3248
 3336TIP3    H110014   3.719   4.470   1.732  0.1941 -0.2965  1.2429
 3336TIP3    H210015   3.738   4.605   1.798  1.0540  0.1208  0.1700
 3337TIP3   OH210016   2.611   5.373   0.257  0.0819 -0.0870  0.3607
 3337TIP3    H110017   2.591   5.299   0.200 -0.7499 -0.1021  0.6588
 3337TIP3    H210018   2.626   5.447   0.198 -2.3532  0.2960  0.1045
 3338TIP3   OH210019   2.671   4.207   3.607 -0.0169  0.5083  0.4120
 3338TIP3    H110020   2.663   4.303   3.608 -0.4215  0.4864  1.8293
 3338TIP3    H210021   2.658   4.181   3.698 -0.0714 -0.9225  0.0216
 3339TIP3   OH210022   1.430   5.399   2.850  0.0448  0.1745 -0.1404
 3339TIP3    H110023   1.459   5.453   2.923 -0.3079 -0.7057  0.6709
 3339TIP3    H210024   1.511   5.368   2.809  0.2433  0.6740 -0.1382
 3340TIP3   OH210025   0.399   0.849   1.679  1.4534  0.2696 -0.4507
 3340TIP3    H110026   0.494   0.858   1.683  1.5469 -0.7779  0.0284
 3340TIP3    H210027   0.370   0.923   1.626  2.4928  0.8508 -0.2364
 3341TIP3   OH210028   6.217   2.332   0.255  0.4177  0.4109 -0.3296
 3341TIP3    H110029   6.164   2.410   0.239 -0.6905 -0.5364 -1.5613
 3341TIP3    H210030   6.229   2.293   0.168  1.0956 -0.7043  0.2330
 3342TIP3   OH210031   5.914   2.647   0.379  0.6029  0.3408 -0.1079
 3342TIP3    H110032   5.869   2.725   0.347 -0.2802 -0.1391 -0.0783
 3342TIP3    H210033   5.895   2.644   0.472  1.3677  0.5697  0.0522
 3343TIP3   OH210034   5.437   5.615   3.851  0.3343  1.1517  0.1380
 3343TIP3    H110035   5.438   5.549   3.920  1.7734  1.5941  0.5536
 3343TIP3    H210036   5.489   5.687   3.885  1.1690  1.3346 -1.4409
 3344TIP3   OH210037   2.258   2.828   4.546  0.0214  0.0963 -0.1932
 3344TIP3    H110038   2.219   2.818   4.633  1.4772 -2.0792  0.2834
 3344TIP3    H210039   2.311   2.749   4.534 -1.7738 -0.7365 -3.9798
 3345TIP3   OH210040   6.033   5.732   2.290 -0.9092 -0.3043  0.1112
 3345TIP3    H110041   6.047   5.646   2.332  0.2621 -1.2997 -2.1232
 3345TIP3    H210042   6.120   5.772   2.291 -1.1977  0.3203  0.0104
 3346TIP3   OH210043   6.159   0.590   3.038  0.5753  0.3538  0.1497
 3346TIP3    H110044   6.104   0.611   3.114 -0.2184  0.0679 -0.3358
 3346TIP3    H210045   6.185   0.675   3.003  0.4822  0.4923  0.4153
 3347TIP3   OH210046   1.911   4.801   4.105 -0.3284 -0.2039  0.3238
 3347TIP3    H110047   1.851   4.821   4.033  0.3350  0.5717 -0.0223
 3347TIP3    H210048   1.905   4.705   4.114  0.5659 -0.5073 -1.6686
 3348TIP3   OH210049   5.739   3.497   0.857  0.4007  0.1545 -0.3118
 3348TIP3    H110050   5.811   3.513   0.796  1.4452 -2.8121  0.0048
 3348TIP3    H210051   5.683   3.434   0.813  0.8756 -1.6124  1.4731
 3349TIP3   OH210052   1.050   1.054   5.026  0.1187  0.0682 -0.0231
 3349TIP3    H110053   0.989   1.000   4.976 -0.1262 -0.0599  0.4070
 3349TIP3    H210054   1.131   1.054   4.975 -0.2157  0.1772 -0.5623
 3350TIP3   OH210055   3.274   0.687   0.567  0.3057  0.0217 -0.1837
 3350TIP3    H110056   3.299   0.615   0.509 -0.2722 -0.3894  0.0690
 3350TIP3    H210057   3.329   0.677   0.644  0.7370  0.2871 -0.4488
 3351TIP3   OH210058   0.930   3.082   1.178 -0.4719  0.0597 -0.2745
 3351TIP3    H110059   0.942   3.015   1.111 -0.6720 -1.8060  1.4441
 3351TIP3    H210060   0.948   3.037   1.260 -0.2760  2.2388  0.9547
 3352TIP3   OH210061   3.820   4.457   1.126 -0.0479  0.3174 -0.2207
 3352TIP3    H110062   3.896   4.510   1.149 -0.2673  0.4882  0.1228
 3352TIP3    H210063   3.843   4.416   1.042  1.9356 -2.6150  1.5772
 3353TIP3   OH210064   1.477   5.398   1.785  0.2251 -0.2563  0.1836
 3353TIP3    H110065   1.561   5.443   1.796  0.2215 -0.5732  1.6527
 3353TIP3    H210066   1.461   5.355   1.869 -1.9360  0.6990  0.3283
 3354TIP3   OH210067   0.198   2.945   1.218  0.2934 -0.5316 -0.0303
 3354TIP3    H110068   0.281   2.942   1.265  0.2816  0.0924  0.0373
 3354TIP3    H210069   0.132   2.962   1.285  0.3499  1.0256 -0.3359
 3355TIP3   OH210070  -0.010   3.318   4.633 -0.1423  0.2709  0.7158
 3355TIP3    H110071   0.028   3.342   4.717 -2.1660  1.9221  1.2209
 3355TIP3    H210072  -0.011   3.399   4.583  1.5470 -0.7768 -1.2122
 3356TIP3   OH210073   3.858   2.122   1.618  0.1747 -0.0614  0.1279
 3356TIP3    H110074   3.832   2.211   1.594  0.2425 -0.4856 -1.6556
 3356TIP3    H210075   3.906   2.133   1.700 -0.3839  1.4588  0.2897
 3357TIP3   OH210076   3.475   0.525   4.693 -0.4686 -0.4897 -0.4107
 3357TIP3    H110077   3.565   0.543   4.717 -0.7490 -0.5307  0.7423
 3357TIP3    H210078   3.465   0.563   4.605 -0.0206  1.7633  0.4554
 3358TIP3   OH210079   4.738   3.758   2.562  0.3213  0.2212 -0.4563
 3358TIP3    H110080   4.749   3.764   2.657 -1.4788 -0.2748 -0.1875
 3358TIP3    H210081   4.826   3.773   2.527  1.4625 -1.6352  1.3620
 3359TIP3   OH210082   2.135   5.913   3.175 -0.2755 -0.5678  0.0346
 3359TIP3    H110083   2.186   5.835   3.156 -1.2174 -1.0554 -0.5729
 3359TIP3    H210084   2.198   5.985   3.170  0.6379 -1.2948  0.7843
 3360TIP3   OH210085   6.081   4.923   3.902  0.3173 -0.3163  0.2128
 3360TIP3    H110086   6.008   4.976   3.936  0.7533  0.0123  0.6450
 3360TIP3    H210087   6.154   4.984   3.895  0.3889 -0.5015 -0.8270
 3361TIP3   OH210088   6.352   5.669   2.980  0.9285  0.3639  0.2003
 3361TIP3    H110089   6.321   5.578   2.981  2.7492 -0.3482 -1.0690
 3361TIP3    H210090   6.281   5.718   2.938  0.1314 -0.5555  0.4257
 3362TIP3   OH210091   3.898   3.199   3.482  0.0118  0.0804  0.0704
 3362TIP3    H110092   3.935   3.128   3.535  0.5167  0.2452 -0.0483
 3362TIP3    H210093   3.809   3.211   3.516  0.6187  0.7986  1.5275
 3363TIP3   OH210094   2.809   5.828   0.397 -0.2440  0.6375  0.0346
 3363TIP3    H110095   2.872   5.812   0.328 -0.9167 -0.4375 -0.3454
 3363TIP3    H210096   2.842   5.906   0.442  2.1891 -0.7254  0.8177
 3364TIP3   OH210097   1.496   5.759   0.680  0.2350 -0.6602  0.3167
 3364TIP3    H110098   1.416   5.754   0.627  1.7785 -0.7760 -2.2090
 3364TIP3    H210099   1.511   5.852   0.692 -0.4331 -0.6425  1.1167
 3365TIP3   OH210100   0.329   2.819   2.883 -0.0022  0.0453  0.3864
 3365TIP3    H110101   0.265   2.879   2.922  0.3822  0.7092  0.0010
 3365TIP3    H210102   0.347   2.755   2.953 -0.1765  0.5536  0.9035
 3366TIP3   OH210103   4.456   4.223   2.190  0.4605  0.4476 -0.0444
 3366TIP3    H110104   4.364   4.203   2.205 -0.0404  2.6472  0.1531
 3366TIP3    H210105   4.504   4.159   2.243 -1.0431  1.7911  3.2054
 3367TIP3   OH210106   5.727   5.474   4.523 -0.2832 -0.5110 -0.2208
 3367TIP3    H110107   5.789   5.547   4.520 -1.0164  0.1017 -2.4660
 3367TIP3    H210108   5.782   5.396   4.515  0.3575 -0.1104  0.1540
 3368TIP3   OH210109   5.163   0.089   0.078  0.1575 -0.0309 -0.4313
 3368TIP3    H110110   5.085   0.141   0.097 -1.1851 -1.3127 -2.1235
 3368TIP3    H210111   5.207   0.137   0.007  0.6267  0.3806  0.1229
 3369TIP3   OH210112   4.290   3.466   3.110 -0.0254 -0.2534 -0.5002
 3369TIP3    H110113   4.303   3.540   3.169  0.9711 -1.6717  1.1509
 3369TIP3    H210114   4.351   3.483   3.037 -1.6238  1.7524 -1.4687
 3370TIP3   OH210115   3.036   0.949   1.917  0.6218  0.2484  0.0774
 3370TIP3    H110116   3.071   0.946   2.006  0.6495 -0.7219  0.0501
 3370TIP3    H210117   3.072   0.871   1.875 -1.6539 -0.9131  0.0975
 3371TIP3   OH210118   0.038   1.803   1.193 -0.0322  0.0362 -0.6794
 3371TIP3    H110119   0.034   1.708   1.186 -1.6037  0.0377 -0.2004
 3371TIP3    H210120  -0.052   1.833   1.177 -0.0750  1.2530  1.4081
 3372TIP3   OH210121   4.566   1.386   2.460  0.8528 -0.5666 -0.2984
 3372TIP3    H110122   4.522   1.303   2.444 -0.3455 -0.0272  0.0708
 3372TIP3    H210123   4.649   1.362   2.502 -0.0290 -1.5364  0.9616
 3373TIP3   OH210124   5.411   0.156   0.902 -0.5678  0.2359  0.2409
 3373TIP3    H110125   5.319   0.136   0.924 -1.2361  0.4729 -2.0937
 3373TIP3    H210126   5.405   0.215   0.827  1.5229  0.9021  0.5375
 3374TIP3   OH210127   5.118   1.329   1.918  0.3263  0.2899  0.0510
 3374TIP3    H110128   5.106   1.421   1.943 -0.3321 -0.3871  2.3878
 3374TIP3    H210129   5.035   1.305   1.877  0.2903  0.5754 -0.0468
 3375TIP3   OH210130   5.768   4.263   2.453  0.0567  0.1306  0.0176
 3375TIP3    H110131   5.799   4.352   2.439 -1.4669  0.8107  0.7686
 3375TIP3    H210132   5.781   4.248   2.547 -0.0370 -0.2934 -0.0363
 3376TIP3   OH210133   5.889   2.300   4.727  0.2188 -0.0576 -0.6569
 3376TIP3    H110134   5.949   2.290   4.653  0.5164 -0.4235 -0.3699
 3376TIP3    H210135   5.807   2.330   4.687  0.6940  0.8120 -1.0096
 3377TIP3   OH210136   1.133   1.340   4.473 -0.5565  0.1042 -0.5518
 3377TIP3    H110137   1.141   1.323   4.567 -2.9962 -0.0832 -0.3126
 3377TIP3    H210138   1.219   1.315   4.437  0.9098  1.4639  1.7484
 3378TIP3   OH210139   5.385   3.327   2.832 -0.6472 -0.0959 -0.5153
 3378TIP3    H110140   5.367   3.382   2.756 -2.4521  1.7950  1.1387
 3378TIP3    H210141   5.371   3.237   2.801  1.0163  0.3970 -2.9481
 3379TIP3   OH210142   2.513   4.165   2.015 -0.1257 -0.6969 -0.0141
 3379TIP3    H110143   2.519   4.261   2.018  0.0139 -0.7297  1.0658
 3379TIP3    H210144   2.528   4.137   2.105 -0.9127 -1.7025 -0.1812
 3380TIP3   OH210145   4.966   3.481   4.247  0.4626  0.4652  0.5483
 3380TIP3    H110146   4.997   3.567   4.276  1.4777  0.9731 -1.8373
 3380TIP3    H210147   5.030   3.419   4.282  2.7238  1.2351 -1.9684
 3381TIP3   OH210148   0.304   5.504   4.838 -0.7346 -0.4215  0.3095
 3381TIP3    H110149   0.324   5.581   4.784 -2.3764 -1.4340 -1.9186
 3381TIP3    H210150   0.384   5.452   4.835 -0.1553  0.4332  0.4761
 3382TIP3   OH210151   3.123   0.843   4.898  0.0586 -0.1084 -0.7335
 3382TIP3    H110152   3.038   0.887   4.890 -0.9281 -1.7451  0.2323
 3382TIP3    H210153   3.102   0.750   4.899  1.7948 -0.5343  0.3674
 3383TIP3   OH210154   4.679   2.336   0.253 -0.0590  0.1226  0.2469
 3383TIP3    H110155   4.605   2.329   0.192  0.1348  1.4527 -0.1650
 3383TIP3    H210156   4.745   2.276   0.218  0.1548  1.0677 -1.0152
 3384TIP3   OH210157   1.520   2.136   1.884 -0.0792  0.4467 -0.5189
 3384TIP3    H110158   1.586   2.199   1.857  0.1424  0.7893  0.7732
 3384TIP3    H210159   1.558   2.091   1.959 -0.3305 -1.0793 -1.2679
 3385TIP3   OH210160   2.387   2.712   2.307  0.1552 -0.4597 -0.7281
 3385TIP3    H110161   2.477   2.703   2.340 -0.7684 -0.6983  2.0129
 3385TIP3    H210162   2.379   2.646   2.238  1.4794 -1.9351  0.4555
 3386TIP3   OH210163   4.467   5.357   1.243 -0.3262 -0.6403 -0.0372
 3386TIP3    H110164   4.406   5.330   1.311 -0.0425  0.5409  0.7020
 3386TIP3    H210165   4.519   5.278   1.226  1.1388 -0.4071  2.7844
 3387TIP3   OH210166   4.081   5.183   0.617 -0.0668 -0.0353  0.0259
 3387TIP3    H110167   3.994   5.147   0.599  0.6262 -2.2094  0.7508
 3387TIP3    H210168   4.137   5.143   0.550  0.8244 -0.8151  1.1896
 3388TIP3   OH210169   3.858   4.786   0.375  0.3898 -0.0293 -0.5829
 3388TIP3    H110170   3.944   4.787   0.334  0.3584 -2.3159 -0.7901
 3388TIP3    H210171   3.798   4.763   0.304 -0.2512  0.3123 -0.1632
 3389TIP3   OH210172   5.530   0.998   4.757  0.0339  0.0501  0.2320
 3389TIP3    H110173   5.493   0.911   4.771  2.6030 -1.7894 -3.0600
 3389TIP3    H210174   5.471   1.039   4.693  1.0050 -1.0046 -1.3990
 3390TIP3   OH210175   3.145   3.804   0.180  0.4017 -0.0861 -0.3899
 3390TIP3    H110176   3.191   3.744   0.121  1.0688 -0.1513  0.1858
 3390TIP3    H210177   3.096   3.746   0.239 -0.5578 -0.0174 -1.0779
 3391TIP3   OH210178   2.281   4.468   3.460 -0.5240  0.6225  0.5069
 3391TIP3    H110179   2.292   4.378   3.491  1.5306 -0.0157 -1.7052
 3391TIP3    H210180   2.287   4.522   3.539 -0.0893 -1.0916  1.7055
 3392TIP3   OH210181   3.346   0.895   0.724  0.7418 -0.3336  0.0267
 3392TIP3    H110182   3.314   0.811   0.690  0.3604  0.1017 -0.6959
 3392TIP3    H210183   3.412   0.870   0.789  1.1681 -1.1903 -0.7108
 3393TIP3   OH210184   5.736   3.549   1.144  0.2531  0.0858  0.0118
 3393TIP3    H110185   5.741   3.508   1.058 -0.6759 -0.3801  0.1717
 3393TIP3    H210186   5.826   3.575   1.164  0.6168 -0.6019 -0.7070
 3394TIP3   OH210187   0.648   2.820   1.892  0.1352 -0.3686 -0.6728
 3394TIP3    H110188   0.607   2.868   1.821  0.2702  0.8568  0.0476
 3394TIP3    H210189   0.626   2.870   1.971 -0.4740 -1.9859  0.2258
 3395TIP3   OH210190   0.693   3.349   3.199 -0.0082 -0.2035  0.3148
 3395TIP3    H110191   0.624   3.338   3.134  0.0296 -2.7708  0.5988
 3395TIP3    H210192   0.774   3.331   3.151  0.2140  0.1165  0.5719
 3396TIP3   OH210193   6.206   0.268   1.285 -0.3004  0.8202  0.2707
 3396TIP3    H110194   6.153   0.235   1.212 -0.5984 -1.0906  1.2857
 3396TIP3    H210195   6.147   0.328   1.331 -0.8566  0.3583  0.1718
 3397TIP3   OH210196   0.121   5.367   4.628  0.4736  0.1285  0.7192
 3397TIP3    H110197   0.041   5.328   4.664  0.1146  1.5797  1.5636
 3397TIP3    H210198   0.160   5.414   4.701  1.4476  0.4783 -0.0085
 3398TIP3   OH210199   1.332   0.825   4.312 -0.3633  0.3798 -0.5852
 3398TIP3    H110200   1.365   0.914   4.294 -1.6114  1.3289  1.4425
 3398TIP3    H210201   1.239   0.838   4.332 -0.4288 -1.2952  0.3406
 3399TIP3   OH210202   3.056   4.326   1.226  0.1348 -0.2715 -0.5346
 3399TIP3    H110203   2.985   4.361   1.280 -1.8568 -0.3628 -2.9096
 3399TIP3    H210204   3.119   4.290   1.289 -0.6212  2.1535  1.7612
 3400TIP3   OH210205   0.929   2.973   3.173 -0.0213 -0.0280 -0.1042
 3400TIP3    H110206   1.016   2.980   3.212  0.2760 -0.4734 -0.6723
 3400TIP3    H210207   0.905   2.881   3.184 -0.5821  0.1643  0.3686
 3401TIP3   OH210208   4.732   1.514   1.329  0.4439 -0.6863 -0.2341
 3401TIP3    H110209   4.812   1.534   1.378  0.3831 -1.0562  0.0188
 3401TIP3    H210210   4.662   1.524   1.394  0.2619 -0.1604 -0.5036
 3402TIP3   OH210211   5.108   5.610   2.587  0.0502  0.6991 -0.2856
 3402TIP3    H110212   5.173   5.679   2.581  0.3786  0.4642  0.5263
 3402TIP3    H210213   5.156   5.529   2.569  0.1423  0.4492  1.0179
 3403TIP3   OH210214   1.677   3.764   4.065  0.5096  0.0351 -0.1085
 3403TIP3    H110215   1.676   3.702   3.992  1.1446  0.4909 -0.5063
 3403TIP3    H210216   1.741   3.830   4.040 -0.9405  1.4723 -0.2052
 3404TIP3   OH210217   3.246   5.345   4.911 -0.4725 -0.1433  0.5128
 3404TIP3    H110218   3.259   5.346   5.006  1.3226 -1.9330  0.3524
 3404TIP3    H210219   3.283   5.428   4.881 -2.1701  1.0196  1.4189
 3405TIP3   OH210220   6.300   3.042   3.449  0.1878  0.1980 -0.4380
 3405TIP3    H110221   6.303   3.109   3.381  2.3435  0.0656 -0.5499
 3405TIP3    H210222   6.271   3.088   3.527 -4.2320 -0.0103 -1.6832
 3406TIP3   OH210223   2.773   0.291   2.631  0.5613  0.0507  0.0231
 3406TIP3    H110224   2.863   0.268   2.609  0.1830 -1.5178 -0.0499
 3406TIP3    H210225   2.777   0.317   2.723  1.1400  0.3345 -0.0790
 3407TIP3   OH210226   3.215   4.724   1.514 -0.5098  0.2092  0.7052
 3407TIP3    H110227   3.182   4.692   1.430 -1.2186 -0.2479  1.1508
 3407TIP3    H210228   3.186   4.658   1.578  1.4813 -0.3642  1.0953
 3408TIP3   OH210229   4.727   0.453   3.006  0.0843 -0.7107 -0.2528
 3408TIP3    H110230   4.722   0.370   3.052 -1.2722 -0.3126  0.3684
 3408TIP3    H210231   4.768   0.513   3.068  0.4341 -0.7408 -0.4503
 3409TIP3   OH210232   3.425   4.466   4.475  0.1669 -0.8685 -0.0629
 3409TIP3    H110233   3.353   4.473   4.537  0.5091 -0.1972  0.2686
 3409TIP3    H210234   3.499   4.433   4.527 -0.4990 -4.0126 -0.8889
 3410TIP3   OH210235   2.348   5.931   4.609  0.2697 -0.0193  0.0650
 3410TIP3    H110236   2.312   6.018   4.594  3.6675  1.5675  0.1299
 3410TIP3    H210237   2.406   5.942   4.685  2.8850 -1.5330 -1.5444
 3411TIP3   OH210238   4.624   1.049   1.531  0.1164 -0.1194  0.1529
 3411TIP3    H110239   4.661   1.083   1.450  0.6487 -0.1181  0.3916
 3411TIP3    H210240   4.553   1.109   1.552  0.2701  0.1455 -0.0693
 3412TIP3   OH210241   1.817   1.484   3.049  0.4789 -0.1887  0.0314
 3412TIP3    H110242   1.787   1.569   3.080 -1.1161 -0.1102 -1.5471
 3412TIP3    H210243   1.913   1.487   3.056  0.4106  1.5572  0.4159
 3413TIP3   OH210244   0.486   2.122   2.112  0.0568 -0.1393 -0.8094
 3413TIP3    H110245   0.563   2.178   2.108  0.4947 -0.7706 -1.6448
 3413TIP3    H210246   0.445   2.142   2.196  1.0423  0.3157 -0.4262
 3414TIP3   OH210247   0.379   3.964   4.193  0.0912 -0.1457 -0.1788
 3414TIP3    H110248   0.464   4.000   4.167  1.2451 -2.5958 -0.1243
 3414TIP3    H210249   0.384   3.959   4.289  0.1425 -0.8450 -0.2157
 3415TIP3   OH210250   3.694   4.328   0.236 -0.0787 -0.1202 -0.0540
 3415TIP3    H110251   3.704   4.241   0.198  0.9403 -0.3277  0.6533
 3415TIP3    H210252   3.618   4.366   0.191 -0.9882 -1.6388  0.1353
 3416TIP3   OH210253   5.439   4.061   1.258 -0.3048 -0.2566  0.1881
 3416TIP3    H110254   5.410   4.111   1.181 -0.7324  1.2961  1.3097
 3416TIP3    H210255   5.405   3.973   1.243 -1.1439  0.2300 -0.9958
 3417TIP3   OH210256   2.271   4.972   3.734  0.3481  0.3815  0.2652
 3417TIP3    H110257   2.219   4.951   3.656 -0.5040 -1.9430  1.3494
 3417TIP3    H210258   2.362   4.960   3.706  0.2412  2.2417 -1.0412
 3418TIP3   OH210259   0.676   0.500   2.123 -0.0897 -0.2284  0.1198
 3418TIP3    H110260   0.640   0.460   2.044  3.5824 -0.7124 -1.5163
 3418TIP3    H210261   0.657   0.594   2.114 -0.2978 -0.3687 -1.0225
 3419TIP3   OH210262   5.027   1.001   4.664  0.5431 -0.4182  0.1973
 3419TIP3    H110263   5.012   0.943   4.589 -0.5887  1.2490 -0.9263
 3419TIP3    H210264   5.059   1.083   4.626 -0.8100  0.7483  1.4354
 3420TIP3   OH210265   3.490   1.586   1.943  0.1770 -0.5218 -0.1142
 3420TIP3    H110266   3.418   1.562   1.886  0.2441 -0.7078 -0.1204
 3420TIP3    H210267   3.569   1.563   1.894  0.3101  1.5320 -0.9735
 3421TIP3   OH210268   5.999   1.356   3.393 -0.0762  0.1165  0.2122
 3421TIP3    H110269   5.931   1.409   3.351 -1.3960 -1.6325 -0.0069
 3421TIP3    H210270   6.011   1.282   3.334  1.9658  0.3069  0.3300
 3422TIP3   OH210271   2.222   3.473   0.814  0.8645 -0.3385 -0.2925
 3422TIP3    H110272   2.313   3.496   0.794  1.1652  0.3737  1.6694
 3422TIP3    H210273   2.224   3.444   0.905 -0.4751 -2.8563 -0.9768
 3423TIP3   OH210274   4.209   5.143   0.891  0.0556 -0.2600  0.4291
 3423TIP3    H110275   4.208   5.148   0.796 -0.4565  1.3719  0.4778
 3423TIP3    H210276   4.127   5.185   0.918 -0.0520 -1.1524  1.5780
 3424TIP3   OH210277   5.422   2.497   0.978  0.6299  0.5402  0.1741
 3424TIP3    H110278   5.493   2.433   0.981  0.0040 -0.1293  1.1006
 3424TIP3    H210279   5.345   2.449   1.006 -0.1274  1.3672 -0.4261
 3425TIP3   OH210280   3.841   3.295   0.644 -0.6741  0.2153 -0.3355
 3425TIP3    H110281   3.915   3.328   0.594 -0.0152 -1.4584 -0.5254
 3425TIP3    H210282   3.838   3.201   0.624  0.6799 -0.9802  3.9975
 3426TIP3   OH210283   0.838   0.218   3.348 -0.2229 -0.1842  0.2687
 3426TIP3    H110284   0.820   0.210   3.255 -0.0087 -0.7114  0.2723
 3426TIP3    H210285   0.933   0.210   3.355 -0.2420 -0.1959  0.5405
 3427TIP3   OH210286   0.719   0.251   4.334 -0.3626 -0.4329 -0.5488
 3427TIP3    H110287   0.764   0.186   4.280  0.6237  1.0808 -1.6591
 3427TIP3    H210288   0.640   0.272   4.286  1.1646  1.9125 -2.2736
 3428TIP3   OH210289   3.869   4.501   0.389  0.7129  0.0382  0.6081
 3428TIP3    H110290   3.798   4.480   0.328  1.8539  0.5205 -0.9574
 3428TIP3    H210291   3.862   4.596   0.401  0.5899 -0.0339  1.1136
 3429TIP3   OH210292   3.844   5.451   2.706 -0.1497 -0.6275 -0.0633
 3429TIP3    H110293   3.808   5.378   2.757  0.0453 -0.3510  0.4803
 3429TIP3    H210294   3.768   5.495   2.669 -0.2692 -1.0944 -0.3761
 3430TIP3   OH210295   3.814   3.238   4.082  0.2930 -0.2282 -0.4961
 3430TIP3    H110296   3.872   3.219   4.155  0.7544 -0.3174 -0.8826
 3430TIP3    H210297   3.726   3.221   4.116  0.5905 -1.7817 -0.4114
 3431TIP3   OH210298   3.542   2.951   0.178 -0.1475 -0.2440  0.1711
 3431TIP3    H110299   3.503   2.938   0.265 -1.6496 -1.0735 -0.5829
 3431TIP3    H210300   3.565   2.862   0.149 -1.0057 -0.1514 -0.8570
 3432TIP3   OH210301   2.612   3.428   1.898  0.1193 -0.1117  0.1102
 3432TIP3    H110302   2.594   3.521   1.911  1.2597  0.3987 -1.6215
 3432TIP3    H210303   2.632   3.420   1.804  2.2927 -1.6910  0.6215
 3433TIP3   OH210304   0.815   5.318   4.872  0.0070  0.0776 -0.1693
 3433TIP3    H110305   0.889   5.355   4.921 -1.8605  0.4976  2.6177
 3433TIP3    H210306   0.852   5.244   4.824  1.9673 -0.8866  2.5689
 3434TIP3   OH210307   3.467   3.563   4.649 -0.0434  0.1837 -0.3065
 3434TIP3    H110308   3.497   3.654   4.655 -1.4071  0.6293  0.1984
 3434TIP3    H210309   3.436   3.554   4.559  0.6459  0.0195 -0.5358
 3435TIP3   OH210310   2.542   4.439   2.023  0.4611  0.3183  0.5387
 3435TIP3    H110311   2.610   4.461   2.086  0.3518 -0.3242  0.8851
 3435TIP3    H210312   2.461   4.468   2.064  0.4377  0.3077  0.4996
 3436TIP3   OH210313   5.061   2.149   4.052  0.2801  0.2375 -0.1832
 3436TIP3    H110314   5.024   2.167   4.139  0.4666 -2.1704  0.4459
 3436TIP3    H210315   4.986   2.152   3.993  0.2367  2.5443 -0.1251
 3437TIP3   OH210316   5.305   0.753   0.974 -0.5063  0.2295  0.3034
 3437TIP3    H110317   5.361   0.780   1.046  0.4886  1.4871 -0.8704
 3437TIP3    H210318   5.227   0.808   0.982  0.7681  2.3835 -1.0686
 3438TIP3   OH210319   2.111   0.560   4.930 -0.3568  0.4141 -0.4666
 3438TIP3    H110320   2.036   0.545   4.872  0.7097 -2.0728 -1.3245
 3438TIP3    H210321   2.156   0.475   4.933  0.0768  0.6346  3.4170
 3439TIP3   OH210322   1.810   0.566   4.179  0.9065 -0.1678  0.2377
 3439TIP3    H110323   1.810   0.607   4.093  0.8006 -0.8516 -0.0924
 3439TIP3    H210324   1.719   0.540   4.194  0.9405 -0.1358  0.5127
 3440TIP3   OH210325   0.317   0.903   1.056  0.1069 -0.0636  1.0332
 3440TIP3    H110326   0.279   0.825   1.015 -0.9773  1.1778 -0.4233
 3440TIP3    H210327   0.405   0.909   1.020 -0.5474  0.5444 -0.5569
 3441TIP3   OH210328   2.969   5.301   3.211  0.4254 -0.2646 -0.1984
 3441TIP3    H110329   2.992   5.236   3.278  1.2525  1.2640  1.0569
 3441TIP3    H210330   3.053   5.329   3.175  0.0218 -0.6306 -1.5006
 3442TIP3   OH210331   1.468   1.504   0.833 -0.0883  0.1431 -0.1258
 3442TIP3    H110332   1.454   1.550   0.916 -0.3792 -0.6049  0.2520
 3442TIP3    H210333   1.393   1.529   0.779  0.2313  0.8318 -0.2647
 3443TIP3   OH210334   4.946   1.059   3.786 -0.0954 -0.0030  0.0779
 3443TIP3    H110335   4.933   1.025   3.698 -0.7273  0.3679  0.0211
 3443TIP3    H210336   4.975   1.150   3.773  0.5671 -0.1812  0.2446
 3444TIP3   OH210337   1.650   2.111   4.222 -0.2133 -0.3369  0.3649
 3444TIP3    H110338   1.603   2.086   4.142 -0.2682 -1.4551  0.7229
 3444TIP3    H210339   1.583   2.151   4.277 -0.6751 -1.5034  0.6862
 3445TIP3   OH210340   6.273   1.660   2.561 -0.4729  0.6335  0.2554
 3445TIP3    H110341   6.228   1.692   2.482  0.9347  1.6724 -0.1768
 3445TIP3    H210342   6.332   1.732   2.585  1.5313 -0.9208  0.2979
 3446TIP3   OH210343   4.630   1.864   3.545 -0.5172 -0.0064 -0.4005
 3446TIP3    H110344   4.711   1.859   3.494 -0.9379  1.0708 -1.2184
 3446TIP3    H210345   4.583   1.939   3.508 -0.2134  1.7866  2.5047
 3447TIP3   OH210346   1.538   4.420   4.309 -0.3354 -0.2157 -0.4097
 3447TIP3    H110347   1.547   4.512   4.287 -0.5600 -0.4306 -1.4546
 3447TIP3    H210348   1.517   4.377   4.225  3.1933 -1.6969 -0.7234
 3448TIP3   OH210349   3.371   5.307   0.313 -0.0965 -0.4120 -0.1085
 3448TIP3    H110350   3.464   5.325   0.299  0.0498 -0.0628  1.1651
 3448TIP3    H210351   3.332   5.393   0.327 -0.4971 -0.6117  0.0095
 3449TIP3   OH210352   5.634   1.735   2.723 -0.1196  0.6857 -0.1302
 3449TIP3    H110353   5.586   1.765   2.801  0.3210  0.7667  0.1111
 3449TIP3    H210354   5.681   1.812   2.692  0.2953  0.4727 -0.0394
 3450TIP3   OH210355   0.110   4.374   3.849 -0.1856 -0.0404 -0.2905
 3450TIP3    H110356   0.106   4.447   3.787  1.5877  1.4248  1.1947
 3450TIP3    H210357   0.029   4.325   3.833 -1.5651  2.3439 -1.2418
 3451TIP3   OH210358   1.662   5.502   1.576  0.5324  0.4841  0.6254
 3451TIP3    H110359   1.639   5.595   1.582  2.2946  0.9493  1.0729
 3451TIP3    H210360   1.584   5.459   1.543 -0.2819  2.1542  0.2768
 3452TIP3   OH210361   2.148   3.417   5.099 -0.2255 -0.2231  0.6917
 3452TIP3    H110362   2.098   3.466   5.034  0.6237 -0.0619  0.1429
 3452TIP3    H210363   2.200   3.483   5.145  0.2308 -0.4957  0.5740
 3453TIP3   OH210364   5.035   5.431   4.672 -0.0473 -0.4756 -0.2028
 3453TIP3    H110365   5.053   5.524   4.663  0.6951 -0.4116  1.6048
 3453TIP3    H210366   4.957   5.426   4.727  0.1470 -0.9280  0.0353
 3454TIP3   OH210367   3.836   4.124   4.357  0.2358 -0.3998 -0.4389
 3454TIP3    H110368   3.904   4.066   4.323  1.6680  0.5292  0.6946
 3454TIP3    H210369   3.885   4.198   4.395 -1.4754  1.1883 -1.1739
 3455TIP3   OH210370   2.683   4.362   5.018  0.4221  0.0029 -0.8294
 3455TIP3    H110371   2.625   4.343   5.091  1.4571 -1.3748 -0.3279
 3455TIP3    H210372   2.625   4.365   4.942 -0.4729 -0.0361 -0.1692
 3456TIP3   OH210373   3.913   5.769   1.617 -0.0413  0.1978 -0.3109
 3456TIP3    H110374   3.889   5.791   1.527  0.7777  1.7984 -0.1786
 3456TIP3    H210375   3.955   5.684   1.611 -2.2955 -0.9455 -1.0573
 3457TIP3   OH210376   2.324   0.866   2.110 -0.1628 -0.7790  0.2766
 3457TIP3    H110377   2.254   0.877   2.046 -1.0674 -1.3525  1.1430
 3457TIP3    H210378   2.281   0.878   2.195  1.4426  2.3852  0.7773
 3458TIP3   OH210379   0.231   5.667   1.592 -0.0426  0.2649 -0.2740
 3458TIP3    H110380   0.189   5.602   1.648 -1.0600  0.2444 -1.0256
 3458TIP3    H210381   0.205   5.642   1.503 -0.0216  1.3873 -0.6156
 3459TIP3   OH210382   5.280   0.506   1.933  0.0041  0.2230  0.1360
 3459TIP3    H110383   5.316   0.592   1.910  1.1823 -0.3128 -0.1193
 3459TIP3    H210384   5.249   0.517   2.023 -2.5894  1.7133 -0.8390
 3460TIP3   OH210385   3.801   5.410   4.797 -0.2417  0.3081 -0.2056
 3460TIP3    H110386   3.857   5.448   4.864 -0.8283  1.1191 -0.1570
 3460TIP3    H210387   3.734   5.362   4.847  1.1954 -1.9256 -0.2710
 3461TIP3   OH210388   2.656   5.175   3.639 -0.0279 -0.2601 -0.4683
 3461TIP3    H110389   2.729   5.119   3.613  1.2099  0.0437  2.0332
 3461TIP3    H210390   2.672   5.193   3.732 -1.5919  2.4230 -0.6334
 3462TIP3   OH210391   5.474   0.557   4.254  0.3165  0.4735  0.4966
 3462TIP3    H110392   5.473   0.612   4.175  1.7705 -0.1881 -0.0412
 3462TIP3    H210393   5.541   0.597   4.310  2.1178 -1.2027 -0.3252
 3463TIP3   OH210394   0.854   2.695   3.302  0.0158 -0.1450  0.1639
 3463TIP3    H110395   0.791   2.726   3.368 -0.0345  0.0352  0.0309
 3463TIP3    H210396   0.938   2.693   3.348  0.2746  1.4668 -0.1823
 3464TIP3   OH210397   0.245   0.003   2.943 -0.4105  0.7402 -0.0536
 3464TIP3    H110398   0.290  -0.058   2.886 -0.7299  0.2093  0.2521
 3464TIP3    H210399   0.254   0.088   2.900 -0.6449  0.3509 -0.8830
 3465TIP3   OH210400   4.242   5.452   1.834 -0.5131 -0.2059 -0.5989
 3465TIP3    H110401   4.192   5.418   1.908  0.4236 -0.2926  0.0132
 3465TIP3    H210402   4.331   5.418   1.848  0.0074  0.9761 -0.9740
 3466TIP3   OH210403   0.681   5.794   3.424 -0.5192  0.2338  0.3860
 3466TIP3    H110404   0.721   5.711   3.451 -0.4555  0.3755  0.7301
 3466TIP3    H210405   0.713   5.807   3.334  1.5503  1.1498  1.1997
 3467TIP3   OH210406   3.670   1.959   4.903 -0.1172  0.1895  0.0432
 3467TIP3    H110407   3.744   2.003   4.861  1.9161 -2.1907  0.8707
 3467TIP3    H210408   3.698   1.948   4.994 -1.0137 -1.7160  0.1360
 3468TIP3   OH210409   2.176   3.176   2.065 -0.3377  0.5418  0.0505
 3468TIP3    H110410   2.212   3.089   2.046 -0.7500  0.3213  0.2555
 3468TIP3    H210411   2.164   3.177   2.160  2.3531  1.8820  0.4575
 3469TIP3   OH210412   6.089   2.093   4.763  0.2348 -0.2097  0.9722
 3469TIP3    H110413   6.020   2.156   4.782  0.2199 -0.2266  0.9728
 3469TIP3    H210414   6.170   2.143   4.775  0.2117 -0.0406  0.4444
 3470TIP3   OH210415   2.443   1.575   0.933 -0.2952  0.0945  0.0160
 3470TIP3    H110416   2.356   1.601   0.963 -0.0089 -0.5813  1.4882
 3470TIP3    H210417   2.429   1.545   0.843 -1.2182  1.9275 -0.5129
 3471TIP3   OH210418   2.869   0.916   4.352 -0.0986 -0.2008 -0.3462
 3471TIP3    H110419   2.787   0.907   4.303 -0.7854 -1.5581  0.9764
 3471TIP3    H210420   2.852   0.873   4.436  1.5221  0.7522  0.5202
 3472TIP3   OH210421   1.301   1.096   4.278 -0.0123  0.4840 -0.4052
 3472TIP3    H110422   1.339   1.184   4.278  0.9815  0.1069 -1.8020
 3472TIP3    H210423   1.266   1.086   4.189 -1.1416 -0.1258  0.0948
 3473TIP3   OH210424   5.021   2.502   4.563 -0.1348  0.2324 -0.2587
 3473TIP3    H110425   5.067   2.545   4.491 -0.9487  0.0556 -0.8901
 3473TIP3    H210426   5.001   2.574   4.624 -0.3584  0.5404 -0.6938
 3474TIP3   OH210427   2.813   3.109   4.691 -0.0936  0.6123 -0.0846
 3474TIP3    H110428   2.774   3.141   4.773  0.6420  0.2401  0.4221
 3474TIP3    H210429   2.744   3.056   4.651 -0.0660 -0.1787  0.8748
 3475TIP3   OH210430   5.902   2.280   3.483 -0.4082 -0.5214  0.1209
 3475TIP3    H110431   5.872   2.234   3.561  0.1519  0.0234  0.6676
 3475TIP3    H210432   5.931   2.211   3.424  1.1423 -0.8680  1.2302
 3476TIP3   OH210433   6.077   2.566   3.582 -0.2212  0.1716 -0.4296
 3476TIP3    H110434   6.053   2.503   3.514 -0.0778  0.6919 -0.9747
 3476TIP3    H210435   6.109   2.642   3.534  1.6954 -0.1439  0.2488
 3477TIP3   OH210436   1.054   3.699   5.113 -0.2379 -0.1354 -0.2214
 3477TIP3    H110437   1.013   3.749   5.042 -0.2712 -0.4835 -0.4477
 3477TIP3    H210438   1.059   3.761   5.186  0.1546  0.3496 -0.6470
 3478TIP3   OH210439   2.577   4.634   2.527 -0.4301  0.5793  0.4477
 3478TIP3    H110440   2.639   4.689   2.480 -0.0964  0.8144  1.1517
 3478TIP3    H210441   2.587   4.659   2.619 -1.2432  0.2976  0.6208
 3479TIP3   OH210442   5.358   2.456   4.551  0.0120  0.3604  0.2236
 3479TIP3    H110443   5.428   2.407   4.509 -0.8276 -0.7650  0.0865
 3479TIP3    H210444   5.402   2.526   4.599  1.1014  0.6229 -1.1157
 3480TIP3   OH210445   3.079   5.010   4.388 -0.1238  0.5521 -0.3370
 3480TIP3    H110446   3.102   5.103   4.395 -0.5881  0.8435 -2.0911
 3480TIP3    H210447   3.071   4.995   4.294  2.2775 -1.8526 -0.2658
 3481TIP3   OH210448   3.578   3.477   2.096  0.4556 -0.1023 -0.3872
 3481TIP3    H110449   3.580   3.406   2.160  0.5251  0.5311  0.3278
 3481TIP3    H210450   3.487   3.507   2.096  0.1795 -0.8504 -1.4556
 3482TIP3   OH210451   4.469   3.990   0.272 -0.6802  0.7661 -0.4006
 3482TIP3    H110452   4.539   3.970   0.210 -1.2918  0.3706 -0.9824
 3482TIP3    H210453   4.490   3.938   0.350 -0.3887  0.5528 -0.6188
 3483TIP3   OH210454   1.134   3.140   4.210 -0.2120 -0.5235  0.5068
 3483TIP3    H110455   1.101   3.188   4.286 -0.3132  0.3687 -0.0885
 3483TIP3    H210456   1.061   3.138   4.149  0.1830 -0.3418  0.0219
 3484TIP3   OH210457   1.836   4.934   0.621  0.3899 -0.0984 -0.0443
 3484TIP3    H110458   1.851   4.904   0.710  1.8044  0.6154 -0.0159
 3484TIP3    H210459   1.862   5.026   0.621  1.3176 -0.3301 -1.4105
 3485TIP3   OH210460   4.296   5.477   3.973 -0.0283  0.3901 -0.0131
 3485TIP3    H110461   4.298   5.572   3.986 -0.8716  0.2883  0.9824
 3485TIP3    H210462   4.283   5.466   3.879 -0.2448  1.2566 -0.0957
 3486TIP3   OH210463   3.624   5.198   4.925 -0.4332  0.0201  0.0596
 3486TIP3    H110464   3.612   5.185   4.831  1.1899  1.5852 -0.4083
 3486TIP3    H210465   3.679   5.124   4.952 -0.1364  0.0611 -0.4217
 3487TIP3   OH210466   6.306   3.719   2.785  0.2202 -0.9042 -0.2273
 3487TIP3    H110467   6.231   3.777   2.790 -0.7129 -1.9393 -1.4395
 3487TIP3    H210468   6.362   3.744   2.859 -0.5261  0.9551 -0.2561
 3488TIP3   OH210469   0.666   4.438   4.341 -0.2260 -0.0475 -0.0323
 3488TIP3    H110470   0.611   4.409   4.414  2.4505 -0.6347  1.8994
 3488TIP3    H210471   0.638   4.386   4.267 -3.3777  0.8911  0.3498
 3489TIP3   OH210472   4.450   3.906   2.011  0.3819 -0.2126  0.4484
 3489TIP3    H110473   4.402   3.831   1.978  2.0781 -0.7568 -0.9186
 3489TIP3    H210474   4.508   3.870   2.078  1.3189 -0.1756 -0.3272
 3490TIP3   OH210475   4.218   4.667   2.661 -0.6077 -1.0869  0.4284
 3490TIP3    H110476   4.224   4.673   2.565 -0.4491 -0.2986  0.4837
 3490TIP3    H210477   4.134   4.707   2.683 -0.1985 -0.3464  0.6905
 3491TIP3   OH210478   4.290   1.218   5.078 -0.6717 -0.2416  0.5001
 3491TIP3    H110479   4.282   1.143   5.136 -0.9468 -1.7571 -1.4012
 3491TIP3    H210480   4.234   1.197   5.003  0.8050  0.9191 -1.0050
 3492TIP3   OH210481   5.365   2.232   1.516 -0.3340  0.4427 -0.2554
 3492TIP3    H110482   5.381   2.165   1.583  0.5015  0.7658 -0.1173
 3492TIP3    H210483   5.427   2.302   1.538  0.1226  0.4506 -1.5168
 3493TIP3   OH210484   2.810   3.190   3.066  0.2114 -0.1511  0.3409
 3493TIP3    H110485   2.864   3.224   2.996  1.6227 -1.8963  0.5207
 3493TIP3    H210486   2.724   3.230   3.052  1.0353  1.2250 -1.0497
 3494TIP3   OH210487   4.145   4.176   3.419  0.7972 -0.1525  0.1616
 3494TIP3    H110488   4.140   4.256   3.366  1.2760 -0.4455 -0.3366
 3494TIP3    H210489   4.160   4.207   3.508  1.4689  0.2979 -0.1045
 3495TIP3   OH210490   5.447   1.051   0.217 -0.4807 -0.1709 -0.3131
 3495TIP3    H110491   5.437   1.114   0.288  0.2527  0.4027 -0.7043
 3495TIP3    H210492   5.537   1.019   0.225  0.8161  2.3363 -2.8796
 3496TIP3   OH210493   2.518   3.189   0.167 -0.2757 -0.2802  0.0470
 3496TIP3    H110494   2.455   3.228   0.107 -0.3783  0.5528  0.6735
 3496TIP3    H210495   2.465   3.155   0.239  0.0302  1.2087  1.0073
 3497TIP3   OH210496   4.158   2.767   1.496 -0.5566 -0.4288 -0.6162
 3497TIP3    H110497   4.190   2.823   1.567  0.1001 -1.7020  0.1210
 3497TIP3    H210498   4.237   2.734   1.453 -0.8740 -2.0663 -0.0052
 3498TIP3   OH210499   3.378   2.332   3.526  0.2272  0.6991  0.4427
 3498TIP3    H110500   3.322   2.338   3.449 -1.4890  1.3543  1.6973
 3498TIP3    H210501   3.421   2.417   3.531  0.3397  0.6567  0.2229
 3499TIP3   OH210502   4.221   4.285   3.660 -0.1428  0.0934 -0.1078
 3499TIP3    H110503   4.257   4.358   3.711  1.4134  0.2067 -1.2886
 3499TIP3    H210504   4.263   4.207   3.697  0.0194  0.0529 -0.3698
 3500TIP3   OH210505   0.277   2.410   2.127 -0.0026 -0.6905 -0.2118
 3500TIP3    H110506   0.195   2.455   2.146 -0.1696 -0.6927 -0.8888
 3500TIP3    H210507   0.298   2.364   2.208 -0.0780  0.2078  0.3292
 3501TIP3   OH210508   2.029   5.933   4.138 -0.0013 -0.5593  0.0726
 3501TIP3    H110509   2.082   6.013   4.133  0.8145 -0.9569  1.7391
 3501TIP3    H210510   2.092   5.862   4.138 -0.6086 -1.1125  0.5678
 3502TIP3   OH210511   1.240   3.438   0.801  0.3390 -0.0630  0.0251
 3502TIP3    H110512   1.273   3.458   0.889  1.6909 -0.3623 -0.3813
 3502TIP3    H210513   1.311   3.467   0.743  0.0542 -1.1438 -0.8780
 3503TIP3   OH210514   4.255   4.584   4.409 -0.5440  0.1618  0.4330
 3503TIP3    H110515   4.195   4.633   4.465 -0.6007  2.4063 -1.4833
 3503TIP3    H210516   4.328   4.643   4.392  0.4220 -1.1659 -0.3156
 3504TIP3   OH210517   0.237   3.348   0.703  0.1227 -0.1028 -0.5905
 3504TIP3    H110518   0.300   3.376   0.770 -1.7557  1.6158  0.5818
 3504TIP3    H210519   0.285   3.357   0.620  2.1309 -1.1522  0.3813
 3505TIP3   OH210520   0.388   0.900   2.606  0.0599  0.4742 -0.1726
 3505TIP3    H110521   0.482   0.898   2.585 -0.0268  0.7394 -0.5975
 3505TIP3    H210522   0.350   0.836   2.547 -0.0162  0.2992  0.0658
 3506TIP3   OH210523   3.183   0.594   3.761 -0.1157 -0.0945  0.4726
 3506TIP3    H110524   3.128   0.637   3.826  1.0927 -1.9430  2.9026
 3506TIP3    H210525   3.257   0.654   3.750 -0.2031  0.1308  1.0435
 3507TIP3   OH210526   0.532   0.698   0.301  0.1847 -0.0303  0.3222
 3507TIP3    H110527   0.584   0.732   0.374  0.1145 -0.8365  0.7577
 3507TIP3    H210528   0.549   0.759   0.229  0.0723  0.9193  1.0666
 3508TIP3   OH210529   4.125   2.601   0.122 -0.2451  0.4500  0.3983
 3508TIP3    H110530   4.184   2.545   0.173 -0.7220  0.9581  1.5529
 3508TIP3    H210531   4.176   2.681   0.107  1.1571 -0.8851 -2.8941
 3509TIP3   OH210532   3.399   0.667   1.953 -0.1691  0.4627 -0.2567
 3509TIP3    H110533   3.443   0.653   2.037 -1.1354 -1.1682  0.0283
 3509TIP3    H210534   3.423   0.756   1.927 -0.0623  1.0930  1.8694
 3510TIP3   OH210535   5.278   3.448   3.624 -0.2275  0.2663  0.3767
 3510TIP3    H110536   5.218   3.387   3.667  0.8592  0.0579  1.6729
 3510TIP3    H210537   5.300   3.406   3.541  1.9049 -2.1272  1.9694
 3511TIP3   OH210538   4.273   1.689   1.928 -0.3574 -0.1302  0.0859
 3511TIP3    H110539   4.337   1.695   1.999 -0.4822 -1.0270  0.2842
 3511TIP3    H210540   4.264   1.779   1.896  0.4207  0.1283  0.5657
 3512TIP3   OH210541   5.916   5.178   3.698 -0.9936  0.1944 -0.1677
 3512TIP3    H110542   5.947   5.103   3.646 -0.3260  0.4059 -0.0887
 3512TIP3    H210543   5.845   5.216   3.647  0.1810  0.8845 -1.3344
 3513TIP3   OH210544   2.069   5.145   4.724 -0.0877  0.5321 -0.0846
 3513TIP3    H110545   2.143   5.205   4.735  0.4089 -0.0484 -0.2259
 3513TIP3    H210546   2.018   5.156   4.804  1.8125 -1.3236  1.5091
 3514TIP3   OH210547   2.065   1.222   3.308 -0.1570  0.8077 -0.1694
 3514TIP3    H110548   2.132   1.208   3.240 -0.6208 -1.9703 -0.1571
 3514TIP3    H210549   1.985   1.188   3.270 -0.2211 -1.9068  2.0596
 3515TIP3   OH210550   5.953   0.616   4.439 -0.1426  0.0950  0.4815
 3515TIP3    H110551   5.939   0.528   4.474 -3.9624  1.0450  1.8435
 3515TIP3    H210552   5.972   0.670   4.515  1.7169  0.6187 -0.2901
 3516TIP3   OH210553   4.823   5.252   1.881  0.1140 -0.3982  0.0823
 3516TIP3    H110554   4.870   5.185   1.831 -0.1963 -2.6091  2.5029
 3516TIP3    H210555   4.745   5.207   1.914 -0.7253  1.5269  0.8587
 3517TIP3   OH210556   5.485   3.774   2.244  0.0939 -0.3025 -0.3347
 3517TIP3    H110557   5.450   3.756   2.331  0.2334  0.4059 -0.1275
 3517TIP3    H210558   5.408   3.783   2.188 -0.0120 -0.1951 -0.1703
 3518TIP3   OH210559   3.061   3.941   0.454  0.2701  0.1030  0.1880
 3518TIP3    H110560   3.084   3.900   0.371 -0.7269 -1.9264  0.8514
 3518TIP3    H210561   3.003   4.014   0.430 -0.5559 -0.8754 -0.8756
 3519TIP3   OH210562   6.054   4.191   0.065 -0.0063 -0.1301 -0.6552
 3519TIP3    H110563   6.119   4.236   0.118 -0.8203  0.6692 -0.3193
 3519TIP3    H210564   6.101   4.165  -0.014  1.0767 -0.8395  0.1932
 3520TIP3   OH210565   0.148   4.281   2.352  0.3001  0.0784 -0.4356
 3520TIP3    H110566   0.143   4.295   2.447  1.8449 -0.4846 -0.2432
 3520TIP3    H210567   0.237   4.251   2.337 -0.2216 -0.8219 -1.9547
 3521TIP3   OH210568   3.290   0.047   2.356  0.2487  0.1567 -0.2569
 3521TIP3    H110569   3.312   0.025   2.446 -0.1869 -0.5982 -0.3281
 3521TIP3    H210570   3.356   0.001   2.303  0.1510  0.1181 -0.3464
 3522TIP3   OH210571   5.495   5.972   4.285  0.1447 -0.2178  1.0411
 3522TIP3    H110572   5.542   5.888   4.291 -0.7589 -0.7457  0.9284
 3522TIP3    H210573   5.514   6.016   4.368  2.4384  0.4630  0.2300
 3523TIP3   OH210574   3.728   2.103   2.127  0.3807  0.4922 -0.2118
 3523TIP3    H110575   3.720   2.011   2.102 -1.3212  1.0007 -1.7561
 3523TIP3    H210576   3.822   2.118   2.132  0.7859 -0.6625 -2.7097
 3524TIP3   OH210577   1.153   3.648   1.509  0.2321 -0.3196  0.1757
 3524TIP3    H110578   1.074   3.698   1.527  0.1512  0.1953 -1.4403
 3524TIP3    H210579   1.222   3.692   1.560  0.0322  1.0654 -0.6843
 3525TIP3   OH210580   2.510   3.989   3.128 -0.0946 -0.0309  0.3458
 3525TIP3    H110581   2.479   4.062   3.181 -0.5026  0.7846 -0.9540
 3525TIP3    H210582   2.524   3.918   3.190  1.2100  1.4173  1.7824
 3526TIP3   OH210583   3.450   1.579   4.079  0.0616 -0.3593  0.4115
 3526TIP3    H110584   3.419   1.665   4.051  2.0141  0.4009  0.3936
 3526TIP3    H210585   3.477   1.592   4.170  1.3923 -0.6223  0.0820
 3527TIP3   OH210586   4.394   2.287   1.358 -0.0733 -0.3698  0.1222
 3527TIP3    H110587   4.342   2.364   1.335 -0.0310 -0.2756  0.3392
 3527TIP3    H210588   4.346   2.247   1.431  0.0879 -0.3584  0.2349
 3528TIP3   OH210589   5.008   1.904   4.944  0.2130  0.3265 -0.5272
 3528TIP3    H110590   4.972   1.910   4.855 -0.8430  1.1689 -0.0633
 3528TIP3    H210591   4.931   1.907   5.001  0.9396  0.7418  0.4484
 3529TIP3   OH210592   6.246   5.557   0.232  0.1061  0.1550  0.6424
 3529TIP3    H110593   6.188   5.628   0.258 -1.2410 -0.1616 -1.2795
 3529TIP3    H210594   6.302   5.595   0.164  1.0599  0.0057  1.3206
 3530TIP3   OH210595   6.058   4.959   3.565  0.0328 -0.2529 -0.7240
 3530TIP3    H110596   6.026   4.927   3.481  0.0517  3.1380 -2.1800
 3530TIP3    H210597   6.151   4.936   3.566  0.4960  1.3137 -2.5964
 3531TIP3   OH210598   2.690   0.933   2.828  0.0016 -0.0722 -0.0493
 3531TIP3    H110599   2.732   1.017   2.808  0.0571 -0.1039 -0.0659
 3531TIP3    H210600   2.685   0.888   2.743  2.0393 -1.0429  0.2912
 3532TIP3   OH210601   5.847   2.956   4.056 -0.0461 -0.1460 -0.1004
 3532TIP3    H110602   5.850   3.014   3.980  2.6203  0.3584  0.2731
 3532TIP3    H210603   5.847   2.868   4.019  0.0698  0.0921 -0.6825
 3533TIP3   OH210604   5.357   3.411   1.146  0.1815 -0.0653  0.0073
 3533TIP3    H110605   5.401   3.414   1.231 -1.4463 -1.6134  0.9595
 3533TIP3    H210606   5.420   3.370   1.088 -0.4564 -3.9803  1.7681
 3534TIP3   OH210607  -0.021   0.222   0.553 -0.7253 -0.1206  0.1957
 3534TIP3    H110608   0.025   0.150   0.510 -1.4067 -0.4469 -0.0059
 3534TIP3    H210609   0.046   0.269   0.602 -0.2047 -0.6435 -0.0188
 3535TIP3   OH210610   5.258   0.772   2.669  0.8028 -0.7059  0.3722
 3535TIP3    H110611   5.250   0.721   2.588 -0.6496  2.2304 -1.5124
 3535TIP3    H210612   5.335   0.826   2.656 -0.6692  1.3895 -0.1421
 3536TIP3   OH210613   4.343   4.461   3.046  0.5635  0.6152  0.5253
 3536TIP3    H110614   4.270   4.400   3.058  1.5949 -0.5743  0.9910
 3536TIP3    H210615   4.318   4.513   2.970 -0.6178  0.0104  0.4740
 3537TIP3   OH210616   3.870   3.477   2.692 -0.0234  0.2891  0.5797
 3537TIP3    H110617   3.827   3.552   2.652 -0.1814 -0.5164 -0.8127
 3537TIP3    H210618   3.883   3.415   2.620  0.1094 -1.0190  1.6863
 3538TIP3   OH210619   5.143   4.247   4.952  0.6751  0.4341 -0.1366
 3538TIP3    H110620   5.141   4.228   5.045  0.1776 -2.6304 -0.6753
 3538TIP3    H210621   5.235   4.266   4.933  0.9466  0.1120  0.8169
 3539TIP3   OH210622   5.196   4.202   2.168 -0.2676 -0.1345  0.5285
 3539TIP3    H110623   5.284   4.221   2.136 -1.0098  1.0813 -0.9143
 3539TIP3    H210624   5.183   4.265   2.239 -0.5563  0.8752 -0.3812
 3540TIP3   OH210625   5.437   4.305   3.826 -0.0579  0.7035 -0.6085
 3540TIP3    H110626   5.373   4.312   3.755  1.5115 -0.1520 -2.2201
 3540TIP3    H210627   5.488   4.385   3.821 -0.2882  0.8862 -0.0707
 3541TIP3   OH210628   1.122   5.848   3.981  0.2904  0.1177  0.0226
 3541TIP3    H110629   1.097   5.756   3.982 -1.5082  0.5404  2.4011
 3541TIP3    H210630   1.124   5.874   4.073  2.5646  2.0522 -0.4587
 3542TIP3   OH210631   2.592   0.487   2.777  0.1429 -0.0412  0.2600
 3542TIP3    H110632   2.668   0.499   2.721  0.7695  0.8524  1.2549
 3542TIP3    H210633   2.573   0.393   2.774  1.4309 -0.3093  0.1749
 3543TIP3   OH210634   3.901   5.406   4.220  0.2298  0.7007 -0.2671
 3543TIP3    H110635   3.933   5.316   4.218  0.7742  0.8958 -1.1533
 3543TIP3    H210636   3.814   5.401   4.179  0.1079  0.5235  0.0122
 3544TIP3   OH210637   3.494   3.674   3.996 -0.1132 -0.1777  0.2850
 3544TIP3    H110638   3.590   3.670   3.993 -0.0953  0.6008 -0.3582
 3544TIP3    H210639   3.468   3.592   4.040  0.8239 -0.5549  0.1588
 3545TIP3   OH210640   0.842   3.470   1.716 -0.3081 -0.5295 -0.0514
 3545TIP3    H110641   0.901   3.472   1.791  0.5590  0.4064 -0.7280
 3545TIP3    H210642   0.883   3.408   1.655 -1.8572 -2.5637  0.8771
 3546TIP3   OH210643   0.481   1.436   0.728  0.3409 -0.5015 -0.0689
 3546TIP3    H110644   0.463   1.499   0.658  0.1337 -0.1544  0.2964
 3546TIP3    H210645   0.515   1.488   0.800  1.2971 -0.9504 -0.1739
 3547TIP3   OH210646   0.638   3.088   5.086 -0.0614 -0.4566 -0.2338
 3547TIP3    H110647   0.704   3.147   5.123 -1.3264  0.9539 -0.1417
 3547TIP3    H210648   0.683   3.045   5.013  1.8197 -1.6940  1.5311
 3548TIP3   OH210649   2.993   0.030   0.977 -0.2773  0.1378 -0.8569
 3548TIP3    H110650   2.995   0.104   1.038 -1.8062  0.3946 -1.0785
 3548TIP3    H210651   3.010  -0.047   1.031 -0.1548  0.5074 -0.3592
 3549TIP3   OH210652   6.202   0.944   2.526  0.0052  0.3150 -0.5039
 3549TIP3    H110653   6.123   0.915   2.572 -0.0992 -1.2728 -1.5826
 3549TIP3    H210654   6.228   1.025   2.570 -0.7984 -0.4548  1.4991
 3550TIP3   OH210655   6.367   5.228   2.523 -0.1393  0.2838  0.9455
 3550TIP3    H110656   6.383   5.150   2.576 -0.2169 -0.1095  0.3954
 3550TIP3    H210657   6.283   5.211   2.480  1.2861 -0.7241 -1.6248
 3551TIP3   OH210658   0.515   4.629   2.506  0.0136 -0.2791 -0.2983
 3551TIP3    H110659   0.554   4.542   2.507  1.5606  0.3761 -1.2158
 3551TIP3    H210660   0.479   4.640   2.595  1.4188 -1.1225  0.4032
 3552TIP3   OH210661   0.223   2.517   4.301 -0.3306  0.0345 -0.5617
 3552TIP3    H110662   0.190   2.588   4.246  2.8219  1.8496 -0.4097
 3552TIP3    H210663   0.255   2.562   4.380  1.5077 -1.5588 -0.3289
 3553TIP3   OH210664   2.910   2.257   4.401  0.2317 -0.6253  1.1753
 3553TIP3    H110665   2.950   2.249   4.487  1.8784  0.1433  0.5204
 3553TIP3    H210666   2.898   2.351   4.388  0.5320 -0.6895  0.3446
 3554TIP3   OH210667   3.458   5.429   0.589 -0.6400  0.2684 -0.0963
 3554TIP3    H110668   3.515   5.426   0.512 -1.2614 -1.2137 -0.5334
 3554TIP3    H210669   3.459   5.340   0.623 -0.2638  0.9275  1.7319
 3555TIP3   OH210670   6.283   4.253   0.185 -0.1842  0.2765 -0.1055
 3555TIP3    H110671   6.359   4.311   0.172  0.5586 -0.6062  0.1779
 3555TIP3    H210672   6.320   4.175   0.226 -1.1659 -0.4021 -0.4867
 3556TIP3   OH210673   1.197   0.819   4.889 -0.4857 -0.0658  0.1487
 3556TIP3    H110674   1.128   0.816   4.824 -0.2813  1.2473 -0.1598
 3556TIP3    H210675   1.219   0.912   4.897  2.2140 -0.5152 -0.8214
 3557TIP3   OH210676   5.963   2.395   2.442  0.5155  0.2139 -0.0946
 3557TIP3    H110677   5.963   2.323   2.506  0.2496  0.4767  0.2024
 3557TIP3    H210678   5.872   2.399   2.411  0.5831  0.2704 -0.2868
 3558TIP3   OH210679   1.644   3.649   1.131  0.1445 -0.5246 -0.5800
 3558TIP3    H110680   1.585   3.713   1.170  0.6116 -1.0597  1.1182
 3558TIP3    H210681   1.715   3.701   1.093  0.7966 -0.0144  1.2478
 3559TIP3   OH210682   3.894   1.004   1.655 -0.2641  0.3333  0.3338
 3559TIP3    H110683   3.838   1.015   1.579  0.2282 -0.9956 -0.2544
 3559TIP3    H210684   3.872   0.917   1.688  0.8795  0.1255  0.5754
 3560TIP3   OH210685   3.022   2.554   3.040 -0.6293 -0.0422 -0.3773
 3560TIP3    H110686   3.056   2.516   2.959 -2.5956 -2.1479 -0.2941
 3560TIP3    H210687   3.094   2.544   3.104 -0.6799 -2.6605 -0.6660
 3561TIP3   OH210688   3.869   5.909   0.834  0.0302  0.3627 -0.0455
 3561TIP3    H110689   3.841   5.827   0.795  0.0445  0.5098 -0.3732
 3561TIP3    H210690   3.878   5.969   0.759  2.0540  0.0824 -0.0726
 3562TIP3   OH210691   2.886   1.733   0.838 -0.2799 -0.1087  0.2506
 3562TIP3    H110692   2.808   1.745   0.891 -0.3359  0.4734  0.0359
 3562TIP3    H210693   2.863   1.767   0.752 -0.4660 -1.7865 -0.4071
 3563TIP3   OH210694   0.178   4.064   3.767  0.5753 -0.2750  0.1918
 3563TIP3    H110695   0.259   4.114   3.758  0.3067  0.2590  0.6908
 3563TIP3    H210696   0.187   4.017   3.850  0.3252 -0.1286  0.3019
 3564TIP3   OH210697   1.180   3.021   4.537 -0.0120 -0.0715  0.5642
 3564TIP3    H110698   1.104   3.023   4.594  0.6013 -1.1722  1.4598
 3564TIP3    H210699   1.255   3.032   4.596  0.5524  0.7297 -0.2662
 3565TIP3   OH210700   3.323   4.533   5.156 -0.1250  0.1479  0.4628
 3565TIP3    H110701   3.370   4.556   5.236  0.6712 -1.0639  0.3795
 3565TIP3    H210702   3.290   4.616   5.121  2.9938  1.2708 -0.1105
 3566TIP3   OH210703   0.203   2.537   1.790  0.0254 -0.7181  0.8991
 3566TIP3    H110704   0.219   2.584   1.872 -1.7862 -1.2870  1.6135
 3566TIP3    H210705   0.164   2.603   1.732 -1.2060 -0.9519  1.4299
 3567TIP3   OH210706   6.157   5.189   1.877  0.2910  0.3296 -0.6180
 3567TIP3    H110707   6.196   5.269   1.911 -0.8363  1.0662 -1.0243
 3567TIP3    H210708   6.231   5.139   1.843  1.5008 -0.4478  2.8106
 3568TIP3   OH210709   3.750   5.816   3.758 -0.6564 -0.1825  0.0225
 3568TIP3    H110710   3.807   5.796   3.832 -2.4433  1.2443  1.9133
 3568TIP3    H210711   3.740   5.911   3.760 -2.3483 -0.2995 -0.7782
 3569TIP3   OH210712   4.364   4.418   0.448  0.3238 -0.0540 -0.2701
 3569TIP3    H110713   4.392   4.394   0.360  1.8698  0.1949  0.1231
 3569TIP3    H210714   4.404   4.503   0.463 -0.0646 -0.0217  0.6236
 3570TIP3   OH210715   2.026   5.105   1.884  0.3370 -0.1527 -0.7911
 3570TIP3    H110716   2.045   5.049   1.809  1.5735 -1.5189  0.5013
 3570TIP3    H210717   2.111   5.119   1.926 -0.1564  1.5865 -0.2961
 3571TIP3   OH210718   0.697   5.270   0.882  0.8062 -0.0688 -0.3356
 3571TIP3    H110719   0.611   5.229   0.896  0.7510  0.6396  1.7335
 3571TIP3    H210720   0.760   5.199   0.895  0.5696 -0.3825 -0.8946
 3572TIP3   OH210721   4.726   3.117   0.141 -0.0976  0.5805  0.0993
 3572TIP3    H110722   4.702   3.097   0.231 -1.6434  2.1892  0.1184
 3572TIP3    H210723   4.656   3.176   0.111  1.5881  1.9482 -1.3733
 3573TIP3   OH210724   4.316   2.963   3.100  0.1962 -0.2382 -0.0864
 3573TIP3    H110725   4.371   3.040   3.112 -2.1755  1.6088 -0.3497
 3573TIP3    H210726   4.286   2.969   3.009 -3.1731  0.9085  0.9255
 3574TIP3   OH210727   2.112   3.255   1.055  0.0006 -0.7661  0.3499
 3574TIP3    H110728   2.026   3.296   1.057  0.2578 -0.2206  0.1945
 3574TIP3    H210729   2.094   3.163   1.078 -0.6243 -0.6708  0.2795
 3575TIP3   OH210730   4.901   2.639   1.022  0.6763  0.6740  0.2440
 3575TIP3    H110731   4.921   2.646   1.115  0.0284  1.8524  0.3179
 3575TIP3    H210732   4.834   2.706   1.007  0.6402  0.3775 -1.0353
 3576TIP3   OH210733   3.701   0.755   0.393  0.0675 -0.0046  0.8020
 3576TIP3    H110734   3.728   0.808   0.318 -0.0058 -1.3069 -0.1749
 3576TIP3    H210735   3.608   0.776   0.406  0.4248  1.2934  1.4714
 3577TIP3   OH210736   1.588   5.792   1.556  0.0512 -0.2518  0.0434
 3577TIP3    H110737   1.650   5.862   1.535  0.1628 -0.7983 -1.5408
 3577TIP3    H210738   1.556   5.815   1.644  0.9550  1.1402  0.0483
 3578TIP3   OH210739   6.251   0.028   0.823  0.1189  0.5945 -0.6219
 3578TIP3    H110740   6.290   0.014   0.909  1.2501  0.6390 -1.1114
 3578TIP3    H210741   6.171  -0.025   0.824  0.4868  0.0338  0.1984
 3579TIP3   OH210742   4.223   0.129   1.044 -0.0888 -0.2970  0.6170
 3579TIP3    H110743   4.311   0.091   1.048  0.3705  0.7452  0.5617
 3579TIP3    H210744   4.235   0.221   1.068 -1.0645  0.0155 -0.0348
 3580TIP3   OH210745   5.567   5.099   0.556  0.1160  0.5540 -0.1409
 3580TIP3    H110746   5.591   5.182   0.597 -0.5913  1.1969 -0.9920
 3580TIP3    H210747   5.592   5.110   0.464 -0.7493  0.1416 -0.4328
 3581TIP3   OH210748   2.356  -0.005   2.028  0.0970  0.1841 -0.0015
 3581TIP3    H110749   2.443   0.034   2.020  0.2018 -0.0421  0.0384
 3581TIP3    H210750   2.313   0.016   1.945 -0.2336  1.3281  0.4368
 3582TIP3   OH210751   4.938   0.136   1.813  0.4434 -0.3270 -0.0883
 3582TIP3    H110752   4.890   0.150   1.895  3.7905 -2.2506  2.4211
 3582TIP3    H210753   5.014   0.194   1.820  2.5306 -2.8840 -0.1216
 3583TIP3   OH210754   3.034   1.604   3.697 -0.3990  0.2985  0.4138
 3583TIP3    H110755   2.966   1.593   3.763  0.9100 -0.0893  1.7594
 3583TIP3    H210756   3.104   1.546   3.726 -0.1054 -0.5512 -1.8101
 3584TIP3   OH210757   6.158   1.052   1.471 -0.6458 -0.0919  0.1407
 3584TIP3    H110758   6.237   1.030   1.519  0.5958  0.6673 -1.4652
 3584TIP3    H210759   6.153   0.987   1.402 -1.6563 -0.3677  0.4564
 3585TIP3   OH210760   6.111   4.086   2.692  0.8259 -0.4514  0.2285
 3585TIP3    H110761   6.069   4.064   2.776 -0.9786 -0.9739 -0.7680
 3585TIP3    H210762   6.057   4.044   2.626 -0.7542  3.8921 -1.6208
 3586TIP3   OH210763   0.656   0.920   1.200 -0.2238  0.6741  0.0778
 3586TIP3    H110764   0.633   0.833   1.234  0.0918  0.1988 -0.8929
 3586TIP3    H210765   0.747   0.933   1.226  0.4407 -0.2544 -1.6579
 3587TIP3   OH210766   1.165   2.332   2.874 -0.4143 -0.1117  0.5617
 3587TIP3    H110767   1.072   2.353   2.882 -0.1042  1.8104 -0.3703
 3587TIP3    H210768   1.186   2.350   2.782  1.2508  1.2917  1.1623
 3588TIP3   OH210769   0.587   5.512   1.961  0.3020 -0.3055  0.2319
 3588TIP3    H110770   0.634   5.497   2.043  0.4560  1.1173  0.4334
 3588TIP3    H210771   0.497   5.530   1.987  0.0294 -1.2427 -0.0268
 3589TIP3   OH210772   0.961   3.644   4.215  0.1525  0.0052 -0.9097
 3589TIP3    H110773   1.025   3.638   4.144 -0.9522  2.8381 -2.2957
 3589TIP3    H210774   0.895   3.579   4.192  0.9420 -0.7318 -1.1747
 3590TIP3   OH210775   5.010   1.972   1.658 -0.3557 -0.1075 -0.0064
 3590TIP3    H110776   4.985   1.880   1.669 -2.0121  0.1951 -0.9063
 3590TIP3    H210777   5.067   1.972   1.582  0.7808 -0.5320  0.8057
 3591TIP3   OH210778   6.250   0.536   3.448 -0.3325 -0.0606 -0.0548
 3591TIP3    H110779   6.275   0.459   3.397 -0.2662 -0.4217  0.5076
 3591TIP3    H210780   6.171   0.509   3.496 -0.2477  0.1780  0.2256
 3592TIP3   OH210781   0.204   5.912   2.305 -0.4826 -0.4212  0.3775
 3592TIP3    H110782   0.231   5.983   2.364 -1.5804 -0.8828  1.4925
 3592TIP3    H210783   0.215   5.949   2.217  1.2097  0.2847  0.8487
 3593TIP3   OH210784   2.584   0.223   3.716  0.1581 -0.0594  0.3951
 3593TIP3    H110785   2.625   0.145   3.677  0.8781  0.4265  0.1665
 3593TIP3    H210786   2.568   0.197   3.807 -0.4483 -0.7898  0.0937
 3594TIP3   OH210787   2.283   1.776   3.636 -0.1224 -0.9500 -0.3196
 3594TIP3    H110788   2.341   1.707   3.604  0.6834 -0.2810 -0.3426
 3594TIP3    H210789   2.224   1.794   3.563  1.4048  0.2449 -1.3364
 3595TIP3   OH210790   3.623   0.700   0.809  0.5333  0.2119 -0.1969
 3595TIP3    H110791   3.707   0.656   0.825  1.7017  2.0058 -1.0661
 3595TIP3    H210792   3.647   0.788   0.780 -1.6235  0.2659 -2.1074
 3596TIP3   OH210793   6.303   3.875   4.516  0.0717 -0.5122 -0.2967
 3596TIP3    H110794   6.382   3.928   4.514  0.1560 -0.6060  0.4028
 3596TIP3    H210795   6.312   3.821   4.594 -1.6324  0.9636  1.0041
 3597TIP3   OH210796   1.397   1.859   2.045 -0.0167  0.1361 -0.2146
 3597TIP3    H110797   1.344   1.798   2.096  0.0963  0.3219  0.1309
 3597TIP3    H210798   1.389   1.943   2.092 -0.9163  0.6175 -1.1899
 3598TIP3   OH210799   5.664   2.172   2.312 -0.4955  0.2757  0.3257
 3598TIP3    H110800   5.725   2.192   2.241 -0.0624 -2.0236 -0.0057
 3598TIP3    H210801   5.677   2.079   2.331 -2.0467  0.3397  2.0477
 3599TIP3   OH210802   5.890  -0.014   2.752 -0.3624 -0.2671  0.1197
 3599TIP3    H110803   5.968  -0.045   2.707 -1.7836 -1.1568 -1.8974
 3599TIP3    H210804   5.906   0.080   2.765  0.9538 -0.3984 -0.3955
 3600TIP3   OH210805   0.198   5.424   2.759  0.4355  0.0551  0.5247
 3600TIP3    H110806   0.286   5.393   2.738  0.6659  1.3256 -0.5803
 3600TIP3    H210807   0.142   5.383   2.694  0.0829 -1.2270  1.5944
 3601TIP3   OH210808   4.908   5.005   0.996  0.0242 -0.0368  0.2252
 3601TIP3    H110809   4.895   5.051   0.913 -0.3399 -0.2488  0.1630
 3601TIP3    H210810   4.982   5.050   1.037  0.3086 -0.0348 -0.2846
 3602TIP3   OH210811   0.722   4.394   5.173 -0.5726 -0.5237  0.2671
 3602TIP3    H110812   0.671   4.449   5.114  0.9983 -0.2736 -0.9466
 3602TIP3    H210813   0.726   4.309   5.128  0.8842 -0.2481 -0.2036
 3603TIP3   OH210814   3.028   0.226   2.647 -0.2034 -0.4922 -0.1529
 3603TIP3    H110815   3.119   0.235   2.676 -0.4364  0.2184  0.3684
 3603TIP3    H210816   3.003   0.137   2.674 -0.1448 -0.1522  1.0537
 3604TIP3   OH210817   1.276   2.323   3.889 -0.5633 -0.5127  0.3710
 3604TIP3    H110818   1.317   2.364   3.813  1.3056 -0.1632  1.5086
 3604TIP3    H210819   1.187   2.359   3.890  0.7694  3.2253  0.9680
 3605TIP3   OH210820   2.842   3.332   1.989 -0.2531 -0.1553 -0.1677
 3605TIP3    H110821   2.759   3.375   1.971  0.3535  0.7629 -0.8509
 3605TIP3    H210822   2.884   3.323   1.904 -0.2207 -1.8568 -0.0087
 3606TIP3   OH210823   0.382   2.242   0.912  0.6308  0.0296 -0.5464
 3606TIP3    H110824   0.414   2.320   0.866 -0.0493  0.3079 -0.5441
 3606TIP3    H210825   0.374   2.269   1.003  1.9960 -0.5280 -0.2340
 3607TIP3   OH210826   2.881   0.346   2.124  0.1505  0.4569 -0.3567
 3607TIP3    H110827   2.970   0.347   2.158  0.3843  1.2238 -0.9513
 3607TIP3    H210828   2.828   0.384   2.194  0.3570  0.4367 -0.1875
 3608TIP3   OH210829   3.271   1.863   3.434  0.6264 -0.0010  0.1208
 3608TIP3    H110830   3.243   1.825   3.517  1.1006 -0.0539  0.2646
 3608TIP3    H210831   3.332   1.933   3.459  0.8025 -0.0434 -0.1806
 3609TIP3   OH210832   0.488   0.706   4.144  0.0374  0.3928  0.4814
 3609TIP3    H110833   0.451   0.794   4.143  2.6461  1.5892  0.3316
 3609TIP3    H210834   0.523   0.696   4.232  0.5751 -0.1134  0.2144
 3610TIP3   OH210835   1.820   2.168   3.075 -0.1743  0.2783  0.3168
 3610TIP3    H110836   1.774   2.108   3.133  0.0341 -1.2241 -1.0170
 3610TIP3    H210837   1.757   2.238   3.057 -1.1568 -0.5951  0.2732
 3611TIP3   OH210838   5.253   5.989   4.982  0.0290  0.1160 -0.7521
 3611TIP3    H110839   5.320   5.976   5.049  0.6967  2.3640 -0.8862
 3611TIP3    H210840   5.189   5.919   4.997  1.3669 -0.8567  0.6755
 3612TIP3   OH210841   2.100   0.648   1.272  0.3579  0.3296 -0.2433
 3612TIP3    H110842   2.128   0.625   1.184  1.5434  0.4713  0.0864
 3612TIP3    H210843   2.118   0.742   1.279  0.8529  0.1931  0.3583
 3613TIP3   OH210844   4.807   5.595   0.846 -0.2180  0.0708 -0.4840
 3613TIP3    H110845   4.825   5.524   0.907  0.0137 -0.2682 -0.9375
 3613TIP3    H210846   4.759   5.553   0.774 -1.7780  0.7271  0.1262
 3614TIP3   OH210847   5.539   2.289   2.879 -0.5777 -0.1094  0.8731
 3614TIP3    H110848   5.509   2.219   2.822  1.2500  0.4930 -0.9606
 3614TIP3    H210849   5.595   2.245   2.943 -0.3392 -0.4795  0.4210
 3615TIP3   OH210850   2.864   1.119   4.618 -0.3024  0.4983 -0.1243
 3615TIP3    H110851   2.799   1.090   4.555  2.5264 -2.2121 -2.0504
 3615TIP3    H210852   2.863   1.052   4.687  1.1878 -0.2361 -0.7819
 3616TIP3   OH210853   5.315   0.440   2.574 -0.2117  0.7200  0.0221
 3616TIP3    H110854   5.356   0.454   2.659 -0.0073 -0.5840  0.1487
 3616TIP3    H210855   5.222   0.454   2.589 -0.1715  0.5212  0.4524
 3617TIP3   OH210856   3.280   0.032   0.102 -0.4855 -0.3281  0.0370
 3617TIP3    H110857   3.248  -0.034   0.164 -0.9559 -2.0453 -1.9422
 3617TIP3    H210858   3.210   0.098   0.100 -0.9708 -0.8093  0.5328
 3618TIP3   OH210859   0.179   1.718   2.977 -0.0233  0.0078 -0.4112
 3618TIP3    H110860   0.101   1.665   2.962 -0.0506  0.2552 -1.2017
 3618TIP3    H210861   0.232   1.667   3.039  0.2638 -1.2629 -1.6701
 3619TIP3   OH210862   3.988   5.154   4.190 -0.0888 -0.1436 -0.0938
 3619TIP3    H110863   4.020   5.094   4.257  2.7149  0.6837 -0.5721
 3619TIP3    H210864   3.951   5.097   4.122 -0.4249 -1.1080  0.8794
 3620TIP3   OH210865   3.167   2.099   3.976  0.8280 -0.2211  0.7560
 3620TIP3    H110866   3.107   2.135   3.912  0.6654  0.2511  1.1671
 3620TIP3    H210867   3.221   2.037   3.927  1.3325  0.8101 -0.0304
 3621TIP3   OH210868   1.597   4.473   0.864  0.0992 -0.2323 -0.0140
 3621TIP3    H110869   1.564   4.497   0.951 -0.1517  0.2646 -0.2439
 3621TIP3    H210870   1.659   4.541   0.842 -1.5482  0.9668 -1.2136
 3622TIP3   OH210871   0.966   5.963   3.398 -0.5918  0.2598  0.0441
 3622TIP3    H110872   0.888   6.019   3.400 -0.2201  0.7630  1.0269
 3622TIP3    H210873   0.945   5.892   3.458 -0.5178  0.0744 -0.1481
 3623TIP3   OH210874   4.959   4.682   2.005  0.4293 -0.4098 -0.3420
 3623TIP3    H110875   4.978   4.716   2.093 -2.7543  1.5708 -0.2509
 3623TIP3    H210876   4.866   4.657   2.010  1.1141 -3.8759 -2.1489
 3624TIP3   OH210877   1.085   4.069   3.930 -0.7388 -0.0172 -0.3922
 3624TIP3    H110878   1.025   4.143   3.924 -1.3721 -0.3424  1.3635
 3624TIP3    H210879   1.076   4.037   4.020 -0.4667 -2.2065 -1.0683
 3625TIP3   OH210880   2.517   3.256   3.023 -0.2655  0.2852 -0.1033
 3625TIP3    H110881   2.518   3.171   3.068  0.9168 -0.1388 -0.8695
 3625TIP3    H210882   2.454   3.244   2.952  0.9829 -0.4906 -1.1264
 3626TIP3   OH210883   5.238   1.280   2.970  0.0486 -0.1673  0.3425
 3626TIP3    H110884   5.250   1.190   2.940  1.8427 -0.4049  1.5936
 3626TIP3    H210885   5.188   1.271   3.051  0.9323 -0.1329  0.9036
 3627TIP3   OH210886   3.599   0.493   4.103  0.2262  0.6837  0.4829
 3627TIP3    H110887   3.624   0.574   4.146 -0.8441  1.1646  0.2257
 3627TIP3    H210888   3.550   0.520   4.026  0.1330 -0.2069  0.2103
 3628TIP3   OH210889   3.479   4.315   1.446  0.3585  0.0792 -0.0315
 3628TIP3    H110890   3.558   4.368   1.455  0.1462  0.3003  0.5937
 3628TIP3    H210891   3.409   4.379   1.430 -0.1124  0.1290  2.0052
 3629TIP3   OH210892   3.005   2.884   4.152  0.2708 -0.1007 -0.0172
 3629TIP3    H110893   3.100   2.880   4.144  0.5201 -0.5401  2.3436
 3629TIP3    H210894   2.975   2.796   4.129  0.7155 -0.6830  1.4712
 3630TIP3   OH210895   3.445   3.593   1.137  0.3272 -0.3261  0.1378
 3630TIP3    H110896   3.437   3.688   1.145 -0.0921 -0.4547  1.7521
 3630TIP3    H210897   3.537   3.578   1.119  0.0438  0.4556 -2.2396
 3631TIP3   OH210898   4.726   5.554   2.886 -0.2720 -0.6028  0.3074
 3631TIP3    H110899   4.685   5.470   2.867  0.2907 -0.7671 -0.1937
 3631TIP3    H210900   4.697   5.575   2.975 -0.3865 -1.3383  0.4502
 3632TIP3   OH210901   2.392   0.548   2.273 -0.1113  0.2101 -0.3454
 3632TIP3    H110902   2.355   0.578   2.355 -0.7197  0.0787 -0.5693
 3632TIP3    H210903   2.318   0.543   2.213  0.3503  0.4498 -0.9458
 3633TIP3   OH210904   0.586   2.903   4.230  0.1485  0.0524  0.5798
 3633TIP3    H110905   0.676   2.909   4.262 -0.8621 -0.6879  3.9545
 3633TIP3    H210906   0.591   2.843   4.155  2.4796  0.4069  0.3830
 3634TIP3   OH210907   2.058   2.275   2.948  0.1046  0.2120  0.8067
 3634TIP3    H110908   1.969   2.247   2.972 -0.2650 -0.1008 -0.8537
 3634TIP3    H210909   2.074   2.352   3.003 -1.1770  0.2449  1.1692
 3635TIP3   OH210910   0.875   0.939   3.213 -0.0227  0.0688  0.1101
 3635TIP3    H110911   0.876   1.026   3.252 -0.4261  1.0251 -1.8428
 3635TIP3    H210912   0.783   0.923   3.192  0.3817  0.5669 -2.3354
 3636TIP3   OH210913   4.599   4.059   2.839 -0.0781 -0.0390 -0.0198
 3636TIP3    H110914   4.624   4.151   2.852  2.7967 -0.5643 -1.1168
 3636TIP3    H210915   4.679   4.010   2.856 -1.2570 -2.2634 -0.5920
 3637TIP3   OH210916   1.849   3.661   2.960 -0.6377  0.3736  0.0170
 3637TIP3    H110917   1.802   3.733   3.003 -1.3153  0.5769 -1.0162
 3637TIP3    H210918   1.937   3.694   2.946 -0.1406 -0.0064  1.9843
 3638TIP3   OH210919   3.706   2.320   3.492 -0.2268  0.2049 -0.2606
 3638TIP3    H110920   3.641   2.250   3.495  2.2318 -2.1860  0.5776
 3638TIP3    H210921   3.715   2.348   3.583  0.5214 -0.1014 -0.2340
 3639TIP3   OH210922   4.451   2.315   2.112  0.0146  0.2956 -0.0117
 3639TIP3    H110923   4.525   2.289   2.058 -0.4509 -1.8773  0.3011
 3639TIP3    H210924   4.488   2.372   2.178  0.8925  1.5529 -1.5196
 3640TIP3   OH210925   4.007   3.676   4.392  0.1440  0.0529 -0.0251
 3640TIP3    H110926   3.923   3.714   4.367  0.1565  0.6259  0.7515
 3640TIP3    H210927   4.020   3.603   4.332 -1.1897 -0.4006  0.2056
 3641TIP3   OH210928   1.635   3.251   3.723  0.0739  0.6718  0.0274
 3641TIP3    H110929   1.625   3.322   3.660 -0.4852  2.1635  1.7181
 3641TIP3    H210930   1.721   3.213   3.703  0.0012  1.2412 -1.4679
 3642TIP3   OH210931   1.589   3.763   2.779 -0.2258  0.0316 -0.7374
 3642TIP3    H110932   1.625   3.831   2.836  0.1513 -0.1869 -0.7153
 3642TIP3    H210933   1.632   3.683   2.807 -0.2877 -0.1335 -1.1085
 3643TIP3   OH210934   2.135   4.866   1.710  0.0834  0.3509 -0.2653
 3643TIP3    H110935   2.129   4.808   1.634 -1.7768 -0.9215  0.7932
 3643TIP3    H210936   2.195   4.821   1.770  0.0890  0.4456 -0.2002
 3644TIP3   OH210937   0.895   5.520   1.591 -0.7174 -0.3604 -0.2921
 3644TIP3    H110938   0.840   5.598   1.580  0.2848  0.4005  0.0048
 3644TIP3    H210939   0.904   5.485   1.502 -0.1354  0.5988 -0.6288
 3645TIP3   OH210940   2.109   1.456   4.880  0.2659  0.4159 -0.3469
 3645TIP3    H110941   2.154   1.525   4.832  0.5571 -1.0230 -2.2590
 3645TIP3    H210942   2.047   1.419   4.817 -0.7157 -0.2989  0.9895
 3646TIP3   OH210943   1.154   4.979   4.721  0.0716  0.0898 -0.0576
 3646TIP3    H110944   1.210   4.973   4.643 -0.4954 -0.3180 -0.4422
 3646TIP3    H210945   1.167   5.068   4.753 -1.1925  0.9312 -1.7659
 3647TIP3   OH210946   3.658   5.708   4.074 -0.0525  0.4222 -0.3264
 3647TIP3    H110947   3.616   5.759   4.143  1.5028 -1.1699  1.9321
 3647TIP3    H210948   3.586   5.667   4.027 -1.1345  1.2786  0.5350
 3648TIP3   OH210949   4.827   2.080   3.872 -0.2234  0.2662  0.1971
 3648TIP3    H110950   4.762   2.098   3.940 -0.0878  2.7843 -0.2406
 3648TIP3    H210951   4.783   2.103   3.790  0.8768  1.0621 -0.1931
 3649TIP3   OH210952   0.696   1.823   1.053  0.3805  0.3965 -0.7070
 3649TIP3    H110953   0.776   1.849   1.007  0.3869  1.6724 -0.0167
 3649TIP3    H210954   0.715   1.836   1.145 -0.3812 -0.0029 -0.4786
 3650TIP3   OH210955   1.165   4.752   4.866  0.1875  0.6028 -0.1380
 3650TIP3    H110956   1.215   4.697   4.805  1.0066  1.8611 -0.6232
 3650TIP3    H210957   1.137   4.827   4.814  0.1511  1.2703  0.8239
 3651TIP3   OH210958   0.590   2.811   0.966  0.4527 -0.3839  0.1494
 3651TIP3    H110959   0.598   2.792   0.873 -0.3576 -2.0770  0.4019
 3651TIP3    H210960   0.643   2.744   1.009  3.8438  2.4185  0.8800
 3652TIP3   OH210961   5.449   0.740   4.041 -0.1672 -0.4468 -0.3092
 3652TIP3    H110962   5.467   0.825   4.001 -0.5004 -0.2532 -0.0476
 3652TIP3    H210963   5.439   0.680   3.967 -0.2650 -0.1931 -0.5033
 3653TIP3   OH210964   5.214   5.647   3.210 -0.5501  0.5263 -0.3913
 3653TIP3    H110965   5.231   5.625   3.119  1.7330  0.8683 -0.1012
 3653TIP3    H210966   5.258   5.578   3.260 -3.3819 -0.7826  0.5303
 3654TIP3   OH210967   2.623   5.257   3.952 -0.2202  0.5148  0.4444
 3654TIP3    H110968   2.693   5.314   3.983 -0.6487  0.0523  2.4077
 3654TIP3    H210969   2.659   5.168   3.962 -0.7187  0.3185  0.5131
 3655TIP3   OH210970   1.404   5.431   1.250  0.2974  0.0635 -0.0357
 3655TIP3    H110971   1.402   5.371   1.324  0.8888 -0.7085 -0.6279
 3655TIP3    H210972   1.436   5.514   1.286  1.5067 -0.5710  0.4047
 3656TIP3   OH210973   5.411   2.776   3.371  0.9689  0.1137  0.2178
 3656TIP3    H110974   5.390   2.727   3.292 -0.9611  0.9459  0.1523
 3656TIP3    H210975   5.438   2.709   3.434  0.8656 -0.7501 -0.6348
 3657TIP3   OH210976   1.311   2.022   4.616  0.4245 -0.3117 -0.0229
 3657TIP3    H110977   1.364   2.077   4.674  1.5716 -0.3745 -0.9849
 3657TIP3    H210978   1.373   1.985   4.554  0.1662 -4.5222  1.8544
 3658TIP3   OH210979   3.271   2.188   2.007  0.3328  0.1412  0.4561
 3658TIP3    H110980   3.241   2.279   2.006 -1.2074 -0.3230  1.4446
 3658TIP3    H210981   3.366   2.195   2.002  0.2113  1.7534 -0.6991
 3659TIP3   OH210982   6.123   1.996   0.582 -0.3184  0.1960  0.3472
 3659TIP3    H110983   6.099   2.065   0.520 -1.1689  0.2637  0.7375
 3659TIP3    H210984   6.212   1.971   0.556 -0.3573  0.7725 -0.3962
 3660TIP3   OH210985   5.209   2.606   3.065  0.5818 -0.5294 -0.0916
 3660TIP3    H110986   5.220   2.517   3.031  0.1944 -0.8686  0.6598
 3660TIP3    H210987   5.201   2.660   2.986  0.7597 -1.1637 -0.5565
 3661TIP3   OH210988   2.725   2.586   2.878 -0.4315 -0.0811 -0.3027
 3661TIP3    H110989   2.760   2.675   2.881  0.0988 -0.2609 -0.8128
 3661TIP3    H210990   2.798   2.532   2.908 -0.7442 -0.3468 -0.0192
 3662TIP3   OH210991   4.390   3.394   3.949 -0.0811  0.0438  0.3799
 3662TIP3    H110992   4.365   3.457   4.017  0.4252  1.3822 -0.6181
 3662TIP3    H210993   4.307   3.362   3.915 -0.3547 -1.6038  2.4171
 3663TIP3   OH210994   2.770   0.086   1.374 -0.0217 -0.6539 -0.3910
 3663TIP3    H110995   2.713   0.014   1.403  0.1096 -0.3589  0.6407
 3663TIP3    H210996   2.748   0.098   1.281 -0.2614 -1.8189 -0.4999
 3664TIP3   OH210997   2.138   5.760   2.576  0.0677  0.7200  0.8116
 3664TIP3    H110998   2.073   5.788   2.512  0.0060  0.5177  0.7852
 3664TIP3    H210999   2.107   5.674   2.605  0.4984  0.4768  0.5600
 3665TIP3   OH211000   4.477   4.800   1.050 -0.0479 -0.6006 -0.0834
 3665TIP3    H111001   4.573   4.806   1.044 -0.1999  2.3129 -1.3303
 3665TIP3    H211002   4.454   4.737   0.982  0.9293 -0.3197 -0.7038
 3666TIP3   OH211003   2.900   5.367   4.459  0.1870 -0.1508  0.1302
 3666TIP3    H111004   2.847   5.292   4.486  3.1648 -1.8553  1.7428
 3666TIP3    H211005   2.837   5.431   4.426 -2.4758 -3.5488 -1.9494
 3667TIP3   OH211006   6.031   5.478   0.454 -0.1514 -0.2922  0.0185
 3667TIP3    H111007   5.999   5.560   0.493 -1.0177 -1.7335  2.5103
 3667TIP3    H211008   6.104   5.506   0.398 -0.8769  2.2500  0.2043
 3668TIP3   OH211009   4.935   3.354   4.570  0.1760 -0.0574  0.3971
 3668TIP3    H111010   4.978   3.305   4.500  0.5792 -0.6040  1.0266
 3668TIP3    H211011   4.842   3.335   4.558  0.0262  1.4225 -1.1932
 3669TIP3   OH211012   2.305   2.635   1.254 -0.4719 -0.2104  0.0603
 3669TIP3    H111013   2.365   2.583   1.308 -0.2597 -0.1044 -0.0726
 3669TIP3    H211014   2.252   2.684   1.317  0.2659  0.4691  0.1587
 3670TIP3   OH211015   0.960   2.598   4.301  0.3881 -0.0674 -0.2248
 3670TIP3    H111016   1.010   2.676   4.327  0.8083 -0.4200  0.0271
 3670TIP3    H211017   0.903   2.581   4.376  0.2273  0.0520 -0.3186
 3671TIP3   OH211018   2.225   1.174   0.301  0.6343 -0.6412  0.4116
 3671TIP3    H111019   2.290   1.140   0.363  1.1577  0.8399  0.7022
 3671TIP3    H211020   2.277   1.211   0.230  0.0766 -0.4721  0.0903
 3672TIP3   OH211021   1.546   3.196   1.156  0.1793 -0.0925  0.2258
 3672TIP3    H111022   1.498   3.276   1.175  1.3937  0.6342  0.3985
 3672TIP3    H211023   1.552   3.151   1.240 -1.7111 -1.0908 -0.1348
 3673TIP3   OH211024   3.376   0.617   0.811  0.2156 -0.4380 -0.8146
 3673TIP3    H111025   3.352   0.540   0.862 -0.4413 -1.2734 -2.2897
 3673TIP3    H211026   3.471   0.622   0.817  0.2337 -1.1507 -0.3978
 3674TIP3   OH211027   2.544   2.906   2.428  0.2007  0.1075 -0.1917
 3674TIP3    H111028   2.490   2.887   2.505  0.0031  1.8301  0.1323
 3674TIP3    H211029   2.567   2.998   2.438 -1.6994  1.0696 -3.3200
 3675TIP3   OH211030   6.201   3.163   1.088 -0.0630  0.3222 -0.5455
 3675TIP3    H111031   6.174   3.200   1.005 -0.9240  1.0884  0.0582
 3675TIP3    H211032   6.204   3.069   1.073 -0.2556  0.4521 -1.4185
 3676TIP3   OH211033   0.812   3.817   0.248  0.6503  0.1188  0.2070
 3676TIP3    H111034   0.753   3.892   0.252  0.0582 -0.3827  1.5641
 3676TIP3    H211035   0.896   3.853   0.218  0.0383  1.0932 -0.3564
 3677TIP3   OH211036   1.454   2.261   2.839 -0.1757 -0.2033  0.0391
 3677TIP3    H111037   1.504   2.341   2.822 -1.2021  0.9248  1.9587
 3677TIP3    H211038   1.364   2.291   2.850 -0.9235 -1.9033 -1.0480
 3678TIP3   OH211039   5.304   4.571   5.022  0.1369  0.0067 -0.2257
 3678TIP3    H111040   5.283   4.547   4.932  1.4016  0.3839 -0.6423
 3678TIP3    H211041   5.389   4.530   5.038  1.0743  1.9197 -0.0367
 3679TIP3   OH211042   2.457   3.959   1.210 -0.0640  0.4620 -0.6676
 3679TIP3    H111043   2.542   3.937   1.249 -1.2711 -1.4226  1.1522
 3679TIP3    H211044   2.440   3.887   1.150  0.4792  1.8979 -2.6323
 3680TIP3   OH211045   2.889   5.262   2.246  0.4050  0.0137 -0.4351
 3680TIP3    H111046   2.917   5.277   2.156  1.5723  0.1749 -0.0615
 3680TIP3    H211047   2.920   5.338   2.294  2.6941 -1.5225  0.7000
 3681TIP3   OH211048   5.924   4.535   1.025 -0.0764 -0.2779  0.1690
 3681TIP3    H111049   5.962   4.570   1.106 -0.5433  3.2552 -0.9430
 3681TIP3    H211050   5.859   4.472   1.055  1.3325 -0.7922  2.4093
 3682TIP3   OH211051   2.875   2.302   3.697  0.0727 -0.1724  0.0688
 3682TIP3    H111052   2.859   2.296   3.603  0.2167  1.8433 -0.1308
 3682TIP3    H211053   2.787   2.298   3.736 -0.1080  0.3303 -0.2702
 3683TIP3   OH211054   5.711   1.803   4.159 -0.1001  0.1034 -0.5804
 3683TIP3    H111055   5.687   1.836   4.073 -0.2316  0.0076 -0.5800
 3683TIP3    H211056   5.648   1.844   4.219  1.0564  1.5683 -0.2972
 3684TIP3   OH211057   4.503   1.035   0.645  0.0397  0.1297  0.5450
 3684TIP3    H111058   4.471   1.104   0.587 -2.8350 -1.8891 -0.5039
 3684TIP3    H211059   4.447   1.042   0.723 -1.6623 -2.0929 -0.3751
 3685TIP3   OH211060   2.851   3.637   4.321  0.1938  0.1114 -0.4478
 3685TIP3    H111061   2.875   3.717   4.274 -0.3252  0.0473 -0.8281
 3685TIP3    H211062   2.926   3.619   4.378  0.6268  0.4555 -0.9039
 3686TIP3   OH211063   0.451   5.522   3.375 -0.0594  0.8609  0.4029
 3686TIP3    H111064   0.424   5.457   3.439  1.1960 -0.2427 -0.1421
 3686TIP3    H211065   0.372   5.538   3.322 -0.5097  0.1421  0.8416
 3687TIP3   OH211066   3.848   1.513   4.258  0.0765 -0.2034 -0.2122
 3687TIP3    H111067   3.852   1.597   4.304  0.4575 -0.1966 -0.2517
 3687TIP3    H211068   3.812   1.535   4.172 -1.0275 -0.2786  0.2178
 3688TIP3   OH211069   2.364   0.748   4.269 -0.0864  0.3304  0.0705
 3688TIP3    H111070   2.330   0.829   4.305  0.7039  0.0258  1.5890
 3688TIP3    H211071   2.321   0.679   4.319  1.2644 -0.0993  0.6993
 3689TIP3   OH211072   6.110   4.292   4.871  0.0735  0.3556  0.0137
 3689TIP3    H111073   6.183   4.230   4.875 -0.6135 -0.5639 -1.0999
 3689TIP3    H211074   6.123   4.340   4.789  0.5961  1.7366  0.8560
 3690TIP3   OH211075   1.428   1.126   1.044 -0.4336 -0.3635  0.1268
 3690TIP3    H111076   1.338   1.111   1.071 -0.5175  0.4068  0.2993
 3690TIP3    H211077   1.455   1.045   1.001 -1.2264 -0.5681  0.0158
 3691TIP3   OH211078   1.738   4.313   3.237 -0.0614  0.2455  0.0182
 3691TIP3    H111079   1.762   4.353   3.320 -0.9181 -0.1180  0.4584
 3691TIP3    H211080   1.662   4.363   3.207  0.3832  0.5217 -0.6638
 3692TIP3   OH211081   1.055   1.372   0.502 -0.4346 -0.0198  0.4380
 3692TIP3    H111082   1.081   1.399   0.414  0.9466 -1.1476  0.4561
 3692TIP3    H211083   0.962   1.350   0.494 -0.2033 -0.6097 -0.8673
 3693TIP3   OH211084   5.297   4.969   4.186 -0.2818 -0.4740  0.8948
 3693TIP3    H111085   5.243   5.028   4.133  2.0831  2.1696  1.1403
 3693TIP3    H211086   5.307   5.016   4.269  3.2487 -0.1937  0.4436
 3694TIP3   OH211087   0.670   0.470   1.502 -0.4666 -0.6003 -0.2158
 3694TIP3    H111088   0.653   0.380   1.474 -2.3145 -0.2875 -0.2621
 3694TIP3    H211089   0.691   0.463   1.595  1.0630 -1.2080 -0.5799
 3695TIP3   OH211090   3.117   1.063   3.727  0.1617  0.1718  0.0940
 3695TIP3    H111091   3.096   1.072   3.820 -0.0613  0.9282 -0.0276
 3695TIP3    H211092   3.048   1.112   3.682  1.0579  0.9940 -0.4055
 3696TIP3   OH211093   3.386   5.824   4.867  0.5464 -0.2540 -0.0960
 3696TIP3    H111094   3.417   5.874   4.942  0.1414 -1.4487  0.8912
 3696TIP3    H211095   3.292   5.838   4.865  0.7962  1.6463 -1.8185
 3697TIP3   OH211096   4.077   2.897   4.245 -0.0638 -0.5908  0.1338
 3697TIP3    H111097   4.025   2.965   4.288 -2.2839 -1.7738 -0.5490
 3697TIP3    H211098   4.109   2.938   4.165 -0.5074 -0.0423  0.2323
 3698TIP3   OH211099   5.976   0.756   4.196 -0.7991 -0.2099 -0.5025
 3698TIP3    H111100   6.039   0.821   4.228  0.6935 -0.5674 -2.4916
 3698TIP3    H211101   5.949   0.708   4.274  0.6705  0.6009  0.5480
 3699TIP3   OH211102   4.695   3.708   3.810  0.4625 -0.4373  0.1111
 3699TIP3    H111103   4.771   3.747   3.852 -0.2151  0.6332  0.3645
 3699TIP3    H211104   4.654   3.780   3.762 -1.6760 -0.4271  1.8402
 3700TIP3   OH211105   3.187   1.103   1.744 -0.3569 -0.3179 -0.3571
 3700TIP3    H111106   3.127   1.135   1.676  0.0290 -0.9681 -1.0183
 3700TIP3    H211107   3.129   1.071   1.813 -0.7552  1.3518  0.1325
 3701TIP3   OH211108   4.480   3.202   3.126  0.9001  0.3267  0.3318
 3701TIP3    H111109   4.507   3.269   3.064  0.9460  1.1983  1.2758
 3701TIP3    H211110   4.405   3.240   3.172 -0.5066 -1.1456 -0.6242
 3702TIP3   OH211111   0.860   2.140   1.302 -0.0882  0.0071 -0.2700
 3702TIP3    H111112   0.942   2.137   1.253  0.4521  0.7016  0.5671
 3702TIP3    H211113   0.872   2.211   1.365 -0.9404 -0.5702  0.5654
 3703TIP3   OH211114   5.018   1.469   4.313  0.3637  0.4053 -0.7732
 3703TIP3    H111115   4.957   1.512   4.252  0.8125  0.5059 -1.1549
 3703TIP3    H211116   5.012   1.376   4.291 -0.4527  0.2779 -0.0846
 3704TIP3   OH211117   4.788   4.460   1.054  0.4430  0.3325 -0.2898
 3704TIP3    H111118   4.747   4.379   1.022 -1.7189  0.6465  1.4516
 3704TIP3    H211119   4.814   4.440   1.144  2.5625  0.7353 -0.7657
 3705TIP3   OH211120   1.870   3.944   4.065 -0.0815  0.2244 -0.2962
 3705TIP3    H111121   1.944   3.935   4.005 -1.0393  2.4454 -1.9715
 3705TIP3    H211122   1.911   3.958   4.151  1.5992  3.0720 -1.4078
 3706TIP3   OH211123   1.880   1.097   1.530  0.1022  0.3710  0.1608
 3706TIP3    H111124   1.801   1.062   1.489 -0.7576 -0.1023  2.1166
 3706TIP3    H211125   1.918   1.155   1.464 -2.0750  0.9118 -0.6925
 3707TIP3   OH211126   0.144   2.878   4.359  0.1750 -0.0013 -0.6002
 3707TIP3    H111127   0.052   2.890   4.379  0.4630  1.3128  0.0420
 3707TIP3    H211128   0.189   2.949   4.406  1.6008 -1.1270 -0.1743
 3708TIP3   OH211129   5.164   5.213   4.095 -0.4757  0.4441 -0.3724
 3708TIP3    H111130   5.091   5.269   4.123 -0.7430  1.0644 -2.1731
 3708TIP3    H211131   5.154   5.206   4.000  1.4105 -0.0463 -0.5782
 3709TIP3   OH211132   0.598   1.556   4.276 -0.4982  0.3901  0.2090
 3709TIP3    H111133   0.597   1.647   4.306 -0.5168  0.9688 -1.4529
 3709TIP3    H211134   0.687   1.525   4.295 -0.1093  1.1523 -0.3243
 3710TIP3   OH211135   2.780   5.118   2.465  0.1575  0.7724 -0.1494
 3710TIP3    H111136   2.815   5.153   2.383  0.7376  2.4902  0.7982
 3710TIP3    H211137   2.844   5.143   2.532 -0.9424  0.5363  1.0328
 3711TIP3   OH211138   1.423   0.665   0.446 -0.1019  0.6414 -0.2942
 3711TIP3    H111139   1.340   0.711   0.439 -0.8064 -0.0114  2.5343
 3711TIP3    H211140   1.488   0.735   0.456 -0.1484  1.1767 -3.1051
 3712TIP3   OH211141   5.095   1.563   4.943 -0.2592  0.5103  0.3664
 3712TIP3    H111142   5.150   1.498   4.899 -2.2983 -0.4580 -0.8968
 3712TIP3    H211143   5.118   1.646   4.902  0.5737  0.1942  0.1787
 3713TIP3   OH211144   1.050   1.888   1.730 -0.3863  0.4069 -0.0129
 3713TIP3    H111145   1.079   1.946   1.800 -1.1607  1.1544 -0.2859
 3713TIP3    H211146   0.955   1.887   1.737 -0.5019  0.7319 -1.2142
 3714TIP3   OH211147   4.671   0.059   0.178 -0.7574 -0.0207 -0.2623
 3714TIP3    H111148   4.591   0.007   0.175 -0.4383 -0.5374  0.0577
 3714TIP3    H211149   4.740  -0.001   0.151 -0.4253  0.3160 -0.1706
 3715TIP3   OH211150   5.493   3.941   3.577 -0.7838  0.2906 -0.1411
 3715TIP3    H111151   5.495   3.918   3.484  1.3809  0.5326 -0.2126
 3715TIP3    H211152   5.454   4.029   3.580  2.4069  1.9349 -1.3464
 3716TIP3   OH211153   0.336   4.204  -0.009 -0.3633  0.4363  0.0383
 3716TIP3    H111154   0.247   4.238  -0.018 -1.1765 -1.0143  1.7891
 3716TIP3    H211155   0.368   4.243   0.072  0.6174  0.9538 -0.5861
 3717TIP3   OH211156   4.015   4.288   2.115  0.3515 -0.8386  0.2014
 3717TIP3    H111157   3.944   4.275   2.053  0.7434 -1.2919 -0.1697
 3717TIP3    H211158   3.990   4.365   2.166 -1.3409 -2.0942  1.3924
 3718TIP3   OH211159   1.549  -0.006   0.536  0.2073  0.4404 -0.2725
 3718TIP3    H111160   1.578  -0.034   0.449 -1.3624 -0.8118 -0.4324
 3718TIP3    H211161   1.492   0.069   0.520 -1.7594 -1.0343 -0.5842
 3719TIP3   OH211162   0.352   3.151   4.732  0.5954 -0.0521 -0.0043
 3719TIP3    H111163   0.440   3.169   4.699  0.7254  1.8633  1.1919
 3719TIP3    H211164   0.294   3.179   4.661  0.9061 -1.6395 -0.9321
 3720TIP3   OH211165   4.223   5.134   4.649  0.1937 -0.2161  0.0784
 3720TIP3    H111166   4.150   5.192   4.627 -0.1564 -0.3971  0.7142
 3720TIP3    H211167   4.218   5.125   4.744  0.9695 -0.3386  0.1142
 3721TIP3   OH211168   2.799   2.196   2.225  0.2451  0.1581 -0.0389
 3721TIP3    H111169   2.732   2.249   2.269 -0.4137 -0.7509  0.0814
 3721TIP3    H211170   2.779   2.106   2.250  0.6238 -0.2687 -1.1969
 3722TIP3   OH211171   5.736   0.755   1.796 -0.1732  0.4126 -0.1255
 3722TIP3    H111172   5.810   0.801   1.835 -1.4950  2.2511  0.3670
 3722TIP3    H211173   5.685   0.725   1.871  0.0658 -0.8422 -0.4572
 3723TIP3   OH211174   3.720   0.324   2.822 -0.1220  0.2594 -0.2877
 3723TIP3    H111175   3.734   0.361   2.908 -0.1977 -0.7105  0.1572
 3723TIP3    H211176   3.692   0.234   2.839 -0.3188  0.1146 -1.3146
 3724TIP3   OH211177   3.966   2.988   2.981  0.6653 -0.1903 -0.6418
 3724TIP3    H111178   3.904   2.923   3.014 -0.4285 -0.0279 -2.2728
 3724TIP3    H211179   4.016   2.941   2.914  0.0842  0.5389 -1.6055
 3725TIP3   OH211180   0.449   5.863   1.017  0.0596 -0.3347 -0.0587
 3725TIP3    H111181   0.518   5.930   1.015  1.2515 -1.4902  0.4551
 3725TIP3    H211182   0.420   5.862   1.108 -0.9404  0.4164 -0.3553
 3726TIP3   OH211183   0.870   0.839   0.423  0.1632  0.1676  0.5150
 3726TIP3    H111184   0.790   0.825   0.474 -0.3088 -1.7215 -0.6209
 3726TIP3    H211185   0.886   0.754   0.381  1.3038  1.2450 -1.3486
 3727TIP3   OH211186   5.212   5.773   2.849 -0.1547 -0.6660  1.1227
 3727TIP3    H111187   5.191   5.850   2.903  0.8475  0.0565  0.5169
 3727TIP3    H211188   5.127   5.731   2.835 -1.0614  1.4133 -0.1571
 3728TIP3   OH211189   5.375   3.930   4.852 -0.3561  0.4826 -0.2917
 3728TIP3    H111190   5.358   4.004   4.794  0.8719  1.4052  0.4869
 3728TIP3    H211191   5.469   3.913   4.843  0.0082  1.0807  1.8775
 3729TIP3   OH211192   5.079   3.281   1.245  0.3491  0.9410  0.4248
 3729TIP3    H111193   5.161   3.247   1.280  0.4462  0.3461 -0.3566
 3729TIP3    H211194   5.094   3.289   1.151 -0.6517  0.3181  0.1973
 3730TIP3   OH211195   0.614   2.709   1.274  0.0171 -0.3864 -0.1802
 3730TIP3    H111196   0.590   2.668   1.357  0.1199 -1.8641 -0.8567
 3730TIP3    H211197   0.616   2.637   1.211  0.3279  0.6461 -1.3905
 3731TIP3   OH211198   4.444   5.844   3.849 -0.1262 -0.2499  0.0869
 3731TIP3    H111199   4.458   5.937   3.833 -2.0185  0.0745  0.1702
 3731TIP3    H211200   4.528   5.813   3.883  0.7447  1.2565 -0.5898
 3732TIP3   OH211201   3.839   0.209   4.418  0.3776 -0.6685 -0.4284
 3732TIP3    H111202   3.868   0.241   4.504 -0.5426 -0.7660 -0.0784
 3732TIP3    H211203   3.870   0.276   4.356 -0.9485  0.5997  0.2305
 3733TIP3   OH211204   2.583   1.725   5.039 -0.0399  0.3094  0.2967
 3733TIP3    H111205   2.508   1.667   5.032 -2.1231  2.8280  0.3795
 3733TIP3    H211206   2.627   1.717   4.954  1.4094 -3.3146  1.2172
 3734TIP3   OH211207   2.656   2.953   4.547 -0.1719  0.4328 -0.0383
 3734TIP3    H111208   2.587   2.916   4.601  0.9849 -0.1226  1.1209
 3734TIP3    H211209   2.615   3.025   4.500 -1.3740  0.4852  1.0677
 3735TIP3   OH211210   5.669   0.571   2.202 -0.2294  0.0802  1.0065
 3735TIP3    H111211   5.624   0.497   2.243 -1.9032  0.8947  0.7372
 3735TIP3    H211212   5.748   0.534   2.164 -0.7607 -1.4632  1.3539
 3736TIP3   OH211213   2.881   5.470   1.055 -0.0564  0.2448  0.3295
 3736TIP3    H111214   2.922   5.541   1.104  0.6908  0.5431 -0.6952
 3736TIP3    H211215   2.948   5.402   1.049  0.0172  0.3924 -0.6384
 3737TIP3   OH211216   2.494   2.483   2.970 -0.3044 -0.7031 -0.5015
 3737TIP3    H111217   2.568   2.525   2.926  0.6021 -0.8113  0.8648
 3737TIP3    H211218   2.505   2.390   2.951  2.5992 -1.3598  3.2892
 3738TIP3   OH211219   0.606   5.671   0.454 -0.4807  1.1322 -0.3843
 3738TIP3    H111220   0.558   5.737   0.406 -1.9013  0.2081 -0.2911
 3738TIP3    H211221   0.554   5.656   0.533 -0.4196 -0.3769 -0.6032
 3739TIP3   OH211222   1.597   0.687   2.454  0.0157 -0.1496  0.1524
 3739TIP3    H111223   1.613   0.780   2.472  0.6995 -0.3558  0.6326
 3739TIP3    H211224   1.601   0.681   2.358  0.6786  0.2009  0.1471
 3740TIP3   OH211225   3.967   3.819   1.465  0.0109  0.6443  0.0619
 3740TIP3    H111226   4.055   3.817   1.428  0.4313  2.3823  0.8345
 3740TIP3    H211227   3.982   3.835   1.559 -1.1208  0.8669  0.2109
 3741TIP3   OH211228   4.231   0.158   4.852 -0.0508 -0.5305  0.4477
 3741TIP3    H111229   4.205   0.066   4.848 -0.0802 -0.5485  0.9856
 3741TIP3    H211230   4.327   0.156   4.859 -0.0487 -0.5174  0.4252
 3742TIP3   OH211231   3.147   4.520   1.737 -0.8623 -0.0855  0.1798
 3742TIP3    H111232   3.239   4.504   1.714 -0.9831 -1.1517  0.3727
 3742TIP3    H211233   3.148   4.529   1.833 -1.0203 -0.7112  0.2512
 3743TIP3   OH211234   5.630   3.385   3.558  0.0782  0.1785  0.0044
 3743TIP3    H111235   5.680   3.337   3.492 -0.7550  0.1312 -0.6066
 3743TIP3    H211236   5.692   3.398   3.630  1.2582  0.9780 -1.1231
 3744TIP3   OH211237   3.557   4.833   3.587  0.4594  0.0925 -0.2431
 3744TIP3    H111238   3.474   4.881   3.591  1.1055  1.2055  0.7547
 3744TIP3    H211239   3.619   4.897   3.551  1.0757 -0.4214 -0.0960
 3745TIP3   OH211240   0.333   4.795   4.626  0.0730  0.1973 -0.0561
 3745TIP3    H111241   0.353   4.702   4.614  0.2299  0.4189 -1.6613
 3745TIP3    H211242   0.259   4.795   4.687 -0.0548 -0.9845 -0.1754
 3746TIP3   OH211243   1.142   0.834   2.595 -0.2708  0.0251 -0.1395
 3746TIP3    H111244   1.229   0.818   2.632 -0.0293  1.9965  0.2951
 3746TIP3    H211245   1.081   0.802   2.661  0.1403 -0.2329  0.1198
 3747TIP3   OH211246   5.002   5.333   1.248  0.1016 -0.0910 -0.2333
 3747TIP3    H111247   5.012   5.427   1.259  1.7282 -0.3685  1.2134
 3747TIP3    H211248   5.008   5.297   1.337  1.0182 -1.6366 -0.8613
 3748TIP3   OH211249   3.316   0.322   5.069  0.2362  0.4807  0.0741
 3748TIP3    H111250   3.310   0.275   4.986 -0.7491 -1.1775  1.0142
 3748TIP3    H211251   3.228   0.356   5.084  0.2626  0.3201  0.6513
 3749TIP3   OH211252   6.234   3.345   0.404  0.7433 -0.1118 -0.2223
 3749TIP3    H111253   6.290   3.273   0.432 -0.4098 -0.9528  0.0197
 3749TIP3    H211254   6.151   3.303   0.381 -0.0106  1.1506  0.0696
 3750TIP3   OH211255   3.412   5.648   0.142  0.3886 -0.2336  0.3379
 3750TIP3    H111256   3.377   5.632   0.229  0.3717 -1.3292  0.1324
 3750TIP3    H211257   3.442   5.563   0.111  1.4071  0.3321 -0.2913
 3751TIP3   OH211258   5.080   1.393   2.756 -0.7266 -0.3725  0.3796
 3751TIP3    H111259   5.137   1.398   2.833  1.1557 -2.2126 -0.8067
 3751TIP3    H211260   5.059   1.300   2.748  1.7484 -0.7907 -3.0646
 3752TIP3   OH211261   0.361   1.044   3.529 -0.0759 -0.0682 -0.0902
 3752TIP3    H111262   0.401   1.073   3.447 -1.8667 -0.8860 -1.3091
 3752TIP3    H211263   0.372   1.118   3.589  0.0880  1.0598 -1.4589
 3753TIP3   OH211264   3.370   2.723   2.299 -0.8074  0.3106 -0.3923
 3753TIP3    H111265   3.386   2.762   2.385 -0.4329  0.6143 -0.5955
 3753TIP3    H211266   3.291   2.766   2.268 -1.1007  0.0014 -0.0858
 3754TIP3   OH211267   2.390   4.039   4.429 -0.0634 -0.2164 -0.3463
 3754TIP3    H111268   2.335   3.965   4.403  0.6761 -1.6050  1.7963
 3754TIP3    H211269   2.351   4.070   4.511  1.3680 -0.1777  0.3463
 3755TIP3   OH211270   2.665   1.341   2.861  0.2688 -0.8524 -0.4418
 3755TIP3    H111271   2.642   1.265   2.915  2.9214 -0.8204  0.9246
 3755TIP3    H211272   2.738   1.311   2.808  1.5393  0.7579  0.3124
 3756TIP3   OH211273   2.342   3.513   3.356  0.3980  0.4863 -0.5239
 3756TIP3    H111274   2.270   3.568   3.387  0.0518 -0.3268  0.1369
 3756TIP3    H211275   2.400   3.504   3.432 -1.0320 -2.4700  0.3919
 3757TIP3   OH211276   5.946   1.208   4.910  0.0884 -0.1844  0.4498
 3757TIP3    H111277   6.027   1.165   4.935  0.3424 -1.4419 -2.2008
 3757TIP3    H211278   5.943   1.286   4.965  3.5471  0.3799  0.0956
 3758TIP3   OH211279   1.352   1.861   3.816  0.0968  0.0078  0.2672
 3758TIP3    H111280   1.371   1.821   3.730  0.9858 -2.7408  1.6137
 3758TIP3    H211281   1.266   1.825   3.839 -0.0530  0.5946  0.6332
 3759TIP3   OH211282   4.677   0.354   2.070  0.0862 -0.6647 -0.2466
 3759TIP3    H111283   4.650   0.348   2.162  0.1421 -0.9124 -0.2454
 3759TIP3    H211284   4.626   0.286   2.026  0.4663 -0.9182 -0.3004
 3760TIP3   OH211285   5.481   3.993   0.426 -0.0529  0.2115  0.7921
 3760TIP3    H111286   5.392   4.027   0.415  0.5109  1.5718  0.3306
 3760TIP3    H211287   5.538   4.065   0.399  1.2021 -1.7492 -2.4430
 3761TIP3   OH211288   2.516   2.562   3.465 -0.1633 -0.3434  0.0490
 3761TIP3    H111289   2.489   2.506   3.392  0.7600  0.3694 -0.8718
 3761TIP3    H211290   2.435   2.599   3.499 -0.6119 -0.7243 -0.5871
 3762TIP3   OH211291   0.151   2.461   0.787 -0.1865  0.0822  0.1412
 3762TIP3    H111292   0.112   2.531   0.839  1.1800  1.2039 -0.2903
 3762TIP3    H211293   0.245   2.473   0.795  0.1534 -2.4606  1.0273
 3763TIP3   OH211294   4.689   1.414   5.027 -0.0549  0.4132  0.0705
 3763TIP3    H111295   4.699   1.395   4.933 -0.4615  0.5227  0.0033
 3763TIP3    H211296   4.677   1.328   5.067  0.9843  0.2852  0.1397
 3764TIP3   OH211297   2.562   5.876   2.316  0.1633  0.3133 -0.1130
 3764TIP3    H111298   2.586   5.807   2.253 -0.9903  1.0630 -1.4380
 3764TIP3    H211299   2.467   5.885   2.306 -0.0766  0.3568  1.8839
 3765TIP3   OH211300   3.503   1.569   3.618 -0.1472  0.3719 -0.3274
 3765TIP3    H111301   3.430   1.507   3.615  0.5996 -0.5563  0.1203
 3765TIP3    H211302   3.509   1.603   3.528 -0.8059  0.0774 -0.4917
 3766TIP3   OH211303   0.864   0.348   2.895 -0.5899  0.4223 -0.2487
 3766TIP3    H111304   0.901   0.412   2.834 -1.0040  0.7824 -0.1283
 3766TIP3    H211305   0.799   0.301   2.843 -0.3561  0.1583 -0.3096
 3767TIP3   OH211306   2.051   5.361   0.786  0.0610  0.1540  0.2398
 3767TIP3    H111307   2.015   5.446   0.811 -1.5387 -0.5180  0.3829
 3767TIP3    H211308   2.082   5.323   0.868  1.5343  0.8931  0.0624
 3768TIP3   OH211309   1.495   0.436   0.298 -0.0031 -0.1922 -0.6601
 3768TIP3    H111310   1.585   0.456   0.321 -0.5953 -0.1725  1.9659
 3768TIP3    H211311   1.445   0.513   0.323 -1.2629 -1.7754  2.1549
 3769TIP3   OH211312   2.713   1.390   4.818 -0.1260  0.0323  0.0176
 3769TIP3    H111313   2.668   1.306   4.821 -0.1574 -0.0045 -1.0068
 3769TIP3    H211314   2.805   1.369   4.832 -0.0681 -0.2484 -0.7167
 3770TIP3   OH211315   5.461   5.661   4.256  0.0791 -0.4954 -0.0716
 3770TIP3    H111316   5.437   5.569   4.248  1.1697 -0.7970 -0.0472
 3770TIP3    H211317   5.420   5.690   4.338 -1.1732 -0.6440 -0.6214
 3771TIP3   OH211318   4.259   5.037   4.909 -0.3153  0.2421 -0.2309
 3771TIP3    H111319   4.318   5.070   4.976 -0.5169  1.4668 -0.6361
 3771TIP3    H211320   4.203   4.975   4.955  0.9277 -0.5528  0.2672
 3772TIP3   OH211321   2.979   3.350   2.875  0.1467  0.1038  1.1045
 3772TIP3    H111322   2.958   3.404   2.799 -2.9982  0.5513  2.1493
 3772TIP3    H211323   3.003   3.413   2.944 -2.2441  0.1766  1.9457
 3773TIP3   OH211324   5.461   2.674   4.049 -0.3108  0.4187  0.0719
 3773TIP3    H111325   5.492   2.586   4.031 -0.2691  0.5051 -0.2779
 3773TIP3    H211326   5.478   2.723   3.969  0.3665  0.9350  0.5170
 3774TIP3   OH211327   2.807   0.657   3.115 -0.0789  0.2817 -0.9936
 3774TIP3    H111328   2.820   0.563   3.105 -3.4767 -0.5223  0.7997
 3774TIP3    H211329   2.718   0.673   3.085  0.1431  2.8051 -0.5522
 3775TIP3   OH211330   4.220   2.418   1.085  0.7914 -0.0656 -0.0698
 3775TIP3    H111331   4.136   2.385   1.118  0.6787  1.0224  0.7910
 3775TIP3    H211332   4.273   2.339   1.071 -0.1775 -0.7280 -0.0845
 3776TIP3   OH211333   5.485   3.688   2.752 -0.5634  0.6383 -0.7495
 3776TIP3    H111334   5.497   3.758   2.816 -1.7904  0.2981 -0.1211
 3776TIP3    H211335   5.542   3.618   2.783 -1.3646  0.3696  0.1559
 3777TIP3   OH211336   6.050   3.522   3.218  0.0039 -0.5982  0.1820
 3777TIP3    H111337   6.018   3.436   3.190 -1.4653 -0.3484  1.0123
 3777TIP3    H211338   6.057   3.515   3.313  0.0334  0.1492  0.2368
 3778TIP3   OH211339   6.213   2.023   1.811 -1.0558 -0.4985 -0.0551
 3778TIP3    H111340   6.291   2.078   1.820 -1.2879 -0.0786 -0.5908
 3778TIP3    H211341   6.140   2.084   1.819 -1.4004 -1.1069  2.1806
 3779TIP3   OH211342   3.043   4.546   4.977 -0.2522  0.4942  0.1130
 3779TIP3    H111343   3.079   4.573   4.893 -1.0265  0.9518 -0.0839
 3779TIP3    H211344   3.077   4.609   5.040  1.6351 -0.7763  0.4503
 3780TIP3   OH211345   1.921   0.429   0.546  0.7266  0.3755 -0.7868
 3780TIP3    H111346   1.831   0.402   0.533  0.6607  0.1694  0.0409
 3780TIP3    H211347   1.955   0.444   0.457  0.9397 -2.8871 -1.3873
 3781TIP3   OH211348   6.219   4.344   3.469 -0.0019  0.0457  0.2901
 3781TIP3    H111349   6.181   4.431   3.482  2.0192  0.9023  0.8079
 3781TIP3    H211350   6.249   4.344   3.378 -3.0494 -1.4479 -0.8666
 3782TIP3   OH211351   0.220   4.388   1.818  0.5038  0.2225 -0.0522
 3782TIP3    H111352   0.274   4.412   1.893  2.9229  2.9207 -2.4003
 3782TIP3    H211353   0.264   4.312   1.780 -0.1656 -0.5446  0.6822
 3783TIP3   OH211354   0.964   3.072   4.025  0.3662 -0.2955 -0.2568
 3783TIP3    H111355   0.987   2.994   3.974 -0.6562 -0.7165 -0.1126
 3783TIP3    H211356   0.926   3.132   3.962  3.0927  1.0197 -0.7824
 3784TIP3   OH211357   4.812   5.256   4.838  0.1260  0.4100 -0.2452
 3784TIP3    H111358   4.767   5.204   4.905 -0.0575  0.1751 -0.5479
 3784TIP3    H211359   4.881   5.198   4.806 -0.6886 -0.0171 -1.2694
 3785TIP3   OH211360   3.162   5.292   4.376  0.1001  0.1584  0.3172
 3785TIP3    H111361   3.214   5.307   4.455 -0.0800  1.6251  0.1920
 3785TIP3    H211362   3.075   5.325   4.398 -0.0018  0.3997 -0.4122
 3786TIP3   OH211363   0.228   5.837   3.632  0.2257  0.0604 -0.2267
 3786TIP3    H111364   0.225   5.889   3.712  0.4326 -0.6331  0.2448
 3786TIP3    H211365   0.295   5.771   3.649 -0.1437 -0.4590 -0.7406
 3787TIP3   OH211366   0.092   0.647   3.692  0.1906  0.4349  0.6216
 3787TIP3    H111367   0.105   0.691   3.608 -1.3372 -0.6684 -0.2384
 3787TIP3    H211368   0.083   0.719   3.755  0.4177  1.2924 -0.3032
 3788TIP3   OH211369   3.236   0.366   2.137 -0.1720  0.1467  0.2155
 3788TIP3    H111370   3.231   0.459   2.160  3.6476  0.4413  0.4754
 3788TIP3    H211371   3.241   0.321   2.221  0.9139  0.0289  0.1042
 3789TIP3   OH211372   2.583   1.130   3.021 -0.3628 -0.3673 -0.2005
 3789TIP3    H111373   2.587   1.091   3.109 -0.6312  0.7303  0.3101
 3789TIP3    H211374   2.606   1.058   2.962 -1.7580 -1.5647  0.6451
 3790TIP3   OH211375   4.184   1.600   2.554 -0.3245  0.5037 -0.5404
 3790TIP3    H111376   4.098   1.627   2.522 -0.1857 -0.0728 -1.4536
 3790TIP3    H211377   4.235   1.681   2.558 -0.8687  0.8277 -0.1232
 3791TIP3   OH211378   0.844   0.134   0.679 -0.3889  0.0575 -0.1374
 3791TIP3    H111379   0.875   0.073   0.611 -0.0648 -0.0869  0.1370
 3791TIP3    H211380   0.864   0.091   0.761 -0.4385  0.4006  0.0572
 3792TIP3   OH211381   1.314   4.323   2.351 -0.0135  0.5551 -0.6058
 3792TIP3    H111382   1.313   4.228   2.336  0.7541  0.7212 -1.7616
 3792TIP3    H211383   1.331   4.331   2.445 -1.7563 -0.4564 -0.1591
 3793TIP3   OH211384   2.862   5.593   4.309 -0.1043 -0.3196 -0.1672
 3793TIP3    H111385   2.956   5.610   4.298 -0.0939  0.6280  1.0992
 3793TIP3    H211386   2.820   5.661   4.257 -0.0674 -0.0862  0.0998
 3794TIP3   OH211387   2.439   0.569   5.003 -0.1385  0.1559  0.2589
 3794TIP3    H111388   2.368   0.504   5.003 -1.2025  1.2925  0.4452
 3794TIP3    H211389   2.481   0.558   4.918 -2.1912  1.2057 -0.9534
 3795TIP3   OH211390   3.391   1.983   4.215 -0.4255 -0.0293  0.1828
 3795TIP3    H111391   3.420   1.983   4.124  0.2710 -1.5128  0.3799
 3795TIP3    H211392   3.333   2.059   4.221  1.7492  1.8356 -0.7465
 3796TIP3   OH211393   2.492   5.829   3.347  0.6968  0.2881 -0.2851
 3796TIP3    H111394   2.425   5.890   3.318 -0.1810 -0.5286 -0.0261
 3796TIP3    H211395   2.444   5.759   3.392  1.6642 -0.6096 -0.5860
 3797TIP3   OH211396   3.200   3.249   3.252  0.4932 -0.1396 -0.2289
 3797TIP3    H111397   3.255   3.281   3.324 -1.8965  1.0216  1.2027
 3797TIP3    H211398   3.198   3.322   3.190  0.0626  0.0849  0.0428
 3798TIP3   OH211399   1.152   5.010   1.937 -0.1323  0.2461 -0.1347
 3798TIP3    H111400   1.065   4.989   1.903 -0.3064 -0.3152  0.6310
 3798TIP3    H211401   1.205   5.025   1.859 -1.1517  1.6236 -0.5947
 3799TIP3   OH211402   0.301   2.258   2.348  0.7276 -0.0542  0.0772
 3799TIP3    H111403   0.252   2.266   2.430  0.7530  1.1416 -0.0006
 3799TIP3    H211404   0.389   2.234   2.374  0.3356 -1.3670  0.2750
 3800TIP3   OH211405   3.783   1.488   3.087  0.2558 -0.4071 -0.1356
 3800TIP3    H111406   3.865   1.449   3.055  0.2569  0.7419 -1.6476
 3800TIP3    H211407   3.762   1.555   3.023 -1.7105 -0.4369  0.4212
 3801TIP3   OH211408   2.841   2.751   1.150  0.4308  0.0705  0.2078
 3801TIP3    H111409   2.827   2.662   1.183  1.5661 -0.0771  0.3378
 3801TIP3    H211410   2.888   2.796   1.221  1.3397  0.2729 -0.5019
 3802TIP3   OH211411   5.628   3.749   1.411 -0.0714 -0.5178 -0.1376
 3802TIP3    H111412   5.603   3.793   1.492 -2.3358 -0.6235 -0.7205
 3802TIP3    H211413   5.574   3.790   1.344  1.8302 -0.3590 -1.6479
 3803TIP3   OH211414   5.720   3.520   5.075 -0.9348 -0.6478  0.7235
 3803TIP3    H111415   5.767   3.489   4.998 -1.1962 -0.1722  0.3663
 3803TIP3    H211416   5.787   3.561   5.129 -0.5796 -1.8643  1.2260
 3804TIP3   OH211417   1.869   4.282   1.917  0.4864  0.1735 -0.7728
 3804TIP3    H111418   1.840   4.192   1.929 -0.1055  0.5462  0.9857
 3804TIP3    H211419   1.817   4.315   1.844  1.8752 -1.3490 -2.5451
 3805TIP3   OH211420   6.106   1.631   0.099 -0.2172  0.0238 -0.2036
 3805TIP3    H111421   6.043   1.702   0.087 -0.1424  0.1107 -0.0813
 3805TIP3    H211422   6.055   1.559   0.136 -0.4163 -0.1891 -0.8818
 3806TIP3   OH211423   2.861   0.495   2.894 -0.5741 -0.0882  0.5897
 3806TIP3    H111424   2.863   0.545   2.812 -0.4148  2.1817  1.9100
 3806TIP3    H211425   2.768   0.491   2.916 -0.6385 -0.9011  0.2217
 3807TIP3   OH211426   5.110   2.023   0.562  0.1404  0.0541  0.4042
 3807TIP3    H111427   5.172   2.047   0.493 -0.5765  1.7102  0.2703
 3807TIP3    H211428   5.163   2.013   0.640  0.6914  0.6406  0.1203
 3808TIP3   OH211429   4.024   3.446   0.437 -0.3608 -0.4134 -0.4400
 3808TIP3    H111430   4.079   3.369   0.450 -1.0266 -0.8212  0.0146
 3808TIP3    H211431   4.076   3.503   0.380  1.2914  0.0027  1.3751
 3809TIP3   OH211432   3.023   3.707   0.761 -0.4371 -0.4020 -0.2916
 3809TIP3    H111433   3.103   3.664   0.791  0.6481 -0.1267 -2.6067
 3809TIP3    H211434   3.023   3.791   0.807 -0.0336 -0.8526  0.5723
 3810TIP3   OH211435   3.602   2.660   2.684  0.3670  0.4111 -0.0731
 3810TIP3    H111436   3.579   2.621   2.600  0.0513  1.3189 -0.4253
 3810TIP3    H211437   3.523   2.654   2.737  0.3822  0.3865 -0.0533
 3811TIP3   OH211438   2.512   5.448   2.080  0.2806  0.4140  0.0309
 3811TIP3    H111439   2.552   5.403   2.154  0.7737 -1.5678 -1.3478
 3811TIP3    H211440   2.438   5.495   2.118 -1.4787 -3.1147  1.4540
 3812TIP3   OH211441   3.228   3.610   0.883  0.2265  0.1958 -0.1568
 3812TIP3    H111442   3.272   3.608   0.968 -0.4863  2.3077  0.3330
 3812TIP3    H211443   3.299   3.616   0.820  0.7971 -2.1491  0.1833
 3813TIP3   OH211444   3.943   2.385   2.657  0.0833  0.1896 -0.3612
 3813TIP3    H111445   3.879   2.315   2.659  0.9058 -0.5823 -0.1941
 3813TIP3    H211446   3.931   2.427   2.572 -1.0269  0.4445 -0.0851
 3814TIP3   OH211447   3.369   4.433   3.436  0.0076  0.3780 -0.4416
 3814TIP3    H111448   3.326   4.410   3.354  1.3591 -1.7872 -0.6203
 3814TIP3    H211449   3.343   4.364   3.497  0.1877  1.1576  0.5419
 3815TIP3   OH211450   2.438   5.536   2.781 -0.0690 -0.3686 -0.0851
 3815TIP3    H111451   2.448   5.509   2.872 -2.2460 -1.2609 -0.0502
 3815TIP3    H211452   2.383   5.614   2.785 -0.0100 -0.2933 -0.6327
 3816TIP3   OH211453   0.457   3.541   2.125  0.1974 -0.6625  0.6943
 3816TIP3    H111454   0.499   3.549   2.039 -0.9192 -0.8450  0.1056
 3816TIP3    H211455   0.382   3.483   2.109 -1.2117  0.9031  1.3447
 3817TIP3   OH211456   1.123   2.015   5.046  0.4050 -0.0939  0.1698
 3817TIP3    H111457   1.131   2.078   5.118 -2.2935  1.4442 -0.7339
 3817TIP3    H211458   1.112   2.069   4.968 -3.0523 -1.5321 -0.5196
 3818TIP3   OH211459   4.328   2.859   0.661 -0.2328 -0.1572  0.2932
 3818TIP3    H111460   4.269   2.896   0.595  1.7834 -0.0318 -1.5320
 3818TIP3    H211461   4.380   2.934   0.691  1.5752 -0.8376 -0.9619
 3819TIP3   OH211462   3.703   1.625   1.201 -0.0235  0.4768 -0.1590
 3819TIP3    H111463   3.729   1.715   1.222  0.7671  0.0641  0.7360
 3819TIP3    H211464   3.633   1.605   1.263  0.8328 -0.0139  0.6820
 3820TIP3   OH211465   1.582   1.448   1.525  0.0487 -0.2631 -0.0714
 3820TIP3    H111466   1.612   1.434   1.615 -0.0474 -1.2371 -0.1819
 3820TIP3    H211467   1.650   1.409   1.471  0.7736  1.5173 -0.4869
 3821TIP3   OH211468   4.012   3.085   1.378  0.4963  0.1044  0.2349
 3821TIP3    H111469   3.982   3.174   1.395  1.5346  0.4901  0.1770
 3821TIP3    H211470   4.054   3.091   1.292  4.2924  0.6097  1.9056
 3822TIP3   OH211471   2.150   5.521   4.547 -0.7070 -0.4529  0.2420
 3822TIP3    H111472   2.230   5.539   4.596  0.3498 -0.2063 -1.4766
 3822TIP3    H211473   2.117   5.608   4.523 -1.7335 -0.5404  1.2714
 3823TIP3   OH211474   1.199   5.988   1.399 -0.2579  0.2192  0.7938
 3823TIP3    H111475   1.261   5.954   1.336  0.6760  1.8191  0.8003
 3823TIP3    H211476   1.115   5.991   1.353  0.0815 -0.1404  0.1586
 3824TIP3   OH211477   3.936   4.110   1.751 -0.0845 -0.5017  0.3991
 3824TIP3    H111478   3.958   4.020   1.728  1.1715 -0.0653 -0.1441
 3824TIP3    H211479   4.020   4.156   1.754 -0.5290  0.2851  2.3089
 3825TIP3   OH211480   4.440   0.106   3.098  0.0990 -0.1275 -0.5203
 3825TIP3    H111481   4.437   0.189   3.052  2.0236  0.2604 -0.0293
 3825TIP3    H211482   4.506   0.054   3.051 -0.9790 -1.3502 -0.7496
 3826TIP3   OH211483   2.776   4.762   1.372  0.5145 -0.0815  0.5884
 3826TIP3    H111484   2.836   4.816   1.424 -0.5704 -0.1586  1.9715
 3826TIP3    H211485   2.706   4.821   1.346 -0.3345 -0.6341  1.5437
 3827TIP3   OH211486   2.219   4.363   0.138  0.0403  0.3189  0.4890
 3827TIP3    H111487   2.135   4.396   0.106  0.2695  0.1964 -0.2447
 3827TIP3    H211488   2.206   4.353   0.232  0.1228  3.0052  0.8614
 3828TIP3   OH211489   1.866   1.152   0.603  0.1974  0.9662 -0.0329
 3828TIP3    H111490   1.868   1.192   0.516  0.9260  0.8835 -0.0556
 3828TIP3    H211491   1.776   1.165   0.632  0.3012  2.2777 -0.2119
 3829TIP3   OH211492   5.021   3.486   4.889  0.5241  0.0340  0.0665
 3829TIP3    H111493   4.970   3.407   4.907  0.3018 -0.1662 -1.3164
 3829TIP3    H211494   4.955   3.551   4.863  0.8131  0.3375  0.0892
 3830TIP3   OH211495   5.237   2.754   3.632  0.0654 -0.3458  0.5614
 3830TIP3    H111496   5.291   2.767   3.554 -0.9902  2.1024  0.1484
 3830TIP3    H211497   5.251   2.832   3.685  0.2636 -1.6735  2.5895
 3831TIP3   OH211498   0.487   0.304   4.627  0.6158  0.2406 -0.0453
 3831TIP3    H111499   0.392   0.316   4.637  0.2565 -1.2184 -1.2641
 3831TIP3    H211500   0.495   0.234   4.562  2.5242 -0.5110  0.9309
 3832TIP3   OH211501   0.088   1.036   3.475 -0.3892 -0.2040 -0.2495
 3832TIP3    H111502   0.181   1.015   3.478 -0.0311  1.1623 -0.9795
 3832TIP3    H211503   0.044   0.952   3.465  0.7811 -0.8337 -0.2117
 3833TIP3   OH211504   3.667   2.820   2.311 -0.2174 -0.0588  0.2318
 3833TIP3    H111505   3.613   2.751   2.351 -1.2958  0.8917  0.4782
 3833TIP3    H211506   3.715   2.775   2.241 -0.5662 -1.1474  0.6632
 3834TIP3   OH211507   4.896   1.705   2.584  0.1277 -0.2908 -0.1514
 3834TIP3    H111508   4.844   1.629   2.609 -0.6261  1.2324  3.6254
 3834TIP3    H211509   4.979   1.669   2.553 -0.7830 -2.6266 -0.0224
 3835TIP3   OH211510   1.649   2.523   0.662  0.0574  0.1686  0.1054
 3835TIP3    H111511   1.641   2.618   0.665  0.5373  0.2077  0.2985
 3835TIP3    H211512   1.744   2.507   0.659 -0.0354 -0.2760 -0.8408
 3836TIP3   OH211513   2.147   3.074   5.032  0.1519  0.1805  0.0282
 3836TIP3    H111514   2.106   2.988   5.037  1.3821 -0.4650 -0.6827
 3836TIP3    H211515   2.127   3.115   5.116 -1.5958 -0.2506 -0.1487
 3837TIP3   OH211516   6.066   3.722   4.128  0.7628 -0.5005 -0.6005
 3837TIP3    H111517   6.057   3.705   4.221 -0.1894 -1.9767 -0.9310
 3837TIP3    H211518   5.987   3.770   4.104  0.7463 -0.6008 -0.7497
 3838TIP3   OH211519   2.306   0.687   0.542 -0.0882 -0.6694  0.2486
 3838TIP3    H111520   2.307   0.612   0.602 -0.9078  0.3693  1.6245
 3838TIP3    H211521   2.292   0.763   0.599 -1.2373  0.3375 -1.2977
 3839TIP3   OH211522   2.592   4.210   2.948 -0.2782 -0.4444  0.0840
 3839TIP3    H111523   2.650   4.280   2.979 -0.2659 -0.6249  0.4853
 3839TIP3    H211524   2.572   4.233   2.858 -2.2587  1.4139  0.8934
 3840TIP3   OH211525   4.199   0.854   2.937  0.5895 -0.5386  0.1110
 3840TIP3    H111526   4.235   0.907   2.865  0.0963 -1.1347 -0.5954
 3840TIP3    H211527   4.115   0.822   2.902  0.6954 -1.4552  0.6783
 3841TIP3   OH211528   4.418   1.429   0.272 -0.0631 -0.1774  1.2446
 3841TIP3    H111529   4.377   1.363   0.217 -1.7947  0.3859  1.7749
 3841TIP3    H211530   4.434   1.503   0.213  0.2907 -0.4496  1.0033
 3842TIP3   OH211531   4.875   0.109   2.848 -0.1561  0.0811 -0.0426
 3842TIP3    H111532   4.817   0.120   2.923  0.4225  0.1584  0.4022
 3842TIP3    H211533   4.848   0.177   2.787 -0.8803 -0.2226 -0.0702
 3843TIP3   OH211534   4.795   3.830   4.459  0.6686 -0.3287 -0.0845
 3843TIP3    H111535   4.879   3.788   4.443  1.2487  0.6243  0.3258
 3843TIP3    H211536   4.744   3.816   4.379  1.9265  0.7110 -1.1123
 3844TIP3   OH211537   1.736   2.105   4.824  0.1397 -0.1814 -0.0668
 3844TIP3    H111538   1.775   2.045   4.888  3.3940  2.2866  0.4785
 3844TIP3    H211539   1.729   2.053   4.744  4.0663 -1.0983 -0.0048
 3845TIP3   OH211540   3.992   3.003   2.170 -0.0981 -0.5028  0.2269
 3845TIP3    H111541   3.997   3.078   2.110 -0.6071  0.5932  1.5038
 3845TIP3    H211542   3.919   3.024   2.228  1.4546 -0.6685  2.3517
 3846TIP3   OH211543   3.977   3.827   0.809 -0.1984 -0.2700 -0.0249
 3846TIP3    H111544   4.009   3.764   0.873  0.3437  0.3358  0.3109
 3846TIP3    H211545   4.014   3.798   0.726 -1.8425 -1.7415 -0.3087
 3847TIP3   OH211546   0.044   2.092   4.165  0.0958  0.1892 -0.0930
 3847TIP3    H111547   0.022   2.185   4.165 -0.0434  0.1584  0.4312
 3847TIP3    H211548   0.000   2.057   4.088 -0.4566  0.4152  0.1138
 3848TIP3   OH211549   2.091   2.247   4.655 -0.3754  0.3675  0.0614
 3848TIP3    H111550   2.001   2.281   4.661 -0.6632 -0.0514 -1.5116
 3848TIP3    H211551   2.127   2.260   4.743 -2.5776 -1.1536  1.2828
 3849TIP3   OH211552   3.853   0.715   0.615 -0.2076 -0.1132 -0.1102
 3849TIP3    H111553   3.795   0.715   0.538 -1.1131  2.0568  0.4720
 3849TIP3    H211554   3.825   0.792   0.665  1.0488 -0.8769  1.8792
 3850TIP3   OH211555   6.319   4.017   0.753 -0.3177 -0.1618 -0.4633
 3850TIP3    H111556   6.270   4.080   0.701 -0.3746 -0.5289 -0.8635
 3850TIP3    H211557   6.311   3.935   0.705  0.1241 -0.3761 -0.1802
 3851TIP3   OH211558   3.197   0.531   3.182  0.5997  0.0493 -0.2384
 3851TIP3    H111559   3.228   0.593   3.248 -0.9577  0.9718 -0.3318
 3851TIP3    H211560   3.102   0.546   3.178  0.4350 -1.1661 -1.4858
 3852TIP3   OH211561   3.958   0.918   2.405 -0.3701 -0.5459  0.7880
 3852TIP3    H111562   3.907   1.000   2.403  1.3150  0.5502 -1.4175
 3852TIP3    H211563   4.042   0.944   2.442  0.8160 -0.7823 -1.5502
 3853TIP3   OH211564   5.455   0.206   0.618 -0.3437  0.1092  0.0439
 3853TIP3    H111565   5.527   0.238   0.564 -0.3647 -0.2005 -0.1660
 3853TIP3    H211566   5.390   0.175   0.555 -0.0849 -0.8748  0.2537
 3854TIP3   OH211567   5.103   2.168   2.300 -0.1881 -0.1381  0.3153
 3854TIP3    H111568   5.174   2.232   2.285 -1.1909  0.8357 -0.4578
 3854TIP3    H211569   5.082   2.136   2.212 -0.9376 -0.1555  0.4988
 3855TIP3   OH211570   4.196   4.581   0.924 -0.9539 -0.2915  0.4573
 3855TIP3    H111571   4.286   4.586   0.892 -2.0325  1.1950 -2.7842
 3855TIP3    H211572   4.169   4.673   0.933 -2.6473 -0.6803 -0.3417
 3856TIP3   OH211573   2.293   4.463   4.538 -0.2603  0.2141  0.2112
 3856TIP3    H111574   2.290   4.559   4.548 -1.8049  0.2381 -0.2348
 3856TIP3    H211575   2.309   4.449   4.445  0.9443  0.0199  0.4368
 3857TIP3   OH211576   0.079   2.070   1.516  0.0671 -0.3515 -0.1956
 3857TIP3    H111577   0.145   2.055   1.449 -2.0287 -0.5970 -2.3378
 3857TIP3    H211578  -0.001   2.031   1.481 -1.6249  1.3371  1.5041
 3858TIP3   OH211579   1.214   4.343   2.739 -0.6780 -0.3275  0.0096
 3858TIP3    H111580   1.190   4.306   2.824 -3.0114 -0.1063 -0.4906
 3858TIP3    H211581   1.212   4.269   2.678 -1.0030 -0.1419 -0.2072
 3859TIP3   OH211582   4.328   0.832   2.145 -0.3197  0.0833 -0.3070
 3859TIP3    H111583   4.307   0.795   2.231 -1.5602  1.1815 -0.1277
 3859TIP3    H211584   4.410   0.880   2.159  0.7266 -1.6040 -0.2960
 3860TIP3   OH211585   2.827   5.208   0.661 -0.3537 -0.0853 -0.5686
 3860TIP3    H111586   2.797   5.210   0.570  0.6646 -0.1547 -0.9179
 3860TIP3    H211587   2.851   5.117   0.677 -1.7339 -0.3463  0.1987
 3861TIP3   OH211588   0.684   0.117   4.861  0.1750  0.0007 -0.3598
 3861TIP3    H111589   0.765   0.065   4.852 -0.2696 -0.7768  0.0166
 3861TIP3    H211590   0.633   0.096   4.783 -0.7786 -1.5503  0.6229
 3862TIP3   OH211591   5.119   5.032   4.861  0.3129  0.2817 -0.6010
 3862TIP3    H111592   5.152   5.119   4.838  0.5954  0.1228 -0.7901
 3862TIP3    H211593   5.180   4.999   4.927  0.2299  0.2052 -0.5609
 3863TIP3   OH211594   4.936   4.258   0.518 -0.5344  0.0691  0.0674
 3863TIP3    H111595   4.937   4.323   0.448 -0.9783 -0.1535 -0.1522
 3863TIP3    H211596   5.002   4.193   0.491  0.0162  0.4995  0.3621
 3864TIP3   OH211597   1.486   4.059   5.212 -0.5044  0.6937 -0.1130
 3864TIP3    H111598   1.455   4.008   5.137  1.2272  0.0566 -0.4528
 3864TIP3    H211599   1.498   4.147   5.178 -0.7373  0.6530 -0.3038
 3865TIP3   OH211600   2.999   4.872   2.554  0.1896 -0.3701  0.3653
 3865TIP3    H111601   2.965   4.794   2.509 -0.5455  0.8564 -1.2943
 3865TIP3    H211602   3.015   4.935   2.484 -0.4833  1.4509  1.7785
 3866TIP3   OH211603   4.362   5.162   3.437  0.1183 -0.4000 -0.5478
 3866TIP3    H111604   4.339   5.088   3.493  0.9851 -0.6947 -0.5697
 3866TIP3    H211605   4.435   5.205   3.482  1.4624 -1.1932 -1.8725
 3867TIP3   OH211606   6.158   2.598   0.277 -1.2532 -0.2332  0.3749
 3867TIP3    H111607   6.239   2.638   0.309 -0.9820  2.4046 -3.0380
 3867TIP3    H211608   6.088   2.651   0.315 -1.0745  1.0174 -0.9957
 3868TIP3   OH211609   2.805   3.328   3.673  0.0324 -0.1369 -0.0973
 3868TIP3    H111610   2.840   3.412   3.701 -0.5809  0.5746 -1.3825
 3868TIP3    H211611   2.712   3.330   3.697  0.3606 -1.1744  1.4211
 3869TIP3   OH211612   2.400   3.168   2.765 -0.1017 -0.2073  0.4037
 3869TIP3    H111613   2.415   3.198   2.675  0.8175 -1.8311 -0.0139
 3869TIP3    H211614   2.352   3.086   2.755  1.1652 -1.0812  1.3490
 3870TIP3   OH211615   5.106   4.893   1.886 -0.1609 -0.1804  0.2156
 3870TIP3    H111616   5.082   4.896   1.793  2.1135 -2.0204 -0.5191
 3870TIP3    H211617   5.062   4.816   1.920  0.1850 -0.3467  0.2872
 3871TIP3   OH211618   2.171   3.753   0.406 -0.2584  0.0081  0.0570
 3871TIP3    H111619   2.152   3.704   0.326 -0.9668 -1.5489  1.1459
 3871TIP3    H211620   2.256   3.793   0.389 -0.1858 -0.6670 -1.3062
 3872TIP3   OH211621   5.204   3.023   3.115  0.3995 -0.2063  0.0951
 3872TIP3    H111622   5.153   2.959   3.064  1.6916 -0.1411 -1.3637
 3872TIP3    H211623   5.212   3.099   3.057 -1.4983  1.5569  1.9626
 3873TIP3   OH211624   3.493   0.341   1.382 -0.1829 -0.6400  0.1548
 3873TIP3    H111625   3.448   0.291   1.451  0.0218 -0.4156  0.4513
 3873TIP3    H211626   3.540   0.275   1.332 -0.3427 -0.8076  0.2226
 3874TIP3   OH211627   2.534   3.484   3.184  0.0136  0.0476  0.1463
 3874TIP3    H111628   2.526   3.392   3.159 -1.7855  0.0622  0.5972
 3874TIP3    H211629   2.453   3.504   3.229  0.9821  1.4847  1.3211
 3875TIP3   OH211630   5.171   0.490   4.260  0.3251  0.0168 -0.0030
 3875TIP3    H111631   5.174   0.395   4.268  1.1888  0.1035  0.8125
 3875TIP3    H211632   5.260   0.519   4.276  0.1845  0.9375 -0.7855
 3876TIP3   OH211633   4.274   1.027   2.724 -0.3001 -0.0783 -0.7404
 3876TIP3    H111634   4.281   1.105   2.781  2.0012 -0.6828 -0.0763
 3876TIP3    H211635   4.260   1.063   2.637  0.1862  1.0852 -0.3688
 3877TIP3   OH211636   5.948   1.880   0.109 -0.2919 -0.2229  0.5384
 3877TIP3    H111637   5.913   1.921   0.189 -0.7220 -1.3464  0.9459
 3877TIP3    H211638   5.886   1.810   0.089 -0.1500  0.0081 -0.7627
 3878TIP3   OH211639   3.775   4.805   4.631  0.2788  0.3677 -0.3697
 3878TIP3    H111640   3.711   4.805   4.560 -0.0590 -0.0093 -0.0693
 3878TIP3    H211641   3.763   4.721   4.675  0.1600  0.7902  0.4239
 3879TIP3   OH211642   0.790   3.059   0.756 -0.3003  0.4188 -0.0580
 3879TIP3    H111643   0.733   3.038   0.682  0.9984  0.3540 -1.0893
 3879TIP3    H211644   0.806   3.153   0.747 -1.2023  0.6873  0.9506
 3880TIP3   OH211645   2.633   3.420   0.063 -0.3726  0.9462  0.1437
 3880TIP3    H111646   2.619   3.369   0.143 -0.0355  0.7420  0.0724
 3880TIP3    H211647   2.632   3.356  -0.008 -1.0363  1.1709 -0.0594
 3881TIP3   OH211648   4.760   1.828   3.792  0.1327  0.0152 -0.1136
 3881TIP3    H111649   4.724   1.855   3.708  0.2634 -0.7403 -0.4188
 3881TIP3    H211650   4.817   1.901   3.818  0.5479 -0.0035 -0.9603
 3882TIP3   OH211651   2.092   2.121   0.687  0.1855 -0.0813  0.1685
 3882TIP3    H111652   2.082   2.041   0.738 -2.8702  0.5624  0.8077
 3882TIP3    H211653   2.074   2.192   0.749 -0.5837  0.8774 -1.0948
 3883TIP3   OH211654   1.643   5.417   4.794 -0.1819  0.2768  0.1818
 3883TIP3    H111655   1.599   5.351   4.847 -1.9367 -0.5647 -2.1319
 3883TIP3    H211656   1.589   5.496   4.804 -0.8518 -0.0451 -0.7089
 3884TIP3   OH211657   3.027   2.244   4.666  0.1045  0.2322  0.2611
 3884TIP3    H111658   2.937   2.256   4.695  0.1432  2.4715 -0.3483
 3884TIP3    H211659   3.080   2.293   4.729  0.6593  0.8406 -0.6449
 3885TIP3   OH211660   1.714   5.390   1.314  0.0948  0.0454 -0.3886
 3885TIP3    H111661   1.624   5.369   1.289 -0.0703  0.2950 -0.0085
 3885TIP3    H211662   1.712   5.394   1.410  0.2457  1.1854 -0.4174
 3886TIP3   OH211663   6.013   4.663   2.097 -0.1311  0.2123 -0.2542
 3886TIP3    H111664   6.010   4.573   2.127 -1.9044 -0.0883 -1.1709
 3886TIP3    H211665   5.960   4.712   2.159  2.5099  1.1198  1.4793
 3887TIP3   OH211666   2.755   2.285   1.123 -0.1826 -0.0555  0.2811
 3887TIP3    H111667   2.798   2.205   1.094 -3.2135 -2.3968  1.7465
 3887TIP3    H211668   2.802   2.308   1.204  0.7259 -0.2837 -0.1615
 3888TIP3   OH211669   4.342   3.353   1.648  0.2752 -0.3694  0.1551
 3888TIP3    H111670   4.359   3.441   1.680  0.3449 -0.2226 -0.2865
 3888TIP3    H211671   4.368   3.296   1.721 -1.9031  0.0466  1.3336
 3889TIP3   OH211672   1.394   3.142   4.383 -0.0630 -0.5859 -0.2021
 3889TIP3    H111673   1.324   3.090   4.423  0.4729 -0.8855  0.3644
 3889TIP3    H211674   1.352   3.187   4.310 -0.6111 -1.5829 -0.5190
 3890TIP3   OH211675   0.893   2.969   4.260  0.2281  0.2686  0.1910
 3890TIP3    H111676   0.976   2.921   4.261 -0.1592 -0.4162  0.0421
 3890TIP3    H211677   0.888   3.007   4.173  0.7600  0.9994  0.4633
 3891TIP3   OH211678   0.753   5.184   4.250  0.0229 -0.5670 -0.2478
 3891TIP3    H111679   0.703   5.238   4.189 -0.3824 -1.2198 -0.5043
 3891TIP3    H211680   0.780   5.107   4.198 -0.2534 -1.0876  0.3657
 3892TIP3   OH211681   4.350   5.637   3.001 -0.2150  0.0017 -0.1158
 3892TIP3    H111682   4.306   5.697   3.060  0.2489  0.9550 -0.7256
 3892TIP3    H211683   4.443   5.650   3.017 -0.0340  1.2182 -1.9330
 3893TIP3   OH211684   4.281   0.466   0.630  0.0387  0.4103 -0.7568
 3893TIP3    H111685   4.262   0.389   0.684 -1.1791  1.7150  0.7850
 3893TIP3    H211686   4.270   0.436   0.540 -0.7275 -1.1365 -0.1747
 3894TIP3   OH211687   0.846   2.831   1.361  0.1517 -0.4285 -0.0247
 3894TIP3    H111688   0.868   2.763   1.426  0.1834 -2.8247 -2.3627
 3894TIP3    H211689   0.760   2.805   1.328 -1.1361  2.3255  0.9128
 3895TIP3   OH211690   3.714   1.162   0.979  0.3581 -0.1258 -0.0703
 3895TIP3    H111691   3.792   1.214   0.999 -0.6616  0.8999  1.3791
 3895TIP3    H211692   3.653   1.181   1.050 -0.3783 -2.7000  0.0922
 3896TIP3   OH211693   3.958   5.575   2.482  0.2412 -0.0228 -0.2413
 3896TIP3    H111694   3.926   5.515   2.550 -0.4607  2.0272  1.3175
 3896TIP3    H211695   4.050   5.587   2.502 -0.0582  0.8921  0.6068
 3897TIP3   OH211696   0.675   0.809   0.081  0.4301  0.2486  0.5556
 3897TIP3    H111697   0.716   0.895   0.082  0.4626  0.2701 -0.8953
 3897TIP3    H211698   0.748   0.748   0.069  0.2881  0.0909  0.4885
 3898TIP3   OH211699   2.760   5.202   1.198  0.1653 -0.2491  0.1888
 3898TIP3    H111700   2.842   5.172   1.237  0.0213 -1.3635 -0.3138
 3898TIP3    H211701   2.758   5.162   1.111 -0.8495 -0.1556  0.1494
 3899TIP3   OH211702   1.971   4.571   1.950 -0.6184 -0.5328 -0.0904
 3899TIP3    H111703   2.007   4.568   2.038 -1.6663 -0.9196  0.3476
 3899TIP3    H211704   1.910   4.497   1.947 -1.3236  0.0607 -0.8037
 3900TIP3   OH211705   4.078   2.567   0.899 -0.0771  0.3765 -0.3634
 3900TIP3    H111706   4.118   2.551   0.984  0.5573 -0.4001 -0.7927
 3900TIP3    H211707   4.142   2.535   0.836 -1.4127 -1.0136 -1.0728
 3901TIP3   OH211708   0.590   0.249   3.448  0.2522 -0.1590 -0.6635
 3901TIP3    H111709   0.620   0.337   3.471 -0.5608  0.0524 -0.3798
 3901TIP3    H211710   0.657   0.216   3.388 -0.6577  1.6268 -2.8222
 3902TIP3   OH211711   2.518   5.580   0.762 -0.4884  0.3946  0.7306
 3902TIP3    H111712   2.590   5.517   0.758 -2.1175 -1.4814 -2.0366
 3902TIP3    H211713   2.441   5.531   0.733 -2.2548  3.1440  0.4306
 3903TIP3   OH211714   6.175   2.194   0.875  0.0585  0.1131 -0.2033
 3903TIP3    H111715   6.103   2.223   0.820 -0.0117  2.4996  0.9751
 3903TIP3    H211716   6.254   2.218   0.825  0.0592 -1.2632 -0.9007
 3904TIP3   OH211717   5.126   2.554   4.328  0.3186  0.4687  0.4163
 3904TIP3    H111718   5.214   2.525   4.353  0.6597 -0.9673 -2.0536
 3904TIP3    H211719   5.141   2.630   4.272  0.3819 -1.5854 -2.6102
 3905TIP3   OH211720   5.557   1.444   4.867 -0.3996 -0.4127  0.3249
 3905TIP3    H111721   5.463   1.457   4.855 -0.2910  0.8671  0.6966
 3905TIP3    H211722   5.597   1.520   4.823  0.5264 -1.5145 -0.8075
 3906TIP3   OH211723   0.376   1.227   4.524  0.2783 -0.2636  0.5945
 3906TIP3    H111724   0.304   1.288   4.514 -0.6332 -1.4689 -0.4646
 3906TIP3    H211725   0.349   1.169   4.595  1.0371  0.3685  1.4357
 3907TIP3   OH211726   0.986   2.528   2.957  0.0053  0.0688 -0.0913
 3907TIP3    H111727   1.080   2.537   2.972  0.2234  0.4155 -1.5753
 3907TIP3    H211728   0.945   2.573   3.031  0.9738 -1.1603  1.2380
 3908TIP3   OH211729   4.044   1.045   0.898  0.0488  0.5106 -0.2223
 3908TIP3    H111730   4.009   1.117   0.951  3.7044  0.4414  2.6486
 3908TIP3    H211731   4.016   0.966   0.943  0.3000  0.3287 -0.3839
 3909TIP3   OH211732   4.697   2.038   0.517  0.0190 -0.4840 -0.1496
 3909TIP3    H111733   4.618   1.983   0.516  0.0169 -0.5307  1.0869
 3909TIP3    H211734   4.694   2.082   0.601  1.6146 -0.9076  0.1557
 3910TIP3   OH211735   3.733   4.636   2.935  0.9917 -0.1041 -0.0115
 3910TIP3    H111736   3.727   4.701   2.865  2.0358 -0.1859 -0.1985
 3910TIP3    H211737   3.802   4.670   2.993 -0.3938  0.3790  1.4314
 3911TIP3   OH211738   4.403   5.085   4.047  0.0697 -0.0976  0.4302
 3911TIP3    H111739   4.418   5.133   3.966  0.1457  0.0519  0.5300
 3911TIP3    H211740   4.314   5.051   4.040 -0.4535  1.1214  0.8842
 3912TIP3   OH211741   3.456   0.975   0.427 -0.1574  0.0979  0.4536
 3912TIP3    H111742   3.494   0.930   0.503  1.6499  0.5077 -0.1643
 3912TIP3    H211743   3.504   1.058   0.422 -0.9653  0.5231 -0.5409
 3913TIP3   OH211744   1.520   3.240   4.785 -0.5337 -0.3420 -0.1856
 3913TIP3    H111745   1.608   3.266   4.813  0.3022 -1.6720 -1.4531
 3913TIP3    H211746   1.477   3.323   4.762  0.9191  0.2307 -0.9900
 3914TIP3   OH211747   2.270   5.574   2.224 -0.0125  0.1964 -0.0107
 3914TIP3    H111748   2.307   5.590   2.311 -0.6347 -0.6437  0.4180
 3914TIP3    H211749   2.260   5.661   2.185 -0.3850  0.6272  1.0369
 3915TIP3   OH211750   4.500   2.885   3.484 -0.1538 -0.0898  0.1423
 3915TIP3    H111751   4.542   2.874   3.399  0.6647 -0.3994  0.5715
 3915TIP3    H211752   4.508   2.979   3.503  0.0680 -0.0939  0.0769
 3916TIP3   OH211753   1.893   4.960   1.538  0.0553 -0.6455  0.2781
 3916TIP3    H111754   1.922   4.892   1.477  0.0879  0.6726 -1.2381
 3916TIP3    H211755   1.944   4.944   1.618  0.0404 -2.3853 -0.0184
 3917TIP3   OH211756   4.756   1.083   5.038  0.4412  0.0499 -0.2592
 3917TIP3    H111757   4.686   1.124   5.087  0.3351 -0.5109  0.0596
 3917TIP3    H211758   4.829   1.077   5.100  0.2261 -0.8832 -0.0825
 3918TIP3   OH211759   1.147   4.104   4.701  0.7138 -0.2686  0.2714
 3918TIP3    H111760   1.098   4.162   4.642 -0.5816 -1.0471  0.5655
 3918TIP3    H211761   1.153   4.153   4.783  1.5598  0.3506 -0.1358
 3919TIP3   OH211762   3.204   0.819   1.025 -0.3021  0.6665  0.0420
 3919TIP3    H111763   3.182   0.800   1.116  0.1892  1.0770  0.2557
 3919TIP3    H211764   3.300   0.816   1.023 -0.3328 -0.2537 -0.6702
 3920TIP3   OH211765   0.960   1.726   0.617  0.4912  0.9278  0.0720
 3920TIP3    H111766   0.948   1.727   0.712  0.6205  1.0662  0.0878
 3920TIP3    H211767   1.055   1.739   0.605  0.8835 -1.5802 -0.0103
 3921TIP3   OH211768   3.698   5.052   1.984 -0.1306  0.6464 -0.0832
 3921TIP3    H111769   3.689   5.032   1.891 -0.8267 -0.3090  0.1741
 3921TIP3    H211770   3.739   5.139   1.986  0.9935  0.1718 -1.2605
 3922TIP3   OH211771   2.890   2.813   2.568 -0.1666  0.0942 -0.2021
 3922TIP3    H111772   2.975   2.855   2.581  0.2651 -0.6864 -0.3691
 3922TIP3    H211773   2.829   2.862   2.622 -0.1154  2.2301 -1.9597
 3923TIP3   OH211774   2.816   2.318   3.428 -0.0326  0.4295  0.3231
 3923TIP3    H111775   2.796   2.264   3.351 -0.2118 -0.9946  1.3412
 3923TIP3    H211776   2.832   2.405   3.392 -0.3946 -0.1407 -1.3028
 3924TIP3   OH211777   3.262   4.124   1.714  0.0568 -0.2244  0.2053
 3924TIP3    H111778   3.292   4.163   1.796  1.5283 -1.8998  0.5408
 3924TIP3    H211779   3.342   4.105   1.665 -0.7377 -0.2704 -1.1457
 3925TIP3   OH211780   4.549   1.945   1.745 -0.1595 -0.0352 -0.3271
 3925TIP3    H111781   4.567   1.953   1.651  1.9682  0.7719  0.0992
 3925TIP3    H211782   4.632   1.968   1.787 -1.2199  0.1253  1.7779
 3926TIP3   OH211783   0.588   2.061   1.804  0.4419 -0.5292 -0.5276
 3926TIP3    H111784   0.583   2.122   1.877 -0.7193 -0.3676 -0.7196
 3926TIP3    H211785   0.504   2.071   1.758  0.9944 -0.8842 -1.6694
 3927TIP3   OH211786   2.964   3.492   4.117  0.3903 -0.1757 -0.2393
 3927TIP3    H111787   2.963   3.557   4.188 -0.6954  0.3952 -0.7552
 3927TIP3    H211788   3.020   3.532   4.050  0.3121 -0.1030 -0.2613
 3928TIP3   OH211789   5.346   4.625   2.163 -0.2054  0.2405  0.1751
 3928TIP3    H111790   5.307   4.557   2.109 -0.3533 -0.5201  1.2124
 3928TIP3    H211791   5.274   4.655   2.219 -0.2399  1.5192 -0.5030
 3929TIP3   OH211792   5.332   1.827   4.593  0.4414  0.3530  0.2132
 3929TIP3    H111793   5.330   1.770   4.517  1.5125  1.3612 -0.6043
 3929TIP3    H211794   5.391   1.898   4.569  2.1673 -0.1538  2.6201
 3930TIP3   OH211795   6.296   5.124   3.913  0.1351  0.1056 -0.4174
 3930TIP3    H111796   6.377   5.073   3.916 -0.5303 -0.9462  0.0084
 3930TIP3    H211797   6.316   5.204   3.962  0.4876 -0.8003  0.9808
 3931TIP3   OH211798   2.206   3.094   0.080 -0.4846 -0.6625 -0.0643
 3931TIP3    H111799   2.242   3.097   0.168 -1.9655  0.4375  0.5533
 3931TIP3    H211800   2.135   3.030   0.085  0.0230 -1.2953 -0.7207
 3932TIP3   OH211801   4.791   1.142   2.299 -0.1997 -0.0105 -0.4666
 3932TIP3    H111802   4.753   1.160   2.385  1.7455 -0.0813  0.4731
 3932TIP3    H211803   4.798   1.046   2.296 -0.5397 -0.0246 -0.8363
 3933TIP3   OH211804   1.941   0.403   4.760  0.5801  0.4442 -0.2362
 3933TIP3    H111805   1.866   0.385   4.817 -0.1043  0.4848 -1.1080
 3933TIP3    H211806   1.909   0.386   4.671  1.1934  1.7417 -0.7389
 3934TIP3   OH211807   1.351   3.511   1.890  0.3375 -0.3856 -0.1507
 3934TIP3    H111808   1.406   3.525   1.813  2.1752 -2.5621  0.6431
 3934TIP3    H211809   1.293   3.439   1.865 -0.1197 -0.0778  0.0086
 3935TIP3   OH211810   4.712   3.852   0.212 -0.2854 -0.1157  0.2797
 3935TIP3    H111811   4.740   3.770   0.252 -2.0457 -0.0518  1.7386
 3935TIP3    H211812   4.701   3.830   0.119  1.8725 -0.7807  0.1161
 3936TIP3   OH211813   2.386   4.785   2.929 -0.5287  0.0605 -0.3961
 3936TIP3    H111814   2.331   4.725   2.978 -1.3417  0.6125 -0.6194
 3936TIP3    H211815   2.332   4.812   2.854  0.8116 -1.0869 -1.8578
 3937TIP3   OH211816   5.986   4.005   2.455  0.2460 -0.5038 -0.8194
 3937TIP3    H111817   5.902   3.959   2.461 -1.2183  2.1188  0.5063
 3937TIP3    H211818   5.975   4.067   2.384  0.6444  0.5988  0.0511
 3938TIP3   OH211819   4.432   2.703   2.413  0.0500 -0.1674  0.0701
 3938TIP3    H111820   4.433   2.742   2.326 -0.9573 -1.4272 -0.5368
 3938TIP3    H211821   4.519   2.722   2.449  0.1039  1.3072 -0.7676
 3939TIP3   OH211822   5.267   2.816   4.418  0.1534 -0.1911 -0.2207
 3939TIP3    H111823   5.236   2.819   4.327  2.9611  1.4212 -1.2552
 3939TIP3    H211824   5.252   2.904   4.452 -0.2511 -0.5892  0.6546
 3940TIP3   OH211825   1.848   3.320   1.057 -0.5764  0.5426 -0.0721
 3940TIP3    H111826   1.816   3.394   1.005 -0.0369 -0.5884 -2.0833
 3940TIP3    H211827   1.793   3.321   1.136 -0.3084  3.3053  0.1743
 3941TIP3   OH211828   2.048   5.793   0.339  0.0499 -0.2188  0.2179
 3941TIP3    H111829   2.033   5.872   0.391 -0.4850  0.7826 -1.3849
 3941TIP3    H211830   1.987   5.801   0.266  2.2088 -0.4739 -1.7302
 3942TIP3   OH211831   2.536   2.507   0.332 -0.2914 -0.2286  0.3612
 3942TIP3    H111832   2.488   2.590   0.329 -0.4226 -0.2760  1.0504
 3942TIP3    H211833   2.622   2.530   0.365 -0.3708 -0.3820  0.6820
 3943TIP3   OH211834   0.468   4.122   1.423 -0.0024 -0.1919 -0.2630
 3943TIP3    H111835   0.539   4.064   1.453 -1.0603 -0.5603  1.7466
 3943TIP3    H211836   0.512   4.190   1.373  1.8794 -0.0390  1.4675
 3944TIP3   OH211837   5.836   3.381   4.874 -0.1470 -0.2176  0.7020
 3944TIP3    H111838   5.850   3.307   4.933 -0.5359 -1.0957 -0.2650
 3944TIP3    H211839   5.909   3.377   4.812 -0.9819 -0.7377 -0.2783
 3945TIP3   OH211840   0.084   2.638   1.067 -0.1053  0.4469 -0.1994
 3945TIP3    H111841   0.175   2.669   1.074 -0.0280 -0.2070  2.8256
 3945TIP3    H211842   0.035   2.693   1.127 -1.6281  0.3540 -1.3163
 3946TIP3   OH211843   2.115   5.924   1.346  0.0636 -0.0273  0.3206
 3946TIP3    H111844   2.207   5.948   1.349 -0.3225  1.5280  0.5092
 3946TIP3    H211845   2.114   5.839   1.302  1.8294 -1.4678  2.7852
 3947TIP3   OH211846   1.267   3.883   3.299  0.2147  0.4043 -0.4135
 3947TIP3    H111847   1.185   3.924   3.325  0.0687  0.4480 -0.9454
 3947TIP3    H211848   1.293   3.831   3.375 -1.2376 -1.0665 -0.8700
 3948TIP3   OH211849   2.668   4.549   1.503 -0.0440  0.2695  0.5446
 3948TIP3    H111850   2.650   4.634   1.464  0.1158  1.0214  2.0230
 3948TIP3    H211851   2.763   4.548   1.514 -0.0267 -0.1843  0.3491
 3949TIP3   OH211852   4.510   4.151   4.444  0.0800  0.2064 -0.1445
 3949TIP3    H111853   4.583   4.142   4.382  0.4554 -0.5315  0.3820
 3949TIP3    H211854   4.495   4.062   4.475  0.5664  0.6962  1.5694
 3950TIP3   OH211855   4.007   1.994   0.957 -0.5722  0.3204 -0.1798
 3950TIP3    H111856   4.022   2.088   0.945  1.2449  0.0210 -0.5650
 3950TIP3    H211857   3.918   1.988   0.992 -0.9163  2.1418 -0.6504
 3951TIP3   OH211858   4.439   2.454   3.907 -0.4217  0.3016  0.1030
 3951TIP3    H111859   4.424   2.363   3.931 -1.1899  0.5782  0.6985
 3951TIP3    H211860   4.492   2.490   3.978  1.8863 -0.2533 -1.2322
 3952TIP3   OH211861   5.654   4.160   5.080 -0.3701 -0.6957  0.6953
 3952TIP3    H111862   5.656   4.226   5.149 -2.4756 -0.3607  0.5042
 3952TIP3    H211863   5.669   4.209   4.999  1.1108 -0.9432  0.7942
 3953TIP3   OH211864   0.026   4.469   4.777  0.2636  0.1985  0.3532
 3953TIP3    H111865   0.078   4.393   4.751 -1.1265 -0.8083  0.3967
 3953TIP3    H211866   0.004   4.514   4.695 -0.0987 -0.2694  0.1869
 3954TIP3   OH211867   3.421   2.919   0.424 -0.2719 -0.2154  0.3167
 3954TIP3    H111868   3.354   2.987   0.433 -0.8796 -0.8189  0.4576
 3954TIP3    H211869   3.392   2.849   0.483  2.4560  0.9966  3.4377
 3955TIP3   OH211870   2.270   0.010   1.096 -0.1670 -0.3479 -0.1990
 3955TIP3    H111871   2.255   0.019   1.002 -0.9675  0.0483 -0.0458
 3955TIP3    H211872   2.309   0.093   1.123  0.6896 -0.7146 -0.2913
 3956TIP3   OH211873   2.115   0.286   0.714 -0.1103  0.0827 -0.1887
 3956TIP3    H111874   2.073   0.347   0.775  0.8707  0.9598 -0.3493
 3956TIP3    H211875   2.050   0.270   0.646  0.1365  2.2582 -1.0185
 3957TIP3   OH211876   5.708   0.529   3.871 -0.7659 -0.2986  0.4227
 3957TIP3    H111877   5.739   0.605   3.821 -0.4128 -1.1385 -0.6861
 3957TIP3    H211878   5.671   0.566   3.951 -0.3905  1.0204  0.0120
 3958TIP3   OH211879   6.315   0.211   4.822  0.1058  0.0845  0.0910
 3958TIP3    H111880   6.386   0.254   4.775 -0.2182  2.1112  1.3328
 3958TIP3    H211881   6.313   0.122   4.787  1.9611  0.5563 -1.3540
 3959TIP3   OH211882   4.968   1.567   1.487  0.2593  0.3702  0.2331
 3959TIP3    H111883   4.943   1.587   1.578  0.7919  0.7537  0.3002
 3959TIP3    H211884   5.037   1.630   1.467  0.2204  0.2151 -0.4065
 3960TIP3   OH211885   2.499   1.944   4.370 -0.0094 -0.6604  0.2658
 3960TIP3    H111886   2.576   1.981   4.414 -0.1668 -0.0407  0.0290
 3960TIP3    H211887   2.533   1.869   4.322  0.8793  0.8520 -1.6051
 3961TIP3   OH211888   5.546   3.366   1.581 -0.0107 -0.3357 -0.2234
 3961TIP3    H111889   5.471   3.410   1.621  0.6607 -0.2403  0.9748
 3961TIP3    H211890   5.552   3.405   1.494 -0.7303  0.3928  0.0310
 3962TIP3   OH211891   1.489   4.814   3.335 -0.3561  0.2010  0.0392
 3962TIP3    H111892   1.398   4.783   3.337 -0.3063 -0.0665 -1.2692
 3962TIP3    H211893   1.488   4.890   3.277  0.8611 -2.0765 -3.3059
 3963TIP3   OH211894   1.683   5.293   0.608 -0.5830  0.4564 -0.5134
 3963TIP3    H111895   1.704   5.285   0.701  1.0129  1.6189 -0.7362
 3963TIP3    H211896   1.764   5.270   0.563 -0.9557  1.1636 -1.5768
 3964TIP3   OH211897   5.197   5.700   4.107  0.2685 -0.2573 -0.1902
 3964TIP3    H111898   5.289   5.701   4.134  0.4420 -0.4719 -0.7645
 3964TIP3    H211899   5.198   5.727   4.015 -0.2562 -0.1335 -0.1648
 3965TIP3   OH211900   2.003   5.251   2.866  0.2802  0.1452 -0.0213
 3965TIP3    H111901   2.090   5.272   2.831  0.7380  0.2489  1.1384
 3965TIP3    H211902   1.945   5.257   2.790  0.9196  2.3510 -0.4331
 3966TIP3   OH211903   1.787   5.278   0.869 -0.6659 -0.7411 -0.2403
 3966TIP3    H111904   1.846   5.216   0.911 -0.6935 -1.1257 -0.7670
 3966TIP3    H211905   1.819   5.364   0.896 -0.2801 -0.9664  0.0236
 3967TIP3   OH211906   0.492   1.821   3.048  0.4419  0.2092 -0.1729
 3967TIP3    H111907   0.432   1.757   3.011  1.5751 -0.3648 -1.0937
 3967TIP3    H211908   0.534   1.861   2.972  0.8742  0.9435  0.4387
 3968TIP3   OH211909   0.821   2.626   1.557 -0.4850  0.0969  0.3639
 3968TIP3    H111910   0.730   2.604   1.536 -0.5444 -0.6594  1.3025
 3968TIP3    H211911   0.827   2.613   1.652  0.8736 -0.9590  0.1767
 3969TIP3   OH211912   3.611   1.323   1.357  0.9317  0.2532 -0.0052
 3969TIP3    H111913   3.703   1.351   1.355  0.8383  0.7208  1.2134
 3969TIP3    H211914   3.602   1.280   1.442 -0.5155  2.1763  0.8909
 3970TIP3   OH211915   1.500   5.946   1.798 -0.1720  0.3065 -0.3869
 3970TIP3    H111916   1.570   6.009   1.815  0.2868 -0.1733 -0.4771
 3970TIP3    H211917   1.492   5.896   1.880 -0.7335  0.6648 -0.2149
 3971TIP3   OH211918   4.855   3.320   0.422 -0.0854  0.1830  0.4201
 3971TIP3    H111919   4.933   3.265   0.434  0.6446  0.9896 -0.4665
 3971TIP3    H211920   4.831   3.348   0.510 -0.9044 -2.0869  0.9936
 3972TIP3   OH211921   5.117   3.545   2.136 -0.4450 -0.5115 -0.1869
 3972TIP3    H111922   5.077   3.505   2.058  1.1944 -0.7347 -0.9553
 3972TIP3    H211923   5.117   3.475   2.201 -2.1501 -0.2208  0.1543
 3973TIP3   OH211924   1.459   0.707   3.542 -0.1099  0.0159  0.5601
 3973TIP3    H111925   1.504   0.638   3.590  0.4736 -0.2325 -0.3171
 3973TIP3    H211926   1.382   0.665   3.506  0.2828 -0.2120 -0.0342
 3974TIP3   OH211927   3.758   2.979   4.953  0.3654 -0.4404 -0.3723
 3974TIP3    H111928   3.841   3.026   4.945  0.4845 -0.3805  1.0550
 3974TIP3    H211929   3.695   3.045   4.982  0.0516 -0.7107 -0.4311
 3975TIP3   OH211930   4.669   1.011   0.027 -0.5290 -1.1928  0.6756
 3975TIP3    H111931   4.730   0.939   0.012 -0.1716 -0.4169 -2.1110
 3975TIP3    H211932   4.726   1.085   0.052 -0.4076 -0.7745 -0.7732
 3976TIP3   OH211933   3.609   3.666   2.544 -0.0413  0.0306  0.0765
 3976TIP3    H111934   3.617   3.734   2.611  2.7018 -2.1859  2.2457
 3976TIP3    H211935   3.558   3.597   2.586  0.1933 -0.6800 -0.7716
 3977TIP3   OH211936   3.025   5.118   1.277 -0.0417  0.5521 -0.1683
 3977TIP3    H111937   3.027   5.213   1.275 -1.2446  0.6097 -2.2836
 3977TIP3    H211938   3.057   5.091   1.190 -3.1515 -0.7569 -1.0637
 3978TIP3   OH211939   3.029   3.668   5.159  0.1146  0.5591  0.1647
 3978TIP3    H111940   3.035   3.717   5.078 -1.9184  0.5646 -0.0159
 3978TIP3    H211941   3.021   3.577   5.132 -1.3711  0.6261  0.2845
 3979TIP3   OH211942   1.440   0.662   2.021  0.2019 -0.1227 -1.0790
 3979TIP3    H111943   1.397   0.657   1.936  0.1700  0.8551 -1.1305
 3979TIP3    H211944   1.368   0.659   2.084  0.0535  1.2907 -1.1585
 3980TIP3   OH211945   0.646   3.496   3.414  0.0952  0.0028  0.0225
 3980TIP3    H111946   0.689   3.440   3.350 -1.9430 -1.1273 -0.4492
 3980TIP3    H211947   0.565   3.522   3.371  0.5892  2.7039  0.5620
 3981TIP3   OH211948   3.563   2.220   2.328 -0.3601 -0.5284 -0.3146
 3981TIP3    H111949   3.625   2.188   2.262 -2.2898 -2.1290 -1.4729
 3981TIP3    H211950   3.480   2.178   2.305 -1.5248  0.2537  2.1298
 3982TIP3   OH211951   5.813   1.806   1.247 -0.7046  0.1203  0.2276
 3982TIP3    H111952   5.761   1.887   1.251  0.2334  0.8789 -1.7245
 3982TIP3    H211953   5.752   1.739   1.216 -0.5635  1.0675 -2.3464
 3983TIP3   OH211954   4.480   4.773   1.442  0.0740 -0.1360  0.0376
 3983TIP3    H111955   4.569   4.774   1.409  0.8145  1.9069  1.9058
 3983TIP3    H211956   4.438   4.849   1.402 -0.2383  0.0405  0.6938
 3984TIP3   OH211957   3.376   5.874   2.359 -0.1375 -0.7692  0.0786
 3984TIP3    H111958   3.297   5.928   2.350  0.4736  0.0071 -0.8437
 3984TIP3    H211959   3.371   5.838   2.447 -2.8673 -2.8918 -0.7787
 3985TIP3   OH211960   6.178   2.039   1.356 -0.8824 -0.2062 -0.6424
 3985TIP3    H111961   6.140   1.952   1.345  1.5902 -1.3983 -0.6286
 3985TIP3    H211962   6.210   2.062   1.269  2.5491 -1.4997  0.0943
 3986TIP3   OH211963   0.501   2.059   3.185 -0.8269  0.2263  0.2877
 3986TIP3    H111964   0.480   1.979   3.136 -1.2428  0.0714  0.7094
 3986TIP3    H211965   0.421   2.112   3.179 -0.9567  0.1142  0.9686
 3987TIP3   OH211966   3.547   2.766   0.945 -0.4392 -0.3927 -0.1667
 3987TIP3    H111967   3.491   2.817   1.003  0.1472  1.5151 -1.1947
 3987TIP3    H211968   3.635   2.799   0.961  0.4092 -2.9369  0.9960
 3988TIP3   OH211969   1.182   0.816   1.367 -0.0585  0.2854 -0.4810
 3988TIP3    H111970   1.102   0.767   1.347  0.3393 -0.1355 -1.1027
 3988TIP3    H211971   1.153   0.888   1.423 -0.7121 -0.4411  0.1336
 3989TIP3   OH211972   1.447   5.730   0.167 -0.0288  0.4024  0.4045
 3989TIP3    H111973   1.485   5.818   0.162  1.5670 -0.2531  0.2590
 3989TIP3    H211974   1.507   5.681   0.223  1.1160 -1.5065 -2.2327
 3990TIP3   OH211975   1.302   0.222   4.823  0.1848 -0.3330  0.4128
 3990TIP3    H111976   1.358   0.288   4.783 -0.1567 -0.7986 -0.8892
 3990TIP3    H211977   1.221   0.269   4.843  0.3343 -0.1127  0.5100
 3991TIP3   OH211978   0.368   2.857   2.066  0.1055  0.6550  0.2138
 3991TIP3    H111979   0.280   2.820   2.059  0.0964  1.0501 -3.2921
 3991TIP3    H211980   0.358   2.949   2.039  1.5025  0.8595  0.3097
 3992TIP3   OH211981   5.081   0.712   5.074 -0.4776  0.3218 -1.1942
 3992TIP3    H111982   5.083   0.782   5.008  0.2469  1.5557  0.0725
 3992TIP3    H211983   5.173   0.689   5.087 -0.5775  0.3737 -0.3491
 3993TIP3   OH211984   0.310   5.316   4.067  0.8245  0.4841 -0.0543
 3993TIP3    H111985   0.248   5.255   4.029 -1.1397  1.2743  1.7145
 3993TIP3    H211986   0.373   5.333   3.997  1.2822 -3.2243 -0.7369
 3994TIP3   OH211987   6.238   5.286   0.709  0.0853 -0.1074 -0.3602
 3994TIP3    H111988   6.271   5.359   0.656  2.2859 -0.8156 -0.0728
 3994TIP3    H211989   6.206   5.222   0.645 -0.4295  0.4609 -0.6746
 3995TIP3   OH211990   2.112   5.859   4.821 -0.0418  0.1940  0.8585
 3995TIP3    H111991   2.180   5.803   4.858  0.5284  0.9025  0.9131
 3995TIP3    H211992   2.144   5.884   4.735 -0.8978 -0.6146  0.2911
 3996TIP3   OH211993   1.331   4.753   4.082 -0.3637 -0.0483 -0.6522
 3996TIP3    H111994   1.329   4.695   4.007  2.0884 -2.7894  1.1629
 3996TIP3    H211995   1.364   4.836   4.048  0.6140 -1.1825 -2.6102
 3997TIP3   OH211996   6.337   1.960   3.253  0.0981  0.1606 -0.6429
 3997TIP3    H111997   6.283   1.993   3.181 -0.3297  1.6931  0.3354
 3997TIP3    H211998   6.330   2.027   3.321  1.0059 -0.9405  0.5900
 3998TIP3   OH211999   6.250   3.713   2.354 -0.4181 -0.3395 -0.0592
 3998TIP3    H112000   6.217   3.703   2.265 -1.6111 -1.1416  0.4373
 3998TIP3    H212001   6.172   3.734   2.406  0.2479  0.0417  0.8112
 3999TIP3   OH212002   1.672   2.942   0.232  0.0905  0.6775 -0.3975
 3999TIP3    H112003   1.709   2.978   0.313  0.0925  1.8507 -0.9030
 3999TIP3    H212004   1.582   2.975   0.230 -0.1599  0.0148 -0.5050
 4000TIP3   OH212005   2.617   4.577   4.008  0.2566 -0.0370 -0.1222
 4000TIP3    H112006   2.569   4.652   4.044 -0.4568  0.0828 -1.2945
 4000TIP3    H212007   2.549   4.512   3.990  0.9313 -1.2734  1.5231
 4001TIP3   OH212008   5.832   5.755   3.749  0.2231 -0.8251 -0.0465
 4001TIP3    H112009   5.828   5.742   3.844  0.1897  1.1387  0.2649
 4001TIP3    H212010   5.815   5.849   3.737  2.6876 -0.5286 -1.8301
 4002TIP3   OH212011   0.441   4.576   3.279  0.5032 -0.4407  0.3604
 4002TIP3    H112012   0.359   4.575   3.230  1.2120  1.7851 -1.0371
 4002TIP3    H212013   0.507   4.546   3.217  1.1115  0.3127  0.6195
 4003TIP3   OH212014   0.446   5.781   2.220  0.6617 -0.0684  0.0038
 4003TIP3    H112015   0.362   5.811   2.254  1.0249 -0.0378  0.9018
 4003TIP3    H212016   0.492   5.746   2.297  1.9517  1.0306 -0.2213
 4004TIP3   OH212017   5.597   4.269   2.210 -0.1567 -0.6196  0.4960
 4004TIP3    H112018   5.630   4.247   2.297  0.8285 -0.9416  0.0496
 4004TIP3    H212019   5.649   4.344   2.182 -1.1468  0.1195  0.5775
 4005TIP3   OH212020   5.150   4.807   2.998 -1.3250 -0.4009  0.0698
 4005TIP3    H112021   5.226   4.818   2.941 -0.2709  1.6577  1.7266
 4005TIP3    H212022   5.173   4.732   3.054 -1.0287 -0.5010 -0.1794
 4006TIP3   OH212023   2.213   1.208   3.048  0.3746 -0.2412  0.1794
 4006TIP3    H112024   2.307   1.202   3.034  0.0925 -1.0825 -1.6274
 4006TIP3    H212025   2.176   1.136   2.996 -1.4325  1.5031 -1.0965
 4007TIP3   OH212026   4.991   2.707   0.047  0.6527 -0.2541  0.0026
 4007TIP3    H112027   5.071   2.658   0.065  0.8653 -0.3159 -1.0811
 4007TIP3    H212028   4.933   2.644   0.003  0.8002  0.3459 -1.0888
 4008TIP3   OH212029   2.263   4.857   2.682 -0.2675 -0.2886 -0.0469
 4008TIP3    H112030   2.347   4.890   2.649 -0.8687  0.8988 -0.4566
 4008TIP3    H212031   2.257   4.769   2.646  0.8531 -0.4432  0.0824
 4009TIP3   OH212032   4.178   4.652   1.589 -0.0949  0.5830 -0.0572
 4009TIP3    H112033   4.135   4.567   1.583 -0.2555  0.7718 -3.1097
 4009TIP3    H212034   4.270   4.635   1.567 -0.1114  1.1752 -0.6250
 4010TIP3   OH212035   1.111   1.033   0.849  0.4722  0.3446  0.1345
 4010TIP3    H112036   1.080   1.043   0.759 -0.3135 -0.8299  0.2524
 4010TIP3    H212037   1.189   0.978   0.841  0.4137  0.2568  0.1616
 4011TIP3   OH212038   1.387   3.786   0.139  0.7807 -0.2019  0.0786
 4011TIP3    H112039   1.309   3.831   0.107  0.0847 -1.1540  0.3998
 4011TIP3    H212040   1.451   3.856   0.151  0.2695  0.4894 -1.0087
 4012TIP3   OH212041   5.878   0.448   0.138 -0.1449  0.7123 -0.9745
 4012TIP3    H112042   5.960   0.485   0.105  0.4209 -0.3429 -0.8244
 4012TIP3    H212043   5.839   0.404   0.062 -0.4881  1.0547 -1.0011
 4013TIP3   OH212044   5.668   5.096   5.112  0.1908 -0.2680  0.2167
 4013TIP3    H112045   5.661   5.161   5.042  0.8509 -0.9277 -0.4803
 4013TIP3    H212046   5.611   5.129   5.181 -0.6456  0.2978 -0.7108
 4014TIP3   OH212047   0.571   3.181   1.081 -0.2832  0.4442 -0.0437
 4014TIP3    H112048   0.658   3.220   1.073 -0.1771  0.1648 -0.2543
 4014TIP3    H212049   0.523   3.242   1.136  0.0531  0.5902  0.0925
 4015TIP3   OH212050   0.882   1.785   4.048  0.0440  0.1570 -0.4599
 4015TIP3    H112051   0.798   1.755   4.012  0.1368  0.5385 -1.0113
 4015TIP3    H212052   0.875   1.769   4.142 -0.3221 -0.5915 -0.6024
 4016TIP3   OH212053   4.229   3.972   1.399  0.7195  0.8240 -0.2611
 4016TIP3    H112054   4.312   3.938   1.367  0.0961  0.1702 -1.2319
 4016TIP3    H212055   4.190   4.017   1.324 -0.7631 -0.7382 -0.4974
 4017TIP3   OH212056   2.562   0.331   0.827  0.6215 -0.0526 -0.2868
 4017TIP3    H112057   2.587   0.421   0.850  0.7009 -0.3796  0.9588
 4017TIP3    H212058   2.642   0.280   0.839  0.0625 -0.6441  1.1179
 4018TIP3   OH212059   5.231   2.918   0.527  0.0875 -0.2807 -0.3926
 4018TIP3    H112060   5.234   2.837   0.578  2.4309  0.3611  0.6207
 4018TIP3    H212061   5.235   2.890   0.436 -1.4827 -1.3444 -0.1851
 4019TIP3   OH212062   0.955   3.319   0.260 -0.1717 -0.2874 -0.4268
 4019TIP3    H112063   0.998   3.294   0.342 -0.2418  0.9890  0.0246
 4019TIP3    H212064   0.899   3.393   0.284 -0.0160  0.2567 -1.6635
 4020TIP3   OH212065   1.398   2.384   3.170  1.0169  0.0988 -0.4207
 4020TIP3    H112066   1.321   2.441   3.175  0.8400 -0.0654 -1.1756
 4020TIP3    H212067   1.365   2.302   3.134  1.4653 -0.1257 -0.3302
 4021TIP3   OH212068   2.735   1.810   4.476 -0.3667  0.5700 -0.4855
 4021TIP3    H112069   2.807   1.767   4.523 -1.2537  0.1311  0.5350
 4021TIP3    H212070   2.668   1.742   4.469  0.0219  0.3728 -3.1599
 4022TIP3   OH212071   0.158   3.226   1.003 -0.1099 -0.2820  0.2791
 4022TIP3    H112072   0.091   3.229   1.070  0.1024  0.6974  0.4717
 4022TIP3    H212073   0.213   3.151   1.026 -0.8124 -0.7610  0.4233
 4023TIP3   OH212074   3.361   2.754   3.135  0.6606  0.0503 -0.3350
 4023TIP3    H112075   3.275   2.796   3.135  0.7190  0.2681 -2.1903
 4023TIP3    H212076   3.346   2.669   3.175  0.1194  1.0079  1.6133
 4024TIP3   OH212077   1.560   1.694   0.459 -0.2033 -0.1132 -0.7118
 4024TIP3    H112078   1.550   1.760   0.527  0.6174  0.0313 -0.7211
 4024TIP3    H212079   1.478   1.644   0.461 -1.9359  2.4148 -2.3519
 4025TIP3   OH212080   4.937   0.564   0.130  1.1568 -0.5140 -0.3178
 4025TIP3    H112081   4.859   0.604   0.168  1.0676  0.1228 -1.1610
 4025TIP3    H212082   4.967   0.626   0.064  1.1061 -1.7496 -1.5362
 4026TIP3   OH212083   2.867   1.164   2.798  0.3971  0.4300  0.1102
 4026TIP3    H112084   2.912   1.096   2.749 -0.4046 -0.2246  0.2587
 4026TIP3    H212085   2.937   1.211   2.844  1.2987  1.6797 -2.3432
 4027TIP3   OH212086   2.419   2.880   1.468  0.4127  0.1940  0.4256
 4027TIP3    H112087   2.498   2.838   1.433  0.2071 -0.8356  1.1558
 4027TIP3    H212088   2.384   2.930   1.394  1.4417  0.2137 -0.0655
 4028TIP3   OH212089   0.678   3.884   2.410  0.0149 -0.2848  0.4224
 4028TIP3    H112090   0.676   3.803   2.359  1.2674  0.2043 -0.4623
 4028TIP3    H212091   0.764   3.883   2.453 -0.2161  0.2768  0.9078
 4029TIP3   OH212092   4.555   3.804   5.033  0.5858 -0.0695 -0.0186
 4029TIP3    H112093   4.582   3.848   5.113  3.2648  0.6195 -1.1760
 4029TIP3    H212094   4.626   3.742   5.015  0.5102  0.4283 -2.3130
 4030TIP3   OH212095   2.728   3.750   1.549 -0.4683 -0.2291 -0.4089
 4030TIP3    H112096   2.735   3.782   1.458 -0.0105 -0.4505 -0.4534
 4030TIP3    H212097   2.783   3.810   1.599  1.5907 -1.7539 -0.7028
 4031TIP3   OH212098   3.803   5.544   3.182  0.1756 -0.1296  0.3571
 4031TIP3    H112099   3.830   5.581   3.266 -2.1484  0.7738  0.7853
 4031TIP3    H212100   3.808   5.616   3.120  0.2131 -0.3518  0.0971
 4032TIP3   OH212101   5.559   4.695   4.107  0.1951 -0.0208  0.2526
 4032TIP3    H112102   5.637   4.749   4.116  1.2992 -1.2855 -1.1347
 4032TIP3    H212103   5.530   4.711   4.017 -1.8716  1.2981  1.0883
 4033TIP3   OH212104   2.739   3.725   3.962 -0.1367  0.1204  0.0542
 4033TIP3    H112105   2.660   3.714   4.015  0.3226 -1.2309  0.5001
 4033TIP3    H212106   2.736   3.653   3.900  1.9099 -1.4786  1.6342
 4034TIP3   OH212107   3.331   2.241   4.329  0.3563  0.1564 -0.2753
 4034TIP3    H112108   3.281   2.183   4.386  2.9225 -1.5540  0.4301
 4034TIP3    H212109   3.318   2.329   4.365  0.4587 -0.6619  1.8899
 4035TIP3   OH212110   5.865   3.695   1.567 -0.3173  0.3588 -0.1153
 4035TIP3    H112111   5.873   3.601   1.549  0.3406  0.0839  1.4690
 4035TIP3    H212112   5.827   3.731   1.487  0.7318 -1.0393 -1.3148
 4036TIP3   OH212113   0.856   3.339   3.830  0.7700  0.5356 -0.3316
 4036TIP3    H112114   0.803   3.382   3.763  0.4526 -3.0154 -2.6362
 4036TIP3    H212115   0.922   3.290   3.781  0.5227 -2.2845  1.8625
 4037TIP3   OH212116   3.568   3.919   3.439  0.3803 -0.6371  0.2924
 4037TIP3    H112117   3.630   3.991   3.452 -1.5023  1.3799 -1.2008
 4037TIP3    H212118   3.503   3.931   3.507  1.4572 -2.6935  1.7960
 4038TIP3   OH212119   2.459   1.972   0.211  0.3605  0.8018  0.6731
 4038TIP3    H112120   2.470   2.066   0.201  0.1348  0.7158 -0.5994
 4038TIP3    H212121   2.543   1.941   0.243  0.5240  1.4071  0.8355
 4039TIP3   OH212122   2.437   3.256   4.749  0.4161 -0.3032 -0.2140
 4039TIP3    H112123   2.423   3.231   4.657  2.0969  0.8458 -0.8346
 4039TIP3    H212124   2.474   3.177   4.789 -2.3935 -1.5595  0.1090
 4040TIP3   OH212125   0.892   4.860   4.657 -0.6347 -0.1400  0.1336
 4040TIP3    H112126   0.915   4.854   4.564 -0.9521  1.3755 -0.0681
 4040TIP3    H212127   0.966   4.908   4.696 -0.4496 -0.8745  0.6926
 4041TIP3   OH212128   4.684   3.564   0.541  0.3989  0.1361  0.1649
 4041TIP3    H112129   4.664   3.658   0.543  0.4398  0.1741 -0.6842
 4041TIP3    H212130   4.665   3.538   0.451  1.7407 -0.3710  0.0020
 4042TIP3   OH212131   5.791   1.646   5.131 -0.4171  0.2992  0.0882
 4042TIP3    H112132   5.701   1.625   5.155  0.0747 -1.1571  0.7278
 4042TIP3    H212133   5.819   1.709   5.197  0.3489 -2.3562  2.4899
 4043TIP3   OH212134   1.949   4.228   4.286  0.5865  0.0470  0.1076
 4043TIP3    H112135   1.888   4.162   4.320 -0.0980  0.6156  0.0098
 4043TIP3    H212136   1.999   4.256   4.362  2.5073 -2.1825 -0.1861
 4044TIP3   OH212137   1.723   1.468   0.433 -0.3979 -0.2334 -0.3925
 4044TIP3    H112138   1.718   1.468   0.337  2.7151 -0.0089 -0.6422
 4044TIP3    H212139   1.675   1.547   0.459  1.6394  1.6823 -2.0589
 4045TIP3   OH212140   2.999   5.924   3.652  0.1243  0.8246  0.4863
 4045TIP3    H112141   3.035   5.846   3.694  0.4202 -0.5868 -2.1827
 4045TIP3    H212142   2.905   5.909   3.650  0.3555 -1.2182 -2.9202
 4046TIP3   OH212143   5.889   5.792   4.023  0.1743  0.4415 -0.3675
 4046TIP3    H112144   5.971   5.810   3.977  0.1466 -0.1655 -0.6754
 4046TIP3    H212145   5.911   5.802   4.115  1.4130 -2.5416 -0.2283
 4047TIP3   OH212146   5.169   1.937   3.689  0.6304 -0.3170  0.1283
 4047TIP3    H112147   5.166   1.879   3.613 -1.4566 -0.6602  0.4176
 4047TIP3    H212148   5.137   2.021   3.657 -1.0213 -0.6713  0.7549
 4048TIP3   OH212149   5.323   0.942   3.127  0.0265 -0.2641 -0.2287
 4048TIP3    H112150   5.307   0.989   3.209  1.0662  0.5570 -0.4878
 4048TIP3    H212151   5.372   0.864   3.153 -0.4037 -0.4572  0.0208
 4049TIP3   OH212152   5.927   3.242   2.255  0.5629 -0.1998 -0.2211
 4049TIP3    H112153   5.943   3.330   2.288  0.9310 -0.3385 -0.0167
 4049TIP3    H212154   6.013   3.214   2.221  0.6495 -0.7889  0.4702
 4050TIP3   OH212155   2.231   0.319   4.188  0.4133  0.8528  0.3197
 4050TIP3    H112156   2.143   0.292   4.214  0.0564  1.6527 -0.0281
 4050TIP3    H212157   2.274   0.238   4.162  0.3174  0.2337  2.0101
 4051TIP3   OH212158   2.887   2.267   1.367 -0.2449 -0.0700  0.6226
 4051TIP3    H112159   2.857   2.199   1.429 -0.7824  0.9144  1.4772
 4051TIP3    H212160   2.884   2.348   1.418 -0.4288  0.7299 -0.6376
 4052TIP3   OH212161   3.331   3.089   0.718 -1.0984 -0.2396 -0.4540
 4052TIP3    H112162   3.372   3.014   0.761 -2.9499  0.0106  1.9822
 4052TIP3    H212163   3.396   3.159   0.723 -0.9598 -0.4554  1.3045
 4053TIP3   OH212164   0.834   4.636   4.840 -0.7237 -0.2862 -0.0804
 4053TIP3    H112165   0.843   4.671   4.752 -1.8465 -0.5868 -0.3268
 4053TIP3    H212166   0.778   4.699   4.885  0.1348  0.0518  0.5309
 4054TIP3   OH212167   3.166   3.495   3.099  0.5527  0.8826 -0.1227
 4054TIP3    H112168   3.193   3.544   3.021 -0.8545  1.4005 -0.3081
 4054TIP3    H212169   3.116   3.558   3.151 -2.1073 -0.5132 -0.7899
 4055TIP3   OH212170   0.415   3.304   0.021 -0.3952 -0.1281  0.3493
 4055TIP3    H112171   0.329   3.265   0.003  0.6815 -1.9830 -1.1716
 4055TIP3    H212172   0.477   3.238  -0.009  1.5746  1.2629  1.2153
 4056TIP3   OH212173   3.064   4.738   3.977 -0.2585 -0.0008  0.2136
 4056TIP3    H112174   3.017   4.707   4.054 -2.0546 -0.3620 -0.9658
 4056TIP3    H212175   3.145   4.775   4.012 -0.6632 -0.8231  2.1899
 4057TIP3   OH212176   4.631   5.687   3.675 -0.1957 -0.1532  0.4999
 4057TIP3    H112177   4.706   5.746   3.685 -0.3911  0.2042 -0.1030
 4057TIP3    H212178   4.566   5.739   3.627 -0.9356 -0.3667  1.2609
 4058TIP3   OH212179   5.648   5.071   3.393 -0.0775 -0.9188 -0.4112
 4058TIP3    H112180   5.559   5.078   3.358 -0.0003  0.1914 -0.4059
 4058TIP3    H212181   5.662   5.154   3.439  1.2659 -0.7421 -1.1108
 4059TIP3   OH212182   3.966   5.321   5.033 -0.1278 -0.0763  0.4268
 4059TIP3    H112183   4.010   5.384   5.091 -1.4428  1.0091  0.2902
 4059TIP3    H212184   3.927   5.257   5.092 -0.4458  0.3535  0.6933
 4060TIP3   OH212185   2.099   3.128   2.328  0.2829 -0.2221  0.1378
 4060TIP3    H112186   2.053   3.211   2.347  0.4383 -0.2540  0.6657
 4060TIP3    H212187   2.143   3.106   2.410  2.1246  0.3570 -0.6601
 4061TIP3   OH212188   0.227   1.817   2.383  0.3920 -0.5815 -0.5966
 4061TIP3    H112189   0.172   1.832   2.460 -0.6219  0.3053 -1.4648
 4061TIP3    H212190   0.215   1.895   2.329  1.0985 -1.1721 -1.6426
 4062TIP3   OH212191   1.084   5.742   3.222 -0.1245 -0.1257 -0.0172
 4062TIP3    H112192   1.055   5.806   3.286 -2.4949 -2.2930  1.2379
 4062TIP3    H212193   1.148   5.689   3.269 -1.3428 -1.2762  0.4048
 4063TIP3   OH212194   3.811   1.368   4.943 -0.1757  0.3513  0.2318
 4063TIP3    H112195   3.793   1.428   4.871 -2.9626 -0.9776 -0.3003
 4063TIP3    H212196   3.798   1.422   5.022  0.6905  1.2408 -0.2021
 4064TIP3   OH212197   2.557   1.950   0.638  0.2972  0.1307 -0.1798
 4064TIP3    H112198   2.651   1.938   0.629  0.0023 -1.4632 -1.6258
 4064TIP3    H212199   2.518   1.876   0.591 -1.6840  0.8857  0.1512
 4065TIP3   OH212200   5.000   3.733   2.501  0.0063 -0.0404 -0.1862
 4065TIP3    H112201   5.027   3.825   2.495  0.8792 -0.2424  0.4154
 4065TIP3    H212202   5.042   3.701   2.581  0.8396 -1.3273 -1.0894
 4066TIP3   OH212203   2.258   2.690   0.629  0.2545  0.4038 -1.0114
 4066TIP3    H112204   2.249   2.597   0.649  1.0731  0.7149  1.1579
 4066TIP3    H212205   2.180   2.711   0.578 -1.7673 -0.8017  1.3103
 4067TIP3   OH212206   3.511   3.219   3.164 -0.3905  0.1136 -0.3452
 4067TIP3    H112207   3.427   3.225   3.119  0.5885  0.9808 -2.1597
 4067TIP3    H212208   3.557   3.300   3.141  1.0110 -0.4150  0.4628
 4068TIP3   OH212209   2.901   4.291   1.825  0.4567 -0.6747  0.3101
 4068TIP3    H112210   2.989   4.298   1.863  0.8612  0.2742 -0.7325
 4068TIP3    H212211   2.873   4.202   1.846  1.0237 -0.4909  1.9921
 4069TIP3   OH212212   2.276   3.026   1.692 -0.2760  0.3350  0.3487
 4069TIP3    H112213   2.209   2.981   1.744 -0.8703 -0.1744 -0.8271
 4069TIP3    H212214   2.261   3.119   1.712 -2.1623  0.3350 -0.7998
 4070TIP3   OH212215   0.906   4.245   4.685  0.7404 -0.4546  0.3187
 4070TIP3    H112216   0.898   4.304   4.610  1.1109 -1.3008 -0.4009
 4070TIP3    H212217   0.850   4.284   4.752 -1.0360 -0.6111 -0.9945
 4071TIP3   OH212218   3.672   0.556   1.457 -0.4421  0.1354 -0.1714
 4071TIP3    H112219   3.620   0.619   1.505 -1.5991 -0.4332 -0.6251
 4071TIP3    H212220   3.613   0.482   1.442  0.3099 -0.2962 -1.2086
 4072TIP3   OH212221   1.364   3.151   4.048  0.0329  0.3206 -0.2942
 4072TIP3    H112222   1.392   3.064   4.020  2.2693  0.6269  0.7250
 4072TIP3    H212223   1.298   3.135   4.115  1.6272 -0.7188  1.1227
 4073TIP3   OH212224   2.647   1.280   0.039 -1.0179  0.2285  0.0246
 4073TIP3    H112225   2.698   1.207   0.002  0.8363  1.7551 -0.5770
 4073TIP3    H212226   2.598   1.316  -0.034 -0.7978  0.4879  0.0033
 4074TIP3   OH212227   3.790   4.265   0.561 -0.1114  0.1914  0.2406
 4074TIP3    H112228   3.828   4.338   0.513  0.3155 -0.0020  0.2802
 4074TIP3    H212229   3.828   4.187   0.521 -1.1568 -0.0488 -0.3156
 4075TIP3   OH212230   2.206   1.608   3.226  0.1593  0.2843 -0.4034
 4075TIP3    H112231   2.302   1.607   3.231  0.2865  1.8632 -1.7627
 4075TIP3    H212232   2.185   1.691   3.184 -1.8884  0.5010  0.9252
 4076TIP3   OH212233   0.788   5.012   0.885  0.3046 -0.9217 -0.0371
 4076TIP3    H112234   0.724   4.975   0.947  1.4784 -1.8565  0.6560
 4076TIP3    H212235   0.737   5.025   0.804 -1.1109 -0.2312  0.9209
 4077TIP3   OH212236   4.022   4.227   2.793  0.2283 -0.6290  0.1707
 4077TIP3    H112237   4.015   4.143   2.747 -1.0287 -0.6902  0.4602
 4077TIP3    H212238   3.933   4.259   2.800  0.8364  1.7205 -1.6831
 4078TIP3   OH212239   4.096   1.206   0.377  0.0607  0.3193  0.1598
 4078TIP3    H112240   4.123   1.298   0.371  0.3488  0.2435  0.2814
 4078TIP3    H212241   4.059   1.198   0.465 -2.7373  1.0505 -0.8592
 4079TIP3   OH212242   3.201   0.401   4.146 -0.0709 -0.1676 -0.2292
 4079TIP3    H112243   3.106   0.410   4.139 -0.1391 -0.4151  0.3388
 4079TIP3    H212244   3.234   0.489   4.129 -0.3905 -0.1154 -0.5955
 4080TIP3   OH212245   0.929   5.944   2.729 -0.3142 -0.9469 -0.1388
 4080TIP3    H112246   0.866   5.872   2.720  0.8252 -2.0391  0.2976
 4080TIP3    H212247   1.006   5.904   2.769  0.4639  0.4751 -0.1294
 4081TIP3   OH212248   2.738   2.226   4.032  0.3207  0.2174  0.2401
 4081TIP3    H112249   2.714   2.234   3.940  1.5585 -0.4608 -0.1581
 4081TIP3    H212250   2.797   2.300   4.048  0.9542 -0.2755  0.1993
 4082TIP3   OH212251   5.005   1.635   3.776 -0.4671 -0.2898  0.2168
 4082TIP3    H112252   5.006   1.633   3.871  1.4358  0.7350  0.2693
 4082TIP3    H212253   4.928   1.686   3.753 -0.9428 -0.5609  1.2056
 4083TIP3   OH212254   4.669   2.336   1.181 -0.0490 -0.1979  0.2711
 4083TIP3    H112255   4.634   2.249   1.199 -0.8229  0.1940  0.6642
 4083TIP3    H212256   4.652   2.350   1.088  0.5701 -0.6810  0.0763
 4084TIP3   OH212257   0.910   3.778   1.583  0.0435 -0.2137  0.2812
 4084TIP3    H112258   0.827   3.734   1.604 -0.9123  0.6076 -1.5918
 4084TIP3    H212259   0.953   3.787   1.668 -0.3530 -3.3898  0.9794
 4085TIP3   OH212260   5.124   5.972   0.889  0.0976  0.0878  0.0300
 4085TIP3    H112261   5.140   6.044   0.950  1.6261  0.2885 -0.5389
 4085TIP3    H212262   5.096   5.899   0.944  0.3889  0.5754  0.8439
 4086TIP3   OH212263   4.099   2.668   1.833  0.2652 -0.0110 -0.3542
 4086TIP3    H112264   4.007   2.682   1.811 -0.4699 -1.4189  1.5295
 4086TIP3    H212265   4.127   2.597   1.775  0.4106  0.8825 -1.4138
 4087TIP3   OH212266   4.090   2.234   0.852 -0.1942  0.3289  0.0370
 4087TIP3    H112267   4.071   2.262   0.762  1.4397 -3.0087 -1.5215
 4087TIP3    H212268   4.185   2.239   0.858 -0.1865 -0.7745  1.1015
 4088TIP3   OH212269   5.089   5.332   4.421  0.1782  0.7783  0.1522
 4088TIP3    H112270   5.037   5.345   4.500 -0.5775 -0.2350 -0.1575
 4088TIP3    H212271   5.024   5.314   4.352  0.9149 -0.3708 -0.2679
 4089TIP3   OH212272   5.027   1.092   2.796 -0.1136  0.4013 -0.7740
 4089TIP3    H112273   4.961   1.065   2.861  2.2809 -1.2180  1.1931
 4089TIP3    H212274   5.110   1.068   2.836  1.6691  1.6372 -3.4751
 4090TIP3   OH212275   4.072   2.459   4.085  0.4178  0.6699 -0.3355
 4090TIP3    H112276   3.981   2.466   4.113  0.6378  0.0032  0.6170
 4090TIP3    H212277   4.117   2.530   4.131  0.5740  0.2680  0.1566
 4091TIP3   OH212278   1.161   3.659   4.046  0.2520  0.5153 -0.3408
 4091TIP3    H112279   1.247   3.619   4.036 -0.2114 -0.6665  0.2142
 4091TIP3    H212280   1.153   3.718   3.972  0.6279 -1.0825 -1.7172
 4092TIP3   OH212281   5.960   5.690   0.651 -0.4506 -0.2017 -0.4135
 4092TIP3    H112282   6.042   5.731   0.622 -1.1232  0.9469 -0.7817
 4092TIP3    H212283   5.902   5.764   0.669 -2.2553 -0.9417 -2.6192
 4093TIP3   OH212284   1.955   2.849   3.547  0.6353  0.1439  0.2885
 4093TIP3    H112285   1.960   2.940   3.573 -2.9542  0.6385 -0.1935
 4093TIP3    H212286   1.944   2.801   3.629  0.5434  0.3939  0.4231
 4094TIP3   OH212287   4.143   1.547   1.318  0.2902  0.5034  0.2115
 4094TIP3    H112288   4.101   1.584   1.240  1.6041  0.4393 -0.5622
 4094TIP3    H212289   4.082   1.566   1.389  0.2920  3.0123 -0.3565
 4095TIP3   OH212290   0.116   5.573   4.442  0.8024 -0.3971  0.1241
 4095TIP3    H112291   0.044   5.546   4.386  0.9596 -0.6566  0.0492
 4095TIP3    H212292   0.140   5.495   4.492  0.8050 -0.2236  0.3962
 4096TIP3   OH212293   5.121   2.335   0.505 -0.3670 -0.8848  0.0530
 4096TIP3    H112294   5.135   2.245   0.533  0.2172 -0.4927  1.0750
 4096TIP3    H212295   5.153   2.388   0.578  0.5216  0.1748 -1.0736
 4097TIP3   OH212296   6.153   3.009   4.500  0.0921  0.2426  0.1271
 4097TIP3    H112297   6.089   2.986   4.568  0.6066  1.6548  1.1119
 4097TIP3    H212298   6.101   3.014   4.420 -0.8710  0.4025  0.7427
 4098TIP3   OH212299   4.644   1.323   4.674 -0.4505 -0.5781 -0.2945
 4098TIP3    H112300   4.634   1.231   4.652 -1.8263 -0.3847 -0.5764
 4098TIP3    H212301   4.647   1.368   4.590  1.2591 -0.4348 -0.1839
 4099TIP3   OH212302   1.632   2.797   2.764 -0.0184 -0.0036  0.8195
 4099TIP3    H112303   1.674   2.865   2.711 -0.7177 -0.6643 -0.6217
 4099TIP3    H212304   1.698   2.728   2.771 -0.4994 -0.6434 -0.6616
 4100TIP3   OH212305   4.877   3.231   3.906  0.4031 -0.2605 -0.0807
 4100TIP3    H112306   4.795   3.280   3.911  0.2133 -0.5521 -0.2516
 4100TIP3    H212307   4.945   3.294   3.930  0.0483 -0.2416  0.9140
 4101TIP3   OH212308   0.110   3.754   1.770  0.5342  0.1294 -0.1474
 4101TIP3    H112309   0.091   3.703   1.848  1.1098 -0.7873 -0.5891
 4101TIP3    H212310   0.082   3.843   1.792  1.4364  0.0678  1.3917
 4102TIP3   OH212311   0.851   1.262   4.505  0.3031  0.5087 -0.1766
 4102TIP3    H112312   0.822   1.348   4.537 -1.2914 -0.5671  1.4491
 4102TIP3    H212313   0.935   1.248   4.547 -0.5021  0.3121  1.4490
 4103TIP3   OH212314   5.494   4.403   1.364 -0.4369  0.1761 -0.1154
 4103TIP3    H112315   5.574   4.350   1.361  0.3271  1.3214 -0.7897
 4103TIP3    H212316   5.487   4.440   1.276 -0.3176  2.0885  0.6466
 4104TIP3   OH212317   1.938   1.217   1.752 -0.0885 -0.3951 -0.4213
 4104TIP3    H112318   1.925   1.160   1.676  0.2964  0.6136 -1.2798
 4104TIP3    H212319   2.018   1.184   1.794 -1.1266 -1.8911  0.4460
 4105TIP3   OH212320   4.181   0.257   0.784 -0.2419  0.0221  0.1307
 4105TIP3    H112321   4.166   0.220   0.871 -1.2014 -0.2338 -0.1325
 4105TIP3    H212322   4.226   0.187   0.736  1.6671  0.6926  0.8386
 4106TIP3   OH212323   4.194   3.439   4.640 -0.0757  0.5271  0.0293
 4106TIP3    H112324   4.217   3.347   4.638  1.0286  0.7586 -2.9304
 4106TIP3    H212325   4.146   3.450   4.722  0.8058 -2.3765  1.0547
 4107TIP3   OH212326   4.473   2.177   4.569 -0.1830 -0.0290 -0.0202
 4107TIP3    H112327   4.462   2.248   4.632  0.1203  0.4099 -0.4488
 4107TIP3    H212328   4.480   2.098   4.622  1.6686  0.4951  0.6022
 4108TIP3   OH212329   1.322   4.219   2.085 -0.0473 -0.1512 -0.4417
 4108TIP3    H112330   1.355   4.304   2.115 -0.3106 -0.2619  0.1692
 4108TIP3    H212331   1.398   4.161   2.089 -0.1774 -0.2723  0.4397
 4109TIP3   OH212332   0.516   2.123   2.434  0.4665  0.0473 -0.2561
 4109TIP3    H112333   0.595   2.132   2.488  1.6936 -0.0503 -1.9534
 4109TIP3    H212334   0.505   2.029   2.424 -0.6785  0.0134  1.0592
 4110TIP3   OH212335   3.213   2.150   1.047 -0.2448 -0.1305 -0.0533
 4110TIP3    H112336   3.155   2.074   1.041  1.5998 -1.7366  1.1422
 4110TIP3    H212337   3.213   2.188   0.959 -2.9169 -0.1300 -0.1441
 4111TIP3   OH212338   2.230   4.718   0.626  0.2431  0.1434  0.4961
 4111TIP3    H112339   2.268   4.762   0.549  0.9815 -0.9120  0.2353
 4111TIP3    H212340   2.143   4.691   0.597  0.6851 -0.6519 -0.1432
 4112TIP3   OH212341   3.646   0.713   5.031  0.1056  0.0171 -0.1641
 4112TIP3    H112342   3.559   0.674   5.029 -0.9966  2.3691 -0.3235
 4112TIP3    H212343   3.690   0.670   5.105 -1.4230 -0.6839  0.3709
 4113TIP3   OH212344   4.034   0.039   1.816  0.4059 -0.3560 -0.4089
 4113TIP3    H112345   4.024  -0.053   1.793 -0.7027  0.5792 -4.5489
 4113TIP3    H212346   3.953   0.061   1.862  0.2736 -1.1829 -0.2227
 4114TIP3   OH212347   1.184   0.782   1.009 -0.2795  0.0359  0.3739
 4114TIP3    H112348   1.250   0.774   0.940  0.2245  0.4743  0.7978
 4114TIP3    H212349   1.116   0.719   0.984 -1.4242  2.0318 -1.9887
 4115TIP3   OH212350   6.046   5.231   3.007 -0.0274  0.4286 -0.1536
 4115TIP3    H112351   6.030   5.233   2.913 -1.2439 -0.4839  0.0100
 4115TIP3    H212352   6.007   5.148   3.036 -0.7623  1.2582  1.3438
 4116TIP3   OH212353   2.729   4.849   2.378 -0.7818  0.4165  0.0323
 4116TIP3    H112354   2.761   4.848   2.288 -1.2832  2.4554 -0.2214
 4116TIP3    H212355   2.750   4.937   2.410  0.7906 -0.7391  2.4790
 4117TIP3   OH212356   3.396   0.172   1.578  0.1683 -0.4681 -0.0213
 4117TIP3    H112357   3.322   0.203   1.631  1.3813 -1.6657  2.5813
 4117TIP3    H212358   3.357   0.112   1.514 -1.1963 -0.4809  0.7798
 4118TIP3   OH212359   1.462   2.732   2.951  0.3470 -0.0361 -0.4469
 4118TIP3    H112360   1.520   2.707   3.024 -0.5372  0.8304  0.5891
 4118TIP3    H212361   1.518   2.726   2.874  0.9371 -2.4475  0.0598
 4119TIP3   OH212362   1.961   4.300   1.348  0.4471  0.0466 -0.7570
 4119TIP3    H112363   1.917   4.314   1.264  0.1630  0.9469 -0.4650
 4119TIP3    H212364   2.006   4.382   1.365 -4.0291  2.1875  2.6918
 4120TIP3   OH212365   5.406   4.556   3.529  0.3522 -0.5250  0.1103
 4120TIP3    H112366   5.365   4.643   3.530  0.0956 -0.6291  2.0903
 4120TIP3    H212367   5.500   4.575   3.532  0.2872 -0.2758  1.2838
 4121TIP3   OH212368   1.168   2.280   0.347  0.3744 -0.5452  0.3084
 4121TIP3    H112369   1.159   2.291   0.441 -2.2130  0.3240  0.0483
 4121TIP3    H212370   1.156   2.368   0.311  2.3951 -0.6630 -0.8360
 4122TIP3   OH212371   3.843   5.062   0.526  0.1633  0.3949  0.5511
 4122TIP3    H112372   3.818   4.994   0.463  0.1358  0.5438  0.4015
 4122TIP3    H212373   3.762   5.083   0.573  0.0046  0.8750  0.0685
 4123TIP3   OH212374   3.954   2.424   3.548 -0.9038  0.3982  0.0632
 4123TIP3    H112375   3.873   2.386   3.515 -0.2660 -0.3499 -0.6594
 4123TIP3    H212376   3.987   2.478   3.476  1.2660 -2.4119 -1.2163
 4124TIP3   OH212377   3.452   1.161   4.017  0.4972  0.2582  0.0670
 4124TIP3    H112378   3.523   1.210   3.976  0.8037 -0.5325 -0.3687
 4124TIP3    H212379   3.397   1.228   4.057  1.9417  0.8403  1.1557
 4125TIP3   OH212380   0.623   5.028   0.660  0.6014  0.3161 -0.2336
 4125TIP3    H112381   0.567   4.951   0.670 -1.3084  1.7321  0.5930
 4125TIP3    H212382   0.669   5.013   0.576  0.1798 -1.6024 -0.1773
 4126TIP3   OH212383   4.722   2.854   0.033 -0.7624 -0.1475 -0.3123
 4126TIP3    H112384   4.793   2.796   0.059  0.1898 -0.2171 -2.7798
 4126TIP3    H212385   4.750   2.941   0.060 -0.4167 -0.3622  0.0280
 4127TIP3   OH212386   3.790   0.420   3.355 -0.0934 -0.3845 -0.5801
 4127TIP3    H112387   3.813   0.510   3.380 -2.6455  0.9507 -2.5233
 4127TIP3    H212388   3.860   0.366   3.391  1.8413  2.4308  0.1966
 4128TIP3   OH212389   0.968   5.644   0.707 -0.2456 -0.3867  0.5894
 4128TIP3    H112390   0.980   5.596   0.789  0.1848 -1.3357 -0.0172
 4128TIP3    H212391   1.003   5.586   0.640 -0.5002  0.4256 -0.2613
 4129TIP3   OH212392   0.813   2.190   0.062 -0.0557  0.6770 -0.4184
 4129TIP3    H112393   0.807   2.132  -0.014 -2.1069 -0.2771  0.3903
 4129TIP3    H212394   0.906   2.210   0.070  0.2711  0.4175 -2.8673
 4130TIP3   OH212395   0.979   4.966   3.674  0.5114 -0.9134  0.3437
 4130TIP3    H112396   0.886   4.943   3.675  0.2279  0.0678 -0.6303
 4130TIP3    H212397   1.006   4.965   3.766 -0.4898 -1.1278  0.6451
 4131TIP3   OH212398   4.978   0.838   4.386 -0.2800 -0.0850 -0.0602
 4131TIP3    H112399   5.031   0.840   4.306  0.1728 -0.9277  0.2059
 4131TIP3    H212400   4.901   0.786   4.363 -0.5734  0.3940 -0.1871
 4132TIP3   OH212401   3.454   1.480   4.802 -0.5082  0.4114 -0.0417
 4132TIP3    H112402   3.521   1.440   4.746  0.6198  2.7845 -0.5075
 4132TIP3    H212403   3.504   1.531   4.866 -1.8536  1.3642  0.2936
 4133TIP3   OH212404   1.860   5.213   2.647  0.5222 -0.4520 -0.6981
 4133TIP3    H112405   1.786   5.220   2.587  0.1037 -0.5344 -0.2061
 4133TIP3    H212406   1.894   5.124   2.633 -0.2926 -0.8900 -0.0150
 4134TIP3   OH212407   2.203   5.010   2.212  0.4183 -0.4108  0.3204
 4134TIP3    H112408   2.279   4.989   2.265  0.4433  0.9346  0.8541
 4134TIP3    H212409   2.195   5.105   2.218  0.2500 -0.2269 -1.8576
 4135TIP3   OH212410   1.361   4.922   2.109 -0.0920 -0.3380  0.1481
 4135TIP3    H112411   1.371   4.988   2.178 -2.3263 -1.3202  1.4945
 4135TIP3    H212412   1.287   4.952   2.058 -0.8256 -1.5242  0.4835
 4136TIP3   OH212413   3.961   0.715   4.216 -0.1044 -0.0860  0.2146
 4136TIP3    H112414   3.867   0.722   4.235  0.0815 -1.0634  1.6274
 4136TIP3    H212415   4.003   0.776   4.277  0.1788  0.4098 -0.4703
 4137TIP3   OH212416   2.362   1.604  -0.006  0.4092 -0.3042  0.2128
 4137TIP3    H112417   2.333   1.688   0.028  1.5696 -0.7606  2.4830
 4137TIP3    H212418   2.457   1.604   0.005  0.4648 -1.8012  0.0246
 4138TIP3   OH212419   5.609   1.404   1.276  0.4706 -0.1057  0.4070
 4138TIP3    H112420   5.645   1.417   1.188  0.6202 -1.5661  0.2408
 4138TIP3    H212421   5.514   1.405   1.263  0.4565 -2.7685 -0.2063
 4139TIP3   OH212422   4.781   0.382   0.793 -0.1742 -0.3971  0.3662
 4139TIP3    H112423   4.862   0.375   0.744  0.8584  3.0198  1.3408
 4139TIP3    H212424   4.740   0.463   0.762 -2.5544 -1.2975  0.8934
 4140TIP3   OH212425   1.660   2.780   3.159 -0.4161  0.2108  0.5826
 4140TIP3    H112426   1.632   2.868   3.137  0.6076  0.4331  0.1354
 4140TIP3    H212427   1.672   2.781   3.254 -1.4758  0.2242  0.7299
 4141TIP3   OH212428   5.829   5.523   4.209 -0.3942  0.2899  0.2915
 4141TIP3    H112429   5.890   5.471   4.157 -2.2352 -1.6234 -0.0897
 4141TIP3    H212430   5.866   5.521   4.298  0.8804  0.5058 -0.2198
 4142TIP3   OH212431   0.063   4.946   1.054 -0.3029 -0.4270 -0.4419
 4142TIP3    H112432   0.011   5.025   1.045 -1.4137 -0.9463  1.0644
 4142TIP3    H212433   0.122   4.947   0.978 -1.6816  0.7846 -1.5520
 4143TIP3   OH212434   6.165   2.654   4.647  0.3065  1.2752  0.2699
 4143TIP3    H112435   6.201   2.580   4.696 -3.2717 -0.7045  0.2631
 4143TIP3    H212436   6.207   2.648   4.561  1.6247  0.5544  0.9365
 4144TIP3   OH212437   4.085   1.793   0.702 -0.9309  0.3379  0.1400
 4144TIP3    H112438   4.004   1.822   0.661 -1.9838  0.3862  2.1430
 4144TIP3    H212439   4.105   1.860   0.767  1.6123  1.1291 -1.3054
 4145TIP3   OH212440   2.131   0.783   2.591  0.2870  0.3309  0.5099
 4145TIP3    H112441   2.146   0.748   2.504  0.8192  1.6272  0.0515
 4145TIP3    H212442   2.211   0.761   2.640  1.0491  1.6916 -0.0644
 4146TIP3   OH212443   0.374   3.169   2.066  0.2054 -0.4152  0.1518
 4146TIP3    H112444   0.328   3.223   2.002  0.2892  1.0305  1.2549
 4146TIP3    H212445   0.346   3.203   2.151  1.1974 -1.3189  0.8761
 4147TIP3   OH212446   5.665   2.337   4.565  0.6768 -0.2056  0.1007
 4147TIP3    H112447   5.687   2.268   4.503 -0.9095  0.4872 -1.2979
 4147TIP3    H212448   5.660   2.416   4.512  1.4068  0.8158  1.4962
 4148TIP3   OH212449   2.219   5.096   5.074 -0.4234  0.2235  0.2937
 4148TIP3    H112450   2.237   5.072   5.165  1.8039 -2.2830 -0.6751
 4148TIP3    H212451   2.143   5.043   5.050  0.9312 -1.6412 -0.1317
 4149TIP3   OH212452   3.701   1.547   0.212 -0.2965  0.1305 -0.4268
 4149TIP3    H112453   3.728   1.522   0.301  1.8926  2.7370 -0.2447
 4149TIP3    H212454   3.620   1.596   0.225  0.2577  0.9004  0.2104
 4150TIP3   OH212455   2.627   1.050   1.638  0.1694  0.3785  1.0024
 4150TIP3    H112456   2.592   1.124   1.588 -1.8542 -0.1305  1.5494
 4150TIP3    H212457   2.558   1.030   1.702 -0.3479 -3.2309 -0.4269
 4151TIP3   OH212458   5.231   0.933   0.092  0.4248 -0.3418 -0.3391
 4151TIP3    H112459   5.299   0.975   0.144  0.3472 -0.4325 -0.1621
 4151TIP3    H212460   5.162   0.910   0.156 -0.5701  1.3171 -0.7644
 4152TIP3   OH212461   5.231   5.971   0.488 -0.4100  0.2408  0.5064
 4152TIP3    H112462   5.308   5.993   0.436  0.1145 -3.2629 -0.4123
 4152TIP3    H212463   5.161   5.962   0.423 -0.3823 -1.4929  0.6776
 4153TIP3   OH212464   3.392   5.290   1.972  0.3968  0.0876  0.0243
 4153TIP3    H112465   3.444   5.220   2.011  0.5805 -1.3742 -2.5959
 4153TIP3    H212466   3.446   5.369   1.980  2.6609 -1.1697 -1.6540
 4154TIP3   OH212467   3.273   1.332   4.962 -0.1540 -0.1759  0.5068
 4154TIP3    H112468   3.337   1.376   4.906  1.8313 -1.7000  1.4981
 4154TIP3    H212469   3.321   1.309   5.041 -2.3137 -0.1168  1.9198
 4155TIP3   OH212470   5.270   2.785   0.280 -0.2801  0.1631 -0.2910
 4155TIP3    H112471   5.362   2.765   0.262 -0.9679 -0.9241 -3.2348
 4155TIP3    H212472   5.252   2.863   0.228 -0.6858  1.3183  1.5125
 4156TIP3   OH212473   6.333   0.801   2.291  0.1351  0.4770 -0.0952
 4156TIP3    H112474   6.316   0.880   2.342  0.4660  0.6706 -0.2895
 4156TIP3    H212475   6.342   0.832   2.201 -2.0570 -0.0303 -0.5530
 4157TIP3   OH212476   1.680   4.172   2.291  0.1980  0.7076  0.2413
 4157TIP3    H112477   1.626   4.157   2.368 -0.1838  2.3712  0.3312
 4157TIP3    H212478   1.764   4.131   2.312 -0.0424  0.7567  1.3492
 4158TIP3   OH212479   4.303   3.476   0.041  0.1324  0.2332  0.4429
 4158TIP3    H112480   4.313   3.384   0.017  2.0109  0.7268 -0.8634
 4158TIP3    H212481   4.386   3.517   0.017 -0.5719  2.2439  1.1885
 4159TIP3   OH212482   0.061   1.623   3.567  0.3548  0.1610  0.7200
 4159TIP3    H112483   0.125   1.662   3.628  1.3487 -0.2451 -0.0280
 4159TIP3    H212484   0.089   1.654   3.481  0.3168 -1.0679  0.2529
 4160TIP3   OH212485   1.818   5.181   5.021  0.2927  0.2706 -0.5473
 4160TIP3    H112486   1.826   5.251   5.085  0.5784 -0.7380  0.5641
 4160TIP3    H212487   1.741   5.203   4.970 -0.9622  0.2628  1.2593
 4161TIP3   OH212488   2.019   1.586   3.612  0.5093 -0.5222 -0.3548
 4161TIP3    H112489   2.067   1.510   3.579 -3.1961 -3.1789 -0.2739
 4161TIP3    H212490   1.989   1.559   3.699  0.7173  1.8998  0.5315
 4162TIP3   OH212491   4.630   0.074   4.266 -0.0153 -0.1569  0.2794
 4162TIP3    H112492   4.588   0.067   4.181  1.0951 -1.4064 -0.2150
 4162TIP3    H212493   4.594   0.002   4.318  0.2181 -0.1625  0.4404
 4163TIP3   OH212494   6.362   0.577   4.606 -0.0413 -0.1875  0.3770
 4163TIP3    H112495   6.400   0.637   4.670 -0.4559 -0.9199  1.3310
 4163TIP3    H212496   6.268   0.579   4.623 -0.5632  1.7232 -2.0625
 4164TIP3   OH212497   3.986   4.835   2.662 -0.3662 -0.5318 -0.5144
 4164TIP3    H112498   3.967   4.858   2.753 -0.9896 -1.6025 -0.3515
 4164TIP3    H212499   3.988   4.919   2.615  0.0052  0.0292  0.4861
 4165TIP3   OH212500   3.303   1.249   2.971  0.4550 -0.4455 -0.0420
 4165TIP3    H112501   3.387   1.291   2.993  1.0046 -2.0849  1.1565
 4165TIP3    H212502   3.237   1.313   2.997  1.3152  0.6913 -0.5753
 4166TIP3   OH212503   5.561   4.534   4.497 -0.0039 -0.5294 -0.2817
 4166TIP3    H112504   5.528   4.623   4.494  0.6931 -0.2757 -1.1967
 4166TIP3    H212505   5.492   4.483   4.540  0.0203  0.6176  1.1903
 4167TIP3   OH212506   6.005   1.780   1.433 -0.4444  0.7061  0.2053
 4167TIP3    H112507   6.036   1.690   1.423  0.5066  0.9743  0.5752
 4167TIP3    H212508   5.925   1.784   1.380 -0.9215 -0.5522  0.7630
 4168TIP3   OH212509   2.239   3.900   3.721 -0.5158  0.0223  0.7199
 4168TIP3    H112510   2.259   3.969   3.657 -2.8820  1.6225  1.5675
 4168TIP3    H212511   2.293   3.826   3.694  1.8179  2.0098 -0.5473
 4169TIP3   OH212512   2.121   2.080   2.735 -0.1062 -0.2178  0.4863
 4169TIP3    H112513   2.133   1.986   2.744 -0.5675 -0.3474 -0.1851
 4169TIP3    H212514   2.187   2.119   2.793 -0.0008 -0.9493  0.8644
 4170TIP3   OH212515   0.715   3.916   1.836  0.0419 -0.1817 -0.1549
 4170TIP3    H112516   0.722   3.873   1.921 -1.2306 -1.9085 -0.8732
 4170TIP3    H212517   0.670   3.853   1.780 -1.7900  1.9965 -1.3386
 4171TIP3   OH212518   3.638   5.118   4.666 -0.0512 -0.2014 -0.0200
 4171TIP3    H112519   3.626   5.212   4.661 -1.6147 -0.4406 -2.1404
 4171TIP3    H212520   3.709   5.098   4.605 -1.0821 -0.5480 -1.1522
 4172TIP3   OH212521   3.208   0.376   3.569  0.2402  0.5015 -0.0371
 4172TIP3    H112522   3.234   0.446   3.510 -0.1304  1.0144  0.3970
 4172TIP3    H212523   3.195   0.419   3.653  2.3609 -0.4550  0.8606
 4173TIP3   OH212524   2.078   3.074   3.310  0.4861 -0.0313 -0.1214
 4173TIP3    H112525   2.133   3.140   3.267  1.1214  0.5289  1.4655
 4173TIP3    H212526   2.081   3.098   3.403 -2.2670 -0.1319  0.0655
 4174TIP3   OH212527   0.355   4.407   1.212  0.0251 -0.0004 -0.2124
 4174TIP3    H112528   0.268   4.373   1.231 -2.3108  2.2312 -5.0878
 4174TIP3    H212529   0.405   4.331   1.181  0.3291 -1.4729  3.4457
 4175TIP3   OH212530   1.593   3.879   1.820 -0.0052  0.1092 -0.0987
 4175TIP3    H112531   1.498   3.872   1.807 -0.2471  1.5132  0.7725
 4175TIP3    H212532   1.618   3.793   1.854 -1.6066  0.7843  3.1581
 4176TIP3   OH212533   1.597   0.529   3.712 -0.7096 -0.0203  0.0433
 4176TIP3    H112534   1.556   0.506   3.796 -1.9219  0.5203 -0.3779
 4176TIP3    H212535   1.660   0.459   3.697 -1.5389 -0.9475  0.6910
 4177TIP3   OH212536   4.798   2.570   0.296  0.0141 -0.1315  0.4351
 4177TIP3    H112537   4.776   2.481   0.269  1.5551 -0.8877  1.5742
 4177TIP3    H212538   4.887   2.564   0.330  0.0353  1.7959  0.8269
 4178TIP3   OH212539   0.179   3.840   2.642  0.5539  0.2651 -0.0209
 4178TIP3    H112540   0.121   3.915   2.655 -1.9034 -1.5385  0.1200
 4178TIP3    H212541   0.128   3.764   2.671  3.3136 -1.4032  0.8717
 4179TIP3   OH212542   1.932   0.112   1.230 -0.0121  0.1663  0.0118
 4179TIP3    H112543   1.897   0.060   1.302 -0.2272  1.2386  0.7043
 4179TIP3    H212544   2.027   0.099   1.236 -0.1056 -0.7503 -0.3128
 4180TIP3   OH212545   2.520   2.232   0.261 -0.1631  0.2885  0.5582
 4180TIP3    H112546   2.511   2.326   0.248  2.7816  0.5576 -0.2198
 4180TIP3    H212547   2.614   2.215   0.255 -0.7201 -3.1769 -2.9175
 4181TIP3   OH212548   3.384   0.545   1.227  0.0201  0.0675 -0.0453
 4181TIP3    H112549   3.465   0.573   1.184  0.4915 -0.6213  0.3666
 4181TIP3    H212550   3.414   0.491   1.300 -0.8365 -0.7421 -0.2823
 4182TIP3   OH212551   5.289   4.267   0.628 -0.1033 -1.0035 -0.0389
 4182TIP3    H112552   5.243   4.246   0.546  0.5083  4.4006 -2.1792
 4182TIP3    H212553   5.221   4.264   0.695 -1.7145 -1.1514 -1.5951
 4183TIP3   OH212554   4.077   3.917   3.058  0.1757 -0.6172  0.2932
 4183TIP3    H112555   3.984   3.923   3.076  0.2667  1.0885  0.4192
 4183TIP3    H212556   4.119   3.919   3.144  0.3362 -0.7314  0.2186
 4184TIP3   OH212557   2.910   0.198   4.171  0.4079  0.3141 -0.1956
 4184TIP3    H112558   2.891   0.292   4.176 -0.1997  0.4121 -2.8142
 4184TIP3    H212559   2.926   0.172   4.261 -1.1918  2.5634  0.8355
 4185TIP3   OH212560   5.477   3.429   5.047  0.9887  0.2022  0.2698
 4185TIP3    H112561   5.570   3.444   5.030  1.1415 -1.8941 -1.1335
 4185TIP3    H212562   5.455   3.488   5.119  3.5171  0.4059  0.9490
 4186TIP3   OH212563   3.648   1.537   2.728  0.0159  0.4064  0.2438
 4186TIP3    H112564   3.553   1.537   2.743 -0.2090 -1.0390 -0.9416
 4186TIP3    H212565   3.681   1.608   2.783 -2.0281  2.5133 -1.0815
 4187TIP3   OH212566   4.047   5.311   2.227 -0.5372 -0.1243  0.1468
 4187TIP3    H112567   4.141   5.313   2.210 -0.7898  0.8436 -1.3144
 4187TIP3    H212568   4.034   5.235   2.283  1.0786 -0.4035  0.1858
 4188TIP3   OH212569   5.994   3.865   1.010  0.3522  0.0760  0.1261
 4188TIP3    H112570   5.910   3.870   0.963 -0.1533  1.7071  1.1303
 4188TIP3    H212571   6.041   3.794   0.967 -1.3965 -0.6339 -0.7045
 4189TIP3   OH212572   5.650   4.523   2.695 -0.0092  0.5764 -0.3816
 4189TIP3    H112573   5.578   4.461   2.704 -0.0788  0.7221  0.1028
 4189TIP3    H212574   5.721   4.484   2.746 -0.0033  0.8172 -0.2026
 4190TIP3   OH212575   2.914   0.050   2.995  0.0315 -0.0528 -0.8576
 4190TIP3    H112576   2.942  -0.005   2.922 -0.0658 -1.0983 -0.1349
 4190TIP3    H212577   2.884  -0.012   3.061  2.0677  0.7255  0.9204
 4191TIP3   OH212578   4.518   0.106   2.783 -0.5759  0.4351  0.1691
 4191TIP3    H112579   4.523   0.043   2.855  0.8925 -0.3351 -0.5603
 4191TIP3    H212580   4.486   0.187   2.823 -2.1965 -0.6446  1.1993
 4192TIP3   OH212581   3.958   4.121   0.131 -0.5294 -0.2862  0.1030
 4192TIP3    H112582   3.892   4.073   0.181  1.6588 -0.9202  2.6160
 4192TIP3    H212583   4.038   4.070   0.143  0.8262  1.4165 -1.2784
 4193TIP3   OH212584   1.776   0.496   2.507  0.3708  0.0532 -0.1974
 4193TIP3    H112585   1.771   0.442   2.428  1.1373 -0.3953  0.0471
 4193TIP3    H212586   1.703   0.558   2.499 -0.3082 -0.7804 -0.6633
 4194TIP3   OH212587   0.689   4.540   0.444 -0.4917 -0.2867  0.7570
 4194TIP3    H112588   0.630   4.612   0.462 -2.0628 -1.1820 -0.5557
 4194TIP3    H212589   0.650   4.464   0.488 -0.6192 -0.9923 -0.5267
 4195TIP3   OH212590   1.604   4.471   2.945 -0.0732 -0.2902  0.7840
 4195TIP3    H112591   1.566   4.487   2.859 -1.9215  2.2787  1.9876
 4195TIP3    H212592   1.693   4.506   2.938  0.3565 -1.5170 -0.4771
 4196TIP3   OH212593   0.621   4.038   4.098  0.1663 -0.0350  0.0180
 4196TIP3    H112594   0.694   3.996   4.143 -0.8900 -3.3188 -1.0639
 4196TIP3    H212595   0.641   4.026   4.005 -1.6541 -0.8852 -0.2916
 4197TIP3   OH212596   4.317   4.599   4.940  0.1703 -0.5224  0.0760
 4197TIP3    H112597   4.357   4.661   4.878 -1.5010 -0.3403 -0.8711
 4197TIP3    H212598   4.377   4.599   5.015  1.7730 -0.0495 -1.1467
 4198TIP3   OH212599   3.161   5.581   1.677  0.2870  0.2647 -0.5307
 4198TIP3    H112600   3.185   5.570   1.769 -1.0953 -1.0161 -0.2730
 4198TIP3    H212601   3.231   5.537   1.629  0.6884  0.3717 -0.0533
 4199TIP3   OH212602   4.322   3.728   0.809 -0.1673 -0.1111 -0.5721
 4199TIP3    H112603   4.317   3.709   0.715 -0.1836  2.1947 -1.0954
 4199TIP3    H212604   4.230   3.731   0.837 -0.2262  0.4280 -0.7921
 4200TIP3   OH212605   1.228   0.408   0.104 -0.6496  0.0490  0.1139
 4200TIP3    H112606   1.238   0.478   0.041  0.8388 -0.4572 -0.2621
 4200TIP3    H212607   1.144   0.367   0.082 -1.2764  1.3481  0.0053
 4201TIP3   OH212608   5.034   3.557   1.298 -0.3290 -0.1171  0.4099
 4201TIP3    H112609   5.064   3.471   1.268  1.3182  0.9952 -1.3398
 4201TIP3    H212610   5.005   3.602   1.218 -1.9115  0.7227  1.3935
 4202TIP3   OH212611   5.198   3.926   2.791 -0.1935  0.0997 -0.2752
 4202TIP3    H112612   5.137   3.986   2.748  0.0848  0.8921  0.4115
 4202TIP3    H212613   5.283   3.946   2.754 -0.5870 -2.7766 -3.1945
 4203TIP3   OH212614   4.868   3.274   4.964 -0.5765  0.2303  0.1707
 4203TIP3    H112615   4.778   3.257   4.935 -0.4434  0.6566 -0.5270
 4203TIP3    H212616   4.874   3.232   5.050 -1.1057 -0.7438 -0.2545
 4204TIP3   OH212617   2.540   1.000   0.055 -0.2049  0.2704  0.5696
 4204TIP3    H112618   2.626   1.029   0.024 -0.9460  1.8356 -0.0797
 4204TIP3    H212619   2.554   0.980   0.148  0.4409  2.4550  0.9979
 4205TIP3   OH212620   2.813   1.873   3.165 -0.3393 -0.0372 -0.5807
 4205TIP3    H112621   2.778   1.785   3.175 -0.2605 -0.0591 -0.4879
 4205TIP3    H212622   2.873   1.883   3.239 -1.6970  0.7438  0.4655
 4206TIP3   OH212623   2.740   2.119   2.627  0.8217  0.5010  0.1864
 4206TIP3    H112624   2.769   2.058   2.559  1.7677  0.4665  0.6039
 4206TIP3    H212625   2.769   2.079   2.709 -0.6424  0.3566  0.6550
 4207TIP3   OH212626   5.708   1.376   3.938 -1.0659 -0.1184  0.2690
 4207TIP3    H112627   5.729   1.424   4.019 -2.9167 -0.8003  1.1909
 4207TIP3    H212628   5.774   1.307   3.934  1.8997  2.5521 -1.2739
 4208TIP3   OH212629   1.748   0.136   5.038 -0.4419  0.5684 -0.1148
 4208TIP3    H112630   1.654   0.120   5.052 -0.2751  1.1330  1.9812
 4208TIP3    H212631   1.753   0.230   5.020 -0.4030  0.2478 -1.9934
 4209TIP3   OH212632   0.920   5.110   0.247 -0.2266  0.2655 -0.3426
 4209TIP3    H112633   0.986   5.041   0.243  1.1049  1.5385 -1.2975
 4209TIP3    H212634   0.907   5.137   0.156 -1.4305  0.6350 -0.0847
 4210TIP3   OH212635   4.893   3.532   5.203 -0.5799 -0.4158 -0.0248
 4210TIP3    H112636   4.941   3.605   5.164  0.1344  0.8439  2.9518
 4210TIP3    H212637   4.824   3.512   5.139  1.4657  0.3218 -2.6273
 4211TIP3   OH212638   1.296   2.032   2.522 -0.6758 -0.2013 -0.0929
 4211TIP3    H112639   1.219   2.006   2.471 -1.0257  0.9026 -0.1589
 4211TIP3    H212640   1.359   1.961   2.508 -1.4032 -0.7573 -0.6471
 4212TIP3   OH212641   2.843   3.980   1.649  0.4955 -0.3000  0.7156
 4212TIP3    H112642   2.909   3.950   1.711 -1.7598  0.1758  3.5554
 4212TIP3    H212643   2.781   4.030   1.702 -1.3324  0.6164 -2.0578
 4213TIP3   OH212644   1.231   3.090   3.491  0.0747 -0.4257  0.1689
 4213TIP3    H112645   1.197   3.176   3.513  1.1172 -0.1242  0.6507
 4213TIP3    H212646   1.156   3.031   3.500 -0.4230  0.2873  0.7558
 4214TIP3   OH212647   1.789   2.966   1.571  0.0735 -0.5290  0.8743
 4214TIP3    H112648   1.826   2.973   1.659  0.6189  0.3442  0.5839
 4214TIP3    H212649   1.702   3.004   1.579  0.2843 -0.0531  0.9467
 4215TIP3   OH212650   2.033   4.751   1.341  0.1603  0.4647  0.0385
 4215TIP3    H112651   2.098   4.819   1.331  1.4090 -0.4197  1.6190
 4215TIP3    H212652   2.047   4.693   1.267  1.8052 -0.1653  0.7908
 4216TIP3   OH212653   5.069   1.902   2.749  0.3158  0.3780 -0.1319
 4216TIP3    H112654   5.006   1.844   2.707  2.5188 -0.9964 -1.7703
 4216TIP3    H212655   5.110   1.950   2.677 -0.6091  3.2182  1.0810
 4217TIP3   OH212656   2.510   4.067   1.510  0.1188 -0.1038  0.1320
 4217TIP3    H112657   2.521   4.017   1.429 -0.7219 -1.1173  0.6194
 4217TIP3    H212658   2.416   4.066   1.526  0.1504  1.0837  0.5242
 4218TIP3   OH212659   2.978   4.910   1.483 -0.4810  0.4081 -0.0999
 4218TIP3    H112660   3.017   4.980   1.431 -1.2644  1.0804  0.1916
 4218TIP3    H212661   3.049   4.848   1.497  0.3768  1.3959  0.0663
 4219TIP3   OH212662  -0.010   2.591   5.008 -0.0504 -0.6557 -0.1024
 4219TIP3    H112663   0.005   2.686   5.010 -0.4962 -0.5838  1.0241
 4219TIP3    H212664   0.074   2.554   4.980  0.5708  0.0082  0.7938
 4220TIP3   OH212665   4.507   1.302   0.526 -0.1183 -0.3996  0.2840
 4220TIP3    H112666   4.476   1.351   0.449 -0.5390 -0.8576  0.1576
 4220TIP3    H212667   4.599   1.327   0.534  0.2893 -1.3188 -1.1553
 4221TIP3   OH212668   3.881   0.440   4.290 -0.4257  0.3602  0.5188
 4221TIP3    H112669   3.966   0.403   4.266 -0.8945 -0.0056 -0.6848
 4221TIP3    H212670   3.887   0.533   4.265 -0.5674  0.1997 -0.1516
 4222TIP3   OH212671   2.886   4.866   3.814 -0.1736  0.5415 -0.3326
 4222TIP3    H112672   2.965   4.834   3.856  0.3853  2.9353  0.6141
 4222TIP3    H212673   2.827   4.886   3.887 -0.2547  2.1465 -0.8055
 4223TIP3   OH212674   1.014   3.480   1.929 -0.2930  0.2172 -0.1772
 4223TIP3    H112675   1.062   3.403   1.900 -1.3995 -1.2743  1.7342
 4223TIP3    H212676   1.054   3.504   2.013 -1.1183  0.5825  0.1344
 4224TIP3   OH212677   1.792   1.175   4.752 -0.3553 -0.3560 -0.3231
 4224TIP3    H112678   1.756   1.087   4.765 -2.1552  0.1818 -1.2901
 4224TIP3    H212679   1.809   1.207   4.841  1.2389 -1.9829  0.0154
 4225TIP3   OH212680   6.323   1.193   0.862  0.2545 -0.8137 -0.0650
 4225TIP3    H112681   6.386   1.252   0.820  0.6445 -0.8280  0.4851
 4225TIP3    H212682   6.240   1.211   0.819  0.5172 -0.3526 -0.3774
 4226TIP3   OH212683   2.478   2.507   1.445 -0.1795  0.1101  0.7807
 4226TIP3    H112684   2.532   2.541   1.515 -0.9642  0.2408  1.3410
 4226TIP3    H212685   2.408   2.459   1.490  0.0335 -0.9239  0.0576
 4227TIP3   OH212686   2.221   0.293   0.216  0.8431 -0.3233  0.0879
 4227TIP3    H112687   2.298   0.333   0.175 -0.0631  1.4883  0.0844
 4227TIP3    H212688   2.255   0.255   0.298  1.9103 -0.4775 -0.4055
 4228TIP3   OH212689   0.378   0.512   0.035 -0.2361  0.0812 -0.1749
 4228TIP3    H112690   0.465   0.545   0.012 -0.2149 -0.5188 -1.0028
 4228TIP3    H212691   0.389   0.417   0.039 -0.6046  0.0653  0.8354
 4229TIP3   OH212692   5.194   3.744   0.888  0.3733  0.3664  0.2010
 4229TIP3    H112693   5.197   3.753   0.793 -0.2027  0.4738  0.1879
 4229TIP3    H212694   5.183   3.833   0.920 -1.3973  0.1709  0.2609
 4230TIP3   OH212695   5.384   0.119   1.221 -0.2454  0.1630 -0.3662
 4230TIP3    H112696   5.351   0.161   1.300 -1.0789  0.9052 -1.0974
 4230TIP3    H212697   5.325   0.147   1.151  1.0631  0.3491 -1.4475
 4231TIP3   OH212698   3.276   0.365   4.416 -0.0952  0.6062  0.5044
 4231TIP3    H112699   3.371   0.375   4.413  0.0672 -0.7802  0.5607
 4231TIP3    H212700   3.245   0.407   4.335  0.5700  0.8544  0.3734
 4232TIP3   OH212701   0.408   2.732   2.598 -0.1315 -0.2196  0.1758
 4232TIP3    H112702   0.376   2.764   2.683  0.7604 -0.1113  0.4946
 4232TIP3    H212703   0.400   2.808   2.540 -3.6942 -1.1522 -0.7390
 4233TIP3   OH212704   2.938   3.362   0.844 -0.1731 -0.0143 -0.3971
 4233TIP3    H112705   2.905   3.385   0.757 -2.7847  0.2599  0.5787
 4233TIP3    H212706   2.963   3.270   0.837  1.2352  0.4453 -1.8382
 4234TIP3   OH212707   0.227   3.394   3.995  0.3864  0.0362 -0.2627
 4234TIP3    H112708   0.321   3.395   3.979  0.6265 -0.6601  0.9775
 4234TIP3    H212709   0.219   3.387   4.091 -0.9074 -0.9979 -0.4202
 4235TIP3   OH212710   4.550   4.011   2.332  0.1654 -0.3285  0.1055
 4235TIP3    H112711   4.482   3.989   2.396  1.2381 -1.0339  1.0488
 4235TIP3    H212712   4.551   3.936   2.272  0.3547 -0.4864  0.3054
 4236TIP3   OH212713   2.611   0.470   4.799 -0.3212 -0.2458 -0.0062
 4236TIP3    H112714   2.673   0.542   4.787 -2.3435  1.7423  0.7336
 4236TIP3    H212715   2.567   0.462   4.714 -1.1028  0.4634  0.3065
 4237TIP3   OH212716   5.806   5.504   1.053 -0.4138 -0.4734  0.3030
 4237TIP3    H112717   5.878   5.474   1.109 -2.2982 -0.4728  2.9219
 4237TIP3    H212718   5.826   5.468   0.967  3.0142  0.0977  0.7206
 4238TIP3   OH212719   0.967   0.600   4.897 -0.1217  0.3654 -0.5102
 4238TIP3    H112720   0.915   0.521   4.909 -0.1046  0.3007 -0.8510
 4238TIP3    H212721   1.031   0.577   4.830  1.2236  0.0289  0.8597
 4239TIP3   OH212722   0.761   3.663   3.046 -0.3345 -0.1689  0.2281
 4239TIP3    H112723   0.793   3.592   2.990 -0.0290  1.5902 -1.9098
 4239TIP3    H212724   0.839   3.694   3.092 -0.1895 -0.1884 -0.0042
 4240TIP3   OH212725   3.069   3.795   2.290 -0.0804  0.6015 -0.0218
 4240TIP3    H112726   3.056   3.789   2.196 -1.6263  1.0192  0.1339
 4240TIP3    H212727   3.107   3.711   2.315 -0.1869  0.2698 -0.9474
 4241TIP3   OH212728   0.951   5.641   4.853  0.2799 -0.2458  0.0381
 4241TIP3    H112729   0.988   5.563   4.892 -0.0309 -1.4409 -1.8922
 4241TIP3    H212730   1.026   5.699   4.838  0.4852 -0.0501  1.6382
 4242TIP3   OH212731   4.277   0.900   1.876  0.2256  0.2048 -0.5079
 4242TIP3    H112732   4.244   0.820   1.833  0.8109  0.9331 -2.4299
 4242TIP3    H212733   4.295   0.873   1.966 -0.8044 -1.4902 -0.7588
 4243TIP3   OH212734   3.557   5.728   0.775  0.2942  0.1558 -0.1591
 4243TIP3    H112735   3.556   5.735   0.870 -0.2709  0.2635 -0.1726
 4243TIP3    H212736   3.643   5.690   0.755  0.0205 -0.8288  0.4550
 4244TIP3   OH212737   4.360   0.699   2.377  0.5349  0.4509  0.0165
 4244TIP3    H112738   4.422   0.628   2.362  0.9457  0.9659 -0.7703
 4244TIP3    H212739   4.320   0.678   2.461  0.6324 -0.7205 -0.2173
 4245TIP3   OH212740   4.506   0.514   4.669 -0.3154  0.0739 -0.4075
 4245TIP3    H112741   4.522   0.605   4.692 -0.0791  0.0041 -0.2999
 4245TIP3    H212742   4.441   0.485   4.732 -1.7575  0.6830 -1.5361
 4246TIP3   OH212743   0.094   3.103   4.182 -0.2831  0.2064 -0.1163
 4246TIP3    H112744   0.037   3.180   4.181 -0.5354  0.0222 -0.0763
 4246TIP3    H212745   0.121   3.094   4.274  0.5207  0.8101 -0.2890
 4247TIP3   OH212746   5.791   1.263   1.714  0.1990 -0.3507  0.0137
 4247TIP3    H112747   5.857   1.200   1.682 -0.1743 -0.5326 -0.4007
 4247TIP3    H212748   5.817   1.279   1.805  2.1322  1.2896 -0.7479
 4248TIP3   OH212749   0.629   5.428   4.055 -0.4771 -0.1228 -0.1927
 4248TIP3    H112750   0.616   5.517   4.087  0.5477  0.3756 -1.0586
 4248TIP3    H212751   0.704   5.395   4.105 -0.5191 -0.2927 -0.2416
 4249TIP3   OH212752   3.007   5.459   2.434  0.0366  0.0101 -0.3880
 4249TIP3    H112753   2.936   5.502   2.482  1.4054  1.2272  0.6331
 4249TIP3    H212754   3.064   5.531   2.406  0.4136 -0.8715 -1.9701
 4250TIP3   OH212755   4.540   3.184   1.334  0.3899  0.1363  0.8430
 4250TIP3    H112756   4.528   3.133   1.253  1.9973 -0.1530  0.7436
 4250TIP3    H212757   4.473   3.252   1.330 -2.0108 -2.0293  1.0817
 4251TIP3   OH212758   6.182   0.186   4.196 -0.4072 -0.0461  0.0071
 4251TIP3    H112759   6.259   0.131   4.203  0.3906  0.6741 -2.1384
 4251TIP3    H212760   6.122   0.137   4.139 -0.5791  0.3786 -0.1855
 4252TIP3   OH212761   5.141   0.990   1.071 -0.1532 -0.0831 -0.0102
 4252TIP3    H112762   5.150   0.961   1.162  0.8812 -1.7299 -0.5924
 4252TIP3    H212763   5.055   0.956   1.044 -0.0864 -0.3395  0.0972
 4253TIP3   OH212764   4.124   0.350   4.565 -0.9066 -0.3034  0.6005
 4253TIP3    H112765   4.175   0.431   4.559 -1.4513 -0.0128 -0.4300
 4253TIP3    H212766   4.041   0.378   4.603 -1.7082 -0.0359 -1.2221
 4254TIP3   OH212767   0.174   3.026   1.520 -0.0312 -0.2769 -0.7800
 4254TIP3    H112768   0.197   2.982   1.601  0.3760  2.8249  0.9336
 4254TIP3    H212769   0.079   3.020   1.515  0.1145 -2.8718 -1.6233
 4255TIP3   OH212770   3.301   4.287   4.291  0.4625  0.6718 -0.0077
 4255TIP3    H112771   3.206   4.296   4.304 -0.0262 -3.7305  0.9603
 4255TIP3    H212772   3.340   4.347   4.355 -1.6690  1.1030  0.9715
 4256TIP3   OH212773   4.415   3.583   4.764  0.1544  0.2723 -0.1361
 4256TIP3    H112774   4.327   3.579   4.727 -0.2731 -0.0727  0.8908
 4256TIP3    H212775   4.408   3.537   4.848  1.3558  0.0847 -0.1242
 4257TIP3   OH212776   4.482   5.726   4.762 -0.3033 -0.3516 -0.7916
 4257TIP3    H112777   4.505   5.714   4.670 -0.4645 -1.1118 -0.7378
 4257TIP3    H212778   4.419   5.657   4.780 -1.0189  0.3910 -0.3644
 4258TIP3   OH212779   1.521   3.396   4.270  0.1766 -0.4341  0.5904
 4258TIP3    H112780   1.527   3.321   4.330  0.4727  1.1255  2.5943
 4258TIP3    H212781   1.607   3.400   4.229 -0.2294 -1.9048 -0.4961
 4259TIP3   OH212782   1.411   1.329   4.344 -0.1574  0.2163  0.1935
 4259TIP3    H112783   1.368   1.410   4.372  0.0558 -0.3399  2.2710
 4259TIP3    H212784   1.502   1.339   4.373 -0.3650 -1.1763  1.4416
 4260TIP3   OH212785   4.054   2.802   1.167  0.5885  0.1467 -0.0643
 4260TIP3    H112786   4.099   2.876   1.126  0.6921  1.3850  2.1250
 4260TIP3    H212787   4.120   2.764   1.225  0.8737 -2.4067 -1.9029
 4261TIP3   OH212788   3.568   0.363   4.354  0.3033 -0.0369  0.6794
 4261TIP3    H112789   3.652   0.378   4.396  0.6045  0.8793 -0.2256
 4261TIP3    H212790   3.577   0.402   4.267 -0.7307 -0.7753  0.2200
 4262TIP3   OH212791   4.138   1.758   4.589  0.3324  0.4014 -0.5063
 4262TIP3    H112792   4.192   1.791   4.517 -0.1218 -0.4491 -1.2538
 4262TIP3    H212793   4.177   1.673   4.611  1.4833  1.3326  1.3869
 4263TIP3   OH212794   0.942   4.985   2.720  0.0894 -0.4699  0.5392
 4263TIP3    H112795   0.948   5.024   2.808 -0.0085  0.8419 -0.0237
 4263TIP3    H212796   0.850   4.993   2.696  0.1391 -0.7243  0.2624
 4264TIP3   OH212797   4.762   2.801   3.741  0.1791 -0.2856  0.0095
 4264TIP3    H112798   4.771   2.847   3.825  1.6048 -0.9655  0.2602
 4264TIP3    H212799   4.812   2.854   3.679 -2.0705  1.0179 -0.8003
 4265TIP3   OH212800   5.460   3.174   2.499  0.0998  0.1329  0.1294
 4265TIP3    H112801   5.420   3.163   2.413 -0.4159  0.4237  0.3273
 4265TIP3    H212802   5.546   3.133   2.491  0.2987  0.7007 -0.7046
 4266TIP3   OH212803   5.531   4.831   2.232  0.5020 -0.4741 -0.7471
 4266TIP3    H112804   5.606   4.776   2.208  0.0981 -0.7921 -1.2867
 4266TIP3    H212805   5.457   4.794   2.184 -0.1597 -0.6163  0.3301
 4267TIP3   OH212806   4.731   5.857   4.295  0.9596 -0.3905 -0.2338
 4267TIP3    H112807   4.650   5.836   4.249  0.6658 -1.5973  0.7528
 4267TIP3    H212808   4.800   5.838   4.232  0.4993 -0.1699 -0.8070
 4268TIP3   OH212809   0.708   2.894   0.080 -0.4167  0.1021 -0.6040
 4268TIP3    H112810   0.682   2.966   0.022 -0.2978  0.4881 -0.1787
 4268TIP3    H212811   0.752   2.936   0.153 -1.2676 -0.3225  0.1629
 4269TIP3   OH212812   1.965   0.898   4.363  0.4302  0.0840 -0.1599
 4269TIP3    H112813   1.916   0.979   4.380 -0.2758 -0.4804  0.6147
 4269TIP3    H212814   1.914   0.854   4.294  0.0382 -0.3288  0.3833
 4270TIP3   OH212815   5.960   3.161   1.614  0.1043  0.2697 -0.1120
 4270TIP3    H112816   5.894   3.100   1.648  0.1675  0.9079  1.1783
 4270TIP3    H212817   6.028   3.104   1.578 -0.1143 -0.4241  0.5437
 4271TIP3   OH212818   4.695   5.844   3.964 -0.2370  0.2655 -0.6095
 4271TIP3    H112819   4.718   5.935   3.981  0.0862  0.1199 -0.2154
 4271TIP3    H212820   4.780   5.799   3.958 -0.3963 -0.2254  0.5129
 4272TIP3   OH212821   2.110   2.308   1.333  0.2030 -0.0750  0.4568
 4272TIP3    H112822   2.054   2.381   1.358  2.8199  2.1906  0.2077
 4272TIP3    H212823   2.065   2.266   1.260 -1.0393  1.7669  0.1135
 4273TIP3   OH212824   0.296   1.970   2.706  0.0712  0.2087  0.2513
 4273TIP3    H112825   0.298   2.048   2.650 -0.3493  0.8758  1.1166
 4273TIP3    H212826   0.226   1.916   2.670  0.4788  0.1485 -0.4607
 4274TIP3   OH212827   5.861   5.691   2.640  1.1472  0.0656  0.6863
 4274TIP3    H112828   5.936   5.708   2.583 -0.5649 -0.4941 -1.9056
 4274TIP3    H212829   5.835   5.778   2.670  0.9554  0.6526 -1.0256
 4275TIP3   OH212830   4.632   1.648   2.339 -0.0411  0.0971 -0.1474
 4275TIP3    H112831   4.598   1.566   2.376 -0.1391  0.5645  0.8232
 4275TIP3    H212832   4.724   1.630   2.321  0.5479  0.4723  2.2516
 4276TIP3   OH212833   4.694   0.078   1.160 -0.1291 -0.4474 -0.5552
 4276TIP3    H112834   4.654   0.096   1.075  0.4445  1.3960 -0.4796
 4276TIP3    H212835   4.623   0.040   1.212 -0.7489 -0.6929 -1.5532
 4277TIP3   OH212836   0.872   2.108   4.641  0.7487  1.0674  0.6242
 4277TIP3    H112837   0.808   2.175   4.616 -0.0682 -0.4199 -1.6180
 4277TIP3    H212838   0.825   2.051   4.702  1.2131  2.0351  1.9493
 4278TIP3   OH212839   0.296   3.706   3.698 -0.7230  0.0874  0.2890
 4278TIP3    H112840   0.277   3.625   3.651  0.4007  0.1117 -0.2474
 4278TIP3    H212841   0.368   3.683   3.758  0.8970  1.0733 -1.1786
 4279TIP3   OH212842   4.107   1.539   3.936 -0.4117 -0.1508  0.0492
 4279TIP3    H112843   4.116   1.445   3.918 -1.5553 -0.0034 -1.4701
 4279TIP3    H212844   4.038   1.543   4.002  0.2830 -0.4066  0.8156
 4280TIP3   OH212845   5.107   4.877   1.601 -0.0601 -0.0532  0.1793
 4280TIP3    H112846   5.150   4.858   1.518  0.1867 -0.3436  0.3763
 4280TIP3    H212847   5.065   4.795   1.626  1.8075 -0.6508  1.5102
 4281TIP3   OH212848   4.712   2.664   1.959 -0.0406  0.8486  0.0447
 4281TIP3    H112849   4.754   2.676   1.874 -1.2945 -1.3196 -0.9586
 4281TIP3    H212850   4.698   2.753   1.991 -1.0366  1.8360 -2.8058
 4282TIP3   OH212851   1.290   4.973   4.461 -0.0483  0.3263  0.3480
 4282TIP3    H112852   1.371   4.933   4.492 -1.1542 -0.7416  2.0839
 4282TIP3    H212853   1.312   5.012   4.377  2.5556  1.1191  1.3091
 4283TIP3   OH212854   4.887   0.954   4.012 -0.7468  0.6710  0.2587
 4283TIP3    H112855   4.872   0.867   3.975 -0.0683 -0.5254  2.5977
 4283TIP3    H212856   4.931   1.003   3.942 -0.3490 -1.1438 -0.8112
 4284TIP3   OH212857   2.018   4.868   3.625 -0.1610 -0.2486  0.2471
 4284TIP3    H112858   2.012   4.798   3.690 -1.1783  0.6417  1.1422
 4284TIP3    H212859   1.935   4.864   3.578  0.5909 -0.9295 -1.0887
 4285TIP3   OH212860   3.324   5.310   4.595  0.9684  0.2064  0.5033
 4285TIP3    H112861   3.418   5.326   4.591  0.8047  0.9815 -0.7430
 4285TIP3    H212862   3.303   5.316   4.688  2.6882 -3.5274  1.3274
 4286TIP3   OH212863   6.007   5.588   3.487  0.0376  0.2344 -0.1064
 4286TIP3    H112864   6.031   5.514   3.432  0.0520  0.5662 -0.5495
 4286TIP3    H212865   5.986   5.658   3.426  0.5628  0.7696  0.3098
 4287TIP3   OH212866   2.417   3.645   4.635 -0.1590 -0.0530 -0.0720
 4287TIP3    H112867   2.456   3.661   4.721 -0.7143  0.8116  0.0355
 4287TIP3    H212868   2.488   3.662   4.573  0.5121 -1.6134  0.2393
 4288TIP3   OH212869   6.309   1.136   3.715 -0.3439 -0.4772  0.3834
 4288TIP3    H112870   6.282   1.072   3.781  0.2755 -1.0089  0.1365
 4288TIP3    H212871   6.354   1.084   3.649 -0.2913  0.1527 -0.0836
 4289TIP3   OH212872   0.674   4.680   1.552  0.1002  0.2980  0.1015
 4289TIP3    H112873   0.659   4.589   1.578  2.7605 -0.3901 -0.4082
 4289TIP3    H212874   0.657   4.681   1.458 -3.0293  1.1753  0.5876
 4290TIP3   OH212875   1.127   3.516   2.886 -0.3385  0.4887  0.3732
 4290TIP3    H112876   1.163   3.506   2.974 -0.3438 -1.2126  0.2155
 4290TIP3    H212877   1.135   3.429   2.847 -1.1816  0.9943 -0.9890
 4291TIP3   OH212878   5.498   4.948   4.855 -0.5691  0.4092  0.2702
 4291TIP3    H112879   5.436   4.928   4.925 -3.3964  0.8686 -1.9192
 4291TIP3    H212880   5.531   5.035   4.877 -0.7022  0.1620  1.5037
 4292TIP3   OH212881   2.902   3.833   3.433 -0.0903  0.2972 -0.1741
 4292TIP3    H112882   2.942   3.920   3.431  0.2209  0.1850  0.7058
 4292TIP3    H212883   2.872   3.822   3.523 -1.4006  0.0522 -0.6217
 4293TIP3   OH212884   2.670   3.152   2.532  0.1447 -0.4285  0.9884
 4293TIP3    H112885   2.612   3.229   2.533 -1.1599 -1.3456 -0.2199
 4293TIP3    H212886   2.758   3.189   2.531 -0.4410  1.1584 -1.0723
 4294TIP3   OH212887   1.280   3.326   2.364  0.5589  0.3885 -0.8541
 4294TIP3    H112888   1.333   3.404   2.379  0.1588  0.8159 -1.6129
 4294TIP3    H212889   1.195   3.347   2.402  0.7936 -0.1433  0.0002
 4295TIP3   OH212890   3.546   0.186   2.498 -0.2001 -0.2550 -0.3261
 4295TIP3    H112891   3.550   0.091   2.482  0.9287 -0.1556 -0.7654
 4295TIP3    H212892   3.626   0.205   2.547  0.1647  0.6404 -1.2358
 4296TIP3   OH212893   6.263   4.688   2.718 -0.7095 -0.4241  0.2606
 4296TIP3    H112894   6.190   4.629   2.699 -0.4240 -0.8877  0.5793
 4296TIP3    H212895   6.236   4.735   2.797 -0.0364 -1.6996  1.2857
 4297TIP3   OH212896   0.747   2.431   0.724  0.1024  0.1028  0.0213
 4297TIP3    H112897   0.814   2.499   0.735  0.3813 -0.2332  0.3793
 4297TIP3    H212898   0.779   2.378   0.651 -0.1781  0.4246 -0.3423
 4298TIP3   OH212899   6.046   5.683   1.459 -0.3329  0.0079  0.4164
 4298TIP3    H112900   6.003   5.651   1.538 -1.0389  0.0747  0.0627
 4298TIP3    H212901   6.006   5.768   1.442  0.6951  0.5575  0.6824
 4299TIP3   OH212902   5.550   2.791   4.938  0.1220  0.5814  0.5159
 4299TIP3    H112903   5.557   2.875   4.984 -1.7948  0.1040  1.8013
 4299TIP3    H212904   5.505   2.812   4.856 -1.8246  0.6648  1.5371
 4300TIP3   OH212905   6.253   2.317   2.676 -0.0259  0.4452  0.0284
 4300TIP3    H112906   6.183   2.315   2.611 -0.4792  0.2537  0.5095
 4300TIP3    H212907   6.227   2.386   2.737  0.3182  0.5270  0.0810
 4301TIP3   OH212908   2.512   1.135   2.529  0.0559  0.6485 -0.2550
 4301TIP3    H112909   2.581   1.199   2.512  0.2544  0.6634  0.5345
 4301TIP3    H212910   2.475   1.162   2.614  1.4051 -1.3430  1.0408
 4302TIP3   OH212911   0.696   4.142   5.038 -0.3919 -0.0188  0.4786
 4302TIP3    H112912   0.704   4.193   4.958  0.8265 -0.6788  0.1632
 4302TIP3    H212913   0.657   4.059   5.010 -1.6487  0.4009  0.8741
 4303TIP3   OH212914   4.874   3.770   2.252 -0.1406 -0.0305 -0.1297
 4303TIP3    H112915   4.938   3.750   2.321 -0.3951  1.3024  0.5227
 4303TIP3    H212916   4.926   3.775   2.172  0.1698 -1.5276 -0.0584
 4304TIP3   OH212917   0.608   3.879   2.948 -0.0413 -0.0447  0.2042
 4304TIP3    H112918   0.653   3.813   3.000  0.5079 -0.0271 -0.2355
 4304TIP3    H212919   0.628   3.856   2.857 -0.2822  0.4175  0.0267
 4305TIP3   OH212920   4.083   0.761   1.037  0.0594  0.3491  0.0809
 4305TIP3    H112921   4.098   0.685   0.982  2.0196  1.4671 -1.0574
 4305TIP3    H212922   4.143   0.750   1.111 -1.1067 -0.1495  0.9958
 4306TIP3   OH212923   3.798   0.333   2.553  0.3888  0.4422 -0.1709
 4306TIP3    H112924   3.756   0.311   2.637 -1.8034 -2.7260 -1.8600
 4306TIP3    H212925   3.766   0.421   2.533 -0.7870  0.4072  1.3333
 4307TIP3   OH212926   5.555   1.694   2.453 -0.0546  0.0977 -0.4711
 4307TIP3    H112927   5.606   1.668   2.530  1.1508  0.3385 -1.1581
 4307TIP3    H212928   5.467   1.710   2.487  0.5112  0.4754  0.9125
 4308TIP3   OH212929   5.166   3.020   3.394  0.2486 -0.3375  0.2409
 4308TIP3    H112930   5.149   2.998   3.302 -0.3493  0.9925  0.0063
 4308TIP3    H212931   5.209   3.105   3.390 -1.3414  0.5697  1.2451
 4309TIP3   OH212932   3.558   0.176   5.124 -0.6570 -0.0280  0.1613
 4309TIP3    H112933   3.469   0.210   5.135 -0.2479  0.6015  1.8632
 4309TIP3    H212934   3.611   0.252   5.100 -0.6853 -0.5387 -1.6039
 4310TIP3   OH212935   2.375   4.724   5.077  0.2171 -0.3097  0.0615
 4310TIP3    H112936   2.281   4.743   5.074 -0.0990 -1.9137 -2.6285
 4310TIP3    H212937   2.402   4.756   5.163 -3.0471 -1.0110  1.5175
 4311TIP3   OH212938   5.695   3.099   2.380  0.3789 -0.3743  0.0517
 4311TIP3    H112939   5.744   3.177   2.355 -0.1484 -0.8641 -2.9028
 4311TIP3    H212940   5.761   3.030   2.386  0.5462 -0.1937  0.3457
 4312TIP3   OH212941   1.576   0.053   0.093 -0.1637  0.2746  0.2275
 4312TIP3    H112942   1.565   0.121   0.026  0.5061 -0.7019 -0.9182
 4312TIP3    H212943   1.657   0.008   0.068 -0.3237 -0.6179  1.2559
 4313TIP3   OH212944   6.270   0.826   2.916 -0.1881  0.1550 -0.0803
 4313TIP3    H112945   6.185   0.818   2.874 -0.0538 -0.2428 -0.2751
 4313TIP3    H212946   6.329   0.854   2.847  0.5359 -2.7482 -0.7821
 4314TIP3   OH212947   2.483   1.969   0.995 -0.5972  0.3538  0.5927
 4314TIP3    H112948   2.480   2.029   0.921 -0.0238  3.0115  2.5544
 4314TIP3    H212949   2.391   1.954   1.017 -0.7579 -0.0591 -0.3583
 4315TIP3   OH212950   1.064   1.494   1.866  0.3863  0.9839  0.5024
 4315TIP3    H112951   1.019   1.420   1.824  0.4852  1.0649  0.2550
 4315TIP3    H212952   1.003   1.523   1.935 -0.0543  1.2525  0.0062
 4316TIP3   OH212953   3.569   4.459   0.998 -0.1568 -0.2921  0.8018
 4316TIP3    H112954   3.618   4.449   1.079  2.7546  1.1703 -0.6337
 4316TIP3    H212955   3.620   4.521   0.946 -2.5523 -0.1872 -1.6748
 4317TIP3   OH212956   1.333   4.167   3.502 -0.2846  0.1150  0.4714
 4317TIP3    H112957   1.242   4.179   3.478 -0.2503 -0.5193  0.0176
 4317TIP3    H212958   1.330   4.144   3.595 -0.3703  3.2839  1.3897
 4318TIP3   OH212959   2.902   3.431   0.585  0.2869 -0.7997  0.0861
 4318TIP3    H112960   2.953   3.497   0.538  0.9644 -0.6039  1.0764
 4318TIP3    H212961   2.816   3.470   0.597  0.4972 -0.3460  0.1141
 4319TIP3   OH212962   3.750   5.271   0.875  0.1432  0.5643 -0.3903
 4319TIP3    H112963   3.690   5.343   0.853 -1.9547 -0.3491  1.9125
 4319TIP3    H212964   3.717   5.196   0.825 -0.2341  0.2186  0.3694
 4320TIP3   OH212965   3.553   4.358   4.911 -0.2191 -0.1082  0.0903
 4320TIP3    H112966   3.465   4.393   4.899 -1.4223 -2.3566  1.4578
 4320TIP3    H212967   3.593   4.414   4.977  0.5216  2.5998 -2.4401
 4321TIP3   OH212968   2.488   4.951   1.622  0.8282 -0.0577  0.0965
 4321TIP3    H112969   2.559   5.015   1.627  2.3487 -1.3321 -2.7362
 4321TIP3    H212970   2.427   4.988   1.558  1.0848 -0.8522 -0.6196
 4322TIP3   OH212971   5.122   1.176   4.212 -0.3154 -0.0726  0.2624
 4322TIP3    H112972   5.029   1.188   4.194 -0.3357  1.5356  1.2531
 4322TIP3    H212973   5.166   1.204   4.132 -0.6684 -0.9469 -0.2512
 4323TIP3   OH212974   3.635   5.202   1.496 -0.0969 -0.2131 -0.7329
 4323TIP3    H112975   3.669   5.200   1.585 -1.3166  1.0616 -0.2024
 4323TIP3    H212976   3.568   5.270   1.497 -0.0956 -0.1172 -2.6491
 4324TIP3   OH212977   2.233   4.113   4.653  0.0113 -0.4552  0.3872
 4324TIP3    H112978   2.279   4.104   4.737  0.2880 -0.9756  0.1844
 4324TIP3    H212979   2.169   4.043   4.654  0.7252 -1.1420 -0.2830
 4325TIP3   OH212980   4.980   2.937   2.087 -0.1828 -0.1486  0.8177
 4325TIP3    H112981   5.037   2.883   2.033 -0.1851 -1.8644  2.4030
 4325TIP3    H212982   5.039   2.987   2.143 -0.2103  0.1966  0.5432
 4326TIP3   OH212983   4.844   3.651   4.791 -0.0904 -0.5982 -0.0852
 4326TIP3    H112984   4.841   3.628   4.698  3.5469 -0.8817 -0.2742
 4326TIP3    H212985   4.852   3.746   4.791  0.8995 -0.6738 -0.1429
 4327TIP3   OH212986   2.050   0.708   4.154  0.1863  1.0544  0.1585
 4327TIP3    H112987   2.126   0.767   4.149 -0.0442  1.4423  1.1262
 4327TIP3    H212988   2.027   0.693   4.062  0.9069  1.6122 -0.1308
 4328TIP3   OH212989   4.042   3.859   1.752 -0.7815  0.2736 -0.1080
 4328TIP3    H112990   4.019   3.797   1.821  0.3226  0.7445  0.7158
 4328TIP3    H212991   4.137   3.852   1.743 -0.7818  0.9894 -0.8341
 4329TIP3   OH212992   2.655   2.962   2.734 -0.4212 -0.4250  0.1241
 4329TIP3    H112993   2.575   2.992   2.778  0.0224 -0.3871  0.9360
 4329TIP3    H212994   2.669   3.026   2.665 -0.1257  0.6158  1.1075
 4330TIP3   OH212995   0.865   0.116   4.095 -0.4034 -0.1054 -0.0668
 4330TIP3    H112996   0.906   0.193   4.133 -0.5841 -0.4243  0.7909
 4330TIP3    H212997   0.936   0.051   4.090 -0.6125 -0.3965  0.6789
 4331TIP3   OH212998   0.894   1.871   0.092 -0.5750  0.5295  0.5808
 4331TIP3    H112999   0.807   1.855   0.130 -0.5793 -2.1520 -0.3429
 4331TIP3    H213000   0.955   1.848   0.162 -0.5982  1.5701  0.9474
 4332TIP3   OH213001   0.776   4.452   0.196  0.1408  0.7724 -0.2025
 4332TIP3    H113002   0.726   4.481   0.119 -1.7811  0.1991  0.7822
 4332TIP3    H213003   0.729   4.488   0.271 -1.0420 -2.8060  0.9759
 4333TIP3   OH213004   1.692   4.096   4.374  0.6003  0.2090 -0.3908
 4333TIP3    H113005   1.704   4.072   4.466  1.9144 -3.0822 -1.2376
 4333TIP3    H213006   1.599   4.082   4.358  0.2588  1.2877  0.5096
 4334TIP3   OH213007   5.368   2.392   3.696  0.3266 -0.2249  0.9056
 4334TIP3    H113008   5.328   2.383   3.782  0.8550 -1.5933  1.0281
 4334TIP3    H213009   5.298   2.429   3.641 -0.5773 -1.0030  1.5082
 4335TIP3   OH213010   2.850   1.117   1.829  0.0667 -0.1432 -0.5319
 4335TIP3    H113011   2.793   1.079   1.762 -1.1804 -0.6451  0.7652
 4335TIP3    H213012   2.906   1.045   1.857 -0.8812 -0.5216  0.4558
 4336TIP3   OH213013   2.859   1.181   3.869 -0.6132  0.8070 -0.0304
 4336TIP3    H113014   2.930   1.164   3.931  0.7040  1.3868 -1.2893
 4336TIP3    H213015   2.814   1.257   3.905  1.8505  2.9257 -1.0324
 4337TIP3   OH213016   2.094   0.892   1.385  0.4816 -0.3335  0.4536
 4337TIP3    H113017   2.141   0.974   1.393  1.2577 -0.7121 -0.0494
 4337TIP3    H213018   2.020   0.900   1.445  0.7489  0.5817  0.6732
 4338TIP3   OH213019   5.487   4.730   1.591  0.1385 -0.4118  0.1363
 4338TIP3    H113020   5.441   4.813   1.606  1.1928 -0.0343  1.3976
 4338TIP3    H213021   5.416   4.665   1.586 -0.6072  0.2750  1.2074
 4339TIP3   OH213022   1.850   2.731   2.025 -0.1298  0.4766  0.2553
 4339TIP3    H113023   1.850   2.654   2.082  1.2618 -0.0814 -0.4602
 4339TIP3    H213024   1.908   2.793   2.068  0.3616  0.3271 -0.1770
 4340TIP3   OH213025   3.643   3.148   1.146  0.3553 -0.1450  0.0241
 4340TIP3    H113026   3.557   3.157   1.105  0.5035  0.4722 -0.1592
 4340TIP3    H213027   3.644   3.058   1.180 -0.6302  0.0571  0.6389
 4341TIP3   OH213028   2.568   0.395   2.472 -0.1610  0.2283  0.1858
 4341TIP3    H113029   2.591   0.453   2.400 -0.5469 -0.7256 -0.7342
 4341TIP3    H213030   2.650   0.348   2.491  0.1278  0.9887  0.8699
 4342TIP3   OH213031   5.990   2.927   1.327  0.0556 -0.3755  0.4738
 4342TIP3    H113032   5.997   2.833   1.310  1.4492 -0.3126  0.5912
 4342TIP3    H213033   6.043   2.941   1.406  1.1291  0.7308 -0.3987
 4343TIP3   OH213034   4.215   2.362   2.723 -0.1999 -0.2099 -0.0227
 4343TIP3    H113035   4.124   2.384   2.700  0.0288  2.3238  1.1149
 4343TIP3    H213036   4.263   2.368   2.641 -0.8854 -0.4297 -0.4479
 4344TIP3   OH213037   1.435   0.660   3.054  0.3514  0.0105  0.4740
 4344TIP3    H113038   1.504   0.690   2.994  0.3201  1.5876  1.1651
 4344TIP3    H213039   1.355   0.701   3.019 -0.5616 -2.8044 -1.0714
 4345TIP3   OH213040   1.284   4.632   3.239  0.4615  0.5138  0.4133
 4345TIP3    H113041   1.224   4.667   3.305  1.1419  1.0590  0.7500
 4345TIP3    H213042   1.229   4.622   3.161 -0.0856  0.9576  0.7281
 4346TIP3   OH213043   3.226   3.088   0.370  0.1983 -0.0449  0.0402
 4346TIP3    H113044   3.157   3.135   0.416  0.5431  0.0440  0.4719
 4346TIP3    H213045   3.182   3.013   0.330  0.1330 -0.9423  1.7266
 4347TIP3   OH213046   1.589   2.482   2.760 -0.2399  0.5916 -0.3221
 4347TIP3    H113047   1.545   2.549   2.708  1.4409  0.9111 -1.4375
 4347TIP3    H213048   1.639   2.531   2.826  0.4243  0.4234 -0.6869
 4348TIP3   OH213049   2.844   0.817   3.368 -0.2889  0.5584 -0.0505
 4348TIP3    H113050   2.819   0.756   3.299  0.0217  0.4515 -0.0679
 4348TIP3    H213051   2.849   0.762   3.447 -0.4246  0.6405  0.0175
 4349TIP3   OH213052   1.305   4.465   4.436 -0.9061 -0.1499  0.5535
 4349TIP3    H113053   1.377   4.401   4.435 -0.8031 -0.0469  1.0497
 4349TIP3    H213054   1.340   4.542   4.392 -0.2663  0.3583  1.8765
 4350TIP3   OH213055   1.468   4.802   3.799 -0.5415 -0.2164  0.3216
 4350TIP3    H113056   1.506   4.839   3.719 -1.5170  0.9694  0.3691
 4350TIP3    H213057   1.430   4.718   3.770 -0.0477 -0.2571 -0.2388
 4351TIP3   OH213058   2.033   1.828   4.134 -0.5588  0.0272  0.3115
 4351TIP3    H113059   2.023   1.734   4.120  0.0913  0.2112 -1.6948
 4351TIP3    H213060   1.945   1.860   4.151 -0.9516 -0.7874 -0.1380
 4352TIP3   OH213061   1.410   3.503   2.677 -0.0193  0.1516 -0.0343
 4352TIP3    H113062   1.476   3.497   2.745  0.5603  0.3970 -0.5628
 4352TIP3    H213063   1.349   3.431   2.696 -1.1741  1.5867  2.0627
 4353TIP3   OH213064   1.961   1.040   4.031  0.2858  0.2966 -0.1148
 4353TIP3    H113065   2.052   1.012   4.032 -0.0038 -0.7165 -0.6947
 4353TIP3    H213066   1.922   0.991   3.959 -1.1792 -0.7635  1.3395
 4354TIP3   OH213067   0.917   4.493   3.679  0.0878 -0.9673  0.1395
 4354TIP3    H113068   0.973   4.502   3.602  0.4505 -0.7192  0.4311
 4354TIP3    H213069   0.828   4.491   3.643  0.2297 -0.4041 -0.2489
 4355TIP3   OH213070   0.849   2.957   4.957  0.0141 -0.3256  0.0421
 4355TIP3    H113071   0.826   2.883   5.013  1.2408  0.8868  2.2601
 4355TIP3    H213072   0.866   2.918   4.871 -2.0736 -2.2297  0.4240
 4356TIP3   OH213073   3.187   5.400   3.484 -0.0469 -0.2445 -0.0184
 4356TIP3    H113074   3.154   5.485   3.452 -0.3797 -0.4556 -0.2460
 4356TIP3    H213075   3.239   5.366   3.411  0.6931  0.0922  0.3440
 4357TIP3   OH213076   1.010   5.753   3.575 -0.4080  0.5814 -0.3104
 4357TIP3    H113077   1.028   5.725   3.665 -1.6244 -0.3763 -0.3430
 4357TIP3    H213078   1.066   5.829   3.563  1.5171 -0.6181  0.4911
 4358TIP3   OH213079   1.454   4.059   4.936  0.5990 -0.3375  0.3162
 4358TIP3    H113080   1.408   4.113   4.872  1.8702 -0.3276 -0.6181
 4358TIP3    H213081   1.494   3.989   4.885  0.6681 -1.0128  1.2539
 4359TIP3   OH213082   5.339   2.236   3.288 -0.3651 -0.3007  0.2712
 4359TIP3    H113083   5.329   2.330   3.273  1.5205 -0.2417 -0.9286
 4359TIP3    H213084   5.366   2.229   3.380 -0.8244  0.2810  0.4583
 4360TIP3   OH213085   0.796   5.226   1.294 -0.1665 -0.4673  0.8307
 4360TIP3    H113086   0.856   5.176   1.239  0.9891  0.6407  1.0306
 4360TIP3    H213087   0.811   5.195   1.383 -1.9051 -2.1289  0.6150
 4361TIP3   OH213088   3.705   3.236   0.384 -0.2175  0.1568 -0.2380
 4361TIP3    H113089   3.749   3.316   0.413  0.7704 -0.5959  0.4229
 4361TIP3    H213090   3.618   3.240   0.424  0.7397 -0.3462  2.1137
 4362TIP3   OH213091   6.188   4.367   2.050 -0.1865  0.0878  0.2632
 4362TIP3    H113092   6.226   4.281   2.068 -3.3170 -1.2531  1.2583
 4362TIP3    H213093   6.111   4.371   2.108 -0.8623  3.0520 -0.6763
 4363TIP3   OH213094   1.308   0.779   0.765  0.4876  0.1114 -0.7876
 4363TIP3    H113095   1.342   0.835   0.696  3.5606 -1.1875 -0.4998
 4363TIP3    H213096   1.273   0.702   0.720  0.7128  0.1211 -0.9771
 4364TIP3   OH213097   2.838   2.768   4.725  0.4589  0.2638 -0.4396
 4364TIP3    H113098   2.883   2.761   4.641 -1.4593  0.0749 -1.5237
 4364TIP3    H213099   2.806   2.858   4.727  1.2783  0.5370  0.5214
 4365TIP3   OH213100   1.717   3.244   0.277  0.0521 -0.4562  0.5643
 4365TIP3    H113101   1.703   3.325   0.327  1.8354  0.7466 -0.7465
 4365TIP3    H213102   1.651   3.248   0.207  0.3041  0.0081  0.3478
 4366TIP3   OH213103   1.811   3.909   2.373  0.7513  0.3064  0.1756
 4366TIP3    H113104   1.844   3.857   2.300  0.4617  0.1341  0.1694
 4366TIP3    H213105   1.878   3.976   2.386  1.9235 -1.0245  1.2325
 4367TIP3   OH213106   3.206   0.517   4.836  0.4571 -0.0600  0.2203
 4367TIP3    H113107   3.126   0.464   4.839  1.7204 -2.3233 -1.8006
 4367TIP3    H213108   3.271   0.459   4.795  2.9773  1.8839  1.2003
 4368TIP3   OH213109   5.351   0.523   3.849  0.8905 -0.1478 -0.4171
 4368TIP3    H113110   5.356   0.434   3.885 -0.3234 -0.0823 -0.0445
 4368TIP3    H213111   5.258   0.543   3.849  1.1771  1.2388 -0.2495
 4369TIP3   OH213112   2.624   4.064   4.249 -0.8389 -0.6256  0.3774
 4369TIP3    H113113   2.713   4.094   4.231 -1.6913  2.0889  0.2991
 4369TIP3    H213114   2.629   4.031   4.339  0.0365  0.4853  0.7624
 4370TIP3   OH213115   4.920   5.142   3.953 -0.2437  0.1925  0.9126
 4370TIP3    H113116   4.920   5.202   3.878 -2.0766  2.2727  2.4102
 4370TIP3    H213117   4.885   5.060   3.918  0.5849  0.5459 -0.8433
 4371TIP3   OH213118   5.544   3.475   1.344  0.7288 -0.1233  0.2440
 4371TIP3    H113119   5.611   3.482   1.276  2.5075  0.9666  1.9970
 4371TIP3    H213120   5.522   3.566   1.366 -0.5534 -0.4650  0.4800
 4372TIP3   OH213121   0.114   0.043   1.404 -0.7710 -0.1445 -0.2429
 4372TIP3    H113122   0.082   0.129   1.375  0.1888  0.2071 -0.3148
 4372TIP3    H213123   0.045   0.010   1.462 -1.5129  0.3156 -0.8344
 4373TIP3   OH213124   2.673   2.542   1.208  0.6550  0.0897 -0.0503
 4373TIP3    H113125   2.610   2.544   1.280  0.4425 -0.6863 -0.2069
 4373TIP3    H213126   2.674   2.450   1.179  0.7432  0.3863 -1.0288
 4374TIP3   OH213127   4.528   3.819   0.525  0.4143  0.0236  0.0217
 4374TIP3    H113128   4.586   3.885   0.563 -0.2146  0.9176 -0.5224
 4374TIP3    H213129   4.441   3.842   0.558  0.4751 -1.9306  1.6736
 4375TIP3   OH213130   4.196   2.268   3.247  0.3666  0.0429 -0.3081
 4375TIP3    H113131   4.205   2.363   3.255 -1.3810  0.2566 -0.4836
 4375TIP3    H213132   4.164   2.254   3.158 -0.4981 -0.5964  0.0835
 4376TIP3   OH213133   1.552   5.123   1.650  0.2548 -0.1243 -0.3278
 4376TIP3    H113134   1.611   5.052   1.675  0.3802 -0.1031 -0.5661
 4376TIP3    H213135   1.574   5.195   1.710  1.3178  0.3113 -1.2121
 4377TIP3   OH213136   3.236   0.931   2.212 -0.3869  0.6068  0.2083
 4377TIP3    H113137   3.270   0.879   2.285 -1.7500 -1.0897 -0.2800
 4377TIP3    H213138   3.143   0.907   2.207 -0.7755  2.1893 -0.8523
 4378TIP3   OH213139   4.427   0.971   0.126  0.0555 -0.0843  0.1231
 4378TIP3    H113140   4.388   0.887   0.103 -0.3808  0.1865 -0.1254
 4378TIP3    H213141   4.511   0.972   0.081 -0.7702  0.4282 -1.4628
 4379TIP3   OH213142   0.085   1.122   0.591 -0.5298 -0.4275 -0.1153
 4379TIP3    H113143   0.150   1.081   0.535 -0.4281  1.8787 -1.8675
 4379TIP3    H213144   0.133   1.151   0.668  0.2620  0.0277 -0.7634
 4380TIP3   OH213145   5.397   1.674   3.856  0.4782 -0.0019  0.0774
 4380TIP3    H113146   5.375   1.666   3.949  1.1283 -2.2851  0.0835
 4380TIP3    H213147   5.321   1.716   3.817 -0.2299  0.0688  1.4788
 4381TIP3   OH213148   4.291   2.463   3.637 -0.1760 -0.9262 -0.2530
 4381TIP3    H113149   4.310   2.508   3.555 -1.2203 -1.2984 -0.7174
 4381TIP3    H213150   4.351   2.502   3.700 -1.5001  1.6392 -0.4553
 4382TIP3   OH213151   1.553   1.760   3.059  0.6176 -0.3014 -0.1365
 4382TIP3    H113152   1.504   1.712   2.992  1.1557 -1.5228  0.3244
 4382TIP3    H213153   1.643   1.762   3.026  0.4091  1.5040 -0.7432
 4383TIP3   OH213154   3.400   0.616   5.031 -0.4546  0.0874  0.2796
 4383TIP3    H113155   3.375   0.646   4.944  1.4321  0.0653 -0.2986
 4383TIP3    H213156   3.385   0.521   5.029 -1.6244  0.2433  0.4477
 4384TIP3   OH213157   2.983   0.597   2.437  0.0491  0.9024 -0.0062
 4384TIP3    H113158   3.048   0.648   2.389 -1.0296  2.9460  0.5972
 4384TIP3    H213159   2.985   0.511   2.396  2.0002  1.3805 -1.0232
 4385TIP3   OH213160   3.501   4.036   1.619 -0.1934  0.3114 -0.0968
 4385TIP3    H113161   3.563   3.988   1.673 -1.3499 -0.9164  0.1912
 4385TIP3    H213162   3.486   3.981   1.543 -0.9820  0.5374 -0.1232
 4386TIP3   OH213163   1.915   0.245   3.155  0.1737 -0.1348 -0.0453
 4386TIP3    H113164   1.831   0.280   3.127  0.2488 -0.3424 -0.5446
 4386TIP3    H213165   1.951   0.204   3.077 -0.4888 -2.4712  0.8000
 4387TIP3   OH213166   1.889   2.985   4.800 -0.2066  0.1646 -0.3360
 4387TIP3    H113167   1.845   2.991   4.884 -0.3581  0.0930 -0.4100
 4387TIP3    H213168   1.934   3.069   4.790  1.5452 -0.5731  0.7801
 4388TIP3   OH213169   1.751   3.250   4.611 -0.4578 -0.0133 -0.0881
 4388TIP3    H113170   1.668   3.235   4.566 -0.1502 -1.9190 -0.0881
 4388TIP3    H213171   1.809   3.182   4.578  0.9325  0.9241  0.3528
 4389TIP3   OH213172   4.515   4.650   4.623 -0.0205 -0.1665 -0.0891
 4389TIP3    H113173   4.429   4.689   4.632 -0.0609 -0.6430  1.9131
 4389TIP3    H213174   4.550   4.646   4.712  1.0665 -2.1912 -0.5359
 4390TIP3   OH213175   3.714   2.686   4.962 -0.5057 -0.4257 -0.2309
 4390TIP3    H113176   3.719   2.781   4.960  1.0021 -0.4811 -0.5240
 4390TIP3    H213177   3.765   2.660   5.039 -1.5009 -0.9841  0.2647
 4391TIP3   OH213178   4.424   3.824   1.257 -0.5794  0.0300 -0.3538
 4391TIP3    H113179   4.384   3.744   1.223 -0.6665  0.0146 -0.2155
 4391TIP3    H213180   4.507   3.796   1.294 -1.2624 -0.2446  1.0372
 4392TIP3   OH213181   3.513   3.857   4.763  0.5961 -0.3084 -0.1220
 4392TIP3    H113182   3.484   3.948   4.749  0.4104 -0.4411 -0.6582
 4392TIP3    H213183   3.590   3.864   4.819  0.8123  0.2099 -0.4775
 4393TIP3   OH213184   0.718   2.711   5.025 -0.2194 -0.5445  0.3641
 4393TIP3    H113185   0.675   2.701   4.940  1.5393 -0.1358 -0.6119
 4393TIP3    H213186   0.703   2.628   5.070 -0.2225 -1.1679 -0.7776
 4394TIP3   OH213187   5.150   1.406   0.817  0.2771 -0.0620  0.4588
 4394TIP3    H113188   5.088   1.477   0.803  0.5425  0.0739 -0.0601
 4394TIP3    H213189   5.118   1.360   0.894 -0.3809  0.1000  0.2828
 4395TIP3   OH213190   5.231   3.080   1.940  0.8206  0.3954 -0.0088
 4395TIP3    H113191   5.215   3.040   1.855 -2.0503  0.9815  0.1589
 4395TIP3    H213192   5.196   3.168   1.932  2.1721  1.0899  1.2581
 4396TIP3   OH213193   2.020   2.162   2.504  0.1704  0.0369 -0.1471
 4396TIP3    H113194   2.050   2.142   2.592 -0.3673 -0.3547 -0.0448
 4396TIP3    H213195   2.100   2.166   2.451  0.4418 -0.4654  0.2151
 4397TIP3   OH213196   5.394   2.643   0.630 -0.4938  0.0053  0.6690
 4397TIP3    H113197   5.316   2.621   0.681 -0.4265  0.6443  1.0581
 4397TIP3    H213198   5.436   2.558   0.613 -0.5563 -0.2250  1.6162
 4398TIP3   OH213199   4.101   2.561   3.305 -0.5304 -0.0981  0.2604
 4398TIP3    H113200   4.151   2.626   3.355 -0.3045  0.0971 -0.2109
 4398TIP3    H213201   4.044   2.613   3.249  0.1632 -0.2832 -0.6437
 4399TIP3   OH213202   5.716   4.126   4.419  0.0302  0.5815  0.0438
 4399TIP3    H113203   5.714   4.203   4.475 -0.5861  0.3918  0.2964
 4399TIP3    H213204   5.664   4.150   4.343 -1.3678 -0.0461  0.7632
 4400TIP3   OH213205   0.807   1.904   3.420  0.4817 -0.0571 -0.0787
 4400TIP3    H113206   0.726   1.918   3.371 -0.1343  0.1705  0.9808
 4400TIP3    H213207   0.871   1.880   3.353 -0.1991  0.7752 -1.0644
 4401TIP3   OH213208   4.584   2.401   4.130  0.2277  0.5560  0.0043
 4401TIP3    H113209   4.536   2.359   4.201  1.4855  1.3768  1.3815
 4401TIP3    H213210   4.592   2.493   4.157  1.6610  0.6571 -0.6674
 4402TIP3   OH213211   2.409   2.777   0.045 -0.3506 -0.3386 -0.1819
 4402TIP3    H113212   2.488   2.832   0.039  0.4820 -1.3174  1.3233
 4402TIP3    H213213   2.352   2.811  -0.025  0.3276  2.0887  0.3316
 4403TIP3   OH213214   1.642   0.974   1.699 -0.0650 -0.4076  0.6984
 4403TIP3    H113215   1.601   0.892   1.672  0.8979 -1.0971  1.2910
 4403TIP3    H213216   1.645   1.026   1.618 -0.6201 -0.9660  0.2995
 4404TIP3   OH213217   2.306   5.881   0.502 -0.4291 -0.1402  0.1998
 4404TIP3    H113218   2.396   5.853   0.518  0.5719  1.9268 -1.2998
 4404TIP3    H213219   2.299   5.885   0.407 -1.6326  1.1896  0.3165
 4405TIP3   OH213220   5.842   3.086   2.732  0.3458  0.2655  0.1027
 4405TIP3    H113221   5.894   3.138   2.671 -0.1814  1.4809  0.6509
 4405TIP3    H213222   5.854   3.130   2.817 -0.4177 -0.2846  0.5104
 4406TIP3   OH213223   3.851   0.010   1.442  0.2533 -0.3003  0.1587
 4406TIP3    H113224   3.907  -0.035   1.379  0.6528  0.6375 -0.1832
 4406TIP3    H213225   3.773   0.034   1.391  0.4506  0.2067  0.0899
 4407TIP3   OH213226   5.124   0.921   3.551 -0.3079 -0.3550 -0.3215
 4407TIP3    H113227   5.176   0.880   3.482  2.1936 -1.2852  1.9292
 4407TIP3    H213228   5.034   0.894   3.533  0.8084 -4.5548 -0.6936
 4408TIP3   OH213229   4.800   2.009   4.698 -0.2980 -0.1448 -0.2533
 4408TIP3    H113230   4.795   2.037   4.789 -0.3134  0.4498 -0.4338
 4408TIP3    H213231   4.825   2.087   4.650 -0.3005 -0.4522 -0.7625
 4409TIP3   OH213232   1.795   0.198   0.789  0.0966  0.4232 -0.0962
 4409TIP3    H113233   1.768   0.223   0.700 -0.8397 -1.1868 -0.3066
 4409TIP3    H213234   1.853   0.269   0.817  0.1330  1.1468 -1.8493
 4410TIP3   OH213235   2.683   0.980   3.905  0.3786 -0.8375  0.6074
 4410TIP3    H113236   2.607   0.993   3.848  0.4990 -1.1909  0.3714
 4410TIP3    H213237   2.742   1.051   3.882 -0.7282  0.7104  2.2077
 4411TIP3   OH213238   4.512   2.951   4.286 -0.4102  0.8009  0.1537
 4411TIP3    H113239   4.575   2.998   4.341 -1.0466  0.9847  0.7416
 4411TIP3    H213240   4.502   3.006   4.208  0.1341  0.7814  0.0637
 4412TIP3   OH213241   2.396   4.935   2.382 -0.1344 -0.4905 -0.7118
 4412TIP3    H113242   2.463   4.870   2.361  0.8124  0.6684 -1.4601
 4412TIP3    H213243   2.408   4.953   2.475  1.2455  0.3572 -1.0204
 4413TIP3   OH213244   5.895   2.757   1.528  0.2670  0.3029  0.0357
 4413TIP3    H113245   5.891   2.714   1.442 -0.0546 -2.2928  1.2539
 4413TIP3    H213246   5.843   2.701   1.586 -0.6450  2.6972  1.6961
 4414TIP3   OH213247   3.646   0.645   1.184  0.4269 -0.2672  0.2479
 4414TIP3    H113248   3.683   0.556   1.179 -0.5110 -0.6405 -0.2923
 4414TIP3    H213249   3.717   0.701   1.152  0.9673 -0.8334  0.4119
 4415TIP3   OH213250   1.960   5.373   1.964 -0.3723  0.4311  0.0998
 4415TIP3    H113251   2.003   5.288   1.963 -1.4072 -0.1144  0.4808
 4415TIP3    H213252   1.984   5.411   2.049  0.0327  0.4964 -0.0419
 4416TIP3   OH213253   3.201   1.007   2.924  0.3993  0.4410  0.5976
 4416TIP3    H113254   3.232   1.096   2.941 -1.2264  1.1832 -0.1177
 4416TIP3    H213255   3.121   0.999   2.976  0.7590 -0.7719  1.0008
 4417TIP3   OH213256   1.755   0.827   0.734 -0.4137  0.1674  0.0430
 4417TIP3    H113257   1.798   0.872   0.807  0.4616  0.5051 -0.6540
 4417TIP3    H213258   1.757   0.735   0.758 -2.3893  0.4528  1.5759
 4418TIP3   OH213259   1.866   2.194   3.821 -0.1063  0.4769  0.3120
 4418TIP3    H113260   1.781   2.149   3.824 -0.2116  0.7224  1.2167
 4418TIP3    H213261   1.930   2.123   3.828 -0.2738  0.4706  1.9603
 4419TIP3   OH213262   4.949   4.497   2.594 -0.7373  0.2564  0.3413
 4419TIP3    H113263   4.975   4.469   2.506  0.0540  0.7356  0.4072
 4419TIP3    H213264   4.863   4.538   2.583 -1.1665 -0.7230 -0.0126
 4420TIP3   OH213265   1.196   2.550   1.144  0.0182  0.1317 -0.6073
 4420TIP3    H113266   1.224   2.529   1.233 -0.1866  0.6170 -0.4217
 4420TIP3    H213267   1.134   2.481   1.121  1.2397 -0.8913 -0.9769
 4421TIP3   OH213268   2.807   5.289   2.724 -0.4060  0.8512  0.5716
 4421TIP3    H113269   2.785   5.284   2.817 -1.5794 -0.8837  0.2399
 4421TIP3    H213270   2.903   5.292   2.723 -0.3810  2.4843  1.8491
 4422TIP3   OH213271   4.448   3.927   4.828  0.0506  0.2011 -0.5796
 4422TIP3    H113272   4.485   3.857   4.881  0.2632 -0.3727 -1.4675
 4422TIP3    H213273   4.444   4.003   4.887  0.6593 -0.3056  0.1228
 4423TIP3   OH213274   0.134   1.815   4.105 -0.0808 -0.0509  0.4510
 4423TIP3    H113275   0.074   1.864   4.048  0.1178 -0.4559 -0.1154
 4423TIP3    H213276   0.078   1.779   4.173 -0.1418  1.4916  1.2559
 4424TIP3   OH213277   0.165   1.017   4.602 -0.3521  0.3248 -0.0666
 4424TIP3    H113278   0.125   1.003   4.688  1.0108 -0.9440  0.4001
 4424TIP3    H213279   0.098   0.990   4.539 -1.2985  1.1099  0.5678
 4425TIP3   OH213280   2.894   4.606   4.150  0.2150 -0.1205  0.2539
 4425TIP3    H113281   2.864   4.624   4.239  0.3627  1.4315  0.0218
 4425TIP3    H213282   2.815   4.609   4.097  0.4472  2.0906 -0.0814
 4426TIP3   OH213283   1.995   4.045   3.470  0.3043  0.2255  0.2827
 4426TIP3    H113284   1.958   4.108   3.532  0.8058  0.3747  0.4320
 4426TIP3    H213285   1.939   4.052   3.393  0.1192  0.5664  0.4448
 4427TIP3   OH213286   5.978   5.971   2.416  0.5697 -0.3894  0.2996
 4427TIP3    H113287   6.059   6.020   2.428  0.9533 -0.8746 -0.2168
 4427TIP3    H213288   6.006   5.886   2.381 -0.1691 -0.5042 -0.0489
 4428TIP3   OH213289   6.070   2.371   5.153 -0.1114  0.2642 -0.2086
 4428TIP3    H113290   6.087   2.417   5.070 -0.8341 -0.1258 -0.5889
 4428TIP3    H213291   5.992   2.318   5.134 -0.6683  0.6541  0.9141
 4429TIP3   OH213292   2.188   3.206   0.786  0.4088  0.0083  0.0642
 4429TIP3    H113293   2.202   3.300   0.774 -0.5519  0.3161  1.1322
 4429TIP3    H213294   2.093   3.196   0.787  0.4309 -1.4157 -2.9032
 4430TIP3   OH213295   3.508   4.570   2.613  0.6885 -0.1859  0.0698
 4430TIP3    H113296   3.553   4.519   2.546  0.4301 -0.2356 -0.0694
 4430TIP3    H213297   3.506   4.513   2.690 -0.2904 -0.6985 -0.3214
 4431TIP3   OH213298   0.386   1.598   3.566 -0.5169  0.3281 -0.6538
 4431TIP3    H113299   0.479   1.585   3.588 -1.0342 -1.1154  0.9316
 4431TIP3    H213300   0.357   1.668   3.625 -0.8358 -0.4586  0.1480
 4432TIP3   OH213301   1.815   1.209   3.815  0.0646 -0.3927 -0.4188
 4432TIP3    H113302   1.879   1.140   3.830 -0.1541 -0.8037 -1.3543
 4432TIP3    H213303   1.817   1.224   3.721 -1.4837 -0.6748 -0.5157
 4433TIP3   OH213304   2.451   2.636   4.439 -0.5550  0.0551 -0.7548
 4433TIP3    H113305   2.528   2.636   4.496  0.1980  2.7543 -1.6383
 4433TIP3    H213306   2.487   2.645   4.351 -1.8308 -0.1948 -1.3149
 4434TIP3   OH213307   2.127   2.464   3.135 -0.4479  0.1876  0.1705
 4434TIP3    H113308   2.113   2.422   3.220  2.7499  0.2431  0.8759
 4434TIP3    H213309   2.067   2.539   3.135 -2.2941 -1.2014  1.2539
 4435TIP3   OH213310   0.844   1.748   2.757  0.3526 -0.2893 -0.2016
 4435TIP3    H113311   0.755   1.780   2.746  0.4853 -0.0191 -0.4911
 4435TIP3    H213312   0.879   1.742   2.669  0.9408  0.5342 -0.0417
 4436TIP3   OH213313   5.915   0.065   0.607  0.1784  0.3863 -0.9642
 4436TIP3    H113314   5.935   0.158   0.619  1.3161  0.1325 -0.8020
 4436TIP3    H213315   5.822   0.058   0.629  0.1795  1.4136 -0.5671
 4437TIP3   OH213316   5.303   3.936   3.209  0.0194  0.4957  0.1599
 4437TIP3    H113317   5.395   3.954   3.232  0.6931  0.7215 -2.4092
 4437TIP3    H213318   5.307   3.851   3.164 -1.2877 -0.1778  1.2436
 4438TIP3   OH213319   5.108   0.553   3.407 -0.6322  0.2750 -0.2104
 4438TIP3    H113320   5.148   0.636   3.382  0.9855 -0.4619 -0.1945
 4438TIP3    H213321   5.117   0.497   3.330 -0.2175 -0.4018  0.3193
 4439TIP3   OH213322   1.731   4.496   4.873  0.1700  0.0869 -0.5061
 4439TIP3    H113323   1.687   4.436   4.932  0.3656 -0.4778 -0.9318
 4439TIP3    H213324   1.825   4.477   4.883  0.2038 -0.0325 -1.0178
 4440TIP3   OH213325   3.553   1.292   3.082  0.7840 -0.3961  0.2880
 4440TIP3    H113326   3.607   1.218   3.112  0.5955 -0.4588  0.4745
 4440TIP3    H213327   3.613   1.366   3.083  1.3381 -0.7896 -1.1738
 4441TIP3   OH213328   4.161   2.212   3.530  0.4468  0.4263  0.1133
 4441TIP3    H113329   4.195   2.231   3.443 -0.3520  0.3806 -0.2209
 4441TIP3    H213330   4.126   2.123   3.523  0.6024  0.3263  0.5545
 4442TIP3   OH213331   4.153   4.219   1.522  0.5069  0.4025  0.1519
 4442TIP3    H113332   4.230   4.224   1.579  0.7366 -2.2369  0.1637
 4442TIP3    H213333   4.164   4.137   1.473 -1.4237  0.8595 -1.1692
 4443TIP3   OH213334   2.277   1.189   1.617  0.2837  0.0539  0.0440
 4443TIP3    H113335   2.273   1.283   1.596  0.3848 -0.1579 -0.9507
 4443TIP3    H213336   2.252   1.185   1.710  2.2842  1.2845  0.7170
 4444TIP3   OH213337   1.547   2.006   2.865  0.2890 -0.4373 -0.3266
 4444TIP3    H113338   1.528   2.099   2.857  0.4806 -0.0108  2.8078
 4444TIP3    H213339   1.628   1.993   2.817  0.9655  1.3295  0.2540
 4445TIP3   OH213340   3.536   1.262   4.381 -0.1297 -0.2456 -0.1801
 4445TIP3    H113341   3.620   1.234   4.417 -0.7865 -1.8549  0.1837
 4445TIP3    H213342   3.553   1.350   4.346  1.0982  0.4370  1.9843
 4446TIP3   OH213343   2.698   3.773   1.027 -0.1085 -0.2540  0.2368
 4446TIP3    H113344   2.724   3.683   1.008  0.2474 -0.0302 -0.3716
 4446TIP3    H213345   2.774   3.811   1.073  0.0901 -0.0093 -0.2903
 4447TIP3   OH213346   5.571   0.117   2.066 -0.7874 -0.0825  0.6070
 4447TIP3    H113347   5.613   0.161   1.992 -0.0402  0.8542  1.5472
 4447TIP3    H213348   5.588   0.024   2.052  2.1693  0.2632  1.2142
 4448TIP3   OH213349   3.165   0.520   1.051 -0.0335 -0.3244  0.1438
 4448TIP3    H113350   3.174   0.611   1.022 -0.8856 -0.4378 -0.5239
 4448TIP3    H213351   3.235   0.508   1.115  0.1623  0.7658  0.1526
 4449TIP3   OH213352   2.355   2.220   1.384  0.0691  0.4964 -0.0484
 4449TIP3    H113353   2.271   2.262   1.397 -0.3719 -0.3787 -0.0004
 4449TIP3    H213354   2.389   2.259   1.303 -0.2007  1.1253  0.1366
 4450TIP3   OH213355   1.973   5.811   0.039 -0.1438  0.0929 -0.3794
 4450TIP3    H113356   2.061   5.815   0.003  0.7395 -1.1782  1.4607
 4450TIP3    H213357   1.919   5.776  -0.032  0.7286  1.2457 -1.6488
 4451TIP3   OH213358   1.142   1.108   1.395  0.1629  0.0262  0.3147
 4451TIP3    H113359   1.219   1.126   1.449  0.0880 -2.2535  1.2500
 4451TIP3    H213360   1.069   1.111   1.456 -0.0607 -1.3318  0.1350
 4452TIP3   OH213361   4.165   0.783   4.965 -0.6737 -0.4878  0.2432
 4452TIP3    H113362   4.220   0.716   5.006  1.0355 -1.1751 -2.8814
 4452TIP3    H213363   4.076   0.752   4.981  0.0348 -3.8146 -1.3255
 4453TIP3   OH213364   5.195   1.270   3.251 -0.9137 -0.4880 -0.1445
 4453TIP3    H113365   5.208   1.363   3.236 -0.2285 -0.2841  1.4996
 4453TIP3    H213366   5.247   1.251   3.330  2.4027 -3.1049 -2.6295
 4454TIP3   OH213367   2.764   3.794   3.683 -0.3615  0.3639  0.1477
 4454TIP3    H113368   2.671   3.791   3.708 -0.2799  1.4857  0.6393
 4454TIP3    H213369   2.806   3.846   3.751  1.1610 -2.3780  1.4656
 4455TIP3   OH213370   1.529   2.613   1.706 -0.4182  0.1125 -0.2590
 4455TIP3    H113371   1.496   2.651   1.625  2.6873 -0.5972 -1.9844
 4455TIP3    H213372   1.474   2.536   1.720 -0.9641  0.2120 -1.6959
 4456TIP3   OH213373   1.267   1.518   2.330 -0.1313  0.8283 -0.6003
 4456TIP3    H113374   1.230   1.535   2.243  0.9639  1.3556 -0.9772
 4456TIP3    H213375   1.202   1.554   2.391 -0.8027  0.6465 -1.2010
 4457TIP3   OH213376   3.083   5.177   0.387  0.3084  0.5271 -0.1279
 4457TIP3    H113377   2.999   5.218   0.366 -0.0226  0.1667  0.4752
 4457TIP3    H213378   3.147   5.229   0.338 -0.0507  2.0144  0.9089
 4458TIP3   OH213379   1.826   5.361   3.597  0.4914  0.0246 -0.0246
 4458TIP3    H113380   1.918   5.387   3.591  0.6571 -0.3325  0.8331
 4458TIP3    H213381   1.798   5.393   3.682  0.0265 -0.5010  0.0217
 4459TIP3   OH213382   1.434   5.912   2.404  0.1895  0.1487 -0.4383
 4459TIP3    H113383   1.524   5.885   2.383  0.1138  0.7142 -1.5439
 4459TIP3    H213384   1.384   5.830   2.402  1.1340 -0.7061  3.1972
 4460TIP3   OH213385   4.056   1.094   3.269 -0.1577  0.1787  0.1342
 4460TIP3    H113386   4.068   1.188   3.254 -1.2581  0.4460  0.8175
 4460TIP3    H213387   3.996   1.089   3.344 -1.6189 -1.0486 -1.0469
 4461TIP3   OH213388   0.096   4.062   3.097  0.1731  0.2982  0.0833
 4461TIP3    H113389   0.175   4.007   3.096 -0.0739 -0.0628 -0.9482
 4461TIP3    H213390   0.062   4.052   3.186  0.9293 -0.0683  0.3459
 4462TIP3   OH213391   1.174   0.717   2.960 -0.0104  0.0881  0.2743
 4462TIP3    H113392   1.171   0.646   2.895  0.7391  0.3799 -0.0869
 4462TIP3    H213393   1.085   0.721   2.995 -0.0210 -1.1477  0.4222
 4463TIP3   OH213394   2.284   4.103   3.519  0.3602  0.5115 -0.7976
 4463TIP3    H113395   2.357   4.073   3.465  1.1453 -1.6271  1.2351
 4463TIP3    H213396   2.209   4.053   3.487  0.3568  0.7817 -1.2188
 4464TIP3   OH213397   5.440   2.501   1.897  0.4303  0.0342 -0.1787
 4464TIP3    H113398   5.452   2.596   1.893  0.0421  0.0429 -2.3261
 4464TIP3    H213399   5.495   2.467   1.826 -1.1724 -1.1070 -0.9543
 4465TIP3   OH213400   5.837   0.438   4.661 -0.7115 -0.8176 -0.2009
 4465TIP3    H113401   5.918   0.462   4.706 -2.0297  2.1614  0.8741
 4465TIP3    H213402   5.779   0.407   4.730 -0.6660 -2.5119 -0.8914
 4466TIP3   OH213403   2.184   2.903   1.949 -0.2910 -0.0469  0.1440
 4466TIP3    H113404   2.194   2.819   1.903  0.1605 -0.7454  1.4734
 4466TIP3    H213405   2.260   2.907   2.007 -1.4000  0.2945  1.6308
 4467TIP3   OH213406   0.950   0.548   3.751 -0.8452  0.1395  0.2586
 4467TIP3    H113407   0.883   0.508   3.807 -0.5230 -0.3234  0.3198
 4467TIP3    H213408   1.031   0.502   3.775 -0.7792 -0.3549 -0.8787
 4468TIP3   OH213409   3.118   3.762   3.211  0.7369 -0.4443  0.5957
 4468TIP3    H113410   3.048   3.795   3.266  1.3267 -0.5239  1.4064
 4468TIP3    H213411   3.185   3.731   3.272  2.1481  0.9995 -0.1061
 4469TIP3   OH213412   4.763   3.552   3.345  0.0988  0.2766  0.2400
 4469TIP3    H113413   4.822   3.543   3.420 -0.5418  0.3847  0.7688
 4469TIP3    H213414   4.675   3.541   3.382 -0.2147  0.1103 -0.5345
 4470TIP3   OH213415   4.817   0.628   3.480  0.1414 -0.0415  0.7933
 4470TIP3    H113416   4.776   0.547   3.510  0.5583 -1.5152 -2.2972
 4470TIP3    H213417   4.911   0.609   3.479  0.3652  0.9559  1.2412
 4471TIP3   OH213418   3.403   0.340   1.897  0.9236  0.1067 -0.6078
 4471TIP3    H113419   3.333   0.315   1.957 -0.0235 -0.2432 -1.8127
 4471TIP3    H213420   3.409   0.435   1.905  0.9046  0.0552  0.1180
 4472TIP3   OH213421   1.456   0.268   4.318  0.0301  0.3229 -0.5632
 4472TIP3    H113422   1.397   0.215   4.265 -1.1729  1.3767 -0.3379
 4472TIP3    H213423   1.435   0.358   4.294 -0.4039  0.8309  1.4898
 4473TIP3   OH213424   0.853   2.294   3.681  0.2850 -0.5322 -0.3490
 4473TIP3    H113425   0.906   2.242   3.621  0.8859  0.4746 -0.7032
 4473TIP3    H213426   0.776   2.239   3.697  1.5009 -2.1246  0.3598
 4474TIP3   OH213427   4.386   3.590   1.738  0.1495 -0.0426  0.2994
 4474TIP3    H113428   4.474   3.570   1.771 -0.1424 -0.1228  1.0580
 4474TIP3    H213429   4.400   3.659   1.674  0.7171  0.3366  0.8158
 4475TIP3   OH213430   0.923   2.711   0.074  0.9195  0.8840 -0.4190
 4475TIP3    H113431   0.959   2.711  -0.015 -0.2015 -1.2137 -0.9382
 4475TIP3    H213432   0.843   2.763   0.067 -0.0134 -0.5658 -1.0767
 4476TIP3   OH213433   1.294   5.777   0.430 -0.0790 -0.4184 -0.6997
 4476TIP3    H113434   1.359   5.844   0.408 -0.2547 -0.4664 -1.3978
 4476TIP3    H213435   1.329   5.697   0.393 -1.1603 -0.1999 -2.2850
 4477TIP3   OH213436   0.856   3.904   0.797 -0.7921  0.1195  0.1090
 4477TIP3    H113437   0.885   3.994   0.781 -2.6031  0.7789  0.3082
 4477TIP3    H213438   0.857   3.863   0.711  0.1358  0.2787  0.0282
 4478TIP3   OH213439   0.988   2.945   0.943 -0.2681  0.8439  0.5090
 4478TIP3    H113440   1.075   2.947   0.904 -0.6846 -2.3052 -0.9083
 4478TIP3    H213441   0.931   2.982   0.875 -0.5034 -1.1201 -0.4378
 4479TIP3   OH213442   2.344   5.806   4.359 -0.6678 -0.9820  0.2691
 4479TIP3    H113443   2.408   5.737   4.341 -0.8280 -1.0950  0.1281
 4479TIP3    H213444   2.358   5.828   4.451  1.7031  1.1533 -0.4665
 4480TIP3   OH213445   4.438   4.412   0.170 -0.6881 -0.0387 -0.6659
 4480TIP3    H113446   4.378   4.368   0.110 -1.1541 -0.4455  0.0818
 4480TIP3    H213447   4.400   4.499   0.182 -1.1578 -0.3147 -0.1518
 4481TIP3   OH213448   4.585   5.713   4.526  0.2458  0.0396  0.5442
 4481TIP3    H113449   4.678   5.724   4.504  0.1454 -0.4934 -0.1757
 4481TIP3    H213450   4.539   5.726   4.443 -0.3239  0.2143  0.8809
 4482TIP3   OH213451   4.450   4.785   4.386  0.2785  0.7372  0.0951
 4482TIP3    H113452   4.415   4.873   4.402  0.1113  0.9425 -1.2766
 4482TIP3    H213453   4.495   4.762   4.467 -0.6598  1.6117  0.9007
 4483TIP3   OH213454   5.736   2.041   2.656  0.1960  0.0242  0.0392
 4483TIP3    H113455   5.778   1.969   2.610 -0.0720  0.6681 -1.2738
 4483TIP3    H213456   5.680   2.083   2.590 -0.7304  0.5834  1.1353
 4484TIP3   OH213457   4.085   4.503   0.553  0.1052 -0.0711  0.2052
 4484TIP3    H113458   4.160   4.476   0.500 -0.9472 -2.3377 -0.2593
 4484TIP3    H213459   4.009   4.480   0.500 -0.9462  1.2805  1.0736
 4485TIP3   OH213460   6.250   1.171   2.040  0.1516  0.2769  0.3133
 4485TIP3    H113461   6.222   1.123   2.118 -2.6883  0.0717 -0.6916
 4485TIP3    H213462   6.338   1.139   2.021 -0.5699 -2.5088  1.2442
 4486TIP3   OH213463   0.624   1.574   0.948 -0.2764 -0.2132  0.2217
 4486TIP3    H113464   0.651   1.649   1.002 -0.2145 -0.1739  0.1347
 4486TIP3    H213465   0.705   1.538   0.914 -0.3609  0.1712 -0.3962
 4487TIP3   OH213466   3.960   3.450   4.237 -0.1650  0.1185  0.0475
 4487TIP3    H113467   4.010   3.444   4.156 -0.1376  1.4801 -0.0450
 4487TIP3    H213468   3.870   3.469   4.209 -0.5290 -1.1304  0.2757
 4488TIP3   OH213469   2.061   2.746   2.839 -0.2428  0.4234 -0.6567
 4488TIP3    H113470   2.145   2.709   2.868 -0.2688 -0.0036 -1.1078
 4488TIP3    H213471   2.060   2.834   2.877  0.8037  0.7610 -1.3544
 4489TIP3   OH213472   0.675   3.989   1.549 -0.6155  0.0559 -0.4589
 4489TIP3    H113473   0.734   3.937   1.493 -0.2166  2.2899 -2.2802
 4489TIP3    H213474   0.688   3.954   1.637  2.1506 -0.6649 -1.0646
 4490TIP3   OH213475   3.131   4.976   3.024  0.7523 -0.3320 -0.0564
 4490TIP3    H113476   3.143   5.016   2.938  4.7671 -1.7017 -0.3546
 4490TIP3    H213477   3.203   5.011   3.076  1.4061 -3.2068  1.1764
 4491TIP3   OH213478   0.304   5.576   2.973 -0.2009  0.4519 -0.0016
 4491TIP3    H113479   0.251   5.525   2.911 -1.0011  3.0796 -1.6623
 4491TIP3    H213480   0.394   5.558   2.946 -0.4610  0.0193 -0.6379
 4492TIP3   OH213481   1.017   1.630   3.336 -0.1023  0.2446  0.1844
 4492TIP3    H113482   1.045   1.677   3.415  1.0175  1.2000 -0.7303
 4492TIP3    H213483   0.955   1.565   3.367  1.5394 -0.5137  2.0770
 4493TIP3   OH213484   2.842   1.375   0.545 -0.3054  0.2944  0.0937
 4493TIP3    H113485   2.925   1.339   0.576 -0.4979 -0.2448 -0.0151
 4493TIP3    H213486   2.811   1.313   0.480 -0.7097  0.5847  0.0028
 4494TIP3   OH213487   0.992   0.729   2.354 -0.0688 -0.6376 -0.5216
 4494TIP3    H113488   1.041   0.656   2.318  0.3581  0.1673 -1.6320
 4494TIP3    H213489   1.035   0.747   2.438  1.4376 -0.1023 -1.3620
 4495TIP3   OH213490   1.729   0.909   4.725  0.2748 -0.2680  0.4886
 4495TIP3    H113491   1.638   0.923   4.699  0.0119  1.3106  2.0251
 4495TIP3    H213492   1.769   0.864   4.651 -0.9946  1.7385 -1.5728
 4496TIP3   OH213493   2.365   0.752   0.270 -0.1476  0.1227 -1.0642
 4496TIP3    H113494   2.280   0.769   0.229 -0.8141  1.3053  0.6671
 4496TIP3    H213495   2.344   0.734   0.362  1.4668  0.2539 -0.6343
 4497TIP3   OH213496   0.326   4.313   2.573  0.5380 -0.0568  0.1551
 4497TIP3    H113497   0.422   4.311   2.576  0.6680 -3.7322 -0.7938
 4497TIP3    H213498   0.300   4.221   2.580 -2.8942  0.6938 -0.7023
 4498TIP3   OH213499   2.373   3.915   2.683  0.6878  0.2814 -0.3912
 4498TIP3    H113500   2.313   3.983   2.714  1.9036  1.4296 -0.4634
 4498TIP3    H213501   2.316   3.845   2.653 -0.6058 -0.2258  2.8335
 4499TIP3   OH213502   4.293   3.441   2.052 -0.4399  0.0052  0.2441
 4499TIP3    H113503   4.220   3.383   2.074  0.3832 -1.7445 -1.3080
 4499TIP3    H213504   4.344   3.391   1.988  1.7617  1.4217  0.7890
 4500TIP3   OH213505   4.219   2.496   4.452 -0.4242 -0.5152 -0.5109
 4500TIP3    H113506   4.240   2.538   4.368 -0.4249  2.1042  0.7127
 4500TIP3    H213507   4.157   2.427   4.429 -0.0939 -0.1510 -2.7160
 4501TIP3   OH213508   2.278   1.514   0.707 -0.0923 -0.1920 -0.2789
 4501TIP3    H113509   2.280   1.424   0.739 -0.8903  0.1524  0.7892
 4501TIP3    H213510   2.210   1.556   0.759  2.3450  1.8592  1.4610
 4502TIP3   OH213511   2.591   1.972   5.143  0.1231 -0.3078 -0.2552
 4502TIP3    H113512   2.613   1.888   5.104  2.3276 -0.5422  1.3207
 4502TIP3    H213513   2.504   1.959   5.180  0.6519 -2.0869  0.4506
 4503TIP3   OH213514   2.629   0.392   4.025  0.1241 -0.3040 -0.0357
 4503TIP3    H113515   2.607   0.307   4.063  1.5158  0.0520  1.6926
 4503TIP3    H213516   2.551   0.445   4.040 -2.1543 -2.0464 -4.1185
 4504TIP3   OH213517   5.446   2.178   3.540 -0.6561 -0.0609 -0.4731
 4504TIP3    H113518   5.433   2.262   3.584  0.4707 -0.2363  0.2325
 4504TIP3    H213519   5.459   2.115   3.611 -0.0173 -0.5575 -1.0116
 4505TIP3   OH213520   0.640   3.270   0.378 -0.5433  0.0703  0.0470
 4505TIP3    H113521   0.567   3.211   0.360 -0.8085  0.2744  0.4334
 4505TIP3    H213522   0.601   3.341   0.431 -0.2957  0.7346 -0.6374
 4506TIP3   OH213523   2.029   0.379   1.383  0.4001 -0.6760  0.6237
 4506TIP3    H113524   2.089   0.439   1.338  0.4143  0.1973  1.7394
 4506TIP3    H213525   1.969   0.348   1.315  2.2565 -1.7909 -0.5765
 4507TIP3   OH213526   3.326   2.477   2.438  0.3694 -0.1760 -0.1758
 4507TIP3    H113527   3.338   2.559   2.391  0.8034  0.6931  1.3638
 4507TIP3    H213528   3.235   2.479   2.467  0.0465 -0.7999 -1.1227
 4508TIP3   OH213529   5.338   2.051   1.320 -0.0911  0.1715 -0.1503
 4508TIP3    H113530   5.398   1.986   1.356  1.0006  0.9653 -0.4962
 4508TIP3    H213531   5.348   2.127   1.377  0.1631  0.7401 -0.9357
 4509TIP3   OH213532   1.886   1.896   3.315  0.1910  0.1419  0.1205
 4509TIP3    H113533   1.933   1.930   3.238  1.0126  1.3600  1.1125
 4509TIP3    H213534   1.825   1.967   3.338 -2.4434 -1.4947 -1.2934
 4510TIP3   OH213535   0.192   0.999   3.954  0.4571 -0.6321 -0.1138
 4510TIP3    H113536   0.174   1.024   4.045 -1.3049 -0.9055 -0.3511
 4510TIP3    H213537   0.131   0.927   3.937 -0.6298  0.6856 -2.1180
 4511TIP3   OH213538   4.611   1.062   3.574  0.1303 -0.0458  0.0142
 4511TIP3    H113539   4.555   1.046   3.498  1.1023  1.4140 -1.0516
 4511TIP3    H213540   4.692   1.015   3.554  0.7929  1.2369 -0.3916
 4512TIP3   OH213541   2.228   2.854   1.032 -0.0146  0.2420 -0.4251
 4512TIP3    H113542   2.209   2.767   1.067  0.4055  0.0051 -0.7655
 4512TIP3    H213543   2.188   2.854   0.945 -2.1663  1.2765  0.4926
 4513TIP3   OH213544   3.014   1.728   2.883  0.1426 -0.0907  0.4697
 4513TIP3    H113545   3.009   1.632   2.877 -0.5497  0.0246 -3.4979
 4513TIP3    H213546   2.923   1.757   2.877  0.4791  0.7928 -0.9024
 4514TIP3   OH213547   3.975   4.087   0.791  0.2672  0.0784  0.1793
 4514TIP3    H113548   4.009   4.000   0.811 -0.8438 -0.2857  0.5085
 4514TIP3    H213549   3.943   4.080   0.701  0.6595  0.2994  0.0203
 4515TIP3   OH213550   2.343   0.447   0.690 -0.3868 -0.6394  0.3990
 4515TIP3    H113551   2.410   0.402   0.742  0.2025  0.2216  0.4212
 4515TIP3    H213552   2.261   0.403   0.712  0.0971 -1.3641  0.7872
 4516TIP3   OH213553   5.431   1.973   1.633 -0.1948  0.1110 -0.0404
 4516TIP3    H113554   5.498   1.920   1.590  0.6394  1.6302 -0.6902
 4516TIP3    H213555   5.369   1.909   1.669  1.2120 -1.3107 -0.0407
 4517TIP3   OH213556   0.468   1.313   3.168  0.8870  0.2842  0.0442
 4517TIP3    H113557   0.406   1.345   3.101  1.8836  1.6121 -0.2935
 4517TIP3    H213558   0.425   1.333   3.251  0.1670 -0.2650 -0.1868
 4518TIP3   OH213559   2.121   0.758   0.952 -0.1371  0.4489 -0.1924
 4518TIP3    H113560   2.210   0.762   0.916  0.5588 -1.3473  1.1867
 4518TIP3    H213561   2.079   0.687   0.904 -0.4381  0.4883  0.0123
 4519TIP3   OH213562   6.023   4.077   3.471 -0.5895 -0.5201 -0.2108
 4519TIP3    H113563   5.933   4.068   3.502 -0.3117  2.5590  2.0245
 4519TIP3    H213564   6.076   4.075   3.551  1.1914 -0.9928 -1.3538
 4520TIP3   OH213565   0.646   5.011   0.056  0.5202  0.1502 -0.5050
 4520TIP3    H113566   0.666   5.088   0.003  1.3808 -0.7005 -1.4750
 4520TIP3    H213567   0.554   5.021   0.081  0.8128  1.8350  0.0174
 4521TIP3   OH213568   5.680   5.438   5.063  0.4009 -0.2383 -0.2011
 4521TIP3    H113569   5.602   5.454   5.116 -0.4093 -0.1625 -1.4000
 4521TIP3    H213570   5.752   5.468   5.119 -0.3728 -0.5925  1.0467
 4522TIP3   OH213571   0.978  -0.024   1.927  0.1233 -0.3886  0.0888
 4522TIP3    H113572   1.030   0.052   1.953  1.5165 -1.0659 -0.6512
 4522TIP3    H213573   0.951  -0.005   1.837 -1.5187  0.2555  0.6793
 4523TIP3   OH213574   3.558   3.899   0.708 -0.7011  0.5339  0.7440
 4523TIP3    H113575   3.599   3.910   0.795 -0.1243 -0.5874  0.6365
 4523TIP3    H213576   3.505   3.977   0.697 -0.0018  1.1733  1.6902
 4524TIP3   OH213577   2.390   2.914   2.109  0.4490 -0.2391  0.6421
 4524TIP3    H113578   2.483   2.933   2.105  1.3232 -3.8184  0.0231
 4524TIP3    H213579   2.378   2.869   2.193 -0.3056 -1.3252 -0.0053
 4525TIP3   OH213580   2.123   0.371   2.246  0.5023  0.5840 -0.4509
 4525TIP3    H113581   2.100   0.297   2.190  1.9259 -0.0536 -0.2279
 4525TIP3    H213582   2.089   0.448   2.199 -4.3982 -0.3543  1.0940
 4526TIP3   OH213583   5.120   3.598   3.216  0.3148  0.4062  1.0449
 4526TIP3    H113584   5.151   3.644   3.293 -0.4189  0.9013  1.0476
 4526TIP3    H213585   5.071   3.663   3.166 -0.0401 -0.1550  0.6441
 4527TIP3   OH213586   2.268   1.699   2.413 -0.0258  0.6888  0.3110
 4527TIP3    H113587   2.276   1.606   2.436  0.1545  0.8523  0.9596
 4527TIP3    H213588   2.314   1.744   2.484  1.6724  1.1820 -1.0228
 4528TIP3   OH213589   5.748   5.968   3.343  0.2287 -0.2311 -0.8029
 4528TIP3    H113590   5.759   5.954   3.249  1.1363 -2.5397 -0.4164
 4528TIP3    H213591   5.670   5.916   3.366  0.1156  0.1727 -0.2532
 4529TIP3   OH213592   1.336   3.875   1.903  0.0082  0.0930 -0.3094
 4529TIP3    H113593   1.356   3.824   1.981 -1.5226 -0.3123 -0.1454
 4529TIP3    H213594   1.295   3.955   1.937 -0.8504 -0.1758 -0.6872
 4530TIP3   OH213595   2.847   0.568   0.454 -0.1218 -0.3799 -0.2869
 4530TIP3    H113596   2.849   0.592   0.546  0.4599  0.5933 -0.5295
 4530TIP3    H213597   2.758   0.589   0.425 -0.3156 -0.7271  0.0614
 4531TIP3   OH213598   4.303   5.383   2.180  0.0636 -0.2845  0.1898
 4531TIP3    H113599   4.361   5.343   2.245  1.0310  0.3160 -0.3010
 4531TIP3    H213600   4.361   5.414   2.111 -0.9368 -0.7250 -0.8811
 4532TIP3   OH213601   3.523   4.442   2.859 -0.1035 -0.0523  0.1649
 4532TIP3    H113602   3.536   4.479   2.946 -0.4121 -0.3531  0.3397
 4532TIP3    H213603   3.442   4.393   2.866 -1.1340  1.4241 -0.7940
 4533TIP3   OH213604   4.879   2.298   2.377 -0.6530  0.4393 -0.0331
 4533TIP3    H113605   4.968   2.266   2.361 -1.1804 -0.6536 -0.9297
 4533TIP3    H213606   4.860   2.272   2.467 -0.0727  0.6654  0.1562
 4534TIP3   OH213607   0.845   5.753   1.372  0.3963 -0.4185 -0.1989
 4534TIP3    H113608   0.752   5.759   1.394  0.5911 -0.0111  0.5328
 4534TIP3    H213609   0.858   5.660   1.352 -0.6869 -0.1016 -2.7263
 4535TIP3   OH213610   0.688   5.939   4.089 -0.4897 -0.1695  0.1012
 4535TIP3    H113611   0.721   5.892   4.165 -1.3062  0.0696  0.6143
 4535TIP3    H213612   0.709   6.031   4.107 -0.8016 -0.0982  0.1031
 4536TIP3   OH213613   3.710   3.303   2.380  0.9214 -0.0176 -0.1684
 4536TIP3    H113614   3.690   3.230   2.438 -0.3326 -0.7563 -1.4713
 4536TIP3    H213615   3.797   3.332   2.407  0.7988 -0.9758  1.3843
 4537TIP3   OH213616   2.411   3.705   1.092  0.0798  0.4029  0.2857
 4537TIP3    H113617   2.388   3.616   1.064 -2.2293  0.8831  0.5005
 4537TIP3    H213618   2.502   3.715   1.064  0.1662 -1.7443 -0.4363
 4538TIP3   OH213619   0.533   4.574   5.058 -0.2573 -0.0187 -0.0840
 4538TIP3    H113620   0.448   4.612   5.036 -1.1305 -0.5633  2.0846
 4538TIP3    H213621   0.595   4.645   5.042 -1.3883  1.1059  0.3114
 4539TIP3   OH213622   3.343   3.511   0.440 -0.0773 -0.4412  0.0105
 4539TIP3    H113623   3.260   3.497   0.486  1.0536  1.2068  2.8106
 4539TIP3    H213624   3.387   3.426   0.444 -0.0786 -0.3995  1.9838
 4540TIP3   OH213625   6.277   2.539   4.430  0.0371  0.8085 -0.4233
 4540TIP3    H113626   6.197   2.488   4.419  0.2096  0.3831  0.2614
 4540TIP3    H213627   6.343   2.491   4.381 -0.0190  0.9124 -0.6034
 4541TIP3   OH213628   5.861   5.745   4.547 -0.1348 -0.0214 -0.3030
 4541TIP3    H113629   5.804   5.803   4.598 -1.0779 -2.9128  2.3083
 4541TIP3    H213630   5.942   5.742   4.597  0.2409 -0.2362 -0.9168
 4542TIP3   OH213631   5.792   1.514   0.627 -0.6347  0.0245 -0.3800
 4542TIP3    H113632   5.786   1.544   0.717  0.4107  1.0561 -0.6315
 4542TIP3    H213633   5.734   1.573   0.578  0.3147  0.7512 -0.6585
 4543TIP3   OH213634   6.317   0.153   2.606 -0.2599  0.2506  0.4079
 4543TIP3    H113635   6.357   0.214   2.668 -0.8032  2.0635 -0.9177
 4543TIP3    H213636   6.265   0.209   2.548 -2.0371 -1.6619  0.0419
 4544TIP3   OH213637   2.029   4.140   0.265 -0.2385 -0.2130 -0.3688
 4544TIP3    H113638   2.009   4.074   0.331  0.5846 -1.0273 -0.8991
 4544TIP3    H213639   2.121   4.124   0.242  0.7437  2.5474  1.1000
 4545TIP3   OH213640   1.234   1.873   0.264 -0.2534 -0.4792 -0.2999
 4545TIP3    H113641   1.257   1.966   0.268 -2.2845  0.0254  1.4769
 4545TIP3    H213642   1.259   1.839   0.350 -0.5845 -1.3014 -0.5263
 4546TIP3   OH213643   1.756   3.026   2.650 -0.0143  0.6001 -0.0816
 4546TIP3    H113644   1.815   3.026   2.575  1.6051  0.5870  1.1438
 4546TIP3    H213645   1.704   3.105   2.640  1.1638  1.3527 -0.4847
 4547TIP3   OH213646   4.004   0.157   2.466  0.3233 -0.2101  0.5824
 4547TIP3    H113647   3.921   0.203   2.477 -0.7316 -1.8872  0.0094
 4547TIP3    H213648   4.026   0.169   2.374 -0.3396 -1.3919  0.2436
 4548TIP3   OH213649   5.290   4.979   2.377  0.0586 -0.3878  0.3084
 4548TIP3    H113650   5.371   4.935   2.402  0.2689  0.0719  0.4266
 4548TIP3    H213651   5.223   4.910   2.382  0.1537 -0.4043  1.7801
 4549TIP3   OH213652   2.583   5.194   4.516 -0.2366 -0.5643 -0.7456
 4549TIP3    H113653   2.564   5.163   4.605  1.0495  2.1064  0.5906
 4549TIP3    H213654   2.651   5.135   4.484  1.0112 -0.2109  1.0591
 4550TIP3   OH213655   1.128   4.668   3.818  0.2525 -0.3418  0.6080
 4550TIP3    H113656   1.202   4.608   3.829  0.3172 -1.4089 -3.6245
 4550TIP3    H213657   1.056   4.613   3.788 -0.8010  1.2450  0.0770
 4551TIP3   OH213658   6.076   5.566   4.073 -0.0641  0.0054 -0.3652
 4551TIP3    H113659   6.035   5.646   4.105  1.4676  1.1226 -1.0724
 4551TIP3    H213660   6.055   5.565   3.979  0.1442 -0.2809 -0.4085
 4552TIP3   OH213661   1.344   3.604   3.769  0.0756 -0.2541 -0.0655
 4552TIP3    H113662   1.256   3.568   3.763 -0.3606  0.3766  1.9094
 4552TIP3    H213663   1.396   3.535   3.809  0.3097 -0.3372 -0.5044
 4553TIP3   OH213664   4.710   2.609   3.191  0.0270 -0.6524 -0.1142
 4553TIP3    H113665   4.695   2.516   3.204 -0.6661 -0.2317  2.7837
 4553TIP3    H213666   4.626   2.650   3.209  0.1751  0.5528 -1.8849
 4554TIP3   OH213667   1.082   0.756   4.599 -0.2479  0.1530  0.2911
 4554TIP3    H113668   1.097   0.810   4.521 -0.4073  1.0486  0.8622
 4554TIP3    H213669   0.987   0.754   4.609 -0.2091  0.4608  0.7430
 4555TIP3   OH213670   4.057   4.775   2.392  0.5751 -0.3316 -0.4770
 4555TIP3    H113671   4.028   4.685   2.373 -0.5619  0.2576 -1.6753
 4555TIP3    H213672   4.000   4.804   2.462  0.8208 -0.4738 -0.2156
 4556TIP3   OH213673   2.227   4.592   3.061  0.5528  0.3249 -0.2946
 4556TIP3    H113674   2.206   4.617   3.151  0.7966  1.1593 -0.4601
 4556TIP3    H213675   2.242   4.497   3.065 -0.0124  0.2604  0.4285
 4557TIP3   OH213676   2.732   5.900   3.599 -0.0183 -0.1464 -0.4404
 4557TIP3    H113677   2.684   5.944   3.669 -1.8911  0.2013 -1.8730
 4557TIP3    H213678   2.669   5.893   3.527  1.7311 -0.8020 -1.9837
 4558TIP3   OH213679   3.405   5.138   0.578  0.5266  0.5274  0.2757
 4558TIP3    H113680   3.321   5.098   0.600  0.1471  2.2545  2.3750
 4558TIP3    H213681   3.386   5.195   0.503  0.3539 -0.7092 -0.6469
 4559TIP3   OH213682   0.237   3.309   1.838  0.0669  0.4238  0.7758
 4559TIP3    H113683   0.159   3.295   1.784 -0.6768 -0.1489  1.9596
 4559TIP3    H213684   0.294   3.364   1.784  0.3045 -1.8411 -1.4587
 4560TIP3   OH213685   3.902   3.020   0.595  0.3471  0.2278  0.3105
 4560TIP3    H113686   3.959   2.973   0.535  1.6549  0.1975  1.5364
 4560TIP3    H213687   3.910   2.973   0.679  0.0915  1.4080  1.0242
 4561TIP3   OH213688   4.437   1.078   4.285  0.5281  0.3149 -0.0017
 4561TIP3    H113689   4.438   1.056   4.378 -0.9714 -0.7739 -0.1912
 4561TIP3    H213690   4.523   1.053   4.253  0.2252 -1.7901  0.6184
 4562TIP3   OH213691   6.063   3.836   1.290  0.0766 -0.1037  0.3557
 4562TIP3    H113692   6.048   3.856   1.198  2.7761  1.5626  0.1634
 4562TIP3    H213693   6.066   3.741   1.294 -0.9167 -0.2347 -1.0920
 4563TIP3   OH213694   1.721   5.300   4.564  0.0607  0.1556 -0.1304
 4563TIP3    H113695   1.703   5.349   4.644  0.8510  2.6863 -1.3811
 4563TIP3    H213696   1.665   5.340   4.498 -0.8654 -2.1351 -0.8235
 4564TIP3   OH213697   0.076   4.728   0.537 -0.1270 -0.2990 -0.5545
 4564TIP3    H113698   0.012   4.793   0.569 -0.6215 -1.0721  0.0712
 4564TIP3    H213699   0.034   4.643   0.553  1.7359 -0.9279  1.4536
 4565TIP3   OH213700   3.696   0.722   4.247 -0.3380  0.2196 -0.5326
 4565TIP3    H113701   3.677   0.813   4.226 -0.7460 -0.0061 -1.2102
 4565TIP3    H213702   3.641   0.703   4.323 -0.8142  0.3426 -0.8357
 4566TIP3   OH213703   3.714   4.939   5.016 -0.9745  0.1171 -0.4210
 4566TIP3    H113704   3.643   4.906   4.960 -0.2870  0.8142 -1.7313
 4566TIP3    H213705   3.719   4.875   5.087 -0.5672 -1.9003 -2.1769
 4567TIP3   OH213706   2.436   5.115   3.475 -0.2427 -0.1717  0.6705
 4567TIP3    H113707   2.522   5.087   3.505  0.5291  0.8731 -0.4323
 4567TIP3    H213708   2.385   5.034   3.467  1.5263 -1.1766 -1.3166
 4568TIP3   OH213709   6.254   2.445   1.025  0.0812  0.1788 -0.1416
 4568TIP3    H113710   6.315   2.504   1.068  0.5780 -0.7058  0.3996
 4568TIP3    H213711   6.282   2.357   1.051 -0.1453 -0.3508 -1.5761
 4569TIP3   OH213712   2.357   4.187   4.160 -0.2654 -0.3659  0.0567
 4569TIP3    H113713   2.408   4.148   4.230  2.0633  0.3142 -1.1416
 4569TIP3    H213714   2.300   4.117   4.129  1.8637 -2.0530 -0.2665
 4570TIP3   OH213715   3.716   1.912   1.654  0.7616 -0.0325  0.0758
 4570TIP3    H113716   3.759   1.863   1.724  2.0314 -0.3783 -0.9082
 4570TIP3    H213717   3.771   1.989   1.641  0.1089  0.4240 -0.0430
 4571TIP3   OH213718   5.609   5.908   2.786  0.1494  0.3557  0.7283
 4571TIP3    H113719   5.588   5.987   2.835 -0.3696  0.2875  0.6218
 4571TIP3    H213720   5.686   5.931   2.734  0.0529  0.7610  0.7674
 4572TIP3   OH213721   0.728   4.945   3.531  0.3019 -0.0029  0.2624
 4572TIP3    H113722   0.729   5.039   3.545 -0.3925  0.1229 -0.4865
 4572TIP3    H213723   0.759   4.933   3.442 -2.8388 -0.1963 -0.9362
 4573TIP3   OH213724   0.816   5.255   3.716 -0.1296  0.5027  0.2974
 4573TIP3    H113725   0.791   5.340   3.752 -1.9894 -0.3901  1.2728
 4573TIP3    H213726   0.766   5.192   3.768  0.4802 -1.1308 -1.0165
 4574TIP3   OH213727   1.480   0.809   0.055 -0.1116 -0.8127  0.0378
 4574TIP3    H113728   1.447   0.850   0.135 -0.8106  2.3712 -1.7304
 4574TIP3    H213729   1.407   0.755   0.024 -1.5803  1.4755 -0.7100
 4575TIP3   OH213730   2.181   2.433   0.718 -0.0952  0.0770 -0.4893
 4575TIP3    H113731   2.222   2.385   0.790  0.8099  1.3153 -0.1468
 4575TIP3    H213732   2.088   2.411   0.724 -0.2597  1.2091  1.9308
 4576TIP3   OH213733   1.668   1.404   4.413 -0.4005  0.2683 -0.8331
 4576TIP3    H113734   1.743   1.368   4.366  1.6149  0.2256  2.1719
 4576TIP3    H213735   1.655   1.491   4.374  1.5446  0.4887 -1.0676
 4577TIP3   OH213736   5.688   0.592   0.645 -0.1624  0.0809  0.5080
 4577TIP3    H113737   5.680   0.586   0.550  0.8693  0.8859  0.3524
 4577TIP3    H213738   5.602   0.622   0.674  0.1372  1.9321 -0.3990
 4578TIP3   OH213739   4.382   0.387   1.603  0.5121  0.0405  0.0522
 4578TIP3    H113740   4.303   0.334   1.610 -0.2760  0.9767 -1.3507
 4578TIP3    H213741   4.406   0.407   1.694 -1.2188  0.2605  0.4948
 4579TIP3   OH213742   0.700   1.102   5.174  0.1490  0.8392  0.1172
 4579TIP3    H113743   0.748   1.024   5.203  1.3445  1.2948 -0.5723
 4579TIP3    H213744   0.720   1.109   5.081 -0.3612  1.6959  0.0636
 4580TIP3   OH213745   0.466   2.523   5.124 -0.2046  0.0486  0.5740
 4580TIP3    H113746   0.403   2.579   5.078 -0.5823 -0.5937  0.3007
 4580TIP3    H213747   0.508   2.581   5.187  2.2417  1.6856 -2.3117
 4581TIP3   OH213748   6.159   0.257   1.804  0.2600  0.4314  0.4112
 4581TIP3    H113749   6.066   0.271   1.783  0.1109  1.1245  1.4835
 4581TIP3    H213750   6.168   0.162   1.807 -0.9171  0.3301  2.3196
 4582TIP3   OH213751   2.687   3.893   2.591 -0.3093  0.1302  0.5487
 4582TIP3    H113752   2.614   3.935   2.546 -0.5483 -0.3547  0.4745
 4582TIP3    H213753   2.756   3.959   2.594 -0.1893  0.0821 -0.7757
 4583TIP3   OH213754   1.939   1.382   2.064  0.0576 -0.2083  0.1048
 4583TIP3    H113755   1.966   1.449   2.002 -0.3922  0.3504  0.5030
 4583TIP3    H213756   2.020   1.340   2.092  0.3286  0.0742 -0.2563
 4584TIP3   OH213757   4.832   0.486   1.879 -0.0126  0.0391  0.0649
 4584TIP3    H113758   4.788   0.443   1.953  0.7937 -0.0786  0.4884
 4584TIP3    H213759   4.917   0.441   1.873  0.0018  0.1785 -0.8168
 4585TIP3   OH213760   6.012   1.836   4.696 -0.1551 -0.0689  0.2134
 4585TIP3    H113761   6.082   1.828   4.631 -0.7721  1.0639 -0.6300
 4585TIP3    H213762   6.009   1.929   4.718 -1.7525  0.0177 -0.2037
 4586TIP3   OH213763   3.804   4.273   1.934 -0.2035 -0.1804 -0.3073
 4586TIP3    H113764   3.825   4.353   1.885  2.6060 -0.3491  0.4432
 4586TIP3    H213765   3.803   4.204   1.868 -2.3086  0.3244 -0.9095
 4587TIP3   OH213766   0.358   5.560   3.955  0.2914 -0.4398 -0.3380
 4587TIP3    H113767   0.326   5.500   4.023 -0.1136  0.1474 -0.0075
 4587TIP3    H213768   0.440   5.594   3.990  0.5808 -0.8716 -0.5752
 4588TIP3   OH213769   5.546   1.788   3.185 -0.1895 -0.1522 -0.0998
 4588TIP3    H113770   5.562   1.712   3.128 -1.9667 -1.5043  1.1038
 4588TIP3    H213771   5.451   1.797   3.186 -0.1445  0.4136  1.9253
 4589TIP3   OH213772   5.272   4.275   3.209  0.6584 -0.3460  0.0425
 4589TIP3    H113773   5.302   4.226   3.133  2.1940 -1.4905  1.3305
 4589TIP3    H213774   5.259   4.365   3.177 -1.0206 -1.2581 -2.0725
 4590TIP3   OH213775   0.570   5.958   1.739  0.2834 -0.2944 -0.4317
 4590TIP3    H113776   0.538   6.045   1.718 -0.0972 -0.8346 -2.2698
 4590TIP3    H213777   0.491   5.908   1.761  0.4665 -0.2709  0.3086
 4591TIP3   OH213778   0.837   3.260   4.631 -0.1177 -0.6690  1.2488
 4591TIP3    H113779   0.864   3.224   4.716  2.0914  0.8833  1.2731
 4591TIP3    H213780   0.798   3.345   4.653  0.9453 -0.0271  0.6862
 4592TIP3   OH213781   0.504   2.700   2.231 -0.2013  0.7810  0.0585
 4592TIP3    H113782   0.422   2.697   2.280 -1.7880  1.6212 -2.3487
 4592TIP3    H213783   0.498   2.781   2.180  0.4577 -0.8196 -2.8122
 4593TIP3   OH213784   5.869   3.977   0.710 -0.8199 -0.4926  0.1512
 4593TIP3    H113785   5.850   4.063   0.674 -1.1692 -0.8935 -0.6500
 4593TIP3    H213786   5.795   3.958   0.767  0.1108  0.4796  1.7617
 4594TIP3   OH213787   0.310   3.206   3.021  0.3393  0.0041 -0.6509
 4594TIP3    H113788   0.315   3.154   3.102  0.0530  0.9110 -0.0347
 4594TIP3    H213789   0.396   3.248   3.015  1.3562 -2.1283 -2.2807
 4595TIP3   OH213790   5.595   4.257   4.072  0.0662  0.2452  0.4130
 4595TIP3    H113791   5.508   4.265   4.111 -1.3767  0.3566 -2.5710
 4595TIP3    H213792   5.642   4.335   4.102 -0.8021  0.1776  2.0778
 4596TIP3   OH213793   0.113   2.850   5.088 -0.1126 -0.4823  0.1090
 4596TIP3    H113794   0.150   2.929   5.049  1.0314 -0.1246  1.8123
 4596TIP3    H213795   0.189   2.792   5.102 -0.5326 -0.7568  1.3784
 4597TIP3   OH213796   1.786   0.698   3.880  0.1090  0.4066  0.0968
 4597TIP3    H113797   1.872   0.656   3.869  0.2041  0.1215  1.6676
 4597TIP3    H213798   1.747   0.696   3.793  1.4363 -0.0432 -0.5153
 4598TIP3   OH213799  -0.033   5.015   0.630  0.2497 -0.1418 -0.2125
 4598TIP3    H113800   0.039   5.052   0.578 -0.2324  1.6800  0.3227
 4598TIP3    H213801   0.005   5.003   0.718  0.5705 -1.5401 -0.5266
 4599TIP3   OH213802   3.039   2.956   0.186 -0.0730 -0.2102 -0.1756
 4599TIP3    H113803   3.012   2.939   0.096 -0.8843  0.5535 -0.0866
 4599TIP3    H213804   2.963   2.933   0.239 -0.0549  0.5851  0.2049
 4600TIP3   OH213805   0.897   0.677   3.044  0.1269 -0.5118 -0.2312
 4600TIP3    H113806   0.933   0.597   3.082  1.9189 -0.6519 -2.0063
 4600TIP3    H213807   0.852   0.720   3.116 -0.8623 -3.0596  0.8094
 4601TIP3   OH213808   1.385   2.579   0.345 -0.2161 -0.1134 -0.0595
 4601TIP3    H113809   1.477   2.603   0.332 -0.0337 -0.0439  1.2345
 4601TIP3    H213810   1.389   2.491   0.383 -0.7955 -1.2342 -2.3926
 4602TIP3   OH213811   4.017   4.437   1.455  0.6473 -0.4307 -0.3443
 4602TIP3    H113812   4.030   4.353   1.501  1.1245 -0.0891  0.1595
 4602TIP3    H213813   4.056   4.423   1.369  0.7678 -0.7150 -0.2450
 4603TIP3   OH213814   4.254   3.062   1.514 -0.0547  0.1106 -0.6941
 4603TIP3    H113815   4.252   3.150   1.550 -2.0036 -0.6911  1.4369
 4603TIP3    H213816   4.170   3.054   1.468  0.2493 -0.5228 -1.1495
 4604TIP3   OH213817   4.252   0.573   2.100 -0.1211 -0.6178  0.9697
 4604TIP3    H113818   4.280   0.578   2.008  0.1724  1.0585  1.1125
 4604TIP3    H213819   4.250   0.664   2.129 -1.3577 -1.0330  2.3012
 4605TIP3   OH213820   1.501   2.652   3.857  0.2425 -0.0656 -0.3843
 4605TIP3    H113821   1.507   2.576   3.916 -1.5460  0.1020  0.0721
 4605TIP3    H213822   1.523   2.617   3.771 -0.3363 -1.0756 -0.1466
 4606TIP3   OH213823   3.564   4.022   5.088  0.3869 -0.3789  0.5419
 4606TIP3    H113824   3.573   3.950   5.151  2.0412  0.0800  0.8758
 4606TIP3    H213825   3.651   4.030   5.048  0.1725  1.2650  0.3390
 4607TIP3   OH213826   5.779   4.216   2.741 -0.0819  0.0847 -0.0567
 4607TIP3    H113827   5.830   4.138   2.763 -0.5044 -0.1015  0.2619
 4607TIP3    H213828   5.806   4.281   2.806  0.6316  0.3671 -0.6158
 4608TIP3   OH213829   6.289   3.440   0.053 -0.1194  0.4109 -0.0329
 4608TIP3    H113830   6.231   3.374   0.091  1.3209 -0.6090  0.4747
 4608TIP3    H213831   6.268   3.440  -0.041 -1.9060  1.1091  0.3275
 4609TIP3   OH213832   4.444   5.978   1.849  0.3786 -0.3001 -0.7569
 4609TIP3    H113833   4.394   5.916   1.797  1.5709 -0.6194 -1.5818
 4609TIP3    H213834   4.391   5.994   1.927 -0.2045 -1.9445 -0.7864
 4610TIP3   OH213835   1.294   4.527   4.747  0.1972 -0.3694 -0.4295
 4610TIP3    H113836   1.319   4.455   4.806  1.2892  0.2930 -0.0559
 4610TIP3    H213837   1.286   4.485   4.661  0.9801 -0.9210 -0.2462
 4611TIP3   OH213838   5.500   5.191   2.760 -0.0644  0.1359  0.3240
 4611TIP3    H113839   5.558   5.155   2.693 -0.5289  0.0595 -0.0422
 4611TIP3    H213840   5.555   5.253   2.808  0.6798 -0.8775  0.8102
 4612TIP3   OH213841   1.133   2.831   0.200  0.1789  0.1349 -0.1807
 4612TIP3    H113842   1.050   2.801   0.163 -0.9466 -1.7182  3.3690
 4612TIP3    H213843   1.185   2.751   0.209  1.8113  1.0633 -1.0204
 4613TIP3   OH213844   1.629   2.844   4.809  0.6292 -0.0312  0.1069
 4613TIP3    H113845   1.725   2.845   4.803  0.6532 -1.9666 -0.5712
 4613TIP3    H213846   1.600   2.850   4.718 -0.0159  2.8358  0.4101
 4614TIP3   OH213847   1.963  -0.006   0.828 -0.3061 -0.3516 -0.3974
 4614TIP3    H113848   1.889   0.054   0.817 -0.5841 -0.3556  1.1854
 4614TIP3    H213849   2.038   0.051   0.843  0.0401 -0.3491 -1.9682
 4615TIP3   OH213850   0.722   2.329   4.586  0.1155 -0.1428  0.1287
 4615TIP3    H113851   0.768   2.341   4.503  0.7228  2.0974  0.7042
 4615TIP3    H213852   0.629   2.334   4.563  0.1379 -2.6907 -0.7715
 4616TIP3   OH213853   4.229   5.490   4.586  0.1021  0.0396 -0.0857
 4616TIP3    H113854   4.203   5.434   4.659 -0.4798 -0.9539 -1.0282
 4616TIP3    H213855   4.154   5.549   4.574  0.1798  0.1742  0.0812
 4617TIP3   OH213856   4.711   5.939   4.742  0.4165  0.4973  0.8476
 4617TIP3    H113857   4.645   5.871   4.740  0.7417  0.1983 -0.1712
 4617TIP3    H213858   4.723   5.965   4.651  1.5560  0.6844  1.0269
 4618TIP3   OH213859   1.549   5.939   2.696  0.3503 -0.4199  0.2357
 4618TIP3    H113860   1.540   5.987   2.778 -1.8549  0.1767 -0.2931
 4618TIP3    H213861   1.643   5.926   2.686  0.8966  2.2048  1.3144
 4619TIP3   OH213862   1.304   4.868   1.011 -0.2833 -0.2516 -0.1153
 4619TIP3    H113863   1.229   4.912   0.971 -0.9593 -2.6325 -1.7110
 4619TIP3    H213864   1.285   4.868   1.105 -1.2708  0.9374 -0.2969
 4620TIP3   OH213865   3.609   1.043   3.531  0.2953 -0.0774  0.1086
 4620TIP3    H113866   3.532   1.083   3.572  0.2136 -0.0122 -0.1102
 4620TIP3    H213867   3.579   0.956   3.503  0.7853 -0.7718  1.6349
 4621TIP3   OH213868   0.104   1.383   3.703 -0.0444 -0.5489 -0.2847
 4621TIP3    H113869   0.082   1.451   3.639  1.2547 -1.2822 -1.5683
 4621TIP3    H213870   0.030   1.322   3.699 -1.4751  0.9689  1.2546
 4622TIP3   OH213871   6.215   2.815   1.979  0.3382  0.2794 -0.2443
 4622TIP3    H113872   6.171   2.802   1.895  0.7108  0.8595 -0.5397
 4622TIP3    H213873   6.210   2.909   1.994 -0.5706  0.0671  0.8601
 4623TIP3   OH213874   3.117   2.529   3.640 -0.4056  0.1088 -0.0545
 4623TIP3    H113875   3.162   2.478   3.708  0.2727 -1.0746 -1.3204
 4623TIP3    H213876   3.024   2.506   3.651 -0.5284  1.1914  1.4584
 4624TIP3   OH213877   4.100   0.271   3.813 -0.2724 -0.1967 -0.0019
 4624TIP3    H113878   4.069   0.335   3.748 -0.9615 -0.1266  0.3872
 4624TIP3    H213879   4.190   0.298   3.831 -0.9665  1.5471  1.1714
 4625TIP3   OH213880   4.900   5.287   3.708 -0.5303 -0.0143 -0.4740
 4625TIP3    H113881   4.829   5.340   3.743  0.5939  0.6170  0.9319
 4625TIP3    H213882   4.905   5.312   3.615 -2.0198  0.0251 -0.5698
 4626TIP3   OH213883   5.313   4.990   5.058 -0.0942  0.7508  0.4282
 4626TIP3    H113884   5.301   4.902   5.095  2.9797 -0.0539 -0.1855
 4626TIP3    H213885   5.328   5.046   5.133  1.0610  0.1207  0.6807
 4627TIP3   OH213886   4.418   5.172   1.050  0.1078  0.3572 -0.4485
 4627TIP3    H113887   4.395   5.262   1.073 -0.1047  0.1211  0.2954
 4627TIP3    H213888   4.358   5.150   0.978 -0.4314  0.5252 -0.0613
 4628TIP3   OH213889   0.597   3.768   3.272 -0.3034  0.0819 -0.8685
 4628TIP3    H113890   0.531   3.700   3.289  0.5283 -0.4757  0.2682
 4628TIP3    H213891   0.642   3.738   3.193 -1.2231  0.3435 -1.5175
 4629TIP3   OH213892   5.732   5.114   4.590 -0.1859 -0.4487 -0.1196
 4629TIP3    H113893   5.760   5.031   4.629 -1.5774 -0.2148  1.4900
 4629TIP3    H213894   5.637   5.105   4.581 -0.2467  0.6631 -0.6770
 4630TIP3   OH213895   1.263   2.621   0.818 -0.3329  0.1107 -0.2318
 4630TIP3    H113896   1.320   2.596   0.746 -1.0982 -0.2795 -0.7175
 4630TIP3    H213897   1.322   2.648   0.888  0.4498 -0.9807 -0.4598
 4631TIP3   OH213898   1.630   5.113   3.049 -0.0719  0.7599 -0.5913
 4631TIP3    H113899   1.708   5.089   3.100  0.0332  1.9730 -0.1459
 4631TIP3    H213900   1.558   5.109   3.112 -0.2192  0.5760 -0.7699
 4632TIP3   OH213901   0.352   0.086   2.583 -0.0379  0.3346  0.3935
 4632TIP3    H113902   0.274   0.083   2.527  0.7494  3.6309 -1.1770
 4632TIP3    H213903   0.420   0.042   2.532 -0.1393  0.2207  0.3561
 4633TIP3   OH213904   0.877   3.896   4.914 -0.4173  0.3148  0.6021
 4633TIP3    H113905   0.819   3.860   4.981 -1.6522  2.7639  0.9529
 4633TIP3    H213906   0.818   3.931   4.848  0.6949  1.6660  0.2919
 4634TIP3   OH213907   4.539   5.468   0.930  0.2821 -0.0397 -0.2845
 4634TIP3    H113908   4.479   5.436   0.863 -1.5598 -0.3273  1.3854
 4634TIP3    H213909   4.594   5.393   0.951 -0.7004 -0.6643  0.1347
 4635TIP3   OH213910   4.285   1.677   2.243  0.2382  0.4553  0.0438
 4635TIP3    H113911   4.372   1.680   2.203  0.1348  0.7078 -0.1716
 4635TIP3    H213912   4.277   1.760   2.290  0.8497 -0.3702  1.6633
 4636TIP3   OH213913   1.349   0.654   1.706  0.2768  0.2095  0.1997
 4636TIP3    H113914   1.329   0.567   1.742 -0.4124  0.4145  0.3163
 4636TIP3    H213915   1.279   0.710   1.739  0.0591  0.5660 -0.8433
 4637TIP3   OH213916   4.264   5.893   3.111 -0.3967 -0.2281 -0.1750
 4637TIP3    H113917   4.198   5.930   3.051 -0.4192 -2.4643 -1.6617
 4637TIP3    H213918   4.347   5.930   3.081 -0.6667  0.4218 -0.1282
 4638TIP3   OH213919   5.311   3.173   0.910 -0.0932 -0.0671 -0.4369
 4638TIP3    H113920   5.231   3.140   0.951  0.7750  0.3904  1.7773
 4638TIP3    H213921   5.280   3.223   0.835 -1.9479  0.6080  0.7047
 4639TIP3   OH213922   1.974   5.748   3.357  0.4608  0.6583 -0.1733
 4639TIP3    H113923   1.880   5.764   3.343 -0.4080 -2.4985  1.0214
 4639TIP3    H213924   2.018   5.808   3.296 -2.3781  0.8897 -2.2295
 4640TIP3   OH213925   2.250   3.413   4.612  0.1494 -0.5764 -0.5834
 4640TIP3    H113926   2.299   3.495   4.612  0.1752 -0.5001 -3.6633
 4640TIP3    H213927   2.299   3.356   4.672  1.7288  0.7602 -0.5350
 4641TIP3   OH213928   0.280   3.483   4.252 -0.4012  0.4625 -0.2885
 4641TIP3    H113929   0.337   3.536   4.196  0.3288 -0.8220 -0.7913
 4641TIP3    H213930   0.327   3.478   4.336  0.5938 -1.1638 -0.9136
 4642TIP3   OH213931   3.407   5.417   3.712  0.1051  0.0858  0.2639
 4642TIP3    H113932   3.486   5.366   3.693 -0.4136 -1.1480  1.2746
 4642TIP3    H213933   3.379   5.450   3.627  0.1044 -1.8467 -0.5410
 4643TIP3   OH213934   1.492   2.457   4.961  0.4371 -0.0033 -0.0683
 4643TIP3    H113935   1.583   2.427   4.973  0.5976  0.1972 -0.7392
 4643TIP3    H213936   1.500   2.538   4.910 -0.0706  0.5088  0.6445
 4644TIP3   OH213937   3.121   4.886   0.356  0.1199 -0.1973  0.9105
 4644TIP3    H113938   3.040   4.836   0.364 -1.0198  0.9304 -2.1349
 4644TIP3    H213939   3.094   4.977   0.366  0.6208  0.3093 -1.6289
 4645TIP3   OH213940   1.655   5.138   2.457  0.4070 -0.2923  0.2187
 4645TIP3    H113941   1.630   5.045   2.459 -1.0574  0.0504 -0.8185
 4645TIP3    H213942   1.572   5.185   2.460  0.8864  0.9291 -2.7339
 4646TIP3   OH213943   1.935   5.289   1.573 -0.0188 -0.2254  0.3281
 4646TIP3    H113944   1.858   5.268   1.626 -0.7420 -0.0485 -0.6225
 4646TIP3    H213945   2.001   5.226   1.600 -0.6512 -0.6875  0.8253
 4647TIP3   OH213946   3.852   3.901   2.867 -0.9650  0.6064 -0.0092
 4647TIP3    H113947   3.873   3.829   2.927 -1.0787 -0.8331 -1.6092
 4647TIP3    H213948   3.867   3.980   2.918  2.9561 -0.4094  0.7141
 4648TIP3   OH213949   0.938   2.017   3.895 -0.4644 -0.1223 -0.2493
 4648TIP3    H113950   0.975   1.984   3.812 -1.3781  0.5314 -0.9372
 4648TIP3    H213951   0.895   1.941   3.934 -2.3020  0.1070 -1.6831
 4649TIP3   OH213952   1.113   3.488   2.182  0.5120 -0.1955  0.4229
 4649TIP3    H113953   1.192   3.498   2.234  3.0669 -2.8813 -2.5601
 4649TIP3    H213954   1.091   3.395   2.188 -1.2737  0.1357 -0.3705
 4650TIP3   OH213955   5.610   1.972   1.053 -0.2125  0.5085 -0.1196
 4650TIP3    H113956   5.580   1.890   1.092 -0.0783 -0.2361 -1.5367
 4650TIP3    H213957   5.645   1.947   0.968  3.0796  1.5355  0.7806
 4651TIP3   OH213958   5.773   1.065   4.413  0.0570 -0.4373 -0.4738
 4651TIP3    H113959   5.681   1.040   4.401  0.4473 -1.6651 -0.9926
 4651TIP3    H213960   5.790   1.046   4.506 -0.3647  0.3632 -0.2195
 4652TIP3   OH213961   2.271   2.290   0.136 -0.0375  0.0300 -0.1961
 4652TIP3    H113962   2.279   2.244   0.052 -0.9754 -0.6201  0.0582
 4652TIP3    H213963   2.346   2.259   0.187 -0.3580 -0.8312 -0.2214
 4653TIP3   OH213964   4.501   3.167   3.474 -0.2382 -0.3008 -0.0852
 4653TIP3    H113965   4.475   3.205   3.390 -2.8012  1.8965  1.5466
 4653TIP3    H213966   4.594   3.189   3.482 -0.8897  3.4009 -0.5573
 4654TIP3   OH213967   6.261   2.562   1.552 -0.5924  0.9097  0.5249
 4654TIP3    H113968   6.283   2.470   1.566  0.8413  1.4402  1.9935
 4654TIP3    H213969   6.174   2.571   1.590 -1.2408 -0.0507 -0.6373
 4655TIP3   OH213970   2.542   1.630   4.258 -0.2777  0.2719 -0.3891
 4655TIP3    H113971   2.490   1.606   4.182  0.3662  1.0296 -1.0931
 4655TIP3    H213972   2.621   1.577   4.251  1.0607  2.2997 -1.8463
 4656TIP3   OH213973   2.780   4.355   4.154  0.5291 -0.0552 -0.0852
 4656TIP3    H113974   2.773   4.375   4.248 -0.7774 -0.2988 -0.1112
 4656TIP3    H213975   2.741   4.432   4.111  2.1741  0.5872 -0.5002
 4657TIP3   OH213976   6.090   3.776   1.756  0.2820 -0.1210  0.4950
 4657TIP3    H113977   6.118   3.858   1.714 -0.0473 -0.6573 -0.8127
 4657TIP3    H213978   6.016   3.746   1.704 -1.5062  0.2107  2.6904
 4658TIP3   OH213979   5.474   2.600   0.071  0.0825 -0.4496  0.1337
 4658TIP3    H113980   5.486   2.506   0.082 -1.2606 -0.7351 -0.6115
 4658TIP3    H213981   5.411   2.625   0.138  0.5240 -0.0432  0.4089
 4659TIP3   OH213982   2.752   4.396   3.047  0.1821 -0.2203 -0.1343
 4659TIP3    H113983   2.738   4.431   3.136  0.2458 -1.3425  0.3374
 4659TIP3    H213984   2.845   4.410   3.031  0.5429 -1.5301  0.6762
 4660TIP3   OH213985   2.682   0.363   3.127  0.2213 -0.1722  0.0387
 4660TIP3    H113986   2.687   0.310   3.047  1.7196  0.3666 -0.2564
 4660TIP3    H213987   2.590   0.387   3.133 -0.0978 -1.0328 -0.9932
 4661TIP3   OH213988   5.394   0.569   0.529 -0.0862  0.3923 -0.3966
 4661TIP3    H113989   5.378   0.614   0.612  0.1462  1.8429 -1.0988
 4661TIP3    H213990   5.409   0.640   0.466  0.9083 -0.6888 -1.4375
 4662TIP3   OH213991   3.260   4.825   5.068  0.6438 -0.7129  0.3753
 4662TIP3    H113992   3.284   4.899   5.123 -1.3299 -0.8639  1.5388
 4662TIP3    H213993   3.233   4.864   4.985  0.6556 -0.2123  0.6051
 4663TIP3   OH213994   3.643   5.479   5.047  0.3573  0.2700  1.0405
 4663TIP3    H113995   3.607   5.442   5.128 -1.2633 -2.6986 -0.8335
 4663TIP3    H213996   3.708   5.415   5.018 -0.8092 -0.0458 -1.1317
 4664TIP3   OH213997   0.383   1.094   1.561 -0.2117 -0.8522  0.1778
 4664TIP3    H113998   0.313   1.083   1.497  0.7560 -0.4782 -0.9609
 4664TIP3    H213999   0.463   1.103   1.510  0.6211 -0.7260  1.4364
 4665TIP3   OH214000   0.257   0.722   2.134  0.4925 -0.0807 -0.1122
 4665TIP3    H114001   0.237   0.628   2.126 -1.8424  0.3737 -0.3181
 4665TIP3    H214002   0.259   0.738   2.228 -1.5117  0.0614 -0.0516
 4666TIP3   OH214003   3.195   1.827   3.100  0.0412 -0.4627  0.1379
 4666TIP3    H114004   3.126   1.782   3.052  0.1812  0.5721 -1.0769
 4666TIP3    H214005   3.276   1.794   3.062  0.2102 -0.7382  0.7096
 4667TIP3   OH214006   4.849   3.499   2.823  0.2310 -0.4071 -0.1196
 4667TIP3    H114007   4.925   3.446   2.800 -0.1020 -1.6215  1.3725
 4667TIP3    H214008   4.811   3.454   2.899 -1.8268  0.3094 -0.6662
 4668TIP3   OH214009   0.406   1.789   1.389 -0.8735 -0.6562 -0.2013
 4668TIP3    H114010   0.414   1.817   1.298  0.3464 -0.7158 -0.1261
 4668TIP3    H214011   0.391   1.871   1.437  2.4345 -0.0554 -0.0145
 4669TIP3   OH214012   0.773   3.264   2.044  0.3691  0.2068  0.1452
 4669TIP3    H114013   0.745   3.354   2.061  0.2332  0.1333  0.3124
 4669TIP3    H214014   0.858   3.256   2.087  1.0598  0.6953 -1.0975
 4670TIP3   OH214015   4.451   5.896   4.966 -0.4094 -0.2230 -0.2746
 4670TIP3    H114016   4.452   5.835   4.892 -1.7967 -0.3762 -0.1791
 4670TIP3    H214017   4.495   5.974   4.933 -0.2387 -0.6094 -0.9791
 4671TIP3   OH214018   1.164   4.429   1.369 -0.4820  0.0648 -0.2071
 4671TIP3    H114019   1.090   4.450   1.312 -0.8411  0.0121  0.2377
 4671TIP3    H214020   1.152   4.486   1.445  0.1642  0.3556 -0.3156
 4672TIP3   OH214021   4.450   1.833   1.239  0.7710  0.7965  0.2667
 4672TIP3    H114022   4.442   1.742   1.266 -0.4423  1.0369  0.7534
 4672TIP3    H214023   4.364   1.857   1.206  1.3846  1.4382 -0.9693
 4673TIP3   OH214024   5.309   0.180   0.369 -0.0132 -0.2846  0.6359
 4673TIP3    H114025   5.315   0.120   0.294 -1.9540  0.2493 -0.0173
 4673TIP3    H214026   5.283   0.264   0.330 -1.0997 -0.0078  1.9058
 4674TIP3   OH214027   1.410   2.367   2.040 -0.0460  0.2581  0.1144
 4674TIP3    H114028   1.361   2.285   2.033 -0.4417  0.5046 -0.0266
 4674TIP3    H214029   1.428   2.377   2.133  0.1639 -0.0809  0.1134
 4675TIP3   OH214030   3.642   3.241   3.608 -0.0153 -0.3313 -0.0982
 4675TIP3    H114031   3.554   3.203   3.609 -0.3686  0.4530  0.3585
 4675TIP3    H214032   3.653   3.276   3.696  1.3378 -1.6739  0.2851
 4676TIP3   OH214033   3.624   2.369   1.012  0.3367  0.3327 -0.2271
 4676TIP3    H114034   3.634   2.441   1.075  1.4614 -1.5579  1.9211
 4676TIP3    H214035   3.711   2.356   0.977 -0.1399  0.8694 -1.6774
 4677TIP3   OH214036   2.706   0.625   5.091 -0.3005  0.3822 -0.1047
 4677TIP3    H114037   2.698   0.720   5.088 -0.9018  0.4886  2.4394
 4677TIP3    H214038   2.634   0.593   5.037 -0.2345  1.3688 -0.8019
 4678TIP3   OH214039   1.008   3.224   2.204 -0.2786 -0.4177 -0.0349
 4678TIP3    H114040   0.954   3.152   2.236  1.6321 -0.2082  4.3621
 4678TIP3    H214041   1.083   3.182   2.162 -1.1975 -0.8266 -1.3051
 4679TIP3   OH214042   3.868   4.502   4.408 -0.2906  0.0998 -0.7424
 4679TIP3    H114043   3.819   4.569   4.360 -1.8597  0.1891  0.8509
 4679TIP3    H214044   3.907   4.447   4.340 -0.7921  1.3392 -2.0874
 4680TIP3   OH214045   2.963   3.313   3.455 -0.2941  0.2719  0.4397
 4680TIP3    H114046   2.924   3.328   3.541  1.0600 -0.5211  1.2315
 4680TIP3    H214047   2.927   3.382   3.400 -0.1645  1.6475  1.9917
 4681TIP3   OH214048   3.608   3.823   3.723  0.4133 -0.4209 -0.3896
 4681TIP3    H114049   3.537   3.760   3.724  0.2199 -0.2056  0.2834
 4681TIP3    H214050   3.656   3.804   3.643 -0.3820 -0.5897 -0.8403
 4682TIP3   OH214051   1.380   5.375   4.218  0.2619 -0.6431 -0.8486
 4682TIP3    H114052   1.384   5.329   4.302 -0.0549  1.6990  0.5614
 4682TIP3    H214053   1.467   5.362   4.180  0.2305 -2.2216 -0.4545
 4683TIP3   OH214054   5.709   3.749   1.809 -0.3848 -0.0074 -0.2211
 4683TIP3    H114055   5.641   3.772   1.746  0.0533  1.6845 -0.1289
 4683TIP3    H214056   5.782   3.718   1.755 -1.3243 -2.2643 -0.2971
 4684TIP3   OH214057   1.347   0.569   4.860 -0.3218  0.2975  0.1144
 4684TIP3    H114058   1.272   0.526   4.819 -0.7571 -1.2317  2.3608
 4684TIP3    H214059   1.318   0.660   4.873 -0.7776  0.3951 -1.3330
 4685TIP3   OH214060   1.614   4.839   1.656  0.0388  0.0357  0.0699
 4685TIP3    H114061   1.578   4.837   1.744 -0.1768  0.2110 -0.0141
 4685TIP3    H214062   1.708   4.823   1.668  0.1569  0.9597  0.4006
 4686TIP3   OH214063   5.865   3.635   3.850  0.1852 -0.2310 -0.3754
 4686TIP3    H114064   5.842   3.670   3.936 -1.4173 -2.3958  0.1587
 4686TIP3    H214065   5.862   3.711   3.792  2.5405  1.5467  1.5992
 4687TIP3   OH214066   3.209   3.097   2.468  0.0107  0.0849 -0.4191
 4687TIP3    H114067   3.275   3.138   2.523  0.5801  0.2948 -1.2338
 4687TIP3    H214068   3.232   3.123   2.379 -1.0018 -0.0815 -0.7485
 4688TIP3   OH214069   6.265   5.048   2.793 -0.3912  0.0216  0.2398
 4688TIP3    H114070   6.214   5.003   2.860 -1.5657 -1.1709 -1.3861
 4688TIP3    H214071   6.221   5.133   2.784 -0.5252 -0.0030  0.6319
 4689TIP3   OH214072   4.600   3.633   4.578  0.3487  0.4526 -0.8197
 4689TIP3    H114073   4.573   3.723   4.561 -1.4984 -0.0218 -0.6096
 4689TIP3    H214074   4.542   3.603   4.648  1.0382 -0.8497 -0.7714
 4690TIP3   OH214075   0.782   2.609   1.048 -0.2093 -0.3388 -0.2128
 4690TIP3    H114076   0.834   2.529   1.052  1.3045  0.5646 -0.8820
 4690TIP3    H214077   0.820   2.659   0.976 -0.4503  1.4182  0.8180
 4691TIP3   OH214078   1.683   1.587   4.163 -0.2437 -0.3390 -0.2835
 4691TIP3    H114079   1.769   1.552   4.186 -0.0069 -0.8510 -1.8260
 4691TIP3    H214080   1.691   1.611   4.071 -0.3915  3.8648  0.6294
 4692TIP3   OH214081   4.108   4.094   1.142  0.2783 -0.5049  0.3148
 4692TIP3    H114082   4.149   4.139   1.068  0.4578  0.8003  1.1667
 4692TIP3    H214083   4.023   4.135   1.151 -0.4918 -1.9072 -0.2595
 4693TIP3   OH214084   1.716   0.863   1.973 -0.1494  0.4360 -0.4881
 4693TIP3    H114085   1.775   0.922   2.019  0.0345 -0.2071  0.1167
 4693TIP3    H214086   1.629   0.883   2.009 -0.0246  0.0323  0.0561
 4694TIP3   OH214087   3.104   0.102   2.154 -0.3179  0.5137 -0.3166
 4694TIP3    H114088   3.100   0.196   2.138 -0.7260  0.2209 -2.2254
 4694TIP3    H214089   3.153   0.093   2.236 -1.5947  2.4390  0.7394
 4695TIP3   OH214090   3.419   5.717   5.166 -0.2399  0.1269 -0.5104
 4695TIP3    H114091   3.498   5.754   5.206  0.1268  0.3985 -1.4713
 4695TIP3    H214092   3.432   5.622   5.170  1.0008  0.1839 -2.3287
 4696TIP3   OH214093   1.157   0.744   1.904  0.0442  0.1588  0.0277
 4696TIP3    H114094   1.079   0.703   1.941 -1.8744  0.7066 -3.0468
 4696TIP3    H214095   1.172   0.821   1.959 -1.3210 -0.1914  0.9427
 4697TIP3   OH214096   1.696   0.393   3.076 -0.2195  0.7451  0.8273
 4697TIP3    H114097   1.719   0.461   3.013  0.5626  0.0393  0.3345
 4697TIP3    H214098   1.601   0.381   3.065 -0.1419  0.8404 -0.0154
 4698TIP3   OH214099   0.588   2.200   1.218 -0.5090 -0.2338  0.3719
 4698TIP3    H114100   0.623   2.186   1.306 -0.0921 -0.3387  0.1944
 4698TIP3    H214101   0.661   2.178   1.160 -0.8484 -0.3766 -0.0053
 4699TIP3   OH214102   2.544   5.112   3.183  0.4417 -0.1993 -0.2129
 4699TIP3    H114103   2.517   5.106   3.275  3.1263 -1.8247  0.5656
 4699TIP3    H214104   2.594   5.193   3.177  1.5650 -0.8415  0.1856
 4700TIP3   OH214105   5.968   4.052   2.945 -0.0476  0.1332 -0.2537
 4700TIP3    H114106   5.905   4.084   3.009  0.5556  1.9863 -0.5314
 4700TIP3    H214107   6.049   4.039   2.994  0.7059  2.5243 -0.7312
 4701TIP3   OH214108   2.177   3.936   4.182  0.3156  0.5663 -0.0068
 4701TIP3    H114109   2.105   3.915   4.241 -0.1238  0.9838 -0.3890
 4701TIP3    H214110   2.251   3.884   4.215 -0.2918 -0.2743  0.0706
 4702TIP3   OH214111   3.020   3.324   2.186  0.3865  0.2865  0.3524
 4702TIP3    H114112   2.956   3.337   2.116  1.1580  2.1633 -0.0735
 4702TIP3    H214113   2.972   3.276   2.253 -0.3433 -1.7059 -1.4762
 4703TIP3   OH214114   6.111   2.649   3.200  0.7680  0.8761 -0.4590
 4703TIP3    H114115   6.136   2.715   3.265  1.9189  1.7948 -1.7862
 4703TIP3    H214116   6.181   2.584   3.203 -0.7618 -0.8342  1.4330
 4704TIP3   OH214117   1.638   0.327   3.951 -0.1473 -0.1304  0.3454
 4704TIP3    H114118   1.633   0.239   3.986  0.9553 -0.2325  0.2702
 4704TIP3    H214119   1.723   0.331   3.907 -1.1035  0.2743 -1.5609
 4705TIP3   OH214120   2.197   1.433   4.025  0.3287 -0.1267 -0.1719
 4705TIP3    H114121   2.182   1.520   3.989 -0.7679  0.1584  0.9147
 4705TIP3    H214122   2.182   1.374   3.951 -0.2581  0.5351 -0.5922
 4706TIP3   OH214123   5.840   1.192   2.027 -0.0711 -0.1594  0.0874
 4706TIP3    H114124   5.931   1.163   2.038 -0.0544  0.3474  1.4884
 4706TIP3    H214125   5.807   1.139   1.954  1.2427 -0.5826 -0.2339
 4707TIP3   OH214126   4.000   5.698   1.947 -0.0758  0.0489  0.5841
 4707TIP3    H114127   4.093   5.687   1.926 -0.4050 -0.9374 -0.4434
 4707TIP3    H214128   3.987   5.647   2.027 -0.0300 -1.0809 -0.1065
 4708TIP3   OH214129   0.654   0.889   1.754 -0.5430 -0.6916 -0.0925
 4708TIP3    H114130   0.711   0.895   1.831  0.0965 -1.3062 -0.5034
 4708TIP3    H214131   0.710   0.849   1.687 -0.6801  0.9860 -1.2613
 4709TIP3   OH214132   5.391   4.150   0.130  0.1838  0.8482  0.0042
 4709TIP3    H114133   5.410   4.114   0.217  3.5662  0.7408 -0.6266
 4709TIP3    H214134   5.392   4.074   0.072 -0.7158  1.0766 -0.3270
 4710TIP3   OH214135   3.066   0.009   1.283  0.0328  0.4503  0.0857
 4710TIP3    H114136   3.016   0.091   1.284 -1.1474 -0.1989 -1.2668
 4710TIP3    H214137   3.007  -0.056   1.321  0.8591  0.1646  0.8999
 4711TIP3   OH214138   1.614   3.718   5.153 -0.5202  0.1281  0.3976
 4711TIP3    H114139   1.637   3.691   5.242  0.6809  0.7329  0.2979
 4711TIP3    H214140   1.521   3.699   5.145 -0.2782 -1.5106  1.2012
 4712TIP3   OH214141   3.924   4.715   3.137  0.5759 -0.5200  0.1157
 4712TIP3    H114142   4.014   4.719   3.169  0.6169  0.4174 -0.1038
 4712TIP3    H214143   3.873   4.688   3.213  0.4916  2.8653  1.4080
 4713TIP3   OH214144   3.951   4.049   0.461 -0.2327 -0.2221  0.3990
 4713TIP3    H114145   4.045   4.062   0.448  0.6285 -0.3708  4.7163
 4713TIP3    H214146   3.929   3.975   0.404  1.6880  1.1009 -2.2833
 4714TIP3   OH214147   5.647   4.022   3.899  0.0363  0.1210 -0.1857
 4714TIP3    H114148   5.616   4.092   3.957 -1.0640  0.1381 -0.7637
 4714TIP3    H214149   5.609   3.942   3.936 -1.3469  0.2243 -1.2958
 4715TIP3   OH214150   6.278   1.967   3.957  0.0435 -0.1144 -0.0613
 4715TIP3    H114151   6.260   2.031   3.888 -0.1677 -0.6123 -0.4767
 4715TIP3    H214152   6.214   1.898   3.942  0.1787 -0.3577  0.4695
 4716TIP3   OH214153   1.638   5.865   3.467 -0.5271 -0.1065  0.3767
 4716TIP3    H114154   1.576   5.938   3.476  1.3944  1.6726 -0.1414
 4716TIP3    H214155   1.702   5.879   3.537  1.3344  0.2780 -1.3177
 4717TIP3   OH214156   3.408   1.420   3.389  0.0818 -0.2145 -0.1113
 4717TIP3    H114157   3.500   1.414   3.363  0.0410  1.8575 -0.8887
 4717TIP3    H214158   3.374   1.331   3.377  1.3644 -0.4852 -2.2099
 4718TIP3   OH214159   3.512   2.570   3.514  0.0709  0.0644 -0.4218
 4718TIP3    H114160   3.444   2.637   3.508  0.9057  1.0047  0.3301
 4718TIP3    H214161   3.556   2.572   3.429 -1.3578 -1.1734 -1.2522
 4719TIP3   OH214162   1.968   0.131   2.413 -0.4752  0.3243 -0.3645
 4719TIP3    H114163   2.009   0.206   2.456 -0.9478 -0.0802  0.8402
 4719TIP3    H214164   1.988   0.142   2.320 -1.6817  2.6578 -0.3984
 4720TIP3   OH214165   3.174   3.634   3.908 -0.1212  0.0730 -0.0566
 4720TIP3    H114166   3.247   3.664   3.962  0.9973  0.1563 -1.5674
 4720TIP3    H214167   3.194   3.543   3.888 -0.8492 -0.1470  0.1648
 4721TIP3   OH214168   5.203   5.485   4.934 -0.0130 -0.4354  0.2363
 4721TIP3    H114169   5.152   5.533   4.868  2.1167  0.6124 -0.7378
 4721TIP3    H214170   5.256   5.423   4.883  0.9006 -0.3309  1.0346
 4722TIP3   OH214171   3.295   4.561   2.284  0.5257  0.4631 -0.0567
 4722TIP3    H114172   3.360   4.618   2.324  0.3298 -0.3108  1.4421
 4722TIP3    H214173   3.325   4.472   2.304 -2.0511  0.0400  2.6826
 4723TIP3   OH214174   1.163   1.984   3.554 -0.0699 -0.1157  0.1396
 4723TIP3    H114175   1.150   1.889   3.563  0.1155 -0.1012  0.6241
 4723TIP3    H214176   1.077   2.018   3.530 -0.9115 -0.0628  2.8448
 4724TIP3   OH214177   4.681   5.629   1.868 -0.6748 -0.2853 -0.2317
 4724TIP3    H114178   4.696   5.604   1.959 -0.1471  0.2784 -0.1544
 4724TIP3    H214179   4.757   5.594   1.821  0.6333  1.9618  0.0445
 4725TIP3   OH214180   2.248   0.051   4.154  0.0704 -0.2879 -0.0889
 4725TIP3    H114181   2.185   0.049   4.082  0.2462 -2.9155 -0.2970
 4725TIP3    H214182   2.239  -0.035   4.196  1.1402  0.5506  2.0092
 4726TIP3   OH214183   3.593   3.943   0.409  0.3721  0.2687  0.0687
 4726TIP3    H114184   3.568   3.862   0.364  0.3973  0.6304 -0.6016
 4726TIP3    H214185   3.581   3.922   0.502 -1.1283 -0.0113 -0.1552
 4727TIP3   OH214186   3.814   3.549   4.589  1.0423 -0.7883 -0.8201
 4727TIP3    H114187   3.747   3.617   4.583 -0.3692 -1.7940  2.0128
 4727TIP3    H214188   3.895   3.593   4.565 -0.1858  1.2304 -1.4990
 4728TIP3   OH214189   2.557   1.905   1.855  0.2617 -0.0998 -0.3846
 4728TIP3    H114190   2.647   1.897   1.884  0.5135 -1.1210 -1.3784
 4728TIP3    H214191   2.512   1.949   1.928  1.5392  0.4236  0.1185
 4729TIP3   OH214192   1.749   5.459   2.557  0.2764 -0.0899  0.4608
 4729TIP3    H114193   1.735   5.552   2.579 -1.3576 -0.3638  0.7348
 4729TIP3    H214194   1.724   5.412   2.636  0.7137 -0.7842  0.1894
 4730TIP3   OH214195   5.760   4.552   0.729 -0.0033  0.4739 -0.6505
 4730TIP3    H114196   5.737   4.640   0.759 -3.2471 -0.2929 -0.5358
 4730TIP3    H214197   5.808   4.567   0.647  3.0500  2.3578  1.2596
 4731TIP3   OH214198   5.727   2.848   3.313 -0.0550  0.1005 -0.2354
 4731TIP3    H114199   5.769   2.844   3.227  0.2176  1.0622 -0.1594
 4731TIP3    H214200   5.665   2.775   3.313  1.5636 -1.3066 -0.3553
 4732TIP3   OH214201   5.607   0.754   1.564 -0.3029  0.2614  0.1390
 4732TIP3    H114202   5.650   0.824   1.516 -3.1063  2.0075 -0.0325
 4732TIP3    H214203   5.662   0.741   1.641  1.9782  0.3671 -1.3819
 4733TIP3   OH214204   1.892   3.302   1.748 -0.1801  0.3013 -0.0377
 4733TIP3    H114205   1.966   3.354   1.716  1.5139 -0.5324  2.2566
 4733TIP3    H214206   1.866   3.346   1.829  0.8111 -1.9145  1.5723
 4734TIP3   OH214207   0.284   5.749   2.558 -0.4513 -0.1384 -0.2319
 4734TIP3    H114208   0.374   5.721   2.546 -1.1190 -1.8759 -1.6457
 4734TIP3    H214209   0.265   5.803   2.481 -0.5326  0.4791  0.2171
 4735TIP3   OH214210   4.592   2.781   4.600 -0.0208  0.2120  0.1019
 4735TIP3    H114211   4.651   2.748   4.533  0.2083 -1.3096  0.9999
 4735TIP3    H214212   4.591   2.875   4.587  0.4828  0.0152 -1.6429
 4736TIP3   OH214213   5.049   2.219   1.772 -0.3268 -0.3951  0.3789
 4736TIP3    H114214   4.988   2.167   1.720  1.0146  0.7242 -2.5693
 4736TIP3    H214215   5.117   2.156   1.798 -0.7446 -0.8754  0.3273
 4737TIP3   OH214216   0.174   2.048   0.931  0.2609  0.1966 -0.3303
 4737TIP3    H114217   0.237   1.993   0.885 -0.1021 -0.0044 -0.5914
 4737TIP3    H214218   0.215   2.135   0.934  0.1923  0.2679 -1.2257
 4738TIP3   OH214219   0.197   4.297   4.212 -0.1460 -0.2969 -0.8829
 4738TIP3    H114220   0.217   4.316   4.120 -0.3589 -0.1110 -0.8911
 4738TIP3    H214221   0.120   4.241   4.209 -0.8364  0.6143 -0.7869
 4739TIP3   OH214222   4.606   1.390   2.823 -0.2471  0.1678  0.5278
 4739TIP3    H114223   4.693   1.394   2.783 -0.7058 -0.6120 -0.5949
 4739TIP3    H214224   4.558   1.462   2.782 -0.4549 -0.0888  0.3145
 4740TIP3   OH214225   5.667   3.248   1.819 -0.1007  0.1627  0.3524
 4740TIP3    H114226   5.604   3.288   1.759 -0.2846 -0.4761  0.1204
 4740TIP3    H214227   5.750   3.294   1.800  0.1002 -0.7759 -1.1631
 4741TIP3   OH214228   5.052   5.792   5.152  0.2292 -0.0364 -0.0416
 4741TIP3    H114229   5.027   5.702   5.173 -2.0802  0.8674  1.4932
 4741TIP3    H214230   5.014   5.807   5.065  1.4872 -0.8157 -0.7522
 4742TIP3   OH214231   1.906   2.524   0.050 -0.1669  0.5964 -0.3740
 4742TIP3    H114232   1.979   2.549   0.106 -0.6208 -0.1679  0.5765
 4742TIP3    H214233   1.861   2.607   0.032  0.5385  0.9796 -0.4403
 4743TIP3   OH214234   2.027   3.626   1.028 -0.1657 -0.2510  0.1658
 4743TIP3    H114235   1.984   3.711   1.041 -1.1691 -0.5875 -0.8006
 4743TIP3    H214236   2.034   3.617   0.933  0.6855 -0.8833  0.2823
 4744TIP3   OH214237   0.352   0.142   0.789  0.0239 -1.0277  0.2241
 4744TIP3    H114238   0.378   0.200   0.718 -1.3336 -0.9906 -0.2897
 4744TIP3    H214239   0.407   0.064   0.779  1.9253  0.1675  0.9772
 4745TIP3   OH214240   2.933   2.494   1.563  0.2103 -0.2447  0.1102
 4745TIP3    H114241   2.841   2.512   1.582  0.0007 -1.3802  0.2266
 4745TIP3    H214242   2.971   2.472   1.648  0.9829  1.7280  0.3328
 4746TIP3   OH214243   1.523   1.601   4.956  0.3780 -0.1630  0.1450
 4746TIP3    H114244   1.608   1.642   4.940 -0.0423  0.0805 -1.7329
 4746TIP3    H214245   1.467   1.634   4.885 -1.9810  1.4915  2.5526
 4747TIP3   OH214246   1.460   0.169   0.308  0.0161 -0.4093 -0.3067
 4747TIP3    H114247   1.497   0.141   0.225 -2.2814  0.5739 -1.7751
 4747TIP3    H214248   1.448   0.263   0.298 -1.8660 -0.5343  0.4316
 4748TIP3   OH214249   4.651   2.136   0.772 -0.6923  0.7820  0.2539
 4748TIP3    H114250   4.597   2.192   0.827 -0.3091 -0.1273  1.6088
 4748TIP3    H214251   4.717   2.100   0.832 -0.1783 -0.1404 -0.8281
 4749TIP3   OH214252   4.894   1.332   1.705  0.8396  0.3692 -0.5534
 4749TIP3    H114253   4.851   1.251   1.677 -1.6478  2.1140 -2.2101
 4749TIP3    H214254   4.945   1.359   1.629  2.0337  0.1783  0.1548
 4750TIP3   OH214255   3.696   0.842   3.858 -0.0210 -0.2182  0.7000
 4750TIP3    H114256   3.701   0.914   3.795 -1.8201  0.0824  0.8571
 4750TIP3    H214257   3.676   0.884   3.941  0.7869 -0.7547  1.1792
 4751TIP3   OH214258   1.502   5.118   0.344  0.4044  0.9210  0.3109
 4751TIP3    H114259   1.565   5.049   0.364  0.1581  0.3415 -0.8428
 4751TIP3    H214260   1.556   5.193   0.319  0.6501  0.6841  0.1280
 4752TIP3   OH214261   3.892   4.952   0.998  0.1456  0.1337 -0.6154
 4752TIP3    H114262   3.855   5.038   1.018  0.9417  0.3824 -0.1690
 4752TIP3    H214263   3.821   4.891   1.017  0.1875  0.5346  0.9821
 4753TIP3   OH214264   4.733   4.513   3.824 -0.0950 -0.1293 -0.1825
 4753TIP3    H114265   4.688   4.448   3.770  0.8685 -0.0162 -1.1590
 4753TIP3    H214266   4.784   4.461   3.886  0.8371 -0.3592 -1.0944
 4754TIP3   OH214267   5.536   5.412   1.462  0.3474  0.0588  0.1183
 4754TIP3    H114268   5.549   5.318   1.447 -1.2531 -0.1508 -0.1996
 4754TIP3    H214269   5.623   5.450   1.457  1.0679 -1.4658  0.6227
 4755TIP3   OH214270   4.234   1.119   4.806 -0.5138  0.5338  0.0828
 4755TIP3    H114271   4.142   1.108   4.826 -0.3054 -1.3514  0.2064
 4755TIP3    H214272   4.240   1.102   4.712 -0.3160  0.7848  0.0499
 4756TIP3   OH214273   4.758   2.716   5.100  0.7380  0.1421 -0.6865
 4756TIP3    H114274   4.736   2.637   5.050 -0.7360 -0.3387  0.6451
 4756TIP3    H214275   4.833   2.691   5.153 -1.7928 -1.6338  2.3622
 4757TIP3   OH214276   3.415   1.073   3.183  0.0988  0.5172  0.0012
 4757TIP3    H114277   3.425   1.144   3.121 -1.7037  0.6394 -0.2012
 4757TIP3    H214278   3.372   1.113   3.259  0.9578  0.0642  0.7490
 4758TIP3   OH214279   1.590   1.136   2.638 -0.0998 -0.2008  0.1963
 4758TIP3    H114280   1.515   1.192   2.616 -0.8065 -0.6321  1.3915
 4758TIP3    H214281   1.654   1.195   2.678  0.2553  0.1876 -0.9177
 4759TIP3   OH214282   5.726   3.825   4.404 -0.5822  0.3415 -0.7391
 4759TIP3    H114283   5.759   3.783   4.483 -1.2325 -0.5296 -0.9093
 4759TIP3    H214284   5.709   3.915   4.430 -0.4326  0.1601  0.0162
 4760TIP3   OH214285   2.274   2.298   0.953  1.0269  0.0745 -0.3947
 4760TIP3    H114286   2.366   2.273   0.942  0.2585 -2.3300 -2.2261
 4760TIP3    H214287   2.245   2.252   1.031  1.2081  0.3638 -0.1531
 4761TIP3   OH214288   5.144   1.597   2.013  0.1823 -0.2578  0.3693
 4761TIP3    H114289   5.135   1.595   2.109  0.8883 -0.7230  0.4296
 4761TIP3    H214290   5.237   1.610   1.998 -0.1218  1.4702 -0.2659
 4762TIP3   OH214291   1.784   0.826   1.246  0.2852 -0.0646 -0.0112
 4762TIP3    H114292   1.755   0.738   1.222 -0.0474 -0.0801  0.4238
 4762TIP3    H214293   1.871   0.834   1.207  0.5430 -0.7895  0.3795
 4763TIP3   OH214294   3.165   0.004   4.723  0.0742 -0.8347 -0.9089
 4763TIP3    H114295   3.113   0.025   4.801  3.7097  1.1541  1.2387
 4763TIP3    H214296   3.139   0.070   4.659  0.5093  0.7001  0.4408
 4764TIP3   OH214297   5.976   2.806   2.154 -0.3532 -0.4902  0.8185
 4764TIP3    H114298   5.894   2.856   2.147 -0.8883 -1.5369 -0.9088
 4764TIP3    H214299   6.039   2.869   2.189 -1.4162  0.9045  0.3154
 4765TIP3   OH214300   4.576   5.337   2.882 -0.3132  0.4354 -0.6006
 4765TIP3    H114301   4.524   5.302   2.953  0.0063 -1.4979 -1.2573
 4765TIP3    H214302   4.512   5.378   2.823 -0.7636  0.5198 -0.0578
 4766TIP3   OH214303   0.453   3.003   1.728  0.0203 -0.6195  0.0797
 4766TIP3    H114304   0.505   3.082   1.744  0.5194 -1.0984  0.9020
 4766TIP3    H214305   0.365   3.026   1.759 -0.3294  0.2411 -1.4452
 4767TIP3   OH214306   6.327   5.499   1.099 -0.4794 -0.2266 -0.9263
 4767TIP3    H114307   6.291   5.546   1.023 -1.0154  0.1815 -0.4242
 4767TIP3    H214308   6.384   5.563   1.141  1.5112 -1.0991 -2.1533
 4768TIP3   OH214309   3.923   5.247  -0.028 -0.3963  0.5745  0.0638
 4768TIP3    H114310   3.975   5.260   0.051 -0.0669  1.5778 -0.3065
 4768TIP3    H214311   3.834   5.231   0.004 -0.2005  0.6330  0.6429
 4769TIP3   OH214312   0.176   4.904   4.432  0.2510  0.5205 -0.1746
 4769TIP3    H114313   0.248   4.872   4.487  0.5389  0.7878 -0.3939
 4769TIP3    H214314   0.165   4.837   4.364 -0.7433 -0.2926  0.7453
 4770TIP3   OH214315   1.070   5.426   2.231  0.0638 -0.5816  0.0510
 4770TIP3    H114316   1.102   5.514   2.216  3.2346 -1.2717  1.9103
 4770TIP3    H214317   1.103   5.375   2.157 -1.1648 -0.4093 -0.6503
 4771TIP3   OH214318   5.405   4.766   4.565 -0.1300 -0.0305 -0.1246
 4771TIP3    H114319   5.346   4.769   4.491  0.1524  1.6017 -0.3105
 4771TIP3    H214320   5.349   4.782   4.641 -0.1435  0.0768 -0.1571
 4772TIP3   OH214321   4.273   0.625   3.395  0.2970  0.2590 -0.3289
 4772TIP3    H114322   4.216   0.700   3.410  1.6076  1.0753  0.9361
 4772TIP3    H214323   4.358   0.654   3.429  0.7847 -1.8722  0.3948
 4773TIP3   OH214324   0.098   5.642   3.913 -0.2872  0.4974  0.0412
 4773TIP3    H114325   0.114   5.716   3.854  2.5291 -0.7056 -0.8983
 4773TIP3    H214326   0.185   5.622   3.949 -0.7123 -2.9668 -0.5573
 4774TIP3   OH214327   3.963   3.003   0.168  0.2705 -0.3117  0.1775
 4774TIP3    H114328   3.968   2.923   0.116  2.8940 -0.5266  0.5813
 4774TIP3    H214329   3.926   3.068   0.109  1.5190 -0.9765 -1.4114
 4775TIP3   OH214330   2.023   5.481   1.337  0.7422 -0.0354 -0.2171
 4775TIP3    H114331   2.015   5.413   1.405  0.6633 -0.1986 -0.3882
 4775TIP3    H214332   1.999   5.562   1.382 -0.7121 -0.3348 -0.3865
 4776TIP3   OH214333   2.791   4.648   2.825 -0.0426 -0.1033 -0.1828
 4776TIP3    H114334   2.878   4.654   2.785 -0.4785 -1.1948 -1.3620
 4776TIP3    H214335   2.802   4.687   2.912  1.3564  0.7457 -0.7083
 4777TIP3   OH214336   4.156   0.591   0.204 -0.6972 -0.1720 -0.8068
 4777TIP3    H114337   4.188   0.649   0.273  2.1982 -3.9266  1.4052
 4777TIP3    H214338   4.217   0.604   0.131  0.2775 -0.7566 -0.1140
 4778TIP3   OH214339   1.791   1.353   1.369 -0.4660  0.3906  0.0799
 4778TIP3    H114340   1.743   1.323   1.293  0.1090  1.5031 -0.7514
 4778TIP3    H214341   1.883   1.337   1.347 -0.2400  1.5142  0.1620
 4779TIP3   OH214342   3.043   1.909   1.171  0.2809  0.0042 -0.3673
 4779TIP3    H114343   2.989   1.830   1.162 -0.8480  0.7850 -0.6747
 4779TIP3    H214344   3.114   1.882   1.229  0.7175 -1.6312 -1.5782
 4780TIP3   OH214345   4.817   2.074   3.284  0.3618 -0.2160 -0.0624
 4780TIP3    H114346   4.834   1.989   3.242  0.0036 -0.4982  0.3683
 4780TIP3    H214347   4.725   2.071   3.309  0.8482 -0.5378  1.8456
 4781TIP3   OH214348   4.773   2.290   4.463 -0.3257 -0.1129 -0.6745
 4781TIP3    H114349   4.814   2.360   4.414 -1.8009  1.4505  0.2139
 4781TIP3    H214350   4.695   2.267   4.413 -0.9752  0.3720  0.0897
 4782TIP3   OH214351   1.925   3.080   4.300 -0.6381 -0.1452 -0.5263
 4782TIP3    H114352   1.911   2.986   4.291 -0.9778 -0.2027  0.5714
 4782TIP3    H214353   1.995   3.089   4.364  0.1907  0.3353 -1.4558
 4783TIP3   OH214354   4.471   1.394   4.171  0.3032 -0.4551  0.4197
 4783TIP3    H114355   4.431   1.311   4.196 -2.7033  0.3083 -1.3197
 4783TIP3    H214356   4.548   1.369   4.119  0.6330 -2.0740  1.6201
 4784TIP3   OH214357   4.680   4.328   4.926  0.1751  0.2383  0.1030
 4784TIP3    H114358   4.644   4.341   4.838 -2.0463 -2.5924  0.4447
 4784TIP3    H214359   4.775   4.339   4.915  0.0600 -0.8481 -2.8269
 4785TIP3   OH214360   3.832   0.422   3.925 -0.1407  0.2314  0.1235
 4785TIP3    H114361   3.853   0.329   3.926  1.4733  0.5734  0.3780
 4785TIP3    H214362   3.809   0.442   4.016  0.2776  0.2434  0.2268
 4786TIP3   OH214363   3.422   2.248   2.555  0.0357  0.0610  0.0000
 4786TIP3    H114364   3.391   2.331   2.518 -1.2731 -0.0223  0.8435
 4786TIP3    H214365   3.502   2.228   2.507 -0.8783  0.6328 -1.8363
 4787TIP3   OH214366   0.760   3.836   2.099 -0.3433  0.0846  0.0112
 4787TIP3    H114367   0.748   3.767   2.164  1.5406  0.8450  1.2464
 4787TIP3    H214368   0.798   3.908   2.148 -1.6140  1.7924 -1.3905
 4788TIP3   OH214369   6.109   2.555   2.669 -0.4665 -0.3388  0.0703
 4788TIP3    H114370   6.079   2.533   2.581  0.7057 -0.5019 -0.3143
 4788TIP3    H214371   6.031   2.548   2.724 -0.9258 -1.6755 -0.7050
 4789TIP3   OH214372   4.146   4.891   0.495  0.0754 -0.2941 -0.4459
 4789TIP3    H114373   4.105   4.853   0.417 -0.8389  1.4361 -0.8578
 4789TIP3    H214374   4.089   4.866   0.567  0.9085 -1.8769 -0.2914
 4790TIP3   OH214375   4.672   4.391   3.150  0.4927  0.5008 -0.2303
 4790TIP3    H114376   4.632   4.476   3.131 -1.5377 -0.3851 -0.2409
 4790TIP3    H214377   4.714   4.365   3.069 -2.3820 -0.2727 -1.5994
 4791TIP3   OH214378   1.096   1.275   2.429 -0.2762  0.0758 -0.2407
 4791TIP3    H114379   1.059   1.186   2.425 -0.8546  0.2242  1.2119
 4791TIP3    H214380   1.047   1.318   2.499  1.8268  0.6798  0.9593
 4792TIP3   OH214381   2.153   4.408   2.313  0.2142  0.8638  0.3157
 4792TIP3    H114382   2.085   4.476   2.302 -1.0970 -0.5694 -0.9196
 4792TIP3    H214383   2.145   4.354   2.235  0.5469 -1.3006  1.7130
 4793TIP3   OH214384   1.771   1.037   0.296 -0.0768 -0.2106  0.9343
 4793TIP3    H114385   1.824   1.114   0.316 -0.9935  0.8255 -0.4550
 4793TIP3    H214386   1.810   1.001   0.216  0.3630 -1.2304  1.5893
 4794TIP3   OH214387   3.764   4.369   2.725  0.0626  0.3166 -0.0798
 4794TIP3    H114388   3.670   4.388   2.716 -0.3148 -0.7837  1.1574
 4794TIP3    H214389   3.777   4.359   2.820  1.8191  2.2758 -0.0499
 4795TIP3   OH214390   6.176   2.421   0.655  0.4517 -0.2120 -0.3348
 4795TIP3    H114391   6.250   2.411   0.714  0.7096  1.3835 -0.3252
 4795TIP3    H214392   6.140   2.507   0.676 -1.6385 -1.0842 -0.1098
 4796TIP3   OH214393   4.651   3.028   3.239  0.7797  0.1955 -0.0929
 4796TIP3    H114394   4.674   2.956   3.181  2.0416  0.0016  0.6188
 4796TIP3    H214395   4.574   3.069   3.198  0.8314 -0.7538 -1.1686
 4797TIP3   OH214396   5.366   0.719   5.113  0.2145 -0.1587 -0.1265
 4797TIP3    H114397   5.442   0.675   5.074  1.6267  1.4823  0.6346
 4797TIP3    H214398   5.384   0.812   5.101 -1.4264  0.2829  0.5887
 4798TIP3   OH214399   1.525   5.228   4.957 -0.1253 -0.1995 -0.9078
 4798TIP3    H114400   1.441   5.236   5.004  0.5006 -1.8064  0.5818
 4798TIP3    H214401   1.526   5.138   4.925  0.2805  0.3380 -2.5082
 4799TIP3   OH214402   1.535   4.946   3.582 -0.5839  0.7519  0.4959
 4799TIP3    H114403   1.524   4.901   3.498 -2.2009  2.9262 -0.5630
 4799TIP3    H214404   1.612   5.002   3.569 -0.3816  0.5362  0.7502
 4800TIP3   OH214405   5.210   2.419   4.795 -0.1097  0.1603 -0.2130
 4800TIP3    H114406   5.212   2.446   4.704 -0.2066  0.2006 -0.2025
 4800TIP3    H214407   5.287   2.362   4.805  1.9388  2.8686  0.5140
 4801TIP3   OH214408   6.023   3.628   0.202  0.1437  0.2786 -0.2115
 4801TIP3    H114409   5.951   3.691   0.193 -0.5901 -0.4660  0.2859
 4801TIP3    H214410   6.024   3.608   0.296  0.0774 -0.7745 -0.4315
 4802TIP3   OH214411   0.378   0.559   1.546  0.3091 -0.3483 -0.2104
 4802TIP3    H114412   0.370   0.631   1.609  0.8329 -0.5020  0.0332
 4802TIP3    H214413   0.451   0.586   1.489  1.6706 -1.4742  0.9400
 4803TIP3   OH214414   3.708   3.346   1.605  0.5011 -0.0304  0.2248
 4803TIP3    H114415   3.628   3.397   1.601  1.5623  1.8079  1.3437
 4803TIP3    H214416   3.732   3.345   1.697  2.3292  0.3961 -0.1954
 4804TIP3   OH214417   5.848   3.184   5.032 -0.4348 -0.3285  0.0474
 4804TIP3    H114418   5.824   3.093   5.013  0.4268 -0.6823  0.5576
 4804TIP3    H214419   5.820   3.197   5.123  1.3782 -0.8195  0.7291
 4805TIP3   OH214420   2.738   5.694   2.169  0.0391 -0.0033  0.5472
 4805TIP3    H114421   2.820   5.734   2.141  2.0009 -3.2060  1.1885
 4805TIP3    H214422   2.700   5.659   2.089  0.8621 -1.0901  0.6179
 4806TIP3   OH214423   4.521   4.134   5.031 -0.1138  0.5233 -0.2285
 4806TIP3    H114424   4.595   4.108   5.086  0.2879 -1.5676 -1.6179
 4806TIP3    H214425   4.549   4.215   4.988 -0.0724  1.6766  1.8578
 4807TIP3   OH214426   1.231   1.621   2.072  0.1281  0.1679  0.3045
 4807TIP3    H114427   1.152   1.675   2.068  0.5418  0.8663  1.2048
 4807TIP3    H214428   1.250   1.599   1.981 -1.4585 -0.5593  0.1107
 4808TIP3   OH214429   1.752   2.295   1.748  0.0169  0.4381  0.0345
 4808TIP3    H114430   1.818   2.251   1.801 -0.5560 -1.2258 -0.5561
 4808TIP3    H214431   1.761   2.388   1.770  1.9462  0.1556  0.5937
 4809TIP3   OH214432   0.688   1.008   2.819  0.2000  0.1269  0.3802
 4809TIP3    H114433   0.731   0.925   2.797 -2.0251 -0.5934 -1.5149
 4809TIP3    H214434   0.618   0.983   2.879 -3.4980 -0.2869 -3.6673
 4810TIP3   OH214435   5.590   0.512   3.368  0.1101  0.2770  0.3436
 4810TIP3    H114436   5.538   0.461   3.306  0.5709 -0.7075  0.7522
 4810TIP3    H214437   5.554   0.490   3.454  1.2531 -0.4955  0.6424
 4811TIP3   OH214438   4.561   3.932   1.670 -0.0681 -0.2673  0.5579
 4811TIP3    H114439   4.622   3.861   1.689  0.5510 -0.5653 -2.1763
 4811TIP3    H214440   4.603   4.009   1.710  0.6687 -0.9355  1.1225
 4812TIP3   OH214441   4.688   3.570   4.998  0.6648  0.3551 -0.6355
 4812TIP3    H114442   4.719   3.581   4.908  2.9297 -0.3508 -0.0144
 4812TIP3    H214443   4.626   3.497   4.994  3.5710 -2.2944 -1.1559
 4813TIP3   OH214444   5.962   5.465   4.840 -0.6546  0.1838  0.4089
 4813TIP3    H114445   6.003   5.520   4.908 -1.0772  2.2651 -0.9158
 4813TIP3    H214446   5.993   5.377   4.860 -1.4694  0.5116  3.8280
 4814TIP3   OH214447   3.076   5.738   2.256  0.1318 -0.0852 -0.0124
 4814TIP3    H114448   3.111   5.818   2.217  1.0607 -0.5444 -0.1617
 4814TIP3    H214449   3.048   5.764   2.344 -2.4901  1.0766 -1.1092
 4815TIP3   OH214450   0.263   2.676   2.339 -0.4164 -0.0261 -0.3530
 4815TIP3    H114451   0.253   2.672   2.434 -0.2109 -0.0884 -0.3328
 4815TIP3    H214452   0.185   2.633   2.305  0.2903 -1.5343 -0.1827
 4816TIP3   OH214453   0.348   5.672   4.554 -0.1329  0.0693  0.1495
 4816TIP3    H114454   0.414   5.604   4.540  0.1993  0.5408 -0.6615
 4816TIP3    H214455   0.279   5.652   4.491  0.3606  0.9657 -0.6854
 4817TIP3   OH214456   3.186   5.293   1.532  0.2661 -0.1515  0.7223
 4817TIP3    H114457   3.221   5.214   1.491  1.7648  0.9171 -0.1771
 4817TIP3    H214458   3.130   5.332   1.465  0.6638  0.2555  0.6156
 4818TIP3   OH214459   4.277   5.406   0.323  0.2095  0.2279  0.2689
 4818TIP3    H114460   4.258   5.478   0.262 -0.7459  0.3308  0.6800
 4818TIP3    H214461   4.221   5.334   0.295  1.0711 -0.3348 -0.0602
 4819TIP3   OH214462   6.130   1.417   2.013  0.1501 -0.3075  0.7821
 4819TIP3    H114463   6.192   1.348   2.038 -0.8332 -2.1615 -1.4395
 4819TIP3    H214464   6.099   1.390   1.926 -1.6407  2.0398  0.5986
 4820TIP3   OH214465   3.483   0.711   4.419  0.3118  0.4780  0.7711
 4820TIP3    H114466   3.444   0.798   4.424 -0.3815  0.2060  0.2437
 4820TIP3    H214467   3.441   0.670   4.343  1.4552  0.0912  0.3262
 4821TIP3   OH214468   0.259   0.467   5.009 -0.0385 -0.7527  0.3670
 4821TIP3    H114469   0.263   0.532   5.079  0.4144 -1.0424  0.6189
 4821TIP3    H214470   0.208   0.395   5.046 -0.7417 -0.4428  0.0038
 4822TIP3   OH214471   1.873   3.784   1.383  0.7805  0.7509  0.3270
 4822TIP3    H114472   1.785   3.752   1.401  1.1216 -0.5749 -0.2325
 4822TIP3    H214473   1.862   3.879   1.373 -0.8284  0.4702 -1.0856
 4823TIP3   OH214474   5.804   1.558   3.759  0.1090 -0.9737  0.7107
 4823TIP3    H114475   5.885   1.511   3.736  0.8486 -0.3467  1.8894
 4823TIP3    H214476   5.755   1.494   3.811  0.4992 -0.9058  1.1750
 4824TIP3   OH214477   4.837   1.446   2.661  0.5073  0.4188  0.0635
 4824TIP3    H114478   4.924   1.443   2.700 -0.2686  0.1616  1.9025
 4824TIP3    H214479   4.844   1.392   2.582  2.7884  2.9808 -1.6854
 4825TIP3   OH214480   0.410   3.597   0.681 -0.3111 -0.3613 -0.2484
 4825TIP3    H114481   0.491   3.551   0.703  1.7911  2.4139 -1.5475
 4825TIP3    H214482   0.397   3.579   0.588 -0.7980 -0.2165 -0.2116
 4826TIP3   OH214483   5.940   2.401   3.032 -0.2699 -0.5343 -0.0954
 4826TIP3    H114484   5.998   2.389   3.108 -0.7126 -1.2232  0.1429
 4826TIP3    H214485   5.921   2.312   3.002 -0.9810 -0.3085 -0.3415
 4827TIP3   OH214486   0.850   4.011   1.092 -0.1634  0.4279  0.2816
 4827TIP3    H114487   0.918   3.961   1.047 -0.0192  0.8938 -0.0318
 4827TIP3    H214488   0.869   3.999   1.185  1.8761  2.5433  0.2399
 4828TIP3   OH214489   3.606   0.008   0.141 -0.0356  0.0672 -0.1175
 4828TIP3    H114490   3.611   0.088   0.194 -2.0772 -0.7271  1.3893
 4828TIP3    H214491   3.541   0.027   0.075 -0.7088 -0.4060  0.3966
 4829TIP3   OH214492   1.627   3.962   0.892 -0.0167 -0.0470 -0.3309
 4829TIP3    H114493   1.615   3.949   0.986 -2.7159 -1.8327 -0.8193
 4829TIP3    H214494   1.585   4.046   0.874  0.1788  0.1206 -0.0220
 4830TIP3   OH214495   0.219   4.166   0.921 -0.0017  0.3642 -0.1210
 4830TIP3    H114496   0.311   4.170   0.950 -0.0802  1.6667 -0.0117
 4830TIP3    H214497   0.195   4.074   0.934  0.8645  0.2864  1.1921
 4831TIP3   OH214498   2.018   0.972   1.127  0.0842  0.3319 -0.8822
 4831TIP3    H114499   2.055   0.899   1.076 -0.2137 -0.4422 -0.0232
 4831TIP3    H214500   2.058   0.963   1.213  1.2222  2.1276 -1.1753
 4832TIP3   OH214501   0.265   0.604   4.770  0.4385 -0.0878 -0.1107
 4832TIP3    H114502   0.261   0.560   4.855  0.6110  1.4168  0.7114
 4832TIP3    H214503   0.329   0.674   4.782 -1.0306  1.4619 -0.8310
 4833TIP3   OH214504   3.958   2.187   4.517 -0.4583 -0.1204 -0.0394
 4833TIP3    H114505   3.987   2.270   4.556  1.1903 -0.9946  0.6551
 4833TIP3    H214506   4.003   2.182   4.433 -1.4359  0.1816 -0.6075
 4834TIP3   OH214507   5.309   3.770   2.980  0.3647  0.5882 -0.2236
 4834TIP3    H114508   5.252   3.831   2.932  0.1481 -0.1420 -0.9093
 4834TIP3    H214509   5.276   3.684   2.957  2.1824  0.1103 -1.1733
 4835TIP3   OH214510   3.930   0.455   1.408 -0.7898 -0.0545  0.1503
 4835TIP3    H114511   3.920   0.367   1.447 -1.4634  0.4901  1.2769
 4835TIP3    H214512   3.857   0.505   1.446  0.6481  1.4956  0.9727
 4836TIP3   OH214513   1.937   2.213   1.131  0.3241  0.0716 -0.1843
 4836TIP3    H114514   1.971   2.149   1.069 -1.9283  1.5108 -3.1459
 4836TIP3    H214515   1.874   2.163   1.184 -0.9820 -0.3705 -2.0566
 4837TIP3   OH214516   0.490   0.861   0.738 -0.2093 -0.1252 -0.3202
 4837TIP3    H114517   0.522   0.908   0.815  0.1359 -1.0215  0.0976
 4837TIP3    H214518   0.412   0.910   0.711  0.3576  0.9124 -0.1471
 4838TIP3   OH214519   4.318   1.070   3.364 -0.4387  0.0535 -0.1697
 4838TIP3    H114520   4.234   1.037   3.331 -0.5262 -0.1559  0.2543
 4838TIP3    H214521   4.377   0.996   3.357 -0.5822 -0.1437  0.5906
 4839TIP3   OH214522   5.917   4.012   0.246 -0.5138  0.1966 -0.2843
 4839TIP3    H114523   5.974   4.007   0.322 -0.9837 -0.8569  0.0095
 4839TIP3    H214524   5.974   4.043   0.175 -0.4796  3.1234  0.8643
 4840TIP3   OH214525   4.292   5.576   0.111  0.1044 -0.1599  0.0168
 4840TIP3    H114526   4.354   5.637   0.151 -0.6424 -0.2423  1.3525
 4840TIP3    H214527   4.308   5.584   0.017  0.7466  1.3080  0.2235
 4841TIP3   OH214528   1.371   4.538   3.932 -0.3042  0.2380  0.5468
 4841TIP3    H114529   1.449   4.523   3.985 -0.0338 -2.1521 -0.4071
 4841TIP3    H214530   1.384   4.485   3.854 -1.7572  1.8098 -0.8411
 4842TIP3   OH214531   2.832   3.585   3.334  0.5583 -0.1437 -0.5611
 4842TIP3    H114532   2.875   3.669   3.351  1.5126 -0.7175 -0.0445
 4842TIP3    H214533   2.746   3.593   3.376  1.0363  0.2086  0.3829
 4843TIP3   OH214534   4.567   0.117   4.815 -0.4738 -0.3804  0.2213
 4843TIP3    H114535   4.644   0.118   4.871 -0.1203  1.6231 -0.2416
 4843TIP3    H214536   4.547   0.209   4.798 -2.7078 -0.8362 -0.0465
 4844TIP3   OH214537   5.465   3.006   2.273 -0.1830 -0.0036  0.0008
 4844TIP3    H114538   5.549   3.014   2.318 -0.1306 -0.0775 -0.0836
 4844TIP3    H214539   5.476   3.055   2.192 -0.3739  0.3812  0.2034
 4845TIP3   OH214540   3.628   5.342   3.105  0.4425  0.6663  0.2597
 4845TIP3    H114541   3.584   5.344   3.190 -1.6920  0.0177 -0.7387
 4845TIP3    H214542   3.677   5.424   3.101 -0.0233  1.0601  1.7962
 4846TIP3   OH214543   1.819   2.022   2.406 -0.1409  0.4782  0.0108
 4846TIP3    H114544   1.846   1.939   2.445 -1.2452 -0.7271 -1.6397
 4846TIP3    H214545   1.877   2.088   2.445 -0.3481 -0.7944  2.6489
 4847TIP3   OH214546   3.385   2.073   3.671  0.0188  0.3572  0.3640
 4847TIP3    H114547   3.338   1.990   3.683 -1.1849  1.2502  2.4951
 4847TIP3    H214548   3.477   2.048   3.660 -0.5980 -1.3338 -1.5736
 4848TIP3   OH214549   2.197   4.219   3.156 -0.4037  0.2846  0.2299
 4848TIP3    H114550   2.128   4.284   3.141 -0.7995 -0.0283  0.6254
 4848TIP3    H214551   2.279   4.266   3.140 -0.6932  0.8047  0.2476
 4849TIP3   OH214552   2.359   4.620   2.147 -0.4420  0.2216 -0.0884
 4849TIP3    H114553   2.387   4.690   2.089 -0.1976  0.5641  0.4338
 4849TIP3    H214554   2.265   4.635   2.161  0.0471  1.8761  1.9027
 4850TIP3   OH214555   0.364   0.721   2.383 -0.0999  0.0019 -0.0905
 4850TIP3    H114556   0.417   0.691   2.309 -1.5399 -1.3744 -0.6094
 4850TIP3    H214557   0.329   0.642   2.422 -0.5731  0.7984  1.1747
 4851TIP3   OH214558   4.469   3.761   2.496 -0.3162  0.1461  0.4131
 4851TIP3    H114559   4.564   3.767   2.503 -0.3019 -0.7358  1.2116
 4851TIP3    H214560   4.454   3.688   2.436 -0.4976  0.5985 -0.1017
 4852TIP3   OH214561   6.182   5.251   4.296 -0.5862  0.2262  0.1747
 4852TIP3    H114562   6.126   5.245   4.373 -0.6921  0.3045  0.1044
 4852TIP3    H214563   6.121   5.250   4.222 -0.4567 -0.3489  0.0725
 4853TIP3   OH214564   0.479   3.878   0.742  0.2155 -0.1081 -0.6757
 4853TIP3    H114565   0.522   3.794   0.725  0.1068 -0.2295 -0.3654
 4853TIP3    H214566   0.423   3.861   0.818  0.1843  0.2429 -0.6182
 4854TIP3   OH214567   1.949   1.469   4.177  0.2846 -0.0215 -0.6196
 4854TIP3    H114568   1.930   1.376   4.178 -0.6584 -0.0670 -4.4494
 4854TIP3    H214569   2.035   1.475   4.134  0.0872  0.8763 -0.9105
 4855TIP3   OH214570   5.263   3.000   3.744  0.1636 -0.6441  0.1727
 4855TIP3    H114571   5.212   3.059   3.689 -0.8684 -0.3192  1.4322
 4855TIP3    H214572   5.354   3.015   3.717 -0.1589  0.8089 -0.2074
 4856TIP3   OH214573   4.411   3.304   1.059  0.0677 -0.5466 -0.4265
 4856TIP3    H114574   4.409   3.209   1.071  0.5524 -0.6024 -0.7763
 4856TIP3    H214575   4.321   3.327   1.037  0.0155 -0.9653 -0.6595
 4857TIP3   OH214576   6.093   2.799   1.730 -0.5296  0.5668  0.1242
 4857TIP3    H114577   6.145   2.863   1.681 -0.2033 -0.5043 -0.9753
 4857TIP3    H214578   6.022   2.775   1.670 -0.3062 -0.5436  0.2967
 4858TIP3   OH214579   0.641   0.757   0.544 -0.2213 -0.4254 -0.0134
 4858TIP3    H114580   0.617   0.671   0.580 -0.0026  0.0293  1.2969
 4858TIP3    H214581   0.592   0.819   0.598  1.9660  0.3966  1.1566
 4859TIP3   OH214582   1.248   5.480   0.766 -0.0521 -0.0413 -0.4542
 4859TIP3    H114583   1.205   5.488   0.680  0.6954 -0.7703 -0.9128
 4859TIP3    H214584   1.279   5.390   0.768 -2.3711 -0.8903  1.7115
 4860TIP3   OH214585   3.461   2.298   0.119  0.0511 -0.3176 -0.9614
 4860TIP3    H114586   3.434   2.390   0.118 -1.5585 -0.6491  1.8201
 4860TIP3    H214587   3.540   2.296   0.172 -0.1616 -0.5533 -0.6434
 4861TIP3   OH214588   4.743   5.360   2.325  0.0560 -0.0241 -0.0385
 4861TIP3    H114589   4.718   5.274   2.292  1.2118  0.0990 -1.3617
 4861TIP3    H214590   4.676   5.382   2.390 -1.0648 -1.2904 -0.7180
 4862TIP3   OH214591   1.830   0.729   3.435  0.2440  0.6343 -0.3467
 4862TIP3    H114592   1.773   0.659   3.404 -1.1616  0.7420  1.7840
 4862TIP3    H214593   1.770   0.802   3.454  1.5114  1.9713 -1.1800
 4863TIP3   OH214594   6.291   5.403   3.921 -0.6317 -1.0935 -0.8698
 4863TIP3    H114595   6.334   5.487   3.901 -1.3582 -1.2722 -3.5625
 4863TIP3    H214596   6.210   5.428   3.965  0.4411 -0.5980  0.9871
 4864TIP3   OH214597   4.283   3.013   4.799  0.2986 -0.2308  0.0979
 4864TIP3    H114598   4.324   3.094   4.768  0.8159  0.3424  2.1110
 4864TIP3    H214599   4.279   2.957   4.722  0.3151  1.5483 -1.2555
 4865TIP3   OH214600   0.447   1.011   4.778  0.2911 -0.4237 -0.4131
 4865TIP3    H114601   0.450   1.004   4.683 -3.5499  2.5683 -1.0223
 4865TIP3    H214602   0.461   1.104   4.796 -1.1035 -0.5514  1.7220
 4866TIP3   OH214603   2.059   3.063   2.854  0.3308 -0.6672  0.5846
 4866TIP3    H114604   1.965   3.075   2.868  0.2670 -1.3055  0.7165
 4866TIP3    H214605   2.100   3.131   2.907 -0.0479 -0.5456  0.7211
 4867TIP3   OH214606   0.210   3.356   5.114  0.0350 -0.3347 -0.6513
 4867TIP3    H114607   0.178   3.444   5.130 -0.2562 -0.8072  1.6201
 4867TIP3    H214608   0.304   3.360   5.134 -0.4675 -1.0993  2.1734
 4868TIP3   OH214609   3.718   4.968   1.725  0.8094 -0.1782 -0.2186
 4868TIP3    H114610   3.641   4.945   1.674  0.7058 -0.2932 -0.0104
 4868TIP3    H214611   3.789   4.917   1.685  0.2173 -2.5081  1.5179
 4869TIP3   OH214612   2.958   5.781   1.910  0.9905 -0.0001 -0.1015
 4869TIP3    H114613   3.008   5.700   1.922 -0.6555 -0.7736  2.5155
 4869TIP3    H214614   2.892   5.759   1.844  1.6296 -0.1823 -0.6996
 4870TIP3   OH214615   5.189   3.058   2.263 -0.1159  0.6161 -0.3330
 4870TIP3    H114616   5.213   3.145   2.231  1.7389  0.6933  1.1011
 4870TIP3    H214617   5.271   3.007   2.260 -1.2499 -1.2514 -1.5866
 4871TIP3   OH214618   0.005   2.179   4.834 -0.2088 -0.1377 -0.6985
 4871TIP3    H114619   0.022   2.182   4.928  2.1230 -1.3905 -0.9916
 4871TIP3    H214620   0.027   2.089   4.809 -1.7789 -0.1346 -2.3169
 4872TIP3   OH214621   1.373   3.496   3.067 -0.1473  0.1756 -0.3975
 4872TIP3    H114622   1.410   3.577   3.031  1.1217 -0.7861 -1.3188
 4872TIP3    H214623   1.429   3.426   3.033 -1.6246 -1.1680 -0.1782
 4873TIP3   OH214624   3.801   4.905   3.388  0.1699  0.7252  0.0564
 4873TIP3    H114625   3.892   4.921   3.413  0.2916  0.4184 -0.1806
 4873TIP3    H214626   3.779   4.978   3.330  0.4699  0.4577 -0.3960
 4874TIP3   OH214627   6.281   0.437   3.788 -0.2759 -0.1007 -0.0513
 4874TIP3    H114628   6.239   0.466   3.869 -0.2432  2.0270 -0.7475
 4874TIP3    H214629   6.319   0.516   3.751  2.0597 -1.4716 -0.8132
 4875TIP3   OH214630   5.793   0.089   4.172 -0.0899  0.2635  0.3888
 4875TIP3    H114631   5.786   0.175   4.215  0.4664  0.8916 -0.7467
 4875TIP3    H214632   5.822   0.109   4.083  2.6297 -1.2721  0.8335
 4876TIP3   OH214633   2.410   3.139   0.616 -0.0507  0.4904  0.0764
 4876TIP3    H114634   2.336   3.141   0.677 -0.1395 -0.0314 -0.0100
 4876TIP3    H214635   2.477   3.193   0.658 -0.5131  1.0516  0.1084
 4877TIP3   OH214636   3.730   4.575   4.813 -0.7295 -0.3220  0.5930
 4877TIP3    H114637   3.788   4.514   4.859  1.3184  2.0710  1.4336
 4877TIP3    H214638   3.680   4.617   4.883 -0.2583  0.7545  0.2984
 4878TIP3   OH214639   4.869   2.503   4.247  0.0117  0.3248  0.1007
 4878TIP3    H114640   4.834   2.563   4.313 -0.1451 -1.3185  1.5795
 4878TIP3    H214641   4.960   2.489   4.272  0.2377  0.4382 -0.6239
 4879TIP3   OH214642   4.879   0.276   3.944 -0.6164 -0.0431  0.0053
 4879TIP3    H114643   4.851   0.217   3.874 -0.0367 -1.5378  0.9775
 4879TIP3    H214644   4.869   0.224   4.024  2.3846  0.2312  0.6631
 4880TIP3   OH214645   1.561   0.073   2.147 -0.3645  0.0336  0.2031
 4880TIP3    H114646   1.630   0.089   2.211 -0.4764 -2.0383  0.9082
 4880TIP3    H214647   1.607   0.034   2.072 -0.3947  1.3854 -0.5477
 4881TIP3   OH214648   4.033   3.774   2.613 -0.2352  0.1663 -0.0817
 4881TIP3    H114649   3.966   3.806   2.673 -1.6836  0.7737 -1.9251
 4881TIP3    H214650   4.108   3.832   2.627  0.0053 -0.5683  2.0630
 4882TIP3   OH214651   2.415   5.703   1.138 -0.1185 -0.0409  0.5331
 4882TIP3    H114652   2.471   5.630   1.166  1.3155  1.4082  1.6109
 4882TIP3    H214653   2.474   5.779   1.135 -1.4744  1.0127 -0.9842
 4883TIP3   OH214654   1.367   2.988   1.628 -0.7033 -0.5006  0.0631
 4883TIP3    H114655   1.403   2.972   1.715  3.3341 -4.1846 -1.8921
 4883TIP3    H214656   1.300   2.921   1.617  0.2252 -1.3915 -0.2967
 4884TIP3   OH214657   5.674   4.754   2.869 -0.0160  0.3388  0.3794
 4884TIP3    H114658   5.663   4.694   2.796 -1.3153 -1.8133  2.2386
 4884TIP3    H214659   5.620   4.830   2.846  1.1563  0.6117 -1.7167
 4885TIP3   OH214660   3.774   4.197   3.650 -0.1460  0.0333  0.2910
 4885TIP3    H114661   3.723   4.269   3.687 -1.8638 -1.7692  1.6752
 4885TIP3    H214662   3.803   4.147   3.726 -0.5841 -1.7270 -0.6393
 4886TIP3   OH214663   5.555   3.645   4.217  0.2385  0.0502 -0.2142
 4886TIP3    H114664   5.581   3.556   4.237  0.5446  0.4226  1.1506
 4886TIP3    H214665   5.599   3.699   4.282 -1.2177  1.0399  0.0218
 4887TIP3   OH214666   2.451   0.166   5.052  0.3303  0.5071 -0.0021
 4887TIP3    H114667   2.362   0.173   5.017 -0.0207  0.1254  0.7921
 4887TIP3    H214668   2.500   0.123   4.982 -0.4147 -0.4603  0.0510
 4888TIP3   OH214669   4.570   1.121   2.756  0.0035  0.4456 -0.1792
 4888TIP3    H114670   4.562   1.204   2.802  0.8928 -0.2939  1.4264
 4888TIP3    H214671   4.538   1.056   2.819  0.6617 -0.5534 -0.8383
 4889TIP3   OH214672   5.320   4.061   2.388  0.1744  0.0212 -0.1549
 4889TIP3    H114673   5.282   4.107   2.313 -0.2715  1.5009  0.9318
 4889TIP3    H214674   5.246   4.016   2.429  0.2573 -0.0840 -0.1203
 4890TIP3   OH214675   4.119   0.725   0.645 -0.4056 -0.9868 -0.1005
 4890TIP3    H114676   4.025   0.705   0.647 -0.4422 -0.8021  0.0102
 4890TIP3    H214677   4.137   0.746   0.554 -0.3296 -1.7031 -0.2610
 4891TIP3   OH214678   1.108   5.343   0.181  0.6329  0.1479  0.2355
 4891TIP3    H114679   1.183   5.402   0.181 -0.7127  1.9725 -0.7671
 4891TIP3    H214680   1.052   5.375   0.110 -1.6622 -0.3337  1.6905
 4892TIP3   OH214681   2.581   1.622   2.553 -0.3736 -0.6438  0.0146
 4892TIP3    H114682   2.520   1.675   2.502  0.4776  0.8722  0.5293
 4892TIP3    H214683   2.525   1.578   2.618 -1.2536 -1.4005 -1.2100
 4893TIP3   OH214684   4.416   4.524   1.554 -0.3426  0.1406 -0.7065
 4893TIP3    H114685   4.475   4.584   1.507 -0.4177  0.1013 -0.8514
 4893TIP3    H214686   4.469   4.446   1.568 -0.0373  0.4738  0.0440
 4894TIP3   OH214687   5.734   4.425   1.613  0.0362  0.1255 -0.5060
 4894TIP3    H114688   5.698   4.494   1.558 -0.1509 -0.3011 -0.9328
 4894TIP3    H214689   5.808   4.390   1.562 -1.2993 -1.5492 -1.3854
 4895TIP3   OH214690   2.321   4.356   1.065  0.3718  0.3811  0.4396
 4895TIP3    H114691   2.302   4.415   1.139  0.2318  1.0626 -0.1271
 4895TIP3    H214692   2.296   4.270   1.096  1.1513  0.5161  1.5163
 4896TIP3   OH214693   1.794   4.848   3.453  0.9578 -0.1384 -0.2680
 4896TIP3    H114694   1.782   4.943   3.442  1.3614  0.0013  0.4362
 4896TIP3    H214695   1.821   4.818   3.367  0.8132  0.3867 -0.5043
 4897TIP3   OH214696   5.541   5.568   0.854  0.3330 -0.9469 -0.2425
 4897TIP3    H114697   5.541   5.645   0.796 -1.4667 -0.9904 -0.3349
 4897TIP3    H214698   5.532   5.493   0.795 -0.6245 -1.0439  0.0114
 4898TIP3   OH214699   4.256   2.154   2.037  0.0542  0.2414 -0.3552
 4898TIP3    H114700   4.337   2.192   2.071  0.2479 -2.9136  3.4090
 4898TIP3    H214701   4.284   2.079   1.985 -0.3856 -0.7998  0.8720
 4899TIP3   OH214702   3.497   5.398   0.910 -0.1791  0.6699  0.2681
 4899TIP3    H114703   3.496   5.306   0.939 -1.2627  0.5151 -0.2109
 4899TIP3    H214704   3.534   5.446   0.984  0.8940 -0.2023  0.3302
 4900TIP3   OH214705   0.308   1.607   4.050  0.2303 -0.0237  0.5053
 4900TIP3    H114706   0.250   1.684   4.042 -0.4399 -0.5009  0.6685
 4900TIP3    H214707   0.385   1.630   3.998 -0.2945  0.4468 -0.0854
 4901TIP3   OH214708   2.924   3.910   1.106 -0.1210  0.3161 -0.2600
 4901TIP3    H114709   2.994   3.845   1.114 -1.5055 -1.3886 -1.3661
 4901TIP3    H214710   2.939   3.950   1.020 -1.1837 -0.9332 -1.0516
 4902TIP3   OH214711   3.651   0.563   2.446 -0.6494 -0.0163 -0.0383
 4902TIP3    H114712   3.618   0.633   2.502  0.7872 -1.2814  2.5606
 4902TIP3    H214713   3.735   0.596   2.414 -0.6214 -0.0209  0.0316
 4903TIP3   OH214714   3.961   1.667   1.497  0.4691 -0.5846  0.9592
 4903TIP3    H114715   3.956   1.665   1.593  0.5783  2.2587  1.1172
 4903TIP3    H214716   3.875   1.701   1.469  0.9260 -0.0290  0.1768
 4904TIP3   OH214717   5.762   3.844   2.487 -0.0850 -0.1037 -0.1610
 4904TIP3    H114718   5.763   3.781   2.559  0.1668  1.4832  1.2959
 4904TIP3    H214719   5.703   3.914   2.516  0.3430  0.7794 -1.3130
 4905TIP3   OH214720   3.406   2.675   2.884  0.5142  0.3236  0.1133
 4905TIP3    H114721   3.322   2.630   2.878  1.1658 -0.9255 -0.1066
 4905TIP3    H214722   3.408   2.710   2.973 -0.2067  0.3257  0.1359
 4906TIP3   OH214723   0.410   0.370   3.225 -0.2798 -0.0232  0.3181
 4906TIP3    H114724   0.411   0.289   3.172  0.9452  1.1256 -1.5327
 4906TIP3    H214725   0.483   0.360   3.285 -0.0576 -0.2585  0.0163
 4907TIP3   OH214726   2.995   5.218   0.091 -0.3188  0.3046  0.2897
 4907TIP3    H114727   2.929   5.247   0.027 -0.0273 -0.5478 -0.4166
 4907TIP3    H214728   3.008   5.125   0.071  0.1239  0.1412  1.2970
 4908TIP3   OH214729   0.212   4.472   3.559 -0.1170  0.2571 -0.1360
 4908TIP3    H114730   0.135   4.520   3.591  0.5373  0.7509  0.7075
 4908TIP3    H214731   0.271   4.540   3.527 -0.4187 -0.1733 -1.6960
 4909TIP3   OH214732   1.750   1.365   2.315 -0.7056  0.0013  0.1703
 4909TIP3    H114733   1.658   1.362   2.289 -1.3187  2.9488  1.5969
 4909TIP3    H214734   1.796   1.392   2.236 -1.3561  0.4166 -0.0827
 4910TIP3   OH214735   0.196   1.309   1.960 -0.4280 -0.7476  0.0793
 4910TIP3    H114736   0.260   1.300   1.890 -0.3722 -0.0566  0.0292
 4910TIP3    H214737   0.224   1.247   2.027  0.6736 -0.0229  0.3311
 4911TIP3   OH214738   5.687   3.185   0.289 -0.2741  0.0317  0.5658
 4911TIP3    H114739   5.626   3.256   0.269 -1.7960 -1.1532  0.7605
 4911TIP3    H214740   5.742   3.177   0.211 -2.1994 -0.6357 -0.8010
 4912TIP3   OH214741   0.242   2.535   0.267  0.5486  0.2668 -0.0576
 4912TIP3    H114742   0.308   2.568   0.329 -0.0342  1.1003  0.1462
 4912TIP3    H214743   0.166   2.515   0.322  0.5816 -0.5758 -0.3050
 4913TIP3   OH214744   1.585   2.055   3.160  0.4712 -0.0698 -0.4722
 4913TIP3    H114745   1.511   2.115   3.156 -1.1077 -1.7218  1.7752
 4913TIP3    H214746   1.568   1.990   3.092 -0.9541 -1.2203  0.9183
 4914TIP3   OH214747   6.275   1.828   0.825 -0.8109  0.9055  0.2659
 4914TIP3    H114748   6.345   1.773   0.863 -1.9753 -0.9326 -0.1230
 4914TIP3    H214749   6.316   1.914   0.815  0.8336  0.3682  1.7411
 4915TIP3   OH214750   2.883   0.846   1.163  0.0942  0.1550  0.7251
 4915TIP3    H114751   2.815   0.831   1.228 -0.1327  0.6888  0.6166
 4915TIP3    H214752   2.961   0.804   1.199 -0.3147 -0.5568  0.7999
 4916TIP3   OH214753   2.175   3.572   1.959 -0.6813 -0.2238  0.8781
 4916TIP3    H114754   2.222   3.490   1.978 -2.7695 -1.7512 -0.1397
 4916TIP3    H214755   2.242   3.631   1.928  0.7822 -1.8565  0.7572
 4917TIP3   OH214756   3.366   1.820   3.987 -0.4784 -0.1636 -0.0142
 4917TIP3    H114757   3.333   1.802   3.898  0.0766 -0.4034 -0.1816
 4917TIP3    H214758   3.434   1.886   3.974  0.2683 -0.8912  0.1064
 4918TIP3   OH214759   3.253   5.083   2.238  0.1978  0.2744  0.4878
 4918TIP3    H114760   3.222   5.114   2.152 -0.4335  0.6764  0.8524
 4918TIP3    H214761   3.348   5.099   2.236 -0.1400  2.8381  0.8534
 4919TIP3   OH214762   1.619   4.685   4.610  0.0568  0.6689  0.2311
 4919TIP3    H114763   1.597   4.775   4.585  0.5562  0.3968 -1.2924
 4919TIP3    H214764   1.546   4.633   4.579 -0.7850  0.6487  2.1447
 4920TIP3   OH214765   6.162   1.336   4.294 -0.3123 -0.1501  0.0531
 4920TIP3    H114766   6.191   1.347   4.385  0.3987 -2.6913  0.1959
 4920TIP3    H214767   6.067   1.341   4.299 -0.3211 -1.0176  1.0817
 4921TIP3   OH214768   3.053   4.640   2.379 -0.3512  0.1386  0.4015
 4921TIP3    H114769   3.014   4.697   2.312 -1.1236 -0.1459  0.5975
 4921TIP3    H214770   3.130   4.603   2.337 -0.2166  0.8027  0.0393
 4922TIP3   OH214771   0.843   0.119   2.193  0.5082  0.7606 -0.4738
 4922TIP3    H114772   0.868   0.086   2.107  0.7752 -1.0211  0.2541
 4922TIP3    H214773   0.913   0.091   2.251 -2.4338 -3.6812  1.4720
 4923TIP3   OH214774   3.560   2.604   0.687 -0.8019 -0.7706 -0.0103
 4923TIP3    H114775   3.596   2.678   0.638  0.8538 -1.5411 -0.0177
 4923TIP3    H214776   3.547   2.638   0.775 -1.7678  0.0199 -0.4395
 4924TIP3   OH214777   1.279   5.795   3.737  0.2286 -0.2809 -0.1232
 4924TIP3    H114778   1.365   5.834   3.755 -0.1692 -0.3696  2.4366
 4924TIP3    H214779   1.250   5.763   3.823 -2.2110 -0.5924 -1.0008
 4925TIP3   OH214780   4.426   3.888   4.561 -0.2937  0.0371 -0.4181
 4925TIP3    H114781   4.337   3.854   4.553 -0.8824  1.6105 -0.9652
 4925TIP3    H214782   4.427   3.933   4.645 -0.8527  2.1791 -1.4728
 4926TIP3   OH214783   1.845   0.039   4.521 -0.2777 -0.0036  0.0357
 4926TIP3    H114784   1.763   0.070   4.560 -1.5855 -1.4397 -1.4380
 4926TIP3    H214785   1.861  -0.046   4.561  0.6898  0.3849  0.5265
 4927TIP3   OH214786   5.123   0.565   1.590  0.0615 -0.4827 -0.5203
 4927TIP3    H114787   5.199   0.623   1.595  0.7565 -1.4282  0.4857
 4927TIP3    H214788   5.117   0.541   1.498 -0.3652  1.3081 -0.9948
 4928TIP3   OH214789   5.631   5.363   2.283  0.5428  0.1907  0.6089
 4928TIP3    H114790   5.572   5.405   2.345 -0.9803 -1.2528  0.2007
 4928TIP3    H214791   5.575   5.339   2.209  1.1337 -3.0905  1.0743
 4929TIP3   OH214792   0.125   2.601   2.848 -0.0008 -0.1382  0.1049
 4929TIP3    H114793   0.164   2.654   2.917 -0.9176  0.5363  0.1327
 4929TIP3    H214794   0.084   2.528   2.893 -2.0931  1.2021  0.5070
 4930TIP3   OH214795   1.802   3.599   1.688 -0.4713  0.8287  0.7809
 4930TIP3    H114796   1.880   3.552   1.661  0.1173  0.7551  2.5141
 4930TIP3    H214797   1.786   3.661   1.617  0.0223 -0.4440 -0.4922
 4931TIP3   OH214798   5.499   5.477   1.165 -0.3295 -0.0800 -0.4959
 4931TIP3    H114799   5.492   5.383   1.178  1.3036 -0.1128  0.5727
 4931TIP3    H214800   5.483   5.514   1.252  0.2137  0.5313 -0.6479
 4932TIP3   OH214801   3.064   3.434   1.451  0.3422 -0.1212 -0.5108
 4932TIP3    H114802   3.128   3.485   1.401  1.8210 -1.3795  0.0325
 4932TIP3    H214803   3.025   3.497   1.511 -0.1981  1.0322 -1.9961
 4933TIP3   OH214804   4.500   0.456   2.309 -0.5180  0.2373 -0.2102
 4933TIP3    H114805   4.421   0.434   2.259 -1.0121  1.5088 -0.0045
 4933TIP3    H214806   4.510   0.383   2.370  0.7699 -1.9859 -2.8537
 4934TIP3   OH214807   3.285   2.972   4.366  0.5681  0.2232  0.0355
 4934TIP3    H114808   3.342   2.965   4.443  1.4648  0.4697 -0.5880
 4934TIP3    H214809   3.316   2.903   4.307 -0.0434  0.1043 -0.1525
 4935TIP3   OH214810   4.527   0.307   0.435  0.7455 -0.8397  0.5172
 4935TIP3    H114811   4.544   0.215   0.412 -1.3372 -1.3291  0.7689
 4935TIP3    H214812   4.538   0.310   0.530  1.1536 -0.7300  0.4702
 4936TIP3   OH214813   2.871   4.549   1.241 -0.4898  0.1548 -0.4979
 4936TIP3    H114814   2.943   4.593   1.196 -0.2952  0.8193  0.4124
 4936TIP3    H214815   2.839   4.615   1.303 -0.1647 -0.9969  0.9464
 4937TIP3   OH214816   3.737   3.396   1.892 -0.2575  0.4549 -0.0229
 4937TIP3    H114817   3.682   3.440   1.957 -0.2723  0.3083  0.0635
 4937TIP3    H214818   3.759   3.312   1.932  0.6358  0.8098  0.2533
 4938TIP3   OH214819   0.705   0.828   3.885 -0.4874  0.0899  0.5455
 4938TIP3    H114820   0.609   0.837   3.887 -0.4874  0.0835  0.5717
 4938TIP3    H214821   0.721   0.739   3.915 -0.4034  0.5541  1.9638
 4939TIP3   OH214822   0.405   0.982   1.287 -0.3342  0.4084  0.0053
 4939TIP3    H114823   0.498   0.963   1.278 -0.1382 -0.0665  2.4239
 4939TIP3    H214824   0.365   0.939   1.211  1.1663 -1.5392  0.2340
 4940TIP3   OH214825   4.825   0.372   2.755 -0.1254  0.3274  0.3398
 4940TIP3    H114826   4.770   0.429   2.702  1.6283  1.3548 -0.4643
 4940TIP3    H214827   4.791   0.383   2.844 -1.1586  0.9768 -0.1107
 4941TIP3   OH214828   5.993   4.063   1.428 -0.1118  0.3680  0.1073
 4941TIP3    H114829   6.022   3.980   1.390 -0.2553  1.5605 -2.8645
 4941TIP3    H214830   5.930   4.038   1.495  0.5520 -1.9251 -0.0494
 4942TIP3   OH214831   5.032   2.498   4.997 -0.2868  0.2248  0.7358
 4942TIP3    H114832   5.047   2.583   5.039 -1.8552  1.0671 -0.2995
 4942TIP3    H214833   5.108   2.486   4.940  0.0659  0.8126  1.0662
 4943TIP3   OH214834   6.044   1.620   5.017  0.6016  0.1026  0.0120
 4943TIP3    H114835   6.031   1.712   4.994 -1.7562  0.4716  2.4043
 4943TIP3    H214836   5.956   1.586   5.032  0.9973 -3.6153 -4.0290
 4944TIP3   OH214837   2.380   5.808   3.624  0.1525 -0.3508  0.1338
 4944TIP3    H114838   2.437   5.806   3.701  1.5910  2.9493 -0.6513
 4944TIP3    H214839   2.303   5.858   3.653 -0.1126 -0.6317 -0.0870
 4945TIP3   OH214840   4.810   0.572   4.931 -0.0173  0.4404 -0.0753
 4945TIP3    H114841   4.727   0.620   4.927 -0.7881 -0.8920 -0.6078
 4945TIP3    H214842   4.815   0.526   4.847  1.0630  0.1651  0.1256
 4946TIP3   OH214843   0.498   3.374   0.858  0.0852 -0.3625  0.2790
 4946TIP3    H114844   0.485   3.281   0.875 -1.5333 -0.1236  0.4980
 4946TIP3    H214845   0.491   3.415   0.945 -1.3845  0.1687 -0.0679
 4947TIP3   OH214846   3.216   5.833   0.366  0.0274 -0.2902  0.2922
 4947TIP3    H114847   3.273   5.903   0.334 -0.4217 -0.5103 -1.0432
 4947TIP3    H214848   3.139   5.836   0.309 -0.0881 -1.7506  0.3282
 4948TIP3   OH214849   2.928   3.856   0.009  0.2372  0.4190 -0.1098
 4948TIP3    H114850   2.997   3.834   0.072 -0.7797 -1.2267  0.5014
 4948TIP3    H214851   2.870   3.780   0.010 -1.9214  1.9643 -0.1457
 4949TIP3   OH214852   3.674   3.647   1.019 -0.1462 -0.2367 -0.1186
 4949TIP3    H114853   3.668   3.736   1.054 -2.1768 -0.4383  0.2209
 4949TIP3    H214854   3.748   3.607   1.065  0.8687  1.2898 -0.3779
 4950TIP3   OH214855   6.083   4.614   4.833 -0.6244 -0.3824 -0.4627
 4950TIP3    H114856   6.138   4.683   4.797 -0.0173 -1.0257 -0.8018
 4950TIP3    H214857   6.144   4.553   4.873 -1.0954 -1.0560 -0.7499
 4951TIP3   OH214858   2.218   4.404   0.445  0.2931 -0.1327 -0.1222
 4951TIP3    H114859   2.227   4.361   0.530 -0.6174 -0.6205 -0.2547
 4951TIP3    H214860   2.137   4.456   0.453  2.2131  3.0254  0.6271
 4952TIP3   OH214861   6.312   2.234   5.107  0.2948  0.2642  0.1984
 4952TIP3    H114862   6.392   2.267   5.146  0.3418  0.2087  0.1489
 4952TIP3    H214863   6.255   2.310   5.100  1.2642  0.8691 -2.1607
 4953TIP3   OH214864   4.930   5.915   1.698  0.0130 -0.2440 -0.0612
 4953TIP3    H114865   4.847   5.927   1.744 -1.1569 -1.5675 -1.6749
 4953TIP3    H214866   4.971   6.002   1.698 -0.5950  0.0943  2.1368
 4954TIP3   OH214867   3.859   3.214   3.189  0.4283  0.6970  0.5100
 4954TIP3    H114868   3.897   3.150   3.249 -0.6542 -0.2360  0.2391
 4954TIP3    H214869   3.791   3.258   3.240 -2.2209 -1.7785 -0.5514
 4955TIP3   OH214870   5.246   5.500   2.993 -0.0561  0.3570 -0.0223
 4955TIP3    H114871   5.322   5.462   2.950  0.8111  1.5622  0.3739
 4955TIP3    H214872   5.194   5.537   2.922  0.2513  0.4239 -0.2134
 4956TIP3   OH214873   4.056   4.634   0.020 -0.3606  1.3592  0.2990
 4956TIP3    H114874   4.042   4.542   0.042 -0.5105  1.5332  0.9596
 4956TIP3    H214875   3.991   4.652  -0.048  0.1925  0.7739 -0.3970
 4957TIP3   OH214876   4.299   4.879   2.272 -0.2330 -0.7201  0.4631
 4957TIP3    H114877   4.220   4.825   2.282  0.6707 -2.3519 -0.8101
 4957TIP3    H214878   4.350   4.835   2.204  0.7438  1.5484 -0.3635
 4958TIP3   OH214879   1.737   4.970   4.275 -0.7757 -0.4148  0.1513
 4958TIP3    H114880   1.698   4.943   4.192 -1.0520  0.3322  0.0336
 4958TIP3    H214881   1.801   4.902   4.294  0.9323  0.5551 -1.8191
 4959TIP3   OH214882   1.748   3.375   4.987  0.6707  0.4857  0.2532
 4959TIP3    H114883   1.819   3.438   4.979 -1.5102  3.4616  2.3537
 4959TIP3    H214884   1.677   3.410   4.934  0.2299 -1.7398 -0.7677
 4960TIP3   OH214885   2.570   2.346   0.555  0.7160  0.5097 -0.1399
 4960TIP3    H114886   2.605   2.421   0.602  0.4719  0.8300 -0.4566
 4960TIP3    H214887   2.603   2.357   0.465 -0.6167  1.1356 -0.5944
 4961TIP3   OH214888  -0.028   5.914   2.001 -0.4248  0.3647  0.0568
 4961TIP3    H114889   0.005   5.824   1.996  0.1315  0.6046 -0.6097
 4961TIP3    H214890   0.042   5.963   2.045 -0.6973  0.4871  0.3575
 4962TIP3   OH214891   1.781   2.190   0.832 -0.9607 -0.2965 -0.2523
 4962TIP3    H114892   1.854   2.164   0.888  0.2933  1.4604 -0.9739
 4962TIP3    H214893   1.704   2.181   0.888  0.1949  1.1433  1.7357
 4963TIP3   OH214894   5.859   5.079   0.641 -0.6563 -0.2764  0.1969
 4963TIP3    H114895   5.822   5.162   0.610  0.2870  0.6036  1.3230
 4963TIP3    H214896   5.831   5.073   0.732 -0.0290 -0.7918  0.3622
 4964TIP3   OH214897   5.789   0.371   3.655 -0.0731  0.3154 -0.2482
 4964TIP3    H114898   5.726   0.302   3.633  0.1690 -0.8151  2.3284
 4964TIP3    H214899   5.753   0.412   3.733  0.3159  2.5005 -1.1540
 4965TIP3   OH214900   5.336   5.784   4.487  0.0852 -0.1816  0.1423
 4965TIP3    H114901   5.345   5.849   4.556 -0.1373 -0.6360  0.6009
 4965TIP3    H214902   5.244   5.789   4.461 -0.1417 -0.9306  0.7913
 4966TIP3   OH214903   0.462   5.864   0.292 -0.4048 -0.3245 -0.6888
 4966TIP3    H114904   0.434   5.920   0.364 -0.0181 -1.1232  0.1095
 4966TIP3    H214905   0.538   5.909   0.254  0.6137 -0.8181  0.6643
 4967TIP3   OH214906   3.816   0.742   1.711 -0.2852 -0.2042  0.0890
 4967TIP3    H114907   3.733   0.736   1.664  0.4554 -2.4940 -1.0776
 4967TIP3    H214908   3.792   0.733   1.804 -1.3662 -0.5265 -0.2064
 4968TIP3   OH214909   6.202   5.526   2.575  0.1810 -0.0042 -0.1921
 4968TIP3    H114910   6.296   5.521   2.561  0.0886 -0.6348 -0.5908
 4968TIP3    H214911   6.163   5.495   2.494 -0.3873  1.1490 -0.3858
 4969TIP3   OH214912   0.306   3.680   4.649 -0.3286 -0.1725  0.1863
 4969TIP3    H114913   0.365   3.712   4.717  0.1772 -2.0187  0.6607
 4969TIP3    H214914   0.219   3.707   4.678  0.1606  1.9568 -0.1596
 4970TIP3   OH214915   1.537   3.255   0.567 -0.3819  0.1606 -0.3606
 4970TIP3    H114916   1.567   3.297   0.647  1.0643 -0.7164 -0.4087
 4970TIP3    H214917   1.453   3.297   0.547  0.9369  2.9877 -0.4048
 4971TIP3   OH214918   1.497   5.954   3.769  0.1843  0.4791 -0.1200
 4971TIP3    H114919   1.515   6.045   3.745  1.5697  0.0405 -0.8720
 4971TIP3    H214920   1.506   5.952   3.864  0.0242  1.1486 -0.0871
 4972TIP3   OH214921   1.873   4.184   3.682 -0.0798  0.2564 -0.4583
 4972TIP3    H114922   1.822   4.105   3.701 -0.3418  0.5597  0.1239
 4972TIP3    H214923   1.897   4.218   3.769 -0.1016  0.8967 -0.6998
 4973TIP3   OH214924   1.246   0.294   0.541 -0.0410 -0.7299  0.0753
 4973TIP3    H114925   1.236   0.217   0.486  0.7780 -0.1546 -0.9119
 4973TIP3    H214926   1.211   0.267   0.626 -1.3893 -1.6223 -0.7088
 4974TIP3   OH214927   5.706   3.415   3.193  0.0360  0.4516  0.3347
 4974TIP3    H114928   5.731   3.422   3.284 -0.6864  0.1212  0.5693
 4974TIP3    H214929   5.613   3.393   3.195  0.3029 -0.9003 -0.4424
 4975TIP3   OH214930   3.235   3.363   0.693 -0.2003  0.0102 -0.1612
 4975TIP3    H114931   3.154   3.389   0.736 -0.9015 -0.9891 -0.8194
 4975TIP3    H214932   3.286   3.444   0.685 -2.1917  1.1865 -1.9457
 4976TIP3   OH214933   4.736   5.548   3.432 -0.0861 -0.0749  0.2703
 4976TIP3    H114934   4.723   5.606   3.507 -0.0545 -0.0127  0.2274
 4976TIP3    H214935   4.830   5.554   3.413 -0.4262  1.6335 -1.1758
 4977TIP3   OH214936   4.398   4.993   1.282  0.8522 -0.0565 -0.6172
 4977TIP3    H114937   4.404   4.946   1.198  1.8544 -0.3922 -0.3728
 4977TIP3    H214938   4.468   5.058   1.277  2.3317 -1.4653  0.7924
 4978TIP3   OH214939   1.177   1.399   0.258  0.6301 -0.5491 -0.0617
 4978TIP3    H114940   1.124   1.445   0.193 -2.3540 -2.2021  0.9549
 4978TIP3    H214941   1.216   1.326   0.210  0.4068 -0.4064 -0.4682
 4979TIP3   OH214942   3.214   0.725   4.630 -0.1185  0.0364  0.0338
 4979TIP3    H114943   3.178   0.770   4.706  1.2601  1.1868  0.0327
 4979TIP3    H214944   3.222   0.634   4.657 -1.4526  0.0515  0.5760
 4980TIP3   OH214945   2.396   5.655   2.462  0.3322  0.2281 -0.1465
 4980TIP3    H114946   2.480   5.700   2.454  1.0023 -1.0746 -0.8395
 4980TIP3    H214947   2.355   5.693   2.540  1.4256  1.1088  0.0154
 4981TIP3   OH214948   5.092   5.386   0.751  0.2235 -0.2901 -0.6259
 4981TIP3    H114949   5.168   5.335   0.779  0.6767  1.0611  0.7835
 4981TIP3    H214950   5.031   5.381   0.825  0.7923  2.1345  0.0922
 4982TIP3   OH214951   6.042   3.979   0.509  0.6150  0.3252 -0.2158
 4982TIP3    H114952   5.997   3.965   0.593  0.8883  0.6143 -0.0141
 4982TIP3    H214953   6.100   4.053   0.526  0.9693  0.1263 -0.5479
 4983TIP3   OH214954   3.381   3.922   3.948  0.5575  0.2976  0.2455
 4983TIP3    H114955   3.424   3.961   4.025 -0.2053  0.9975  0.3316
 4983TIP3    H214956   3.412   3.832   3.947  0.9838  0.4195  1.0813
 4984TIP3   OH214957   5.090   2.944   1.305 -0.3256  0.3711  0.1373
 4984TIP3    H114958   5.107   2.976   1.216  0.9132 -0.9941 -0.1636
 4984TIP3    H214959   5.177   2.928   1.342 -0.7711 -2.8807  0.1058
 4985TIP3   OH214960   5.330   0.258   2.105  0.9806 -0.8805 -0.1022
 4985TIP3    H114961   5.413   0.212   2.095  0.6829 -1.0733 -2.1628
 4985TIP3    H214962   5.265   0.198   2.068 -0.3719 -1.4328  2.8939
 4986TIP3   OH214963   4.229   1.922   3.506 -0.2135  0.2334  0.0061
 4986TIP3    H114964   4.259   1.832   3.513 -0.1222  0.3550  1.4715
 4986TIP3    H214965   4.272   1.956   3.428 -0.4577 -1.0609 -0.7055
 4987TIP3   OH214966   6.040   3.698   2.546 -0.2659  0.2566  0.0749
 4987TIP3    H114967   5.958   3.671   2.506  0.7590 -2.4245 -0.3832
 4987TIP3    H214968   6.013   3.747   2.624 -2.3128 -0.9939  0.2316
 4988TIP3   OH214969   2.669   2.522   0.732 -0.5411 -0.4652 -0.7141
 4988TIP3    H114970   2.598   2.556   0.786 -0.9606  0.2552 -1.6928
 4988TIP3    H214971   2.736   2.495   0.795  0.0539  2.6231  0.1681
 4989TIP3   OH214972   2.207   3.830   0.676 -0.0247 -0.1553 -0.2127
 4989TIP3    H114973   2.181   3.763   0.739 -0.3890 -0.3536 -0.5734
 4989TIP3    H214974   2.195   3.789   0.591  3.2820 -0.9671 -0.4358
 4990TIP3   OH214975   0.936   2.639   0.542  0.4237 -0.3419 -0.6863
 4990TIP3    H114976   0.907   2.551   0.518 -0.1039 -0.0630 -1.0936
 4990TIP3    H214977   1.031   2.633   0.546  0.3487 -1.1497  0.1795
 4991TIP3   OH214978   3.944   2.448   0.656 -0.2477 -0.1649 -0.0890
 4991TIP3    H114979   3.943   2.480   0.746  0.7645 -1.1492  0.2911
 4991TIP3    H214980   3.948   2.528   0.603 -0.2133  0.4080  0.7612
 4992TIP3   OH214981   1.509   1.402   1.970 -0.0149  0.1529  0.5288
 4992TIP3    H114982   1.594   1.433   1.939  0.1834 -1.5370 -0.7463
 4992TIP3    H214983   1.445   1.456   1.923  0.3385  0.5955  0.5511
 4993TIP3   OH214984   5.661   2.035   3.864  0.1942 -0.7420 -0.9525
 4993TIP3    H114985   5.662   1.940   3.863  0.4983 -0.8175  1.2188
 4993TIP3    H214986   5.582   2.057   3.914  2.2650 -0.0493  2.3017
 4994TIP3   OH214987   6.157   5.475   3.015 -0.2392 -0.0812  0.0688
 4994TIP3    H114988   6.103   5.520   2.950  1.0868  1.4525 -0.0335
 4994TIP3    H214989   6.131   5.383   3.008 -2.1042  0.4403 -0.6560
 4995TIP3   OH214990   2.511   4.074   0.513  0.5508 -0.7203 -0.3337
 4995TIP3    H114991   2.566   4.134   0.564  1.1004 -1.1957 -0.3653
 4995TIP3    H214992   2.528   3.988   0.550 -1.4970 -0.6855  0.8281
 4996TIP3   OH214993   2.846   2.225   1.946 -0.1090  0.1611  0.0426
 4996TIP3    H114994   2.827   2.241   2.038 -0.1861  0.8099 -0.0804
 4996TIP3    H214995   2.891   2.140   1.945  0.1626  0.2918  0.7050
 4997TIP3   OH214996   6.036   4.785   3.322 -0.5924 -0.2829 -0.1837
 4997TIP3    H114997   6.120   4.777   3.278  0.6074  1.2407  1.6490
 4997TIP3    H214998   5.975   4.738   3.266  1.0909  0.2148 -2.6071
 4998TIP3   OH214999   4.506   5.632   1.167  0.8126 -0.5694 -0.6071
 4998TIP3    H115000   4.535   5.611   1.078  1.7138 -0.6308 -0.3110
 4998TIP3    H215001   4.492   5.546   1.208 -1.3666 -0.5562 -1.2190
 4999TIP3   OH215002   3.636   5.144   0.011 -0.6621 -0.1368 -0.1860
 4999TIP3    H115003   3.656   5.122   0.102  0.1171  0.9174 -0.0836
 4999TIP3    H215004   3.592   5.066  -0.023  0.3135 -1.0968  0.6817
 5000TIP3   OH215005   4.339   3.383   1.382  0.6959  0.1441 -0.2092
 5000TIP3    H115006   4.298   3.468   1.367  1.0295  0.2919 -0.3143
 5000TIP3    H215007   4.345   3.375   1.477 -0.6800 -0.4248 -0.1566
 5001TIP3   OH215008   2.135   1.121   0.691  0.1187  0.3580 -0.0917
 5001TIP3    H115009   2.044   1.141   0.667  0.3378  0.1605 -1.1300
 5001TIP3    H215010   2.169   1.203   0.726 -0.7987  0.1266  1.4263
 5002TIP3   OH215011   0.321   4.525   2.078  0.4424 -0.5734 -0.1696
 5002TIP3    H115012   0.232   4.525   2.113 -0.6059 -1.3616 -2.6531
 5002TIP3    H215013   0.375   4.492   2.150 -0.9760  1.4429  1.9448
 5003TIP3   OH215014   5.609   4.574   2.240  0.1131 -0.0051 -0.6249
 5003TIP3    H115015   5.517   4.579   2.217  0.2293  1.5729 -0.9245
 5003TIP3    H215016   5.654   4.567   2.156  0.3282  1.1242 -0.6246
 5004TIP3   OH215017   3.694   2.932   1.291 -0.5984  0.3501 -0.0904
 5004TIP3    H115018   3.776   2.885   1.301  0.6254  2.0096 -1.7592
 5004TIP3    H215019   3.693   2.995   1.362 -1.0141 -0.4021  0.5977
 5005TIP3   OH215020   3.637   4.414   2.420  0.5179  0.3653  0.0504
 5005TIP3    H115021   3.733   4.414   2.425  0.4599 -0.1531  1.5080
 5005TIP3    H215022   3.618   4.384   2.331  1.7145 -1.8527  0.4731
 5006TIP3   OH215023   3.791   0.148   1.916  0.5948 -0.0938  0.2446
 5006TIP3    H115024   3.759   0.137   2.006 -0.7039 -1.2473 -0.3226
 5006TIP3    H215025   3.743   0.224   1.883  0.8914  0.1828  0.4516
 5007TIP3   OH215026   5.529   5.842   3.130 -0.6459  0.1785  0.0103
 5007TIP3    H115027   5.611   5.873   3.091 -0.9782  0.2940 -0.6102
 5007TIP3    H215028   5.541   5.748   3.139 -0.6022  0.1340 -0.4815
 5008TIP3   OH215029   4.837   4.390   2.311 -0.5971  0.3222  1.3649
 5008TIP3    H115030   4.764   4.371   2.252  0.0660  0.0912  0.5974
 5008TIP3    H215031   4.911   4.344   2.272 -0.2073 -0.0757  2.5575
 5009TIP3   OH215032   4.559   3.306   4.268 -0.0641  0.1764  0.7691
 5009TIP3    H115033   4.616   3.383   4.258  1.2594 -0.7459  1.0487
 5009TIP3    H215034   4.520   3.317   4.355  0.4207  0.3293  0.9705
 5010TIP3   OH215035   1.328   5.634   0.997  0.6011  0.2118 -0.1144
 5010TIP3    H115036   1.329   5.711   0.940 -2.1231  0.3121 -0.1797
 5010TIP3    H215037   1.311   5.561   0.938 -0.4039  0.0738  0.3213
 5011TIP3   OH215038   4.458   2.481   3.331  0.3499 -0.2729 -0.5347
 5011TIP3    H115039   4.442   2.552   3.393  0.2685  0.8289 -1.7803
 5011TIP3    H215040   4.428   2.516   3.247  3.6008 -0.4096 -1.8766
 5012TIP3   OH215041   2.999   2.905   4.975  0.1089 -0.3472 -0.1307
 5012TIP3    H115042   3.076   2.900   5.032  0.2741  0.6258 -0.2539
 5012TIP3    H215043   3.033   2.940   4.893 -0.5849  0.8477  0.0700
 5013TIP3   OH215044   2.654   3.730   0.120 -0.2394 -0.0323  0.3257
 5013TIP3    H115045   2.661   3.634   0.122 -1.5755 -0.1790 -0.8371
 5013TIP3    H215046   2.649   3.751   0.027 -0.0061  1.1821  0.5782
 5014TIP3   OH215047   6.018   0.649   3.260  0.4042 -0.6137  0.6182
 5014TIP3    H115048   6.091   0.603   3.303  1.3045 -0.2511 -0.4894
 5014TIP3    H215049   5.946   0.644   3.324  1.3622 -1.0468  1.7003
 5015TIP3   OH215050   0.431   5.871   3.019 -0.0856 -0.3556  0.0247
 5015TIP3    H115051   0.420   5.896   2.928  2.8325  0.1742 -0.2803
 5015TIP3    H215052   0.469   5.783   3.015  1.7110  0.3372  0.5809
 5016TIP3   OH215053   0.331   0.180   4.891  0.5846  0.3376  0.2242
 5016TIP3    H115054   0.402   0.153   4.833  1.1138  2.6445 -0.2930
 5016TIP3    H215055   0.276   0.236   4.836 -3.5600 -3.7048 -0.4078
 5017TIP3   OH215056   6.323   5.586   1.497  0.2574  0.2526 -0.6166
 5017TIP3    H115057   6.232   5.612   1.485  1.2647  4.7155 -0.1802
 5017TIP3    H215058   6.335   5.582   1.592  0.8134  1.2612 -0.6250
 5018TIP3   OH215059   4.253   2.141   1.550  0.1138 -0.0009 -0.1838
 5018TIP3    H115060   4.175   2.135   1.605  0.7649  0.3068  0.8033
 5018TIP3    H215061   4.325   2.154   1.612  0.8656  0.4217 -1.1235
 5019TIP3   OH215062   1.969   3.353   2.389 -0.1075  0.8818  0.4519
 5019TIP3    H115063   1.952   3.415   2.317 -1.7644 -1.6302 -1.4952
 5019TIP3    H215064   1.885   3.348   2.436 -0.7456 -1.4817 -0.8188
 5020TIP3   OH215065   6.300   0.938   1.716  0.1696  0.1883 -0.5404
 5020TIP3    H115066   6.368   0.975   1.772  0.6875  1.8100 -2.1706
 5020TIP3    H215067   6.337   0.855   1.685 -0.2994 -0.9606  1.7586
 5021TIP3   OH215068   0.483   1.084   3.277 -0.1316  0.0600  0.1736
 5021TIP3    H115069   0.502   1.170   3.239 -1.6199  0.8055  1.0269
 5021TIP3    H215070   0.401   1.057   3.236  0.8296 -1.4512 -0.8363
 5022TIP3   OH215071   3.093   1.829   4.532 -0.1671  0.2842 -0.1337
 5022TIP3    H115072   3.050   1.759   4.580  0.6174  0.3899  0.7567
 5022TIP3    H215073   3.109   1.793   4.445  0.0693 -0.5826  0.2636
 5023TIP3   OH215074   0.229   4.540   3.133 -0.1886 -0.0402 -0.2325
 5023TIP3    H115075   0.184   4.577   3.057 -0.7481  2.2353  1.1154
 5023TIP3    H215076   0.159   4.519   3.194  0.3859  0.3065  0.5508
 5024TIP3   OH215077   1.164   4.832   1.281  0.2371  0.2783 -0.5517
 5024TIP3    H115078   1.174   4.926   1.270 -0.6058  0.3852 -0.4658
 5024TIP3    H215079   1.176   4.817   1.374  0.3262  0.3030 -0.5589
 5025TIP3   OH215080   2.355   1.552   4.983 -0.1208  0.2286 -0.3936
 5025TIP3    H115081   2.287   1.603   5.027  0.1295  1.2050 -1.1317
 5025TIP3    H215082   2.336   1.562   4.890  0.0539 -0.8741 -0.5622
 5026TIP3   OH215083   0.907   1.031   1.542 -0.6679  0.3584 -0.5440
 5026TIP3    H115084   0.949   1.000   1.622  0.2423  1.6071 -0.5076
 5026TIP3    H215085   0.859   1.110   1.569  1.1512  1.8801 -1.5139
 5027TIP3   OH215086   3.393   2.939   1.085  0.4180  0.4410  0.1861
 5027TIP3    H115087   3.298   2.929   1.092  0.2897 -0.3941 -1.8974
 5027TIP3    H215088   3.406   3.032   1.067 -0.1449  0.3228 -0.9013
 5028TIP3   OH215089   1.131   3.277   1.824  0.2728 -0.5130 -0.3256
 5028TIP3    H115090   1.152   3.202   1.880  0.0056 -1.1674 -1.0798
 5028TIP3    H215091   1.152   3.247   1.736  0.8567  0.5643 -0.5748
 5029TIP3   OH215092   0.005   0.613   0.251  0.5233 -0.1350 -0.1109
 5029TIP3    H115093   0.041   0.525   0.237  0.2502 -0.5769  1.6985
 5029TIP3    H215094   0.070   0.657   0.306  0.5718  0.7601 -0.8558
 5030TIP3   OH215095   1.362   3.716   3.510 -0.2794  0.0867 -0.5358
 5030TIP3    H115096   1.356   3.686   3.601 -0.0880  2.0261  0.1585
 5030TIP3    H215097   1.321   3.646   3.459  0.3142 -1.4153  0.9412
 5031TIP3   OH215098   0.227   1.465   0.541  0.3622 -0.1415 -0.0268
 5031TIP3    H115099   0.268   1.385   0.509  1.0690 -0.0505  0.6267
 5031TIP3    H215100   0.211   1.517   0.462  2.2254  0.1523 -0.2570
 5032TIP3   OH215101   4.279   1.980   1.800  0.2740 -0.8995  0.3013
 5032TIP3    H115102   4.373   1.965   1.797  0.0097 -2.6016 -0.7357
 5032TIP3    H215103   4.248   1.956   1.713 -0.8062  2.1899 -0.2895
 5033TIP3   OH215104   0.873   5.081   2.399 -0.1693  0.1142 -0.4800
 5033TIP3    H115105   0.844   5.001   2.442 -1.5547  0.6120 -0.4419
 5033TIP3    H215106   0.954   5.057   2.355  1.2654 -0.4767  2.2325
 5034TIP3   OH215107   3.109   3.331   4.851 -0.9344  0.3891  0.7503
 5034TIP3    H115108   3.150   3.289   4.776 -0.4846 -1.6978  2.0712
 5034TIP3    H215109   3.037   3.383   4.814 -0.1556  0.1638 -1.1668
 5035TIP3   OH215110   0.387   0.604   3.736 -0.2686 -0.8760 -0.3146
 5035TIP3    H115111   0.299   0.586   3.704 -0.3595 -0.0544 -0.5485
 5035TIP3    H215112   0.397   0.699   3.728  0.5341 -0.9248 -0.0234
 5036TIP3   OH215113   3.140   1.720   1.503  0.0985 -0.2976 -0.5406
 5036TIP3    H115114   3.117   1.629   1.524 -1.8509  0.5908  1.6241
 5036TIP3    H215115   3.222   1.713   1.454  0.2061 -3.1893 -0.1487
 5037TIP3   OH215116   4.939   1.597   0.723  0.2305 -0.6206  0.4102
 5037TIP3    H115117   4.964   1.688   0.738  0.6943 -0.9280  1.5960
 5037TIP3    H215118   4.845   1.601   0.706  0.1257  0.0342  1.0662
 5038TIP3   OH215119   1.785   1.262   3.232 -0.1275 -0.1063  0.6281
 5038TIP3    H115120   1.720   1.320   3.272  1.0108  0.9988  0.9356
 5038TIP3    H215121   1.841   1.320   3.181  0.1281 -1.1523 -0.3331
 5039TIP3   OH215122   1.620   4.118   1.999  0.3819  0.8635  0.1422
 5039TIP3    H115123   1.653   4.099   2.086  1.5059  0.6939 -0.3055
 5039TIP3    H215124   1.612   4.032   1.957  1.4103  1.0418 -0.4546
 5040TIP3   OH215125   0.701   3.839   3.641 -0.2724 -0.2585 -0.8920
 5040TIP3    H115126   0.699   3.926   3.681 -0.2700 -0.3375 -0.7185
 5040TIP3    H215127   0.724   3.780   3.713 -1.8159 -0.6016 -0.6332
 5041TIP3   OH215128   1.163   5.883   4.249  0.3162 -0.3398  0.1264
 5041TIP3    H115129   1.168   5.922   4.336 -2.2460 -1.3847  0.8387
 5041TIP3    H215130   1.228   5.812   4.251  2.2121  1.3027  0.1640
 5042TIP3   OH215131   1.466   4.118   1.309  0.0214 -0.2566  0.4494
 5042TIP3    H115132   1.431   4.163   1.232 -2.2973  0.9686  2.1134
 5042TIP3    H215133   1.517   4.185   1.354  0.9015 -0.8128  0.3096
 5043TIP3   OH215134   3.195   4.598   3.782 -0.0374 -0.1214  0.3031
 5043TIP3    H115135   3.131   4.596   3.853  0.3895  3.9053  1.0440
 5043TIP3    H215136   3.147   4.631   3.706  0.7717  1.6483  0.5069
 5044TIP3   OH215137   1.830   2.626   2.833 -0.3405  0.3817  0.7229
 5044TIP3    H115138   1.918   2.663   2.826 -0.4388  0.5705  0.4567
 5044TIP3    H215139   1.840   2.550   2.890  0.3728 -0.7800 -0.8500
 5045TIP3   OH215140   3.932   2.000   3.414 -0.2577 -0.0259  0.0222
 5045TIP3    H115141   4.001   1.960   3.362 -1.2779 -0.7783 -0.8027
 5045TIP3    H215142   3.868   2.030   3.349 -0.0874  1.8933  0.6844
 5046TIP3   OH215143   5.840   2.114   1.357  0.4840 -0.4428 -0.2398
 5046TIP3    H115144   5.889   2.085   1.435 -1.7040 -0.2475  1.3021
 5046TIP3    H215145   5.907   2.121   1.289  2.3949 -1.3411  1.4043
 5047TIP3   OH215146   3.184   3.354   4.430 -0.2683 -0.1151  0.1370
 5047TIP3    H115147   3.117   3.421   4.416 -0.1262 -0.2924 -1.6665
 5047TIP3    H215148   3.267   3.402   4.423 -0.1796 -0.2327  0.3692
 5048TIP3   OH215149   4.784   1.477   3.559  0.3029  0.3583 -0.0555
 5048TIP3    H115150   4.737   1.461   3.641  0.6906 -0.1447  0.0761
 5048TIP3    H215151   4.822   1.564   3.570 -2.2035  1.6501 -0.9576
 5049TIP3   OH215152   2.848   4.968   3.108 -0.3777 -0.2586  0.1481
 5049TIP3    H115153   2.908   4.985   3.181 -1.0366  0.1110  0.6166
 5049TIP3    H215154   2.905   4.966   3.031  0.2855 -0.2987  0.6230
 5050TIP3   OH215155   4.721   3.761   2.829  0.1440 -0.1528  0.0764
 5050TIP3    H115156   4.644   3.768   2.886 -0.2383 -0.7830 -0.3483
 5050TIP3    H215157   4.784   3.711   2.882 -0.1902 -0.6896 -0.0180
 5051TIP3   OH215158   0.866   0.867   0.767  0.2102  0.9379 -0.1243
 5051TIP3    H115159   0.886   0.895   0.856  1.6420  1.5784 -0.6135
 5051TIP3    H215160   0.827   0.781   0.777 -2.1481  2.0588  1.2891
 5052TIP3   OH215161   5.041   3.976   2.148  0.3327  0.7132  0.3313
 5052TIP3    H115162   5.078   3.920   2.080 -1.3230  0.5972 -0.5372
 5052TIP3    H215163   5.091   4.058   2.141  3.0029 -0.6797  1.8413
 5053TIP3   OH215164   5.991   5.937   2.916 -0.0691 -0.3039 -0.9465
 5053TIP3    H115165   5.981   5.938   2.821  1.1735  1.7142 -1.1241
 5053TIP3    H215166   6.086   5.939   2.930 -0.1005  3.8141  0.1581
 5054TIP3   OH215167   5.252   1.973   3.950  0.8535 -0.1180  0.3523
 5054TIP3    H115168   5.190   2.036   3.987  0.9319  0.2914 -0.2108
 5054TIP3    H215169   5.215   1.950   3.865  1.0423 -0.5141  0.3766
 5055TIP3   OH215170   0.290   1.746   1.748 -0.4557  0.0753  0.7199
 5055TIP3    H115171   0.296   1.790   1.832 -0.4777  1.2820  0.1191
 5055TIP3    H215172   0.196   1.737   1.732 -0.4619  0.4001  0.5591
 5056TIP3   OH215173   5.678   4.598   3.516  1.1385  0.3615 -0.4806
 5056TIP3    H115174   5.745   4.533   3.535  1.5005  1.4499  2.6234
 5056TIP3    H215175   5.711   4.679   3.554 -0.3867  1.7941 -2.0231
 5057TIP3   OH215176   0.068   4.490   2.189 -0.6513  0.5228  0.5313
 5057TIP3    H115177   0.064   4.411   2.242 -0.4824 -1.0163 -1.6082
 5057TIP3    H215178  -0.002   4.478   2.124  1.0438  0.8319 -1.4461
 5058TIP3   OH215179   0.638   1.577   3.654 -0.0495  0.2592  0.3363
 5058TIP3    H115180   0.688   1.527   3.719  1.2043 -0.4003 -1.0800
 5058TIP3    H215181   0.687   1.658   3.643 -0.3882  0.4715  0.3853
 5059TIP3   OH215182   3.952   5.634   3.442 -0.7563 -0.2472 -0.4456
 5059TIP3    H115183   3.987   5.722   3.441 -1.8910  0.2431  0.5838
 5059TIP3    H215184   3.871   5.640   3.493 -0.7809 -1.9065 -0.2130
 5060TIP3   OH215185   4.660   1.226   0.208  0.4010 -0.4245 -0.1348
 5060TIP3    H115186   4.735   1.278   0.238  0.6408 -0.7267 -0.2071
 5060TIP3    H215187   4.599   1.291   0.171 -0.0708 -0.0020  1.3340
 5061TIP3   OH215188   4.311   0.634   1.140  0.1987  0.8539  0.2741
 5061TIP3    H115189   4.315   0.538   1.130  1.4585  1.1010 -2.6741
 5061TIP3    H215190   4.307   0.648   1.234 -2.7978 -2.1425  0.7730
 5062TIP3   OH215191   2.935   1.591   3.429 -0.0184 -0.3037  0.1776
 5062TIP3    H115192   2.965   1.528   3.364  2.9980  1.9102 -0.8508
 5062TIP3    H215193   2.984   1.569   3.508 -1.6879 -1.3561  0.9772
 5063TIP3   OH215194   1.843   5.572   2.786 -0.2914  0.1843 -0.2551
 5063TIP3    H115195   1.922   5.566   2.731 -0.9654  0.4829 -1.2844
 5063TIP3    H215196   1.871   5.539   2.871  1.0406  0.5859 -0.5012
 5064TIP3   OH215197   4.597   5.797   2.756  0.4361 -0.0457  0.0365
 5064TIP3    H115198   4.505   5.785   2.731  0.4810 -0.7613  0.1925
 5064TIP3    H215199   4.623   5.712   2.791  0.5514  0.7495  1.9533
 5065TIP3   OH215200   2.092   1.447   3.036 -0.4437 -1.1564 -0.0007
 5065TIP3    H115201   2.110   1.489   3.119  1.8265 -0.9402 -0.5509
 5065TIP3    H215202   2.144   1.367   3.037 -0.6068 -1.2973 -1.1048
 5066TIP3   OH215203   3.271   1.378   4.047  0.4803 -0.1629  0.1537
 5066TIP3    H115204   3.327   1.454   4.062 -0.8942  0.5816  1.7678
 5066TIP3    H215205   3.183   1.408   4.069 -0.3402 -1.7447 -0.8310
 5067TIP3   OH215206   3.452   3.483   1.635 -0.0095 -0.0082 -0.3495
 5067TIP3    H115207   3.490   3.571   1.629 -0.6030  0.2202 -0.9061
 5067TIP3    H215208   3.410   3.469   1.550 -0.3774 -0.6112 -0.0732
 5068TIP3   OH215209   0.074   2.933   2.366  0.3669  0.0647  0.1947
 5068TIP3    H115210   0.021   2.907   2.442  3.0130 -0.5546  1.9498
 5068TIP3    H215211   0.024   3.005   2.326 -2.8988 -1.9356  0.2964
 5069TIP3   OH215212   4.189   3.592   0.245  0.2245 -0.1862  0.2298
 5069TIP3    H115213   4.150   3.667   0.199 -2.9484 -1.5338  0.4569
 5069TIP3    H215214   4.227   3.538   0.176  2.6541  1.5342  0.0697
 5070TIP3   OH215215   0.241   5.391   3.255 -0.2716  0.5523  0.1235
 5070TIP3    H115216   0.168   5.341   3.291  0.3525 -0.7618 -0.3612
 5070TIP3    H215217   0.208   5.425   3.171 -0.0715 -0.8267 -0.5509
 5071TIP3   OH215218   5.357   4.054   4.588 -0.9683  0.2944  0.7968
 5071TIP3    H115219   5.283   4.112   4.606 -0.7666  0.8849 -0.1904
 5071TIP3    H215220   5.411   4.103   4.527 -1.8319 -1.6898 -1.7711
 5072TIP3   OH215221   2.210   3.272   4.223 -0.1100  0.7173 -0.5586
 5072TIP3    H115222   2.268   3.202   4.251  1.0952  1.7043 -0.5162
 5072TIP3    H215223   2.195   3.255   4.130  0.3792  0.5585 -0.6089
 5073TIP3   OH215224   0.340   4.059   2.067 -0.0445  0.0309  0.2871
 5073TIP3    H115225   0.379   4.123   2.127  1.2270  0.1284 -0.5943
 5073TIP3    H215226   0.389   3.978   2.084 -1.7146 -0.7918  1.4747
 5074TIP3   OH215227   0.590   1.272   1.008 -0.1737 -0.0876 -0.3051
 5074TIP3    H115228   0.571   1.365   0.994 -1.4789 -0.4680 -1.3078
 5074TIP3    H215229   0.519   1.242   1.065 -0.5860 -0.7554 -1.1446
 5075TIP3   OH215230   6.034   3.804   4.388  0.1954  0.1231  0.1353
 5075TIP3    H115231   6.123   3.814   4.422  0.4145 -0.0828 -0.3662
 5075TIP3    H215232   5.984   3.768   4.461  0.7539 -0.7123  0.1153
 5076TIP3   OH215233   3.072  -0.013   0.322  0.0170 -0.4410 -0.5148
 5076TIP3    H115234   3.077   0.077   0.289 -2.6919  0.8000  1.9647
 5076TIP3    H215235   3.122  -0.011   0.404 -0.4164 -1.0667 -0.2262
 5077TIP3   OH215236   3.674   0.233   4.838  0.4166  0.6628 -0.6330
 5077TIP3    H115237   3.688   0.153   4.888  1.0366  0.9695 -0.3083
 5077TIP3    H215238   3.613   0.207   4.768  2.2496 -0.6460 -1.8455
 5078TIP3   OH215239   4.337   3.590   2.668 -0.2457 -0.1208 -0.3503
 5078TIP3    H115240   4.418   3.631   2.638  0.4416 -2.0126 -1.2216
 5078TIP3    H215241   4.320   3.630   2.754  1.4510  0.5181 -0.2756
 5079TIP3   OH215242   4.362   5.495   2.776 -0.3233 -0.0411  0.4100
 5079TIP3    H115243   4.348   5.532   2.864  1.2453  0.8621  0.3230
 5079TIP3    H215244   4.278   5.456   2.753 -0.8241 -0.1779  2.2540
 5080TIP3   OH215245   5.939   1.127   2.592  0.7223  0.0033  0.4675
 5080TIP3    H115246   5.896   1.136   2.677 -0.2943  1.2793 -0.1443
 5080TIP3    H215247   5.911   1.042   2.559 -0.6470  0.4200  0.4844
 5081TIP3   OH215248   6.116   1.783   1.164 -0.1652 -0.1099 -0.5073
 5081TIP3    H115249   6.113   1.868   1.120  0.6884  1.3953  2.1543
 5081TIP3    H215250   6.031   1.775   1.207  0.1051 -0.1380  0.0332
 5082TIP3   OH215251   1.450   2.992   0.492 -0.1708 -0.2045 -0.3474
 5082TIP3    H115252   1.497   3.059   0.542  0.8763  0.0960 -1.6936
 5082TIP3    H215253   1.386   2.956   0.555 -0.1144  1.3745  0.6718
 5083TIP3   OH215254   5.843   2.166   0.587  0.3201  0.4272 -0.4025
 5083TIP3    H115255   5.923   2.194   0.544 -0.1572  0.6545 -1.1525
 5083TIP3    H215256   5.847   2.206   0.674  0.6733  1.0468 -0.6996
 5084TIP3   OH215257   2.635   1.714   3.470 -0.1247  0.0314  0.6323
 5084TIP3    H115258   2.725   1.681   3.472 -1.1357 -2.9265  1.6719
 5084TIP3    H215259   2.645   1.809   3.456  3.0042 -0.5110 -1.9606
 5085TIP3   OH215260   5.004   5.315   2.316 -0.0427  0.5822  0.4303
 5085TIP3    H115261   4.913   5.322   2.346  0.8797  0.3301  3.7655
 5085TIP3    H215262   5.009   5.230   2.273 -0.8318 -0.8588  2.9450
 5086TIP3   OH215263   4.189   1.510   3.141 -0.2558 -0.0048  0.2142
 5086TIP3    H115264   4.178   1.525   3.047  0.5414 -1.2919 -0.1114
 5086TIP3    H215265   4.233   1.425   3.146 -1.7948 -0.7538  1.8181
 5087TIP3   OH215266   2.471   0.110   3.141  0.0659  0.4962 -0.5139
 5087TIP3    H115267   2.468   0.094   3.236 -3.0726 -0.0076 -0.6059
 5087TIP3    H215268   2.478   0.023   3.102  2.0708  0.7414 -0.7988
 5088TIP3   OH215269   2.365   3.771   4.329 -0.1638 -0.1715  0.2338
 5088TIP3    H115270   2.381   3.682   4.298  2.0505  0.3315 -0.2988
 5088TIP3    H215271   2.422   3.781   4.405  1.2366  1.3668 -0.9265
 5089TIP3   OH215272   6.307   4.075   4.817 -0.2759  0.2783 -0.6258
 5089TIP3    H115273   6.271   4.053   4.731 -0.7367 -0.2181 -0.3106
 5089TIP3    H215274   6.402   4.067   4.805 -0.3788 -3.7761 -0.1077
 5090TIP3   OH215275   5.552   2.731   1.882 -0.4187  0.5769  0.0313
 5090TIP3    H115276   5.582   2.803   1.826 -1.8436  1.0791 -0.1394
 5090TIP3    H215277   5.523   2.774   1.963  1.5188 -0.1322  1.1665
 5091TIP3   OH215278   4.110   1.578   2.873 -0.0161 -0.5366  0.7155
 5091TIP3    H115279   4.115   1.556   2.780  1.5259 -0.3153  0.7271
 5091TIP3    H215280   4.059   1.659   2.876 -2.0063 -1.6999  0.2951
 5092TIP3   OH215281   0.680   5.625   4.806  0.3467 -0.4608  0.2342
 5092TIP3    H115282   0.770   5.648   4.825 -0.1103  2.4005 -0.5778
 5092TIP3    H215283   0.640   5.610   4.891  1.0889  0.4307  0.7531
 5093TIP3   OH215284   1.845   1.407   2.569 -0.2291 -0.0998 -0.0604
 5093TIP3    H115285   1.938   1.391   2.553 -0.3200 -0.0387 -0.6529
 5093TIP3    H215286   1.802   1.387   2.486 -0.4277  2.4627 -0.6661
 5094TIP3   OH215287   1.168   3.395   1.388 -0.2456 -0.2729 -0.3435
 5094TIP3    H115288   1.175   3.472   1.444  0.7838 -0.5969 -0.0213
 5094TIP3    H215289   1.160   3.321   1.448 -2.6947 -0.3493 -0.6301
 5095TIP3   OH215290   2.872   2.233   0.080  0.6629  0.0837 -0.7187
 5095TIP3    H115291   2.967   2.239   0.073  0.5753  1.0952 -1.1859
 5095TIP3    H215292   2.851   2.275   0.164  0.6685 -0.6962 -0.3170
 5096TIP3   OH215293   6.030   1.133   3.228 -0.1583 -0.0640 -0.4167
 5096TIP3    H115294   6.037   1.099   3.317  1.1485  2.2283  0.4348
 5096TIP3    H215295   6.115   1.113   3.188 -0.7961 -1.2297 -1.2465
 5097TIP3   OH215296   1.283   4.095   0.140 -0.4655 -0.0037  0.0468
 5097TIP3    H115297   1.372   4.075   0.169 -0.4696 -1.5470 -0.9308
 5097TIP3    H215298   1.281   4.191   0.138  1.1621  0.0699  0.1052
 5098TIP3   OH215299   5.556   5.221   2.005  0.0007 -0.1426  0.4024
 5098TIP3    H115300   5.627   5.190   1.948 -0.4065  0.6824 -0.5937
 5098TIP3    H215301   5.494   5.263   1.945 -0.6643  0.3664  1.4176
 5099TIP3   OH215302   5.727   2.904   2.113  0.4283 -0.0768  0.6296
 5099TIP3    H115303   5.690   2.823   2.149 -1.4144  1.3277  2.1529
 5099TIP3    H215304   5.652   2.947   2.071  1.4690  0.6752 -0.5103
 5100TIP3   OH215305   2.039   1.262   1.350 -0.3698  0.2341 -0.3217
 5100TIP3    H115306   2.071   1.255   1.260 -2.1453  0.0560 -0.9884
 5100TIP3    H215307   2.104   1.316   1.394  0.3594  0.6357 -1.8034
 5101TIP3   OH215308   2.665   5.400   4.768  0.6625  0.0186 -0.4352
 5101TIP3    H115309   2.673   5.474   4.707  0.2597 -1.1701 -1.9903
 5101TIP3    H215310   2.668   5.323   4.712 -1.2130 -1.0979  0.8963
 5102TIP3   OH215311   0.370   4.351   3.923  0.1878  0.7086  0.1054
 5102TIP3    H115312   0.284   4.345   3.883  0.2805 -3.0721  0.1170
 5102TIP3    H215313   0.430   4.361   3.850 -0.1174  1.4643 -0.0484
 5103TIP3   OH215314   4.591   2.381   2.970  0.2072 -0.2953 -0.5538
 5103TIP3    H115315   4.570   2.386   2.877  0.8589 -1.9399 -0.8264
 5103TIP3    H215316   4.681   2.414   2.976  1.1627 -2.6146 -0.9698
 5104TIP3   OH215317   1.118   0.978   3.064 -0.0536 -0.3315 -0.6812
 5104TIP3    H115318   1.053   0.939   3.121 -1.2313 -0.0017 -1.7509
 5104TIP3    H215319   1.163   0.904   3.024  1.3063 -0.5781  1.1765
 5105TIP3   OH215320   3.519   5.117   2.181  0.4904 -0.6433  0.1755
 5105TIP3    H115321   3.590   5.079   2.128  0.3555  1.9292 -2.0755
 5105TIP3    H215322   3.558   5.129   2.268  1.8424 -1.9398 -0.2031
 5106TIP3   OH215323   2.555   1.295   1.500  0.3823 -0.3418  0.2973
 5106TIP3    H115324   2.478   1.350   1.486  0.1177 -0.8042 -0.0869
 5106TIP3    H215325   2.610   1.310   1.423  1.9322  1.9653  1.7025
 5107TIP3   OH215326   3.080   5.415   0.688 -0.0285  0.0960  0.6564
 5107TIP3    H115327   3.008   5.409   0.752 -1.3536 -0.3695 -0.8180
 5107TIP3    H215328   3.041   5.460   0.613  1.0530 -0.7461 -0.4371
 5108TIP3   OH215329   4.462   1.019   3.040  0.0808 -0.5796 -0.8588
 5108TIP3    H115330   4.455   1.067   3.122  0.9230  0.8354 -1.5653
 5108TIP3    H215331   4.391   1.053   2.986  1.2181  0.6121 -1.6825
 5109TIP3   OH215332   5.645   4.654   3.216 -0.5119  0.2448 -0.7492
 5109TIP3    H115333   5.687   4.736   3.193 -0.8800  0.9744  0.9583
 5109TIP3    H215334   5.572   4.680   3.273  0.2666 -1.3052  1.1029
 5110TIP3   OH215335   3.689   4.053   0.178 -0.1653  0.7083 -1.0154
 5110TIP3    H115336   3.670   4.063   0.271 -2.1002  0.3014 -1.3195
 5110TIP3    H215337   3.611   4.011   0.142  0.4712  1.0016 -2.8476
 5111TIP3   OH215338   1.344   4.457   0.401  0.0189 -0.0546 -0.1057
 5111TIP3    H115339   1.400   4.463   0.478 -0.5466  0.0538  0.3097
 5111TIP3    H215340   1.318   4.547   0.383 -0.1772 -0.1236 -0.1701
 5112TIP3   OH215341   1.848   2.955   2.400  0.4294 -0.4250 -0.0682
 5112TIP3    H115342   1.892   2.948   2.315  0.7408  1.4407 -0.1003
 5112TIP3    H215343   1.784   2.884   2.400  0.1444 -0.2282 -2.0390
 5113TIP3   OH215344   3.628   4.390   3.772 -0.1122  0.2168  0.1100
 5113TIP3    H115345   3.661   4.356   3.855  1.3208  1.1936 -0.0108
 5113TIP3    H215346   3.567   4.459   3.797  0.7641  0.9120  0.3804
 5114TIP3   OH215347   5.573   4.925   0.753  0.2274 -0.4017  0.4720
 5114TIP3    H115348   5.546   5.001   0.701  0.2655 -1.3640 -1.0434
 5114TIP3    H215349   5.665   4.940   0.773  0.6402 -0.7056 -1.0918
 5115TIP3   OH215350   5.508   1.751   0.111  0.0383  0.1444 -0.5206
 5115TIP3    H115351   5.444   1.691   0.071 -0.3696 -1.3494  2.0984
 5115TIP3    H215352   5.593   1.721   0.079 -0.3589  0.3362 -1.8202
 5116TIP3   OH215353   4.422   2.281   1.718  0.1965 -0.2516 -0.3114
 5116TIP3    H115354   4.426   2.348   1.787  1.1120  1.0240 -1.5414
 5116TIP3    H215355   4.503   2.230   1.730 -0.0789 -0.5980  0.0932
 5117TIP3   OH215356   1.492   4.859   2.342  0.5801 -0.7945 -0.1761
 5117TIP3    H115357   1.436   4.851   2.265  0.1817  2.2016 -0.3200
 5117TIP3    H215358   1.435   4.836   2.415  0.3859 -1.7604 -0.6244
 5118TIP3   OH215359   0.353   5.478   0.999  0.0911  0.6175  0.2465
 5118TIP3    H115360   0.422   5.526   1.044  1.1472  2.2780 -2.8829
 5118TIP3    H215361   0.296   5.546   0.962 -0.4881 -0.6104 -1.2355
 5119TIP3   OH215362   1.955   3.201   4.012  0.4773  0.7918  0.1551
 5119TIP3    H115363   1.921   3.261   4.079  0.1398  0.8485 -0.0638
 5119TIP3    H215364   1.957   3.116   4.056 -0.6631  0.6449 -0.0448
 5120TIP3   OH215365   3.858   1.429   0.414 -0.1920 -0.3036  0.2057
 5120TIP3    H115366   3.834   1.352   0.362  0.3357 -0.6906  0.5358
 5120TIP3    H215367   3.949   1.446   0.391 -0.2180  0.0426  0.3611
 5121TIP3   OH215368   3.998   3.352   2.372  0.5393 -0.9985 -0.3312
 5121TIP3    H115369   4.021   3.378   2.283 -0.1342  0.6270 -0.0701
 5121TIP3    H215370   4.076   3.373   2.424 -0.1737  1.1118 -0.0377
 5122TIP3   OH215371   1.225   2.396   4.932  0.5135 -0.2421  0.7846
 5122TIP3    H115372   1.197   2.310   4.900  1.2777  0.2291 -1.2980
 5122TIP3    H215373   1.320   2.394   4.927  0.5155  1.2318 -0.8926
 5123TIP3   OH215374   1.066   1.887   4.603  0.2566  0.6128  0.3677
 5123TIP3    H115375   1.153   1.923   4.619  1.0028 -0.6998 -0.6042
 5123TIP3    H215376   1.039   1.925   4.520 -1.0080  2.6113  1.6188
 5124TIP3   OH215377   4.123   0.445   4.973  0.8200  0.4226  0.1468
 5124TIP3    H115378   4.196   0.479   4.920 -0.0620  0.9064 -0.7808
 5124TIP3    H215379   4.108   0.357   4.939  1.2950  0.1183  0.6950
 5125TIP3   OH215380   0.863   4.613   4.018  0.0115 -0.1085  0.5202
 5125TIP3    H115381   0.787   4.567   4.053 -1.1016  2.7878  2.2151
 5125TIP3    H215382   0.831   4.652   3.936 -0.1283  0.4257  0.8199
 5126TIP3   OH215383   6.207   0.357   2.452 -0.1224  0.0201  0.2369
 5126TIP3    H115384   6.256   0.431   2.416 -1.7445  0.8321 -0.4116
 5126TIP3    H215385   6.131   0.348   2.394  0.0200 -2.1603  0.3103
 5127TIP3   OH215386   0.406   0.927   4.494  0.5895  0.0569  0.1963
 5127TIP3    H115387   0.393   0.834   4.514 -0.2264  0.2607  0.6549
 5127TIP3    H215388   0.321   0.967   4.511  1.3805  1.1922  1.6961
 5128TIP3   OH215389   0.814   5.835   3.831 -0.0124 -0.6370 -0.1595
 5128TIP3    H115390   0.789   5.877   3.913  0.2688 -0.4782 -0.1532
 5128TIP3    H215391   0.881   5.771   3.856 -0.3738 -1.0278 -0.1810
 5129TIP3   OH215392   6.033   2.035   1.101  0.1694 -0.4588  0.6273
 5129TIP3    H115393   6.102   2.100   1.090  2.0311 -2.5710 -1.2280
 5129TIP3    H215394   5.951   2.086   1.098  1.5329  1.9259  1.1070
 5130TIP3   OH215395   0.075   2.342   1.519  0.1667  0.0724 -0.2093
 5130TIP3    H115396   0.063   2.247   1.523  1.0353 -0.0304  0.0162
 5130TIP3    H215397   0.077   2.362   1.426 -1.7440  0.1081 -0.2892
 5131TIP3   OH215398   1.061   1.602   1.186  0.0443  0.4690 -0.6214
 5131TIP3    H115399   1.105   1.548   1.252  0.8350 -0.6740 -2.0145
 5131TIP3    H215400   0.968   1.596   1.208  0.1636 -1.0791 -0.4369
 5132TIP3   OH215401   1.636   3.531   0.368  0.0548  0.4116  0.1903
 5132TIP3    H115402   1.546   3.500   0.366  0.2227 -0.0592 -0.7403
 5132TIP3    H215403   1.630   3.621   0.400 -0.9270  0.9385 -1.3501
 5133TIP3   OH215404   6.107   3.421   0.630  0.1809 -0.4350  0.1522
 5133TIP3    H115405   6.163   3.491   0.662  0.2945  0.3633 -1.6720
 5133TIP3    H215406   6.146   3.394   0.547 -1.6189 -0.4383 -0.7585
 5134TIP3   OH215407   0.522   1.867   2.311 -0.1338 -0.0604  0.3026
 5134TIP3    H115408   0.434   1.853   2.276  0.1425 -0.0115 -0.4435
 5134TIP3    H215409   0.576   1.803   2.264  0.0370 -0.9164  1.6218
 5135TIP3   OH215410   4.568   1.854   0.056  0.0892 -0.9199 -0.5091
 5135TIP3    H115411   4.508   1.783   0.080 -0.6538 -0.1576 -0.0488
 5135TIP3    H215412   4.550   1.923   0.121  0.7797 -0.3049 -0.9617
 5136TIP3   OH215413   1.908   2.407   0.728  0.1762  0.2567 -0.9720
 5136TIP3    H115414   1.900   2.445   0.816 -1.0500  0.9923 -1.3768
 5136TIP3    H215415   1.850   2.331   0.730  1.6623 -0.9143 -0.5580
 5137TIP3   OH215416   4.117   3.094   1.117 -0.2176 -0.3591  0.1111
 5137TIP3    H115417   4.025   3.088   1.093  0.2492 -0.8635 -1.7177
 5137TIP3    H215418   4.164   3.085   1.034  1.4365  1.7816  0.7301
 5138TIP3   OH215419   4.955   0.779   1.358  0.1569  0.2847  0.0993
 5138TIP3    H115420   4.977   0.864   1.397  2.0628 -0.7391  1.4270
 5138TIP3    H215421   4.913   0.730   1.429  1.0217 -0.5937  0.0281
 5139TIP3   OH215422   3.749   2.984   1.925 -0.0545 -0.1987 -0.4514
 5139TIP3    H115423   3.741   2.920   1.996  0.7255  0.0922 -0.0782
 5139TIP3    H215424   3.765   3.067   1.970  1.3339 -0.1563 -0.9758
 5140TIP3   OH215425   6.278   4.830   1.296  0.4410 -0.4407  0.5252
 5140TIP3    H115426   6.225   4.907   1.316  1.3781  0.4138 -0.1790
 5140TIP3    H215427   6.276   4.778   1.377  0.8899  0.9793  1.4885
 5141TIP3   OH215428   2.177   5.168   1.644 -0.2196  0.3001  0.2126
 5141TIP3    H115429   2.207   5.193   1.556 -0.8839 -1.6810 -0.6402
 5141TIP3    H215430   2.221   5.084   1.661  0.8503  1.2218  2.3368
 5142TIP3   OH215431   6.218   3.529   1.813 -0.1715 -0.1697 -0.3481
 5142TIP3    H115432   6.192   3.620   1.799  1.3113  0.1278 -1.3748
 5142TIP3    H215433   6.225   3.492   1.725  3.9870  0.1553 -0.3286
 5143TIP3   OH215434   1.843   5.947   0.693 -0.0044  0.0756 -0.1178
 5143TIP3    H115435   1.821   5.857   0.669 -0.3760  0.1145  0.0679
 5143TIP3    H215436   1.859   5.944   0.788  2.3537 -0.2556 -0.4533
 5144TIP3   OH215437   4.989   0.727   1.910  0.3867 -0.3123 -0.3488
 5144TIP3    H115438   5.077   0.721   1.873  0.7012 -0.0617  0.3465
 5144TIP3    H215439   4.942   0.651   1.873  1.2732 -1.2000  0.2944
 5145TIP3   OH215440   3.611   2.457   0.456 -0.0012  0.0742 -0.4317
 5145TIP3    H115441   3.639   2.367   0.472 -0.9442 -0.1388  0.1307
 5145TIP3    H215442   3.619   2.500   0.541  0.0043  0.3945 -0.5934
 5146TIP3   OH215443   3.064   0.104   3.960 -0.0417 -0.5261 -0.1911
 5146TIP3    H115444   3.004   0.121   4.033  0.5345  1.0971 -0.0776
 5146TIP3    H215445   3.012   0.123   3.882  0.2249  0.6272 -0.1004
 5147TIP3   OH215446   3.779   5.133   3.220 -0.2130 -0.4503 -0.1978
 5147TIP3    H115447   3.725   5.211   3.209  0.2733  0.0536  0.8856
 5147TIP3    H215448   3.849   5.143   3.156  0.7633  0.8326  1.0139
 5148TIP3   OH215449   4.621   1.053   1.075  0.6623  0.5805  0.5153
 5148TIP3    H115450   4.691   1.027   1.136  0.7939 -2.0705 -0.6433
 5148TIP3    H215451   4.551   0.989   1.090  0.1525  0.6984 -1.1532
 5149TIP3   OH215452   6.209   3.310   4.181 -0.2310 -0.4551  0.2878
 5149TIP3    H115453   6.217   3.380   4.117 -1.3640 -0.1439  0.4640
 5149TIP3    H215454   6.240   3.348   4.263 -3.3030  0.7947  1.0102
 5150TIP3   OH215455   4.451   2.628   1.588  0.7939 -0.4732  1.0752
 5150TIP3    H115456   4.520   2.582   1.540 -0.2816 -1.5008  0.4935
 5150TIP3    H215457   4.453   2.717   1.552  1.6708 -0.5405  0.9255
 5151TIP3   OH215458   0.810   3.536   0.291  0.2482 -0.0275 -0.0591
 5151TIP3    H115459   0.752   3.553   0.365 -0.7014  0.8488 -0.9811
 5151TIP3    H215460   0.800   3.612   0.234  0.9119 -0.7103 -1.1275
 5152TIP3   OH215461   5.778   0.308   4.404 -0.1661  0.7230 -0.4647
 5152TIP3    H115462   5.854   0.350   4.363 -0.2136  1.3938  0.1343
 5152TIP3    H215463   5.779   0.337   4.495 -0.8005  0.2553 -0.2956
 5153TIP3   OH215464   5.715   2.324   0.846  0.0687 -0.0559  0.5955
 5153TIP3    H115465   5.622   2.307   0.862 -0.4956  1.0216 -1.1991
 5153TIP3    H215466   5.727   2.416   0.871  0.5281 -0.0683  0.4265
 5154TIP3   OH215467   1.785   4.903   2.601 -0.3763 -0.0688  0.0266
 5154TIP3    H115468   1.856   4.869   2.654 -0.6428 -0.1902  0.3062
 5154TIP3    H215469   1.706   4.892   2.655 -0.5791  0.2524 -0.1937
 5155TIP3   OH215470   2.884   2.209   5.130 -0.3461  0.1999  0.4609
 5155TIP3    H115471   2.836   2.276   5.082 -0.1685  1.4301  1.9087
 5155TIP3    H215472   2.968   2.250   5.150  0.5978 -1.2277 -0.3933
 5156TIP3   OH215473   3.867   3.072   1.021 -0.0532  0.6189 -0.0704
 5156TIP3    H115474   3.781   3.093   1.057  0.0205  1.5649 -0.4141
 5156TIP3    H215475   3.848   3.024   0.940 -0.2356 -0.0062  0.3318
 5157TIP3   OH215476   1.660   1.791   1.879 -0.3451 -0.1518  0.0257
 5157TIP3    H115477   1.648   1.767   1.787  0.6226 -0.2965 -0.0725
 5157TIP3    H215478   1.575   1.825   1.906 -0.5633  0.1495 -0.9980
 5158TIP3   OH215479   5.556   4.792   0.491  0.2041  0.4680  0.2833
 5158TIP3    H115480   5.637   4.768   0.446  0.3507 -0.6849  1.1163
 5158TIP3    H215481   5.577   4.876   0.534  0.0283  1.6334 -1.7867
 5159TIP3   OH215482   2.052   2.336   1.747 -0.0647 -0.4585 -0.3515
 5159TIP3    H115483   2.033   2.255   1.698 -2.0286 -1.4636  1.8988
 5159TIP3    H215484   1.967   2.379   1.755  0.5716  0.6680  0.4767
 5160TIP3   OH215485   4.338   1.375   2.663  0.2204 -0.0224  0.2642
 5160TIP3    H115486   4.294   1.454   2.630 -0.3694 -1.2773 -2.1983
 5160TIP3    H215487   4.417   1.368   2.610 -0.0602 -1.3894 -0.0139
 5161TIP3   OH215488   0.063   3.986   1.044  0.0985  0.5407 -0.3061
 5161TIP3    H115489   0.046   3.904   1.089 -1.0940  1.9349  1.9994
 5161TIP3    H215490   0.010   3.983   0.965  1.0906 -1.3811 -0.9621
 5162TIP3   OH215491   1.247   0.045   0.405  0.0368  0.7683 -0.0409
 5162TIP3    H115492   1.317   0.082   0.351 -0.0254  0.9371 -0.0043
 5162TIP3    H215493   1.268  -0.048   0.409  1.5096  1.1291  1.8328
 5163TIP3   OH215494   5.261   4.321   2.593 -0.0223 -0.8766  0.2192
 5163TIP3    H115495   5.294   4.334   2.682 -2.3528 -0.7951  1.1413
 5163TIP3    H215496   5.271   4.227   2.577  0.0529 -0.9534  0.7108
 5164TIP3   OH215497   4.526   4.828   4.845 -0.6605  0.1522 -0.2406
 5164TIP3    H115498   4.596   4.817   4.908 -0.7999  1.4802  0.1799
 5164TIP3    H215499   4.542   4.914   4.806 -1.2663 -0.1263 -1.1386
 5165TIP3   OH215500   4.055   0.183   1.275  0.3814 -0.2896 -0.4489
 5165TIP3    H115501   4.005   0.103   1.291  0.4369  0.1414  2.4124
 5165TIP3    H215502   4.143   0.152   1.252  0.1940 -1.0543 -0.1779
 5166TIP3   OH215503   0.757   5.479   4.316  0.3866  0.0258 -0.0219
 5166TIP3    H115504   0.743   5.410   4.380 -0.7340 -1.2433 -1.5757
 5166TIP3    H215505   0.720   5.558   4.358 -0.6334 -0.8380  0.7575
 5167TIP3   OH215506   3.397   5.218   3.915 -0.4353 -0.1031  0.1598
 5167TIP3    H115507   3.325   5.158   3.895 -1.5688  0.3536  2.5507
 5167TIP3    H215508   3.369   5.301   3.876 -1.6369  0.2735  1.7433
 5168TIP3   OH215509   1.618   2.842   1.935 -0.0982  0.0838 -0.2764
 5168TIP3    H115510   1.554   2.774   1.915 -1.4716  1.3218 -0.2552
 5168TIP3    H215511   1.696   2.794   1.964 -1.1917 -1.4648  0.2339
 5169TIP3   OH215512   3.919   1.179   2.664 -0.0053 -0.2703 -0.0450
 5169TIP3    H115513   3.835   1.225   2.668 -0.4226 -1.0244  0.1781
 5169TIP3    H215514   3.933   1.162   2.571 -0.7494 -1.2702  0.0061
 5170TIP3   OH215515   2.703   1.950   4.070  0.2342  0.0509  0.6145
 5170TIP3    H115516   2.768   1.899   4.119 -0.0581  0.1503  1.1120
 5170TIP3    H215517   2.731   2.041   4.080  0.4384  0.0406  0.1931
 5171TIP3   OH215518   1.717   4.724   2.258 -0.3719 -0.3550  0.0649
 5171TIP3    H115519   1.784   4.792   2.255 -1.1773  0.4203 -0.8878
 5171TIP3    H215520   1.637   4.769   2.283 -0.6970 -1.1515  0.5103
 5172TIP3   OH215521   6.115   0.975   3.874 -0.0053 -0.1854 -0.0052
 5172TIP3    H115522   6.096   1.025   3.953  1.6286 -1.2289  1.1091
 5172TIP3    H215523   6.030   0.967   3.829 -1.3318 -0.9655  2.4637
 5173TIP3   OH215524   4.171   5.148   0.286  0.6622 -0.1663 -0.1916
 5173TIP3    H115525   4.202   5.143   0.196 -0.3635 -0.4616 -0.5346
 5173TIP3    H215526   4.186   5.061   0.322  1.3850  0.0433  0.0446
 5174TIP3   OH215527   2.784   4.305   2.621 -0.0663  0.3332  0.1543
 5174TIP3    H115528   2.700   4.341   2.649  0.2496  0.3683  1.0706
 5174TIP3    H215529   2.841   4.381   2.610 -0.9276  0.6604 -3.4218
 5175TIP3   OH215530   5.167   2.000   2.503 -0.0925  0.8261  0.1024
 5175TIP3    H115531   5.102   2.041   2.446 -0.6132  1.0845  0.8715
 5175TIP3    H215532   5.249   2.046   2.482 -0.2823  0.9378 -0.4123
 5176TIP3   OH215533   6.267   5.410   3.281 -0.5783 -0.3994  0.0940
 5176TIP3    H115534   6.185   5.379   3.320 -0.5674 -0.5453  0.0019
 5176TIP3    H215535   6.251   5.405   3.186  0.3610 -2.7211 -0.0001
 5177TIP3   OH215536   1.093   3.190   0.799  0.1300 -0.3130  0.1500
 5177TIP3    H115537   1.147   3.161   0.872  4.1604  0.8357 -2.1006
 5177TIP3    H215538   1.106   3.285   0.796 -1.6955 -0.0429 -0.8321
 5178TIP3   OH215539   0.568   2.530   1.488  0.2634  0.1193 -0.0974
 5178TIP3    H115540   0.539   2.524   1.579  1.3832 -3.0595  0.1889
 5178TIP3    H215541   0.502   2.480   1.439  0.0862  1.1591 -0.9638
 5179TIP3   OH215542   0.492   3.818   4.826 -0.8391  0.0144  0.2545
 5179TIP3    H115543   0.523   3.803   4.916  0.5858 -0.4665 -0.2846
 5179TIP3    H215544   0.557   3.878   4.788 -1.8959  0.8939 -0.2073
 5180TIP3   OH215545   0.233   0.142   3.381  0.2037 -0.1606  0.2532
 5180TIP3    H115546   0.234   0.112   3.290 -1.8375 -0.3712  0.2528
 5180TIP3    H215547   0.290   0.219   3.382 -0.9489  0.7645 -1.5501
 5181TIP3   OH215548   2.826   0.030   2.260  0.0888 -0.4226 -0.1519
 5181TIP3    H115549   2.918   0.057   2.262  0.4333 -1.2587 -2.0482
 5181TIP3    H215550   2.822  -0.033   2.188 -1.6946 -1.4992  0.8275
 5182TIP3   OH215551   2.433   0.278   1.110  0.9723 -0.4208 -0.2659
 5182TIP3    H115552   2.475   0.282   1.024 -2.3761  0.8639 -2.0269
 5182TIP3    H215553   2.402   0.367   1.126 -1.0820 -1.2591  0.7975
 5183TIP3   OH215554   5.373   5.232   0.758 -0.3064 -0.3261 -0.5985
 5183TIP3    H115555   5.435   5.288   0.710 -0.7622  0.0887 -0.7048
 5183TIP3    H215556   5.403   5.235   0.849 -0.5438  0.3798 -0.5426
 5184TIP3   OH215557   6.203   5.250   3.691 -0.2527 -0.2761  0.0794
 5184TIP3    H115558   6.110   5.229   3.703  0.0307 -0.5535  2.2800
 5184TIP3    H215559   6.248   5.194   3.755  1.7166 -2.0602 -2.6313
 5185TIP3   OH215560   0.152   4.865   2.964  0.1285 -0.3407  0.1277
 5185TIP3    H115561   0.180   4.937   3.022  1.0624 -1.3931  1.0400
 5185TIP3    H215562   0.057   4.871   2.962  0.0687 -0.2950  1.8359
 5186TIP3   OH215563   4.201   4.200   2.279 -0.4036  0.2468 -0.6915
 5186TIP3    H115564   4.182   4.107   2.295 -0.7277  0.2870 -0.8272
 5186TIP3    H215565   4.127   4.230   2.227 -0.5482  0.7070 -0.2267
 5187TIP3   OH215566   0.418   1.220   1.827 -0.3284  0.9559  0.2456
 5187TIP3    H115567   0.409   1.182   1.739 -2.0120  1.4312  0.1724
 5187TIP3    H215568   0.456   1.306   1.812 -0.0918  0.8138  0.0288
 5188TIP3   OH215569   1.176   4.627   2.696  0.3774 -0.1551  0.1584
 5188TIP3    H115570   1.182   4.535   2.721  0.5025 -0.3269 -0.4701
 5188TIP3    H215571   1.104   4.630   2.633  0.1861  0.2284  0.3901
 5189TIP3   OH215572   4.015   5.116   2.634 -0.1628 -0.5296  0.7865
 5189TIP3    H115573   3.980   5.117   2.723 -0.0605  0.2897  0.8210
 5189TIP3    H215574   4.075   5.191   2.631  0.1334 -0.7880  0.1473
 5190TIP3   OH215575   6.276   0.993   3.145  0.0461 -0.1970  0.2232
 5190TIP3    H115576   6.275   0.952   3.058 -0.0769  0.4467 -0.0822
 5190TIP3    H215577   6.317   0.927   3.202  0.8322 -0.3324 -0.4750
 5191TIP3   OH215578   6.009   4.982   4.663  0.1447 -0.4099  0.4390
 5191TIP3    H115579   5.988   5.044   4.732  0.5944 -0.6433  0.7890
 5191TIP3    H215580   6.105   4.976   4.663  0.1729 -0.1696 -0.4182
 5192TIP3   OH215581   5.139   3.663   2.708  0.0370  0.4006  0.0987
 5192TIP3    H115582   5.135   3.754   2.737 -0.4903  0.8090 -1.1880
 5192TIP3    H215583   5.165   3.614   2.786  0.5946  1.6818  0.7470
 5193TIP3   OH215584   0.634   1.282   3.518 -0.0998 -0.1684  0.9959
 5193TIP3    H115585   0.558   1.335   3.543  0.0416 -0.4610  2.0970
 5193TIP3    H215586   0.641   1.217   3.587 -0.8305 -2.2517 -0.7594
 5194TIP3   OH215587   4.562   5.756   0.907  0.5385 -0.5401  0.8426
 5194TIP3    H115588   4.474   5.719   0.903  0.2852 -0.2243  2.6289
 5194TIP3    H215589   4.621   5.681   0.901  0.1874 -0.7168 -0.7914
 5195TIP3   OH215590   4.474   4.585   0.866 -0.0131  0.1840 -0.7082
 5195TIP3    H115591   4.505   4.533   0.940  1.4633  1.2485 -0.5312
 5195TIP3    H215592   4.461   4.522   0.796  0.4356 -0.5835 -0.1106
 5196TIP3   OH215593   4.485   0.368   2.950  0.3919 -0.5575 -0.1079
 5196TIP3    H115594   4.567   0.418   2.955  0.0004  0.1798 -0.7459
 5196TIP3    H215595   4.423   0.428   2.908 -0.0558 -1.6301 -1.0362
 5197TIP3   OH215596   1.010   4.457   1.942 -0.0410 -0.3086 -0.1602
 5197TIP3    H115597   0.921   4.476   1.913  0.1019  1.8162  0.5904
 5197TIP3    H215598   1.000   4.407   2.023 -0.5224 -0.8165 -0.5293
 5198TIP3   OH215599   0.865   5.602   2.468  0.0586  0.2967 -0.2105
 5198TIP3    H115600   0.945   5.550   2.479  0.7112  1.3875  0.4066
 5198TIP3    H215601   0.890   5.672   2.408 -0.8558 -0.1663 -1.1552
 5199TIP3   OH215602   0.628   5.534   5.070  0.4143  0.0269 -0.0448
 5199TIP3    H115603   0.571   5.498   5.138  1.0126  0.2186  0.5685
 5199TIP3    H215604   0.639   5.462   5.008  2.2049 -1.1684  1.5407
 5200TIP3   OH215605   6.369   2.995   4.671 -0.7203  0.4102  0.0853
 5200TIP3    H115606   6.323   3.009   4.754 -2.2135 -0.9869 -0.4329
 5200TIP3    H215607   6.298   2.981   4.608  0.3496 -3.1542 -0.5278
 5201TIP3   OH215608   2.418   4.196   5.148 -0.2595 -0.6042  0.2633
 5201TIP3    H115609   2.400   4.281   5.108  1.1710  1.0290  2.8080
 5201TIP3    H215610   2.341   4.178   5.202 -0.9295 -1.3975 -0.9108
 5202TIP3   OH215611   4.971   4.402   0.299  0.3264  0.1622  0.4886
 5202TIP3    H115612   5.055   4.445   0.280 -0.1749  0.8620 -0.1827
 5202TIP3    H215613   4.968   4.328   0.238 -0.1092  0.8842 -0.3825
 5203TIP3   OH215614   6.376   3.660   3.621  0.4226 -0.4063 -0.6030
 5203TIP3    H115615   6.287   3.638   3.647  0.7125 -0.8655  0.0463
 5203TIP3    H215616   6.370   3.748   3.585 -0.3536 -0.5856 -0.9240
 5204TIP3   OH215617   0.700   4.323   1.182  0.0140  0.5122 -0.4612
 5204TIP3    H115618   0.697   4.317   1.278  0.7772  1.8862 -0.3265
 5204TIP3    H215619   0.789   4.297   1.159 -0.1727  0.1633 -0.8156
 5205TIP3   OH215620   1.695   2.887   1.200 -0.2822  0.0261 -0.1768
 5205TIP3    H115621   1.636   2.961   1.185  0.9595  0.7871 -1.5759
 5205TIP3    H215622   1.783   2.923   1.183  1.2581  0.1697  5.8297
 5206TIP3   OH215623   6.299   1.386   2.459 -0.0785  0.6697  0.0757
 5206TIP3    H115624   6.302   1.468   2.509  0.6753  0.4398  0.4126
 5206TIP3    H215625   6.217   1.392   2.410 -1.1056  0.6728  1.7234
 5207TIP3   OH215626   3.031   0.222   0.151  0.3208  0.0060 -0.3444
 5207TIP3    H115627   2.958   0.263   0.198  1.2148  1.1415  0.1039
 5207TIP3    H215628   3.045   0.279   0.075  0.2341 -0.6581 -0.8688
 5208TIP3   OH215629   6.018   3.047   4.254  0.7016 -0.1446  0.2818
 5208TIP3    H115630   5.955   3.009   4.193 -0.3635 -1.1761  1.9616
 5208TIP3    H215631   6.066   3.111   4.201 -2.1676  1.1843 -0.9484
 5209TIP3   OH215632   0.381   2.385   2.973  0.2060  0.0435 -0.9514
 5209TIP3    H115633   0.344   2.374   2.885 -0.5717  1.5505 -0.8559
 5209TIP3    H215634   0.360   2.476   2.995 -1.5141 -0.8766  1.6425
 5210TIP3   OH215635   5.145   5.698   3.815 -0.6492  0.2963 -0.1615
 5210TIP3    H115636   5.217   5.635   3.826  0.7889  1.9542  0.4310
 5210TIP3    H215637   5.164   5.741   3.732 -0.7280  1.0172  0.1908
 5211TIP3   OH215638   2.963   5.165   3.911  0.4579 -0.0922 -0.3032
 5211TIP3    H115639   2.934   5.250   3.944  0.4137 -0.7050  1.3222
 5211TIP3    H215640   2.899   5.102   3.945  0.5546 -0.8117 -1.3823
 5212TIP3   OH215641   5.482   2.235   1.058  0.4084 -0.1024  0.3112
 5212TIP3    H115642   5.389   2.241   1.079  0.7765  1.0722  1.7578
 5212TIP3    H215643   5.505   2.144   1.075 -0.4733 -0.4034 -0.0770
 5213TIP3   OH215644   0.103   4.872   2.388 -0.1858 -0.4772 -0.0359
 5213TIP3    H115645   0.032   4.812   2.364  1.4832 -2.1360 -1.1339
 5213TIP3    H215646   0.118   4.924   2.309  0.3596 -0.7141 -0.0914
 5214TIP3   OH215647   5.045   0.343   2.407 -0.1622  0.0303 -0.4656
 5214TIP3    H115648   4.950   0.347   2.418  0.0540 -0.2822  2.5027
 5214TIP3    H215649   5.072   0.267   2.459  1.7644  0.5551 -0.5958
 5215TIP3   OH215650   0.402   1.835   0.097 -0.1875  0.0403  0.3585
 5215TIP3    H115651   0.477   1.799   0.050 -0.3677 -0.0506  0.1397
 5215TIP3    H215652   0.430   1.924   0.122 -0.0671  0.0669  0.1341
 5216TIP3   OH215653   5.592   0.541   4.972  0.0421  0.3060 -0.2825
 5216TIP3    H115654   5.613   0.541   5.065 -0.5472  1.5152 -0.1281
 5216TIP3    H215655   5.655   0.479   4.933  2.0316  1.6852  0.5571
 5217TIP3   OH215656   2.860   3.669   2.461 -0.4622  0.0448 -0.0627
 5217TIP3    H115657   2.942   3.710   2.435 -0.0088 -0.8798 -0.1528
 5217TIP3    H215658   2.800   3.742   2.478  0.3008  0.7233 -0.2356
 5218TIP3   OH215659   5.687   2.067   4.408  0.4754 -0.1057  0.8602
 5218TIP3    H115660   5.768   2.024   4.381 -0.2099 -1.8307  1.4120
 5218TIP3    H215661   5.631   2.061   4.331  0.1182 -0.9399  1.1650
 5219TIP3   OH215662   5.983   5.598  -0.004 -0.2581  0.4561  0.4049
 5219TIP3    H115663   5.965   5.540   0.070  0.0358  1.4390  1.2813
 5219TIP3    H215664   6.026   5.674   0.035  1.8837  0.0767 -1.0516
 5220TIP3   OH215665   1.532   5.656   3.889  0.1652  0.3812  1.0330
 5220TIP3    H115666   1.585   5.606   3.950  0.7641  0.6396  0.7338
 5220TIP3    H215667   1.502   5.732   3.939  2.2681  1.6401  0.5183
 5221TIP3   OH215668   5.143   2.833   2.635  0.0368 -0.2476  0.0968
 5221TIP3    H115669   5.172   2.869   2.719 -0.3021  2.0458 -0.7127
 5221TIP3    H215670   5.061   2.787   2.655  0.5471 -0.7121  1.1910
 5222TIP3   OH215671   3.088   2.490   0.775  0.6205 -0.2149 -0.1109
 5222TIP3    H115672   3.158   2.439   0.816  0.4815 -1.4559 -1.3274
 5222TIP3    H215673   3.011   2.474   0.829  1.5077  2.4495  2.2065
 5223TIP3   OH215674   1.667   2.559   1.058 -0.1243  0.0719  0.3434
 5223TIP3    H115675   1.599   2.611   1.016 -0.4852  1.0489  2.0497
 5223TIP3    H215676   1.746   2.577   1.007 -0.4133  1.6881  0.4091
 5224TIP3   OH215677   2.291   1.291   0.868 -0.1817  0.2358 -0.1574
 5224TIP3    H115678   2.368   1.238   0.889 -0.6483 -1.0100 -1.4165
 5224TIP3    H215679   2.231   1.275   0.941  0.1218 -0.0923  0.0223
 5225TIP3   OH215680   1.532   3.467   0.973 -0.2573 -0.0690 -0.1769
 5225TIP3    H115681   1.563   3.536   1.033 -0.5130 -0.2856  0.2054
 5225TIP3    H215682   1.452   3.435   1.013 -0.6738  0.0909 -0.8747
 5226TIP3   OH215683   4.386   0.990   1.342 -0.2117 -0.8088  0.2199
 5226TIP3    H115684   4.293   0.993   1.366 -0.5059 -0.9479 -0.8483
 5226TIP3    H215685   4.431   0.968   1.424 -1.1846 -1.5045  0.5887
 5227TIP3   OH215686   5.270   2.079   1.888  0.4416 -0.3076 -0.3211
 5227TIP3    H115687   5.237   2.035   1.966 -1.3071  2.3278  0.5316
 5227TIP3    H215688   5.341   2.134   1.920 -1.1793  1.8468 -0.2341
 5228TIP3   OH215689   3.954   0.525   2.706  0.1832 -0.1354  0.1142
 5228TIP3    H115690   3.935   0.549   2.797  0.1083 -0.8724  0.2990
 5228TIP3    H215691   3.890   0.457   2.685  1.1360 -1.0216  0.0008
 5229TIP3   OH215692   1.178   4.349   5.152 -0.6202  0.2242 -0.2536
 5229TIP3    H115693   1.151   4.257   5.148  0.6257 -0.3710  2.4984
 5229TIP3    H215694   1.182   4.377   5.061 -0.3336 -2.6737 -1.2328
 5230TIP3   OH215695   3.240   0.962   2.666  0.6471  0.0728 -0.1335
 5230TIP3    H115696   3.203   0.874   2.658  0.6687  0.2110 -2.1122
 5230TIP3    H215697   3.222   0.987   2.757 -0.7564 -1.3494  0.0228
 5231TIP3   OH215698   2.783   0.170   0.839 -0.4900 -0.1266  0.1528
 5231TIP3    H115699   2.841   0.127   0.902 -3.3864 -4.3713  0.4200
 5231TIP3    H215700   2.831   0.167   0.756  0.8485 -0.6568  0.9130
 5232TIP3   OH215701   0.179   1.021   1.829  0.3650  0.0432  0.0442
 5232TIP3    H115702   0.234   1.050   1.901  3.2177 -0.9040 -1.5605
 5232TIP3    H215703   0.224   1.052   1.750 -1.6482 -0.4542 -1.3921
 5233TIP3   OH215704   5.605   1.676   1.133  0.4010  0.2058 -0.7442
 5233TIP3    H115705   5.580   1.621   1.060 -0.1407  0.4716 -0.7670
 5233TIP3    H215706   5.528   1.679   1.189  1.1767 -0.9356  0.4432
 5234TIP3   OH215707   5.400   1.942   4.837 -0.2588 -0.1399 -0.3980
 5234TIP3    H115708   5.445   2.004   4.780 -0.1021 -0.2426 -0.3857
 5234TIP3    H215709   5.382   1.866   4.782  0.0361 -0.3046 -0.2717
 5235TIP3   OH215710   5.223   3.814   1.618 -0.2075 -0.5346  0.3518
 5235TIP3    H115711   5.186   3.752   1.555  0.4605 -2.1721  1.5014
 5235TIP3    H215712   5.165   3.890   1.614 -1.1061 -1.2496 -1.0464
 5236TIP3   OH215713   1.187   2.004   1.938  0.0696  0.1995  0.4262
 5236TIP3    H115714   1.257   1.939   1.935 -0.6916 -0.6657  0.6559
 5236TIP3    H215715   1.224   2.077   1.987  1.3693  0.4879 -0.9114
 5237TIP3   OH215716   2.959   2.461   2.180  0.5941  0.1208  0.2583
 5237TIP3    H115717   2.952   2.475   2.274  2.6416 -0.1730  0.5207
 5237TIP3    H215718   3.019   2.386   2.172  1.4813  0.9439 -1.2765
 5238TIP3   OH215719   0.331   2.386   1.453  0.4205  0.4967 -0.6291
 5238TIP3    H115720   0.273   2.410   1.525  1.6518 -0.1525  0.6178
 5238TIP3    H215721   0.307   2.445   1.382 -1.3739  0.6129  0.0243
 5239TIP3   OH215722   4.101   3.682   0.613 -0.2723  0.0093 -0.1899
 5239TIP3    H115723   4.043   3.609   0.590 -0.1128 -0.3018  0.3671
 5239TIP3    H215724   4.173   3.675   0.550  0.7361 -1.5313  1.0481
 5240TIP3   OH215725   3.359   1.739   2.554  0.0034  0.1943 -0.7465
 5240TIP3    H115726   3.320   1.817   2.593  1.1296  0.6214 -0.4113
 5240TIP3    H215727   3.299   1.714   2.484 -0.5350  1.1851 -0.6588
 5241TIP3   OH215728   0.255   2.758   0.046  0.1428  0.8944  0.2743
 5241TIP3    H115729   0.325   2.741   0.109  0.5910 -1.1471 -0.7034
 5241TIP3    H215730   0.297   2.753  -0.040 -1.0357  0.4579 -0.2987
 5242TIP3   OH215731   0.983   0.380   4.476 -0.0585  0.4764  0.2952
 5242TIP3    H115732   0.895   0.393   4.511 -0.2577  0.7520 -0.2919
 5242TIP3    H215733   0.972   0.314   4.408  0.2799  0.1446  0.5575
 5243TIP3   OH215734   1.532   1.458   2.580  0.3812  0.1949  0.2581
 5243TIP3    H115735   1.627   1.460   2.589  0.1808  1.7990  2.8861
 5243TIP3    H215736   1.510   1.539   2.534  0.2955 -0.7318 -1.4291
 5244TIP3   OH215737   4.807   2.266   1.492 -0.0057  0.1213  0.4037
 5244TIP3    H115738   4.751   2.343   1.485  0.3045  0.2497 -0.9629
 5244TIP3    H215739   4.893   2.297   1.462  0.2314 -0.6459  0.2883
 5245TIP3   OH215740   0.841   5.220   3.444  0.1605  0.0956  0.2609
 5245TIP3    H115741   0.859   5.256   3.531  0.4378  1.9161 -0.5117
 5245TIP3    H215742   0.915   5.247   3.391 -0.9598  0.7301 -1.0247
 5246TIP3   OH215743   5.942   1.462   3.107 -0.0979 -0.7405 -0.0926
 5246TIP3    H115744   6.017   1.414   3.072 -0.6047 -2.0583  0.5586
 5246TIP3    H215745   5.977   1.548   3.129  1.7585 -1.9007  1.9860
 5247TIP3   OH215746   5.995   1.391   3.665 -0.1315 -0.3391  0.7369
 5247TIP3    H115747   6.002   1.357   3.576 -2.0950  1.1016 -0.0468
 5247TIP3    H215748   5.991   1.313   3.721 -1.1043 -1.3302 -0.6605
 5248TIP3   OH215749   5.120   0.585   3.701 -0.0891  0.1875  0.1292
 5248TIP3    H115750   5.095   0.596   3.609  1.7166 -1.5639 -0.6614
 5248TIP3    H215751   5.134   0.490   3.711  1.7593  0.5502  1.6307
 5249TIP3   OH215752   2.539   1.678   0.553 -0.5969  0.0317 -0.0590
 5249TIP3    H115753   2.563   1.663   0.462 -0.1272  2.0181 -0.3100
 5249TIP3    H215754   2.562   1.596   0.597  0.1129 -0.6100 -1.5348
 5250TIP3   OH215755   4.263   5.425   3.641  0.5575 -0.1772 -0.0154
 5250TIP3    H115756   4.287   5.395   3.554  0.5441 -0.0886 -0.0504
 5250TIP3    H215757   4.271   5.521   3.637 -2.1936  0.1157 -0.8026
 5251TIP3   OH215758   4.145   2.989   3.988  0.1248 -0.3653  0.4996
 5251TIP3    H115759   4.176   3.029   3.907  1.4470  1.2703  1.7338
 5251TIP3    H215760   4.073   2.932   3.961  0.1490  0.5652 -1.7263
 5252TIP3   OH215761   2.653   5.701   2.872 -0.2638  0.4072  0.1109
 5252TIP3    H115762   2.680   5.636   2.937  4.1917 -0.2047 -1.9858
 5252TIP3    H215763   2.592   5.655   2.815  1.7524 -1.6030 -0.5240
 5253TIP3   OH215764   2.539   2.589   4.163 -0.0635  0.4539  0.4715
 5253TIP3    H115765   2.463   2.573   4.107 -0.6473 -2.6588  1.9623
 5253TIP3    H215766   2.613   2.555   4.113 -0.0647  0.7308  0.2728
 5254TIP3   OH215767   5.601   4.052   3.020  0.1216 -0.1477 -0.0132
 5254TIP3    H115768   5.659   3.977   3.001 -0.5946 -0.7431  0.1011
 5254TIP3    H215769   5.649   4.128   2.988 -0.2119 -0.9130 -2.5701
 5255TIP3   OH215770   0.190   1.994   2.973  0.7861  0.5879  0.1131
 5255TIP3    H115771   0.173   1.900   2.981 -1.7337  1.1235  2.4633
 5255TIP3    H215772   0.204   2.008   2.880 -1.1678 -1.8042 -0.6363
 5256TIP3   OH215773   1.439   4.699   4.345 -0.3746 -0.1467  0.0637
 5256TIP3    H115774   1.393   4.694   4.261 -1.0486 -0.6862  0.4552
 5256TIP3    H215775   1.454   4.793   4.358  1.0293 -0.1355 -1.3297
 5257TIP3   OH215776   1.523   2.421   3.652 -0.8503  0.4261  0.3737
 5257TIP3    H115777   1.602   2.377   3.683 -1.7602 -0.9935  0.7865
 5257TIP3    H215778   1.492   2.366   3.580 -1.6132  0.8135  0.4005
 5258TIP3   OH215779   5.778   0.340   1.867  0.5063 -0.4000  0.6794
 5258TIP3    H115780   5.688   0.372   1.865  1.3558  2.4257  1.8941
 5258TIP3    H215781   5.809   0.351   1.777 -0.1614 -0.7837  0.3962
 5259TIP3   OH215782   2.235   1.884   1.055 -0.3751  0.3943 -0.4520
 5259TIP3    H115783   2.203   1.912   1.141 -1.3905 -0.0995 -0.6552
 5259TIP3    H215784   2.216   1.790   1.052  1.7549 -0.0930 -0.3094
 5260TIP3   OH215785   1.097   1.709   3.576 -0.3619 -0.1197  0.2300
 5260TIP3    H115786   1.085   1.707   3.671  1.5292 -2.3023  0.5150
 5260TIP3    H215787   1.192   1.702   3.564 -0.3440  2.3205 -1.8474
 5261TIP3   OH215788   4.961   0.349   1.039 -0.4580  0.2301  0.3750
 5261TIP3    H115789   4.998   0.426   1.082  0.1363  0.9689 -1.3273
 5261TIP3    H215790   4.888   0.384   0.987  1.1162  0.1302 -2.1105
 5262TIP3   OH215791   3.832   4.580   2.139 -0.1457 -0.6413 -0.1901
 5262TIP3    H115792   3.923   4.592   2.167  1.2069 -1.3277 -3.6591
 5262TIP3    H215793   3.819   4.646   2.071 -1.4642 -1.9415 -1.2704
 5263TIP3   OH215794   3.377   3.853   1.404  0.4862  0.0158 -0.4538
 5263TIP3    H115795   3.286   3.883   1.405  0.7833  0.9763 -0.7530
 5263TIP3    H215796   3.417   3.901   1.332  0.9737 -1.2172 -1.0308
 5264TIP3   OH215797   6.073   0.499   1.167  0.0017  0.2092  0.3318
 5264TIP3    H115798   6.146   0.452   1.128 -0.6494  0.6552 -1.5411
 5264TIP3    H215799   6.009   0.431   1.189  0.4339 -0.0591  0.7886
 5265TIP3   OH215800   5.118   5.654   4.377 -0.2614  0.0151  0.0381
 5265TIP3    H115801   5.031   5.618   4.392 -0.5211  1.1444  1.4825
 5265TIP3    H215802   5.116   5.684   4.286 -1.7139  0.8468  0.3160
 5266TIP3   OH215803   0.905   0.388   0.787  0.1497 -0.4305  0.1307
 5266TIP3    H115804   0.856   0.457   0.741  0.5549 -0.5339 -0.4599
 5266TIP3    H215805   0.885   0.308   0.738 -1.0086 -0.9110  1.3135
 5267TIP3   OH215806   2.065   2.674   1.800  0.0384 -0.4739 -0.2319
 5267TIP3    H115807   1.983   2.626   1.788 -0.2512 -0.2800  0.8429
 5267TIP3    H215808   2.087   2.708   1.713 -2.4013  1.7160 -0.0993
 5268TIP3   OH215809   2.479   5.042   2.896  0.0318 -0.6789 -0.3350
 5268TIP3    H115810   2.459   4.950   2.913  2.8230 -1.3355 -0.0294
 5268TIP3    H215811   2.517   5.074   2.979 -0.3765  0.6008 -0.6116
 5269TIP3   OH215812   4.231   5.835   0.492  0.1359 -0.7269 -0.6626
 5269TIP3    H115813   4.249   5.903   0.427 -1.0499  0.8428  0.5515
 5269TIP3    H215814   4.137   5.841   0.507  0.5854  0.3892  2.5777
 5270TIP3   OH215815   5.874   5.079   3.959  0.2337 -0.0652 -0.0863
 5270TIP3    H115816   5.782   5.071   3.982 -0.1594  0.9590 -1.1579
 5270TIP3    H215817   5.873   5.131   3.878  1.6489 -1.4706 -1.0452
 5271TIP3   OH215818   0.561   5.941   4.750 -0.1269  0.3354  0.2245
 5271TIP3    H115819   0.556   6.018   4.694 -0.4879  0.5646  0.5673
 5271TIP3    H215820   0.598   5.873   4.694 -2.1525  0.0500 -0.8624
 5272TIP3   OH215821   1.138   5.290   1.992  0.0914  0.1110 -0.3401
 5272TIP3    H115822   1.231   5.302   2.011  0.9301 -0.8043 -3.2906
 5272TIP3    H215823   1.130   5.198   1.966 -2.0531 -0.3403  1.5382
 5273TIP3   OH215824   3.672   0.309   2.294  0.0950  0.2477 -0.1539
 5273TIP3    H115825   3.667   0.393   2.338 -0.3060  0.3318 -0.3550
 5273TIP3    H215826   3.616   0.251   2.345  0.2290  0.1474 -0.1180
 5274TIP3   OH215827   3.970   1.648   1.125  0.4402  0.5684 -0.0154
 5274TIP3    H115828   3.889   1.616   1.166  0.7757  1.3040  1.2744
 5274TIP3    H215829   3.959   1.629   1.032 -0.8351 -0.1466  0.2580
 5275TIP3   OH215830   3.311   4.124   0.075 -0.0670 -0.6959 -0.2486
 5275TIP3    H115831   3.230   4.157   0.036 -0.4115 -1.1954  0.0488
 5275TIP3    H215832   3.318   4.034   0.045  0.1301 -0.8065  0.1230
 5276TIP3   OH215833   0.678   5.663   1.746  0.9369 -0.0780  0.1227
 5276TIP3    H115834   0.706   5.751   1.773 -1.0323  0.5435  0.3140
 5276TIP3    H215835   0.644   5.623   1.827  2.6720 -1.4084  0.2415
 5277TIP3   OH215836   0.692   5.435   2.563  0.2520 -0.1541  0.0752
 5277TIP3    H115837   0.751   5.389   2.622 -1.8133 -0.4749  2.0481
 5277TIP3    H215838   0.745   5.504   2.523  1.9883 -0.6280  1.4856
 5278TIP3   OH215839   3.129   1.837   4.103 -0.2185 -0.1103  0.0536
 5278TIP3    H115840   3.224   1.849   4.099 -0.2507 -0.0165 -0.5012
 5278TIP3    H215841   3.093   1.924   4.086 -0.4050 -0.1324  0.3306
 5279TIP3   OH215842   0.682   1.593   2.209  0.5183  0.3945 -0.0107
 5279TIP3    H115843   0.596   1.572   2.173 -0.3897  1.5447  1.3345
 5279TIP3    H215844   0.670   1.587   2.304  2.5599 -1.6534  0.1979
 5280TIP3   OH215845   5.833   2.760   3.684  0.0586  0.4722  0.2230
 5280TIP3    H115846   5.893   2.737   3.755 -1.1155  0.3901  1.2312
 5280TIP3    H215847   5.800   2.675   3.653 -1.8902  0.5736  1.8207
 5281TIP3   OH215848   5.007   2.409   0.930 -0.1305 -0.4563  0.8430
 5281TIP3    H115849   4.974   2.496   0.950 -0.3813 -1.0305  3.1763
 5281TIP3    H215850   4.945   2.374   0.866  0.8818  1.6051 -1.4370
 5282TIP3   OH215851   0.036   1.325   3.435  0.5237 -0.7977  0.2591
 5282TIP3    H115852   0.057   1.249   3.490  1.9795 -0.2460  0.5033
 5282TIP3    H215853  -0.004   1.287   3.356  0.5631 -1.7608  0.6876
 5283TIP3   OH215854   1.619   1.739   1.601  0.6109  0.0836 -0.3031
 5283TIP3    H115855   1.582   1.662   1.558 -0.8367  0.8484 -0.4986
 5283TIP3    H215856   1.551   1.807   1.591  0.6286  0.5770  2.3333
 5284TIP3   OH215857   4.493   4.097   3.903 -0.2802  0.8526  0.0168
 5284TIP3    H115858   4.581   4.063   3.920  1.1012  2.8426 -2.5351
 5284TIP3    H215859   4.459   4.118   3.991  2.1832  0.9229  1.0469
 5285TIP3   OH215860   3.552   1.533   4.339  0.0714 -0.3402  0.3294
 5285TIP3    H115861   3.634   1.581   4.324 -0.6331 -0.1356 -4.2460
 5285TIP3    H215862   3.496   1.597   4.383  0.7158  1.4735 -1.3027
 5286TIP3   OH215863   0.845   5.736   0.065 -0.2071  0.3149  0.6328
 5286TIP3    H115864   0.869   5.710   0.154 -0.9627  2.9943  1.7102
 5286TIP3    H215865   0.928   5.739   0.018  0.6681  1.8630  2.1474
 5287TIP3   OH215866   2.615   1.980   3.754 -0.0554  0.0362 -0.1360
 5287TIP3    H115867   2.672   1.919   3.801  1.1856  0.6411 -0.8224
 5287TIP3    H215868   2.622   1.954   3.662 -0.9075  0.1090 -0.2247
 5288TIP3   OH215869   5.203   3.716   4.027 -0.6625  0.2289  0.2207
 5288TIP3    H115870   5.165   3.800   4.052  1.1565  1.3291 -0.4766
 5288TIP3    H215871   5.298   3.729   4.036 -0.2515 -1.2177 -1.4683
 5289TIP3   OH215872   4.443   5.127   5.111 -0.1392 -0.1231  0.5170
 5289TIP3    H115873   4.454   5.032   5.122  0.4610 -0.2434 -0.9946
 5289TIP3    H215874   4.532   5.160   5.103 -0.4119  0.3714 -0.5003
 5290TIP3   OH215875   1.824   3.537   4.643  0.2154  0.0544 -0.2404
 5290TIP3    H115876   1.793   3.448   4.656  1.0519  0.0312  2.2257
 5290TIP3    H215877   1.750   3.592   4.668 -0.3127  0.0997 -1.7958
 5291TIP3   OH215878   0.218   2.016   3.673  0.0810 -0.1947 -0.2906
 5291TIP3    H115879   0.247   2.098   3.713 -0.8936 -0.3323  0.7248
 5291TIP3    H215880   0.280   2.002   3.601  0.8219  0.9445  0.0955
 5292TIP3   OH215881   5.603   4.751   1.841 -0.1820  0.5992  0.0763
 5292TIP3    H115882   5.574   4.746   1.750  1.0479  0.5517 -0.3350
 5292TIP3    H215883   5.542   4.813   1.882 -1.9111 -0.7826 -0.2774
 5293TIP3   OH215884   4.006   5.708   2.915 -0.6478  0.0081 -0.6398
 5293TIP3    H115885   3.927   5.748   2.952 -0.3516 -1.3080  1.6011
 5293TIP3    H215886   4.040   5.774   2.855 -1.5019  2.1117  1.0342
 5294TIP3   OH215887   6.302   5.211   0.370 -0.9011 -0.3413  0.3973
 5294TIP3    H115888   6.353   5.169   0.440 -1.4744 -0.2436  0.8850
 5294TIP3    H215889   6.346   5.294   0.355 -0.4438 -0.6099  0.2479
 5295TIP3   OH215890   5.158   0.991   2.332 -0.0579 -0.3315 -0.1890
 5295TIP3    H115891   5.092   0.990   2.401  0.6201 -0.6268  0.4792
 5295TIP3    H215892   5.114   1.030   2.256 -1.4451 -1.8527 -0.2257
 5296TIP3   OH215893   4.169   2.306   0.420 -0.1124  0.1926 -0.3277
 5296TIP3    H115894   4.109   2.231   0.413  2.0855 -1.6819 -0.2486
 5296TIP3    H215895   4.156   2.339   0.509 -2.5117  1.2344 -0.9921
 5297TIP3   OH215896   1.064   0.862   1.688 -0.3529  0.4407 -0.0983
 5297TIP3    H115897   0.990   0.809   1.657  1.4318 -0.6618 -2.8277
 5297TIP3    H215898   1.098   0.813   1.764 -1.8740  0.5449  0.6912
 5298TIP3   OH215899   1.730   2.333   2.271  0.3428  0.0272 -0.0851
 5298TIP3    H115900   1.695   2.345   2.359  3.1878 -1.8346  1.4639
 5298TIP3    H215901   1.782   2.412   2.255  0.1666  0.1739  0.0644
 5299TIP3   OH215902   0.147   5.863   0.373 -0.5947  0.3657 -0.0168
 5299TIP3    H115903   0.179   5.945   0.337 -1.9159  0.8588 -0.1118
 5299TIP3    H215904   0.131   5.808   0.296 -1.6982  0.7788 -0.1000
 5300TIP3   OH215905   3.781   1.625   3.729 -0.0003  0.2823  0.0027
 5300TIP3    H115906   3.857   1.625   3.670 -1.7057 -1.7231 -2.4158
 5300TIP3    H215907   3.707   1.645   3.671 -1.4168  1.9941  2.2411
 5301TIP3   OH215908   0.556   1.344   2.237 -0.5958 -0.3206 -0.3544
 5301TIP3    H115909   0.601   1.326   2.155  1.1090  0.9829  0.2356
 5301TIP3    H215910   0.502   1.421   2.220 -0.2851 -0.0841 -0.2784
 5302TIP3   OH215911   4.262   4.775   4.712 -0.1433  0.0878 -0.1909
 5302TIP3    H115912   4.339   4.824   4.743  0.6505 -0.5256 -1.1347
 5302TIP3    H215913   4.193   4.797   4.775  0.7765  0.7183  0.6348
 5303TIP3   OH215914   0.539   0.497   0.576  0.1436 -0.7105 -0.1219
 5303TIP3    H115915   0.468   0.499   0.512  0.2376  1.1958 -0.2204
 5303TIP3    H215916   0.564   0.405   0.581 -0.6235 -1.0690 -1.9797
 5304TIP3   OH215917   2.627   3.445   4.913 -0.1889 -0.1954  1.0347
 5304TIP3    H115918   2.640   3.453   5.008 -2.3354  1.4423  1.2658
 5304TIP3    H215919   2.595   3.356   4.901  0.0173 -0.3926  1.8547
 5305TIP3   OH215920   4.582   2.080   1.141 -0.0608  0.2762  0.2220
 5305TIP3    H115921   4.533   2.016   1.192 -0.5793  0.3894 -0.1301
 5305TIP3    H215922   4.630   2.028   1.076 -2.5945  0.3776 -1.8781
 5306TIP3   OH215923   4.408   0.455   4.904 -0.1034  0.0738 -0.1455
 5306TIP3    H115924   4.404   0.383   4.968 -1.0757  0.6277  0.4380
 5306TIP3    H215925   4.426   0.532   4.957  0.7009  0.3144 -0.7476
 5307TIP3   OH215926   5.478   4.041   0.718 -0.1227  0.0160 -0.3661
 5307TIP3    H115927   5.467   3.994   0.636 -0.1296 -0.6333 -0.0008
 5307TIP3    H215928   5.430   4.123   0.706 -0.8241 -0.4395 -0.7081
 5308TIP3   OH215929   3.868   2.052   4.745 -0.3748 -0.2261 -0.3549
 5308TIP3    H115930   3.873   2.057   4.650 -0.8565 -1.3167 -0.4532
 5308TIP3    H215931   3.951   2.088   4.776  0.2045 -0.7885 -1.2233
 5309TIP3   OH215932   1.055   4.928   0.906  0.7681  0.2225  0.5090
 5309TIP3    H115933   0.965   4.948   0.882  1.0164  2.4292  1.2312
 5309TIP3    H215934   1.105   4.941   0.825  0.4765 -1.0979  0.0838
 5310TIP3   OH215935   1.838   2.023   2.803  0.1062  0.3271  0.2389
 5310TIP3    H115936   1.868   2.079   2.875  1.6372  2.6740 -2.0385
 5310TIP3    H215937   1.919   2.000   2.756 -0.7001 -2.3091 -0.0405
 5311TIP3   OH215938   2.147   4.570   1.727  0.1787  0.0549 -0.2328
 5311TIP3    H115939   2.089   4.533   1.661  0.2606 -2.9935  1.2229
 5311TIP3    H215940   2.095   4.571   1.807  0.9801  0.9432  0.3072
 5312TIP3   OH215941   4.889   1.341   0.302 -0.6187  0.3480 -0.4817
 5312TIP3    H115942   4.923   1.422   0.266 -2.4939  1.8778  0.9563
 5312TIP3    H215943   4.944   1.272   0.265  0.4007  2.1743 -2.5332
 5313TIP3   OH215944   0.862   1.170   3.369 -0.1550  0.1972 -0.1346
 5313TIP3    H115945   0.776   1.206   3.389  0.1263  0.0324  1.5122
 5313TIP3    H215946   0.904   1.159   3.454  1.4784  0.2231 -0.8930
 5314TIP3   OH215947   2.256   2.533  -0.022  0.5531  0.4391  0.3536
 5314TIP3    H115948   2.324   2.581   0.027  3.8181 -3.5172  0.1978
 5314TIP3    H215949   2.250   2.448   0.022  0.2325 -1.6021 -3.2657
 5315TIP3   OH215950   5.302   5.932   3.234  0.3403  1.1270  0.3641
 5315TIP3    H115951   5.389   5.903   3.206 -0.6853 -0.3678 -1.3996
 5315TIP3    H215952   5.249   5.853   3.239 -1.3873  2.1769 -0.2646
 5316TIP3   OH215953   0.570   0.761   3.431  0.0179  0.0407 -0.0685
 5316TIP3    H115954   0.599   0.848   3.458 -0.4056 -0.0704  0.7886
 5316TIP3    H215955   0.584   0.759   3.337 -0.4471  1.2324 -0.1785
 5317TIP3   OH215956   5.134   5.332   3.544  0.3320  0.4859 -0.6437
 5317TIP3    H115957   5.166   5.393   3.478  1.1012 -0.1113 -0.8390
 5317TIP3    H215958   5.213   5.297   3.585 -0.1212  0.5371  0.3147
 5318TIP3   OH215959   3.860   4.657   1.430  0.4678  0.2496  0.1478
 5318TIP3    H115960   3.919   4.587   1.458  0.7939  0.7562  0.7313
 5318TIP3    H215961   3.903   4.696   1.354  1.3029  1.1456  1.0531
 5319TIP3   OH215962   2.598   0.800   2.278 -0.0270 -0.3661 -0.3627
 5319TIP3    H115963   2.641   0.877   2.243  0.6725 -1.0298 -1.0056
 5319TIP3    H215964   2.520   0.789   2.224 -0.8883  0.6638  0.6136
 5320TIP3   OH215965   1.263   3.495   1.072  0.7886  0.1871 -0.2440
 5320TIP3    H115966   1.209   3.416   1.076 -0.5777  0.8766 -2.8731
 5320TIP3    H215967   1.333   3.479   1.136 -0.0542 -2.6403  0.1231
 5321TIP3   OH215968   0.299   0.185   0.372  0.0834 -0.0722 -0.1346
 5321TIP3    H115969   0.328   0.175   0.462  1.3313  1.7036 -0.2835
 5321TIP3    H215970   0.328   0.104   0.328 -0.0239 -0.6908  0.9072
 5322TIP3   OH215971   3.030   5.654   2.862 -0.3492  0.8959  0.0147
 5322TIP3    H115972   3.088   5.684   2.933  0.4031  1.5233 -0.8327
 5322TIP3    H215973   2.965   5.724   2.854 -1.3024  0.1536  1.0189
 5323TIP3   OH215974   0.017   1.004   1.043 -0.0070  0.4416 -0.5322
 5323TIP3    H115975  -0.031   1.081   1.012  0.8771  0.9971 -0.5302
 5323TIP3    H215976   0.105   1.013   1.007  1.0746  1.0815  2.0096
 5324TIP3   OH215977   0.129   4.266   0.616  0.1094  0.4645 -0.7745
 5324TIP3    H115978   0.112   4.224   0.700  0.6701 -1.3969 -1.5355
 5324TIP3    H215979   0.169   4.350   0.638  0.6759 -0.1901  0.8028
 5325TIP3   OH215980   6.227   0.826   0.162  0.2490  0.5644  0.0780
 5325TIP3    H115981   6.273   0.861   0.086  0.1838 -2.3690 -1.4487
 5325TIP3    H215982   6.270   0.743   0.180 -0.6911  0.5129  2.3616
 5326TIP3   OH215983   4.946   2.157   4.284 -0.0752  0.4180  0.4274
 5326TIP3    H115984   4.852   2.149   4.270 -0.2953 -2.9681  2.5821
 5326TIP3    H215985   4.954   2.194   4.372  0.6611  1.2747  0.0126
 5327TIP3   OH215986   1.930   1.851   3.568  0.5519  0.0204 -0.1870
 5327TIP3    H115987   1.969   1.766   3.588 -2.2516 -1.2648  0.2923
 5327TIP3    H215988   1.912   1.847   3.474 -1.3558 -0.8106  0.1608
 5328TIP3   OH215989   4.445   2.877   1.471 -0.4579  0.0781  0.4556
 5328TIP3    H115990   4.394   2.956   1.483 -0.1259  0.3187  0.3011
 5328TIP3    H215991   4.481   2.884   1.383 -0.0527 -0.0239  0.6093
 5329TIP3   OH215992   3.387   0.187   0.425 -0.0066 -0.2194 -0.3412
 5329TIP3    H115993   3.324   0.121   0.454 -0.1196 -0.9354 -2.0925
 5329TIP3    H215994   3.473   0.148   0.441 -0.0692 -0.5534 -0.7803
 5330TIP3   OH215995   1.843   1.777   2.993  0.4549  0.1513 -0.4022
 5330TIP3    H115996   1.843   1.849   2.930 -0.7158  0.7256  0.2323
 5330TIP3    H215997   1.932   1.775   3.027  0.6704  0.8751 -0.8974
 5331TIP3   OH215998   2.403   3.115   3.931  0.1418  0.0242 -0.0357
 5331TIP3    H115999   2.466   3.054   3.892 -0.0651  0.3509 -0.8812
 5331TIP3    H216000   2.377   3.072   4.013 -1.0446 -1.7254 -1.2535
 5332TIP3   OH216001   0.184   0.251   2.279 -0.6449  0.1778  0.3753
 5332TIP3    H116002   0.100   0.294   2.260 -0.1895  0.4931 -1.0501
 5332TIP3    H216003   0.159   0.164   2.309 -1.4986 -0.0124 -0.7645
 5333TIP3   OH216004   0.546   4.756   0.658 -0.0760  0.0274 -0.4315
 5333TIP3    H116005   0.520   4.774   0.567  0.5955 -0.7165 -0.7756
 5333TIP3    H216006   0.639   4.734   0.652 -0.0138  0.0467  0.4552
 5334TIP3   OH216007   3.769   4.697   3.992 -0.1258  0.3308  0.1216
 5334TIP3    H116008   3.761   4.696   3.897  0.6999 -3.4456 -0.0598
 5334TIP3    H216009   3.691   4.652   4.024 -0.3234  1.4190  1.2756
 5335TIP3   OH216010   2.746   3.383   5.163 -0.1479  0.2908 -0.3621
 5335TIP3    H116011   2.838   3.408   5.169 -0.0568 -0.1647  0.1313
 5335TIP3    H216012   2.747   3.290   5.143 -0.5055  0.2363 -0.1301
 5336TIP3   OH216013   3.587   5.775   2.661 -0.4559 -0.0688 -0.0900
 5336TIP3    H116014   3.494   5.796   2.669 -0.5870 -0.1504 -1.1623
 5336TIP3    H216015   3.632   5.855   2.688 -0.7287 -0.7881  2.8181
 5337TIP3   OH216016   0.443   4.140   4.629  0.1014 -0.1070  0.0721
 5337TIP3    H116017   0.447   4.194   4.550  1.1292 -1.7078 -1.0421
 5337TIP3    H216018   0.404   4.058   4.600 -2.2761  0.2642  1.9107
 5338TIP3   OH216019   0.467   1.311   0.431  0.2883  0.0169 -0.0516
 5338TIP3    H116020   0.431   1.239   0.483 -0.8082  1.2293  0.9447
 5338TIP3    H216021   0.522   1.359   0.493 -1.6857  1.9686  0.3150
 5339TIP3   OH216022   0.876   1.951   4.866 -0.0285  0.0378 -0.6402
 5339TIP3    H116023   0.933   2.025   4.844  0.6956 -0.6074 -0.9947
 5339TIP3    H216024   0.901   1.883   4.804 -1.5322 -0.1135 -1.1069
 5340TIP3   OH216025   5.895   1.278   4.256  0.4996 -0.6742  0.2252
 5340TIP3    H116026   5.830   1.346   4.240  1.0832 -0.1489  0.0597
 5340TIP3    H216027   5.847   1.211   4.304  0.5154  1.0236  2.8290
 5341TIP3   OH216028   0.946   1.390   2.658 -0.6279  0.4052  0.3213
 5341TIP3    H116029   0.925   1.353   2.744 -2.7073  2.4401  0.7767
 5341TIP3    H216030   0.864   1.385   2.609  0.4466 -0.4498 -1.5073
 5342TIP3   OH216031   0.977   3.682   4.504  0.7257 -0.3830 -0.1469
 5342TIP3    H116032   1.067   3.679   4.538 -0.0206 -1.4629  1.9227
 5342TIP3    H216033   0.987   3.687   4.409  2.9637 -0.9493  0.0050
 5343TIP3   OH216034   1.986   5.268   0.237  0.4243  0.1263 -0.2884
 5343TIP3    H116035   1.960   5.322   0.312  0.3330  0.6332 -0.6845
 5343TIP3    H216036   1.984   5.327   0.162  0.8913 -0.2828 -0.6355
 5344TIP3   OH216037   0.776   1.875   1.772  0.1355 -0.0947  0.3403
 5344TIP3    H116038   0.756   1.861   1.680  0.0969  0.8668  0.1927
 5344TIP3    H216039   0.726   1.953   1.796 -0.3964 -0.7330  1.3622
 5345TIP3   OH216040   5.642   1.595   3.026 -0.2660 -0.2918  0.2392
 5345TIP3    H116041   5.598   1.537   2.964  0.6603  0.7683 -1.4974
 5345TIP3    H216042   5.701   1.538   3.075  1.0566 -0.7944 -1.8255
 5346TIP3   OH216043   0.902   4.428   4.464 -0.1140 -0.0715 -0.2634
 5346TIP3    H116044   0.850   4.445   4.386 -0.4297  0.5535  0.0753
 5346TIP3    H216045   0.937   4.514   4.488  2.6248 -0.7111 -1.5487
 5347TIP3   OH216046   4.320   3.632   0.483  0.3208  0.1379 -0.5853
 5347TIP3    H116047   4.411   3.656   0.469  0.7886 -1.2556 -0.0868
 5347TIP3    H216048   4.278   3.644   0.398  1.2462 -0.3260 -1.1234
 5348TIP3   OH216049   3.681   1.752   3.265  0.4915  0.5610 -0.8396
 5348TIP3    H116050   3.635   1.828   3.300  2.8085  0.8880  1.8576
 5348TIP3    H216051   3.709   1.779   3.178 -0.8074  1.8462 -0.9014
 5349TIP3   OH216052   0.861   5.731   2.032  0.0267  0.1411  0.1470
 5349TIP3    H116053   0.918   5.804   2.008 -0.5547  0.8213  0.7781
 5349TIP3    H216054   0.772   5.766   2.022 -0.2534 -0.3168  0.9440
 5350TIP3   OH216055   2.859   3.090   3.846  0.9054  0.3725  0.6757
 5350TIP3    H116056   2.897   3.064   3.930  0.0509  0.2770  1.0383
 5350TIP3    H216057   2.820   3.176   3.863  0.0342  0.0039  0.5953
 5351TIP3   OH216058   2.844   0.652   2.676  0.3863 -0.2200 -0.1944
 5351TIP3    H116059   2.904   0.619   2.609  2.0197 -0.5355  1.3511
 5351TIP3    H216060   2.774   0.695   2.626  2.3884  1.0643 -2.0591
 5352TIP3   OH216061   0.572   4.499   3.046 -0.2120  0.0497 -0.6062
 5352TIP3    H116062   0.652   4.477   2.998 -1.1747  0.0633 -2.3017
 5352TIP3    H216063   0.539   4.415   3.077  0.2525  0.0021 -0.2380
 5353TIP3   OH216064   4.729   5.901   0.709  0.3075  0.5102  0.3923
 5353TIP3    H116065   4.693   5.848   0.780  0.3401 -1.7678 -1.1534
 5353TIP3    H216066   4.814   5.862   0.690 -0.0719  0.4511 -1.4243
 5354TIP3   OH216067   1.983   0.532   4.385 -0.3570 -0.0245  0.3082
 5354TIP3    H116068   1.998   0.589   4.309  0.2551  0.3850  0.7269
 5354TIP3    H216069   1.888   0.529   4.394 -0.5082 -1.1974 -1.3097
 5355TIP3   OH216070   2.258   4.108   2.191  0.0901  0.2386  0.0416
 5355TIP3    H116071   2.285   4.117   2.100 -0.0775 -2.3912 -0.3436
 5355TIP3    H216072   2.340   4.099   2.240  0.1597  1.1856  0.1254
 5356TIP3   OH216073   0.014   1.755   4.349  0.3679 -0.2349  0.3277
 5356TIP3    H116074   0.079   1.787   4.412  2.5295 -0.4968 -1.6046
 5356TIP3    H216075  -0.034   1.687   4.395  1.1071  0.3414  2.0123
 5357TIP3   OH216076   3.782   4.741   4.276  0.3427  0.3433  0.3206
 5357TIP3    H116077   3.875   4.757   4.289  0.3918 -0.2603  0.7730
 5357TIP3    H216078   3.769   4.747   4.181  1.4658 -2.6236 -0.1278
 5358TIP3   OH216079   3.303   5.185   3.072  0.3109 -0.2280 -0.3298
 5358TIP3    H116080   3.351   5.208   2.993  0.3298 -1.2999 -0.6362
 5358TIP3    H216081   3.351   5.229   3.142  2.4372 -2.1442 -0.4768
 5359TIP3   OH216082   1.927   5.823   2.397 -0.1766  0.4737 -0.6343
 5359TIP3    H116083   1.913   5.917   2.383 -0.4964  0.7503  1.3255
 5359TIP3    H216084   1.867   5.781   2.335 -0.8556  1.5688 -0.7537
 5360TIP3   OH216085   0.875   1.297   1.788 -0.2037  0.0613  0.5010
 5360TIP3    H116086   0.950   1.277   1.732 -1.0688  0.0023 -0.6787
 5360TIP3    H216087   0.799   1.287   1.731 -0.9744  2.5516  0.9625
 5361TIP3   OH216088   4.868   4.756   4.746 -0.1908  0.0415 -0.4025
 5361TIP3    H116089   4.804   4.702   4.792  0.3778  0.2611  0.6845
 5361TIP3    H216090   4.953   4.719   4.770  0.1324  0.3501 -1.0437
 5362TIP3   OH216091   1.285   0.207   4.088 -0.4454 -0.2510 -0.2633
 5362TIP3    H116092   1.289   0.288   4.038  0.4717 -0.7845 -1.1056
 5362TIP3    H216093   1.212   0.158   4.049  0.0936 -0.5481 -0.9259
 5363TIP3   OH216094   5.072   5.680   1.684  0.3100 -0.3005  0.0366
 5363TIP3    H116095   5.018   5.759   1.682  1.3466  0.4327  0.1471
 5363TIP3    H216096   5.015   5.613   1.723 -0.0811  0.7830  1.4207
 5364TIP3   OH216097   2.646   5.590   1.856  0.3335  0.3602  0.1921
 5364TIP3    H116098   2.576   5.647   1.823  0.4229 -0.5087 -1.6238
 5364TIP3    H216099   2.600   5.510   1.883  0.3367  0.8315  1.6556
 5365TIP3   OH216100   2.811   0.237   4.441 -0.4316 -0.0448 -0.2551
 5365TIP3    H116101   2.755   0.181   4.495  0.2938 -1.8645 -1.2780
 5365TIP3    H216102   2.811   0.322   4.485 -2.8564 -0.3768  0.5258
 5366TIP3   OH216103   5.447   5.894   3.708 -0.3548  0.3258 -0.3236
 5366TIP3    H116104   5.434   5.807   3.746  2.1201  0.0521  0.0669
 5366TIP3    H216105   5.519   5.882   3.647  0.8692  2.3252  0.6348
 5367TIP3   OH216106   4.401   0.760   0.631  0.0821  0.0977 -0.1033
 5367TIP3    H116107   4.358   0.806   0.559 -1.0146  1.1344  1.1471
 5367TIP3    H216108   4.448   0.829   0.679 -0.5989 -0.2645  1.1220
 5368TIP3   OH216109   5.265   1.026   2.886  0.0749 -0.1727 -0.1719
 5368TIP3    H116110   5.300   1.000   2.971  1.8350  0.9987 -0.4844
 5368TIP3    H216111   5.316   0.976   2.823 -0.1952  0.0677 -0.5859
 5369TIP3   OH216112   4.269   1.983   4.087 -0.1157  0.4806  0.6802
 5369TIP3    H116113   4.351   1.950   4.050 -1.7673 -1.7262 -1.3374
 5369TIP3    H216114   4.262   2.072   4.051  0.4722 -0.0269 -0.8003
 5370TIP3   OH216115   1.927   3.719   0.774  0.2326  0.3107 -0.0973
 5370TIP3    H116116   1.835   3.691   0.770 -0.1542  1.5956 -2.6471
 5370TIP3    H216117   1.924   3.814   0.762  1.8891  0.4187  0.0841
 5371TIP3   OH216118   2.375   0.809   2.764 -0.0752 -0.0296  0.0513
 5371TIP3    H116119   2.434   0.836   2.694 -0.5611 -0.3511 -0.4847
 5371TIP3    H216120   2.378   0.714   2.763 -1.8979 -0.1110 -1.1255
 5372TIP3   OH216121   1.857   2.997   3.150 -0.0012  0.1919 -0.0757
 5372TIP3    H116122   1.937   3.042   3.176 -0.4267  0.9445 -0.0597
 5372TIP3    H216123   1.840   3.026   3.060 -1.4320  1.7622  0.6423
 5373TIP3   OH216124   2.603   4.129   3.871 -0.3719 -0.0868 -0.1716
 5373TIP3    H116125   2.571   4.047   3.908  1.3996 -0.8585 -0.2560
 5373TIP3    H216126   2.597   4.192   3.942  2.2181 -1.3507  1.3169
 5374TIP3   OH216127   1.926   3.462   2.130  0.3671 -0.2964 -0.1385
 5374TIP3    H116128   2.012   3.458   2.086  0.6547 -2.0966  0.4970
 5374TIP3    H216129   1.869   3.408   2.076  0.1180 -0.6257  0.4481
 5375TIP3   OH216130   1.646   4.214   0.792 -0.1616 -0.2314 -0.3253
 5375TIP3    H116131   1.633   4.299   0.834  0.8110 -1.0342  1.7335
 5375TIP3    H216132   1.669   4.235   0.702  1.1913  1.7563  0.4227
 5376TIP3   OH216133   0.137   3.368   1.318  0.2201  0.0152  0.6172
 5376TIP3    H116134   0.062   3.311   1.333 -0.5451  0.7564 -0.2735
 5376TIP3    H216135   0.100   3.456   1.311  1.3774  0.6644  1.9850
 5377TIP3   OH216136   0.068   3.706   1.118  0.3517  0.2604  0.4679
 5377TIP3    H116137   0.098   3.622   1.084  2.2877  1.1285 -0.1361
 5377TIP3    H216138   0.041   3.688   1.208  3.6153 -0.5312  1.4136
 5378TIP3   OH216139   5.193   2.491   0.136  0.0243  0.2989  0.1332
 5378TIP3    H116140   5.230   2.408   0.165  2.7081  1.3410  0.0027
 5378TIP3    H216141   5.141   2.522   0.211  0.8754 -0.4387  1.0486
 5379TIP3   OH216142   1.608   5.933   4.873 -0.2697 -0.2874 -0.2252
 5379TIP3    H116143   1.684   5.900   4.921 -0.1215 -0.1977 -0.4008
 5379TIP3    H216144   1.631   5.924   4.781 -0.6471 -0.6770 -0.2851
 5380TIP3   OH216145   1.679   2.753   2.332 -0.0270  0.0574  0.0076
 5380TIP3    H116146   1.615   2.695   2.289 -0.9770 -0.2320  1.7106
 5380TIP3    H216147   1.760   2.702   2.334 -0.5542 -0.7876  0.4855
 5381TIP3   OH216148   3.107   0.824   1.582 -0.1004  0.0701 -0.2648
 5381TIP3    H116149   3.115   0.781   1.667  0.8747  1.3594  0.3154
 5381TIP3    H216150   3.012   0.830   1.567 -0.4114  2.0240  1.9199
 5382TIP3   OH216151   0.784   0.904   2.289  0.5473 -0.3951  0.0752
 5382TIP3    H116152   0.862   0.881   2.340  0.9671  0.7062 -0.0525
 5382TIP3    H216153   0.791   0.998   2.276 -1.3668 -0.0742  1.0171
 5383TIP3   OH216154   0.699   0.217   2.743 -0.2187 -0.0285  0.0903
 5383TIP3    H116155   0.645   0.233   2.665 -0.3689  0.6061  0.3202
 5383TIP3    H216156   0.692   0.122   2.757  0.8660 -0.3763 -1.4240
 5384TIP3   OH216157   2.371   2.908   2.663  0.1946 -0.7214  0.1950
 5384TIP3    H116158   2.291   2.907   2.609  1.6209 -1.6553 -2.0286
 5384TIP3    H216159   2.380   2.818   2.694 -0.5083 -0.2361  1.9885
 5385TIP3   OH216160   3.583   1.287   4.666  0.0371  0.0359  0.0930
 5385TIP3    H116161   3.525   1.289   4.590  0.9809 -1.7944 -0.7343
 5385TIP3    H216162   3.671   1.298   4.629  0.3288  2.3094  1.2798
 5386TIP3   OH216163   0.812   1.485   3.866 -0.1473  0.1069  0.5645
 5386TIP3    H116164   0.825   1.409   3.923 -0.3656 -0.0658  0.3875
 5386TIP3    H216165   0.895   1.497   3.822 -0.1073 -0.0242  0.6027
 5387TIP3   OH216166   1.995   5.074   4.099  0.2640 -0.1350 -0.3943
 5387TIP3    H116167   1.987   5.164   4.067  0.4966 -0.0830 -0.2993
 5387TIP3    H216168   1.917   5.061   4.153  0.7863  0.3672  0.4916
 5388TIP3   OH216169   1.024   0.097   4.387  0.0610  0.1246  0.1017
 5388TIP3    H116170   1.104   0.140   4.415 -0.1888  0.5500  0.1741
 5388TIP3    H216171   1.053   0.021   4.337  0.5345  1.3800 -1.6076
 5389TIP3   OH216172   4.832   4.847   0.597 -0.2880 -0.3976  0.5444
 5389TIP3    H116173   4.897   4.777   0.603 -0.3098 -0.4033  0.7092
 5389TIP3    H216174   4.752   4.809   0.632 -0.8864 -1.0078 -1.3744
 5390TIP3   OH216175   4.561   0.756   3.950  0.0249  1.0833  0.3394
 5390TIP3    H116176   4.568   0.819   3.878  1.3452 -0.0612 -0.5813
 5390TIP3    H216177   4.575   0.671   3.909 -1.7557  0.1395  1.5513
 5391TIP3   OH216178   2.774   5.695   3.332  0.1417 -0.0404 -0.0807
 5391TIP3    H116179   2.761   5.604   3.358 -0.8497 -0.5206 -2.0294
 5391TIP3    H216180   2.688   5.736   3.339  0.3286  0.4176 -0.3649
 5392TIP3   OH216181   3.309   4.326   3.841 -0.4663 -0.2900 -0.4222
 5392TIP3    H116182   3.252   4.395   3.806  2.1866  3.7550  2.3169
 5392TIP3    H216183   3.351   4.289   3.764 -1.3009  1.9034 -2.0412
 5393TIP3   OH216184   2.413   0.109   4.783  0.0139  0.0698 -0.1697
 5393TIP3    H116185   2.423   0.021   4.747  0.4383 -0.4637  1.2253
 5393TIP3    H216186   2.457   0.166   4.719 -0.5670 -0.6634 -1.2580
 5394TIP3   OH216187   1.838   5.335   2.336 -0.0139  0.3603  0.0602
 5394TIP3    H116188   1.776   5.262   2.340  0.0944  0.2310 -0.5411
 5394TIP3    H216189   1.829   5.379   2.420  0.4869 -0.8164  0.7574
 5395TIP3   OH216190   4.265   3.220   5.047  0.1513  0.2261 -0.0890
 5395TIP3    H116191   4.339   3.166   5.072 -0.4501  0.1736  1.7662
 5395TIP3    H216192   4.215   3.166   4.986 -0.1535 -1.1513  1.2997
 5396TIP3   OH216193   5.321   5.452   4.520  0.0626  0.6816  0.5199
 5396TIP3    H116194   5.235   5.429   4.486  0.2964 -1.1830  1.0975
 5396TIP3    H216195   5.322   5.548   4.521 -1.6821  0.7317 -0.2581
 5397TIP3   OH216196   1.678   5.321   2.817  0.2506 -0.2269 -0.3360
 5397TIP3    H116197   1.638   5.240   2.848  1.0248 -0.3191  0.4588
 5397TIP3    H216198   1.764   5.323   2.860  0.0691  1.2315 -0.0023
 5398TIP3   OH216199   5.306   1.426   1.498 -0.3920  0.0243 -0.1381
 5398TIP3    H116200   5.329   1.445   1.407  0.0909 -1.0118 -0.2495
 5398TIP3    H216201   5.390   1.425   1.544 -0.5464 -0.3352  0.1399
 5399TIP3   OH216202   4.074   2.131   2.445  0.2503  0.0220  0.3225
 5399TIP3    H116203   4.006   2.168   2.501  0.9182  0.4871  0.8514
 5399TIP3    H216204   4.154   2.176   2.472  1.0498 -1.6033  0.7838
 5400TIP3   OH216205   0.731   1.845   3.677  0.0328  0.2145  0.6225
 5400TIP3    H116206   0.700   1.932   3.701 -1.5034 -0.2436  0.4412
 5400TIP3    H216207   0.750   1.852   3.583  1.0050  0.6288  0.8349
 5401TIP3   OH216208   4.344   0.363   1.098  0.0801  0.2290  0.1784
 5401TIP3    H116209   4.424   0.356   1.046  0.3053  0.5105  0.4828
 5401TIP3    H216210   4.369   0.332   1.185 -0.7556 -2.0269 -0.3192
 5402TIP3   OH216211   4.873   1.582   2.213 -0.5603 -0.2197 -0.2281
 5402TIP3    H116212   4.929   1.656   2.190  2.1651 -1.7576  0.9667
 5402TIP3    H216213   4.862   1.533   2.131 -0.2509  0.1381 -0.4840
 5403TIP3   OH216214   3.074   5.856   1.041  0.3868 -0.4028  0.3061
 5403TIP3    H116215   2.998   5.859   0.983  1.6671 -1.6276 -1.5502
 5403TIP3    H216216   3.048   5.796   1.111 -1.0765  0.8429  0.8861
 5404TIP3   OH216217   4.818   0.518   4.058 -0.0450  0.7022  0.0847
 5404TIP3    H116218   4.864   0.452   4.006 -0.6459  0.6383 -0.3869
 5404TIP3    H216219   4.826   0.598   4.006  0.2029  0.8668  0.3807
 5405TIP3   OH216220   2.222   4.827   3.983  0.6544 -0.4650  0.1358
 5405TIP3    H116221   2.309   4.815   4.020  0.4570  0.0128  0.7735
 5405TIP3    H216222   2.236   4.872   3.900  1.0612 -1.0034 -0.0928
 5406TIP3   OH216223   3.621   4.405   2.061  0.1924 -0.4136  0.5305
 5406TIP3    H116224   3.677   4.460   2.115 -0.9776  1.8047 -0.3855
 5406TIP3    H216225   3.682   4.350   2.012  1.5996  1.6972 -0.2250
 5407TIP3   OH216226   1.051   0.968   0.111  0.5781 -0.1565  0.2929
 5407TIP3    H116227   0.972   1.002   0.070 -1.0200 -1.0114  2.4362
 5407TIP3    H216228   1.122   0.997   0.055 -1.1452  1.7382 -1.0482
 5408TIP3   OH216229   4.133   3.204   4.156 -0.5293 -0.0896 -0.1571
 5408TIP3    H116230   4.142   3.291   4.118  1.7725 -0.4373 -0.5696
 5408TIP3    H216231   4.119   3.146   4.082 -1.4478 -0.1618  0.0612
 5409TIP3   OH216232   3.576   1.696   4.956  0.1850 -0.3684 -0.3088
 5409TIP3    H116233   3.569   1.705   5.051  0.0021 -1.0656 -0.2543
 5409TIP3    H216234   3.613   1.779   4.927 -0.5286  0.1633  0.2832
 5410TIP3   OH216235   0.578   2.550   2.007 -0.3544  0.0019 -0.0636
 5410TIP3    H116236   0.492   2.567   2.046 -0.6807 -0.0644 -0.7369
 5410TIP3    H216237   0.614   2.637   1.991 -0.0280  0.0345  0.7660
 5411TIP3   OH216238   0.147   1.395   4.799  0.4583  0.4831 -0.2811
 5411TIP3    H116239   0.193   1.315   4.825 -0.1252  0.1407 -0.3089
 5411TIP3    H216240   0.159   1.400   4.704 -3.6941 -2.3140 -1.2254
 5412TIP3   OH216241   3.493   2.896   1.642  0.0146 -0.1249  0.1072
 5412TIP3    H116242   3.559   2.829   1.627  0.2205  0.0157  0.3843
 5412TIP3    H216243   3.418   2.867   1.590 -0.4433 -1.3625  1.3767
 5413TIP3   OH216244   3.352   5.822   1.237  0.0857 -0.2781 -0.6991
 5413TIP3    H116245   3.322   5.911   1.220 -1.3621 -0.4893  0.5992
 5413TIP3    H216246   3.404   5.829   1.317  0.5174 -0.5088 -0.9544
 5414TIP3   OH216247   2.788   4.720   3.625  0.3815  0.3004  0.2693
 5414TIP3    H116248   2.874   4.709   3.585  0.4392  1.0290  0.1685
 5414TIP3    H216249   2.806   4.768   3.706 -0.0464  1.6175 -0.3863
 5415TIP3   OH216250   5.261   1.640   4.398 -0.6115 -0.8522 -0.4227
 5415TIP3    H116251   5.301   1.557   4.375 -0.9553 -1.0492 -0.3163
 5415TIP3    H216252   5.167   1.625   4.388 -0.9238 -1.4296  2.5614
 5416TIP3   OH216253   2.669   0.169   0.062  0.4215 -0.2499  0.2239
 5416TIP3    H116254   2.732   0.100   0.085 -0.0356 -1.0809 -0.9083
 5416TIP3    H216255   2.696   0.245   0.113  1.4386 -1.0323  0.8813
 5417TIP3   OH216256   4.676   0.680   0.944 -0.6601 -0.4161 -0.1734
 5417TIP3    H116257   4.768   0.673   0.917 -0.5862  0.2152 -0.0964
 5417TIP3    H216258   4.680   0.695   1.038 -0.7909  0.7606 -0.3390
 5418TIP3   OH216259   4.452   0.581   0.379  0.1918 -0.3309 -0.5460
 5418TIP3    H116260   4.443   0.557   0.286 -0.7953 -0.3823 -0.4471
 5418TIP3    H216261   4.466   0.498   0.424 -1.5906 -0.5948 -0.4000
 5419TIP3   OH216262   5.597   2.714   2.554  0.4425  0.3605  0.0562
 5419TIP3    H116263   5.514   2.699   2.509  0.2039  0.6699  0.3926
 5419TIP3    H216264   5.615   2.632   2.600  0.7555 -0.0103 -0.7002
 5420TIP3   OH216265   5.718   3.883   5.131  0.6925  0.5351  0.5858
 5420TIP3    H116266   5.707   3.977   5.117 -0.0652  0.1707 -1.6736
 5420TIP3    H216267   5.681   3.843   5.052  0.5531 -1.6859  1.7112
 5421TIP3   OH216268   5.835   1.686   3.408  0.3921 -0.2535  0.5059
 5421TIP3    H116269   5.851   1.740   3.486 -1.5682  1.4407 -0.1579
 5421TIP3    H216270   5.904   1.711   3.347 -0.4150  1.5437  0.2544
 5422TIP3   OH216271   2.361   4.431   4.267  0.0031  0.1276  0.8086
 5422TIP3    H116272   2.341   4.341   4.239 -1.3743  0.9086 -0.8933
 5422TIP3    H216273   2.412   4.468   4.195  0.2929  0.8228  1.3574
 5423TIP3   OH216274   4.222   3.296   3.588 -0.1786 -0.3288 -0.0565
 5423TIP3    H116275   4.276   3.288   3.509  0.3780  0.1922  0.2598
 5423TIP3    H216276   4.134   3.272   3.559 -0.2147  0.9703 -1.1193
 5424TIP3   OH216277   6.215   2.246   4.511 -0.2939 -0.0160  0.1488
 5424TIP3    H116278   6.193   2.153   4.512 -0.6287  0.0542  1.5060
 5424TIP3    H216279   6.188   2.277   4.425 -2.8474 -0.5716  0.6887
 5425TIP3   OH216280   1.376   3.892   4.635  0.0393 -0.1347 -0.0260
 5425TIP3    H116281   1.299   3.934   4.675  0.3546  0.8758 -0.4537
 5425TIP3    H216282   1.441   3.891   4.705  0.5922  1.6315 -0.4569
 5426TIP3   OH216283   0.444   2.836   1.511 -0.1375  0.1711 -0.3621
 5426TIP3    H116284   0.458   2.911   1.454 -0.5361 -0.3777 -1.1940
 5426TIP3    H216285   0.422   2.875   1.596  1.9830  1.0040 -0.1446
 5427TIP3   OH216286   3.885   0.243   1.625  0.0059 -0.0726  0.1177
 5427TIP3    H116287   3.805   0.253   1.676 -0.6493 -0.2117 -0.8538
 5427TIP3    H216288   3.883   0.153   1.594  0.9912 -0.3480  0.8030
 5428TIP3   OH216289   2.416   1.004   1.043  0.5824  0.0753 -0.1979
 5428TIP3    H116290   2.397   1.085   1.091  3.1768 -0.4789  2.0072
 5428TIP3    H216291   2.394   0.934   1.104 -0.6688 -0.8993 -1.7046
 5429TIP3   OH216292   0.296   1.611   3.215  0.4451 -0.5487 -0.3483
 5429TIP3    H116293   0.302   1.537   3.276  1.1222 -1.3998 -1.4081
 5429TIP3    H216294   0.260   1.682   3.268  0.9366 -1.2748  1.0283
 5430TIP3   OH216295   3.816   4.287   0.906  0.3123 -0.1683  0.2570
 5430TIP3    H116296   3.841   4.201   0.872 -2.1620 -0.3195 -1.3912
 5430TIP3    H216297   3.861   4.349   0.848  1.1136 -0.3303  0.6846
 5431TIP3   OH216298   0.892   1.241   3.997  0.1697 -0.1791 -0.5826
 5431TIP3    H116299   0.852   1.205   4.076  1.1344 -1.6402 -0.7348
 5431TIP3    H216300   0.923   1.165   3.948  1.8520  0.8040 -1.1471
 5432TIP3   OH216301   3.648   5.611   1.327 -0.1904 -0.8690  0.5947
 5432TIP3    H116302   3.611   5.527   1.299  1.8411 -1.0183 -1.9976
 5432TIP3    H216303   3.731   5.589   1.368 -0.0559 -0.1540  0.7227
 5433TIP3   OH216304   4.713   1.026   0.813 -0.0991  0.0614 -0.2440
 5433TIP3    H116305   4.645   0.992   0.755 -0.1330 -0.8260  0.2928
 5433TIP3    H216306   4.667   1.043   0.895 -0.0406  1.2446 -0.4395
 5434TIP3   OH216307   4.017   1.357   3.276  0.4059 -0.0718 -0.2199
 5434TIP3    H116308   4.037   1.383   3.366  0.2079  1.1373 -0.5012
 5434TIP3    H216309   4.073   1.413   3.222  0.0793 -0.3560 -0.8658
 5435TIP3   OH216310   2.703   5.135   1.915  0.0658  0.3189  0.0371
 5435TIP3    H116311   2.766   5.092   1.857  0.0685  0.0181  0.2605
 5435TIP3    H216312   2.635   5.167   1.856  0.9723  1.6566 -0.3411
 5436TIP3   OH216313   1.654   5.534   4.096 -0.2497  0.0643  0.1700
 5436TIP3    H116314   1.686   5.453   4.135  1.9658  1.5077  1.5731
 5436TIP3    H216315   1.617   5.583   4.170  0.1797  1.1120 -0.2856
 5437TIP3   OH216316   4.061   2.614   0.466  0.5167  0.5292  0.4396
 5437TIP3    H116317   4.072   2.653   0.379 -0.7333 -1.2580 -0.5811
 5437TIP3    H216318   4.150   2.594   0.495  0.9161  0.6282 -0.6804
 5438TIP3   OH216319   2.192   1.391   3.510 -0.1349  0.5511 -0.0731
 5438TIP3    H116320   2.272   1.393   3.456  0.0999 -0.9285  0.1863
 5438TIP3    H216321   2.127   1.347   3.455 -0.4208  0.6429  0.1869
 5439TIP3   OH216322   3.455   1.527   1.322 -0.0431 -0.0511 -0.4615
 5439TIP3    H116323   3.496   1.440   1.330 -2.3628 -1.2593 -0.7078
 5439TIP3    H216324   3.395   1.518   1.248  0.3195  2.0897 -1.0805
 5440TIP3   OH216325   3.749   2.735   3.344  0.2311 -0.4203  0.4391
 5440TIP3    H116326   3.763   2.789   3.267  2.4820 -0.1807  0.9405
 5440TIP3    H216327   3.744   2.645   3.310 -0.5810 -0.1729 -0.1198
 5441TIP3   OH216328   1.016   5.799   5.118 -0.2849 -0.3360 -0.4116
 5441TIP3    H116329   1.064   5.761   5.044  1.3583  0.9672 -0.0834
 5441TIP3    H216330   0.924   5.788   5.095  0.1756 -1.4547 -1.8619
 5442TIP3   OH216331   3.864   0.357   4.671 -0.6363 -0.2149 -0.6458
 5442TIP3    H116332   3.807   0.292   4.713  0.0999 -0.5777 -0.1954
 5442TIP3    H216333   3.850   0.437   4.721 -0.6690 -0.3299 -0.4700
 5443TIP3   OH216334   1.044   4.227   3.502  0.2197 -0.5271  0.1935
 5443TIP3    H116335   0.948   4.231   3.506  0.1903 -1.6210  2.8104
 5443TIP3    H216336   1.072   4.318   3.510 -0.5798 -0.1523 -1.0172
 5444TIP3   OH216337   5.665   2.436   0.337 -0.1944  0.0694 -0.5761
 5444TIP3    H116338   5.665   2.531   0.347 -0.1624 -0.0038  0.1522
 5444TIP3    H216339   5.601   2.419   0.268 -0.5565  0.5863 -0.3684
 5445TIP3   OH216340   4.751   5.954   1.143 -0.4374  0.9887 -0.1607
 5445TIP3    H116341   4.657   5.948   1.157 -0.2554  1.5231  1.5409
 5445TIP3    H216342   4.772   5.882   1.083 -2.0249  1.3861 -1.2464
 5446TIP3   OH216343   5.184   5.143   1.776  0.1348  0.6125 -0.0533
 5446TIP3    H116344   5.199   5.087   1.852  0.7810 -0.2418 -0.7842
 5446TIP3    H216345   5.192   5.232   1.810  1.5185  0.2457  0.6868
 5447TIP3   OH216346   0.406   5.437   0.511  0.2422 -0.4578 -0.1995
 5447TIP3    H116347   0.343   5.444   0.583  0.5046 -0.9664  0.0815
 5447TIP3    H216348   0.490   5.421   0.554  0.7300  1.0258 -0.5089
 5448TIP3   OH216349   0.954   5.084   2.976 -0.0407  0.4426 -0.3314
 5448TIP3    H116350   0.884   5.108   3.038 -0.6546  0.3546 -0.9778
 5448TIP3    H216351   1.022   5.150   2.990 -0.1995  0.4660  0.3864
 5449TIP3   OH216352   0.372   4.794   0.047 -0.0704  0.6047  0.5336
 5449TIP3    H116353   0.426   4.819  -0.028 -0.7988 -0.3192 -0.3194
 5449TIP3    H216354   0.367   4.874   0.101  1.4180  0.9419  0.2041
 5450TIP3   OH216355   5.253   3.602   4.797  0.1780 -0.2116  0.3981
 5450TIP3    H116356   5.275   3.630   4.886  0.6860 -1.1676  0.5808
 5450TIP3    H216357   5.172   3.552   4.807  1.1750 -1.8468  0.6022
 5451TIP3   OH216358   4.635   0.603   0.663  0.3372  0.1146  0.0743
 5451TIP3    H116359   4.697   0.675   0.672  0.3849  0.0336  0.4171
 5451TIP3    H216360   4.549   0.645   0.658  0.3387  0.1853  0.5746
 5452TIP3   OH216361   0.446   3.394   1.679 -0.3542  0.0912 -0.0856
 5452TIP3    H116362   0.473   3.438   1.598  1.1649 -2.2416 -0.9604
 5452TIP3    H216363   0.503   3.317   1.684 -0.9681 -0.2712  2.8162
 5453TIP3   OH216364   2.903   1.640   5.126 -0.0523  0.2904  0.0350
 5453TIP3    H116365   2.870   1.554   5.103  0.4494 -0.0599  0.5824
 5453TIP3    H216366   2.849   1.668   5.200  1.9925 -1.1300  2.2492
 5454TIP3   OH216367   1.781   0.080   4.173  0.0004 -0.0197 -0.9221
 5454TIP3    H116368   1.760   0.009   4.233  1.1597  0.2022 -0.2329
 5454TIP3    H216369   1.797   0.038   4.089 -2.1635 -0.2898 -1.2719
 5455TIP3   OH216370   0.444   3.500   4.516 -0.3881 -0.3617  0.4282
 5455TIP3    H116371   0.480   3.462   4.595 -0.1786  0.8855  0.9527
 5455TIP3    H216372   0.385   3.569   4.547 -1.4727 -0.8527 -0.4667
 5456TIP3   OH216373   5.064   4.686   0.711  0.9626  0.4940 -0.1404
 5456TIP3    H116374   4.995   4.620   0.697  1.8586 -0.5991  0.4704
 5456TIP3    H216375   5.063   4.703   0.805  1.6090  0.3817 -0.1104
 5457TIP3   OH216376   3.368   3.672   0.681  0.1484 -0.1587 -0.1754
 5457TIP3    H116377   3.347   3.765   0.672  1.2805  0.3195  1.7263
 5457TIP3    H216378   3.365   3.639   0.591  1.4800  2.1088 -1.1421
 5458TIP3   OH216379   1.129   2.804   4.388 -0.3765  0.0035 -0.0229
 5458TIP3    H116380   1.139   2.883   4.442  0.5351 -0.4783  0.5311
 5458TIP3    H216381   1.215   2.763   4.389  0.0815  0.6936 -3.0311
 5459TIP3   OH216382   1.586   2.255   0.294  0.3077  0.2555  0.3342
 5459TIP3    H116383   1.674   2.277   0.265 -0.1680  0.3158 -1.1112
 5459TIP3    H216384   1.599   2.217   0.381  1.8233 -0.3385 -0.1146
 5460TIP3   OH216385   3.474   1.942   1.938 -0.4029 -0.3503 -0.0448
 5460TIP3    H116386   3.442   1.855   1.960 -1.2542  0.0073  0.1839
 5460TIP3    H216387   3.435   1.961   1.853  0.0567 -0.3289 -0.2517
 5461TIP3   OH216388   4.057   4.374   3.035 -0.5297  0.5933  0.1510
 5461TIP3    H116389   3.978   4.427   3.025 -0.6818  0.2362 -0.6484
 5461TIP3    H216390   4.057   4.317   2.959  0.5308  0.6187  0.1125
 5462TIP3   OH216391   3.406   3.436   4.077 -0.2585 -0.8301  0.2078
 5462TIP3    H116392   3.374   3.415   3.990 -2.1551 -0.4805  0.7801
 5462TIP3    H216393   3.415   3.351   4.121 -1.0377 -0.8953  0.2439
 5463TIP3   OH216394   4.570   5.898   0.442 -0.3098  0.5357  0.2641
 5463TIP3    H116395   4.500   5.917   0.503  0.0085 -0.1584  0.8553
 5463TIP3    H216396   4.616   5.823   0.479  1.7162  1.9085  0.7390
 5464TIP3   OH216397   1.970   3.372   0.681 -0.0476 -0.1927  0.7078
 5464TIP3    H116398   1.946   3.441   0.619 -0.1788  0.4994  1.5006
 5464TIP3    H216399   2.062   3.390   0.702  0.5104 -1.4444 -0.5579
 5465TIP3   OH216400   0.354   1.863   2.015  0.6657 -0.1051  0.0073
 5465TIP3    H116401   0.259   1.872   2.019  0.6189 -0.1187 -0.7907
 5465TIP3    H216402   0.388   1.947   2.044  0.3698  0.4449 -1.1909
 5466TIP3   OH216403   2.091   3.131   3.582 -0.1219 -0.3001 -0.3520
 5466TIP3    H116404   2.053   3.219   3.586 -1.6895 -0.8788 -1.6564
 5466TIP3    H216405   2.093   3.101   3.673  0.6359  1.1392  0.1330
 5467TIP3   OH216406   4.908   5.868   4.533  0.1047  0.6796 -0.3191
 5467TIP3    H116407   4.917   5.773   4.532 -1.1848  0.5509 -0.6814
 5467TIP3    H216408   4.868   5.890   4.450  3.8675  1.9852 -2.0224
 5468TIP3   OH216409   0.123   2.183   3.379 -0.3889 -0.4700 -0.9235
 5468TIP3    H116410   0.148   2.206   3.289 -0.6051  0.1947 -0.8189
 5468TIP3    H216411   0.196   2.130   3.412  1.8889  2.9409  0.0307
 5469TIP3   OH216412   0.803   1.965   0.824 -0.2168 -0.2407  0.1425
 5469TIP3    H116413   0.708   1.972   0.822 -0.1517  0.8655  0.5253
 5469TIP3    H216414   0.821   1.874   0.800 -1.3910 -0.5984  0.5674
 5470TIP3   OH216415   1.759   0.402   1.497  0.2105  0.2115 -0.1116
 5470TIP3    H116416   1.717   0.457   1.432 -0.0414  0.2604  0.0931
 5470TIP3    H216417   1.853   0.413   1.480  0.1400 -1.4129 -1.8232
 5471TIP3   OH216418   3.747   3.635   0.085 -0.4903  0.2751  0.1543
 5471TIP3    H116419   3.681   3.640   0.017  0.0598  0.4216 -0.3776
 5471TIP3    H216420   3.786   3.548   0.075 -1.4650 -0.3284  1.2972
 5472TIP3   OH216421   3.922   4.460   3.784  0.4000 -0.1852  0.8713
 5472TIP3    H116422   3.893   4.551   3.794  0.4611 -0.1579  0.7988
 5472TIP3    H216423   3.858   4.421   3.725  0.0996 -0.3187  1.2771
 5473TIP3   OH216424   6.214   2.591   4.004 -0.3697 -0.3989 -0.5382
 5473TIP3    H116425   6.256   2.654   4.062  0.9578 -0.2685 -1.5834
 5473TIP3    H216426   6.279   2.522   3.992 -2.3622 -2.9410  1.8997
 5474TIP3   OH216427   4.373   0.648   5.114  0.2634 -0.7264  0.1007
 5474TIP3    H116428   4.443   0.711   5.132  0.8095 -0.6877 -1.9701
 5474TIP3    H216429   4.329   0.638   5.198  0.5881  1.8856  0.6870
 5475TIP3   OH216430   0.106   0.323   3.051 -0.2829 -0.1120 -0.0507
 5475TIP3    H116431   0.130   0.305   2.960  1.0696 -0.2077  0.3016
 5475TIP3    H216432   0.126   0.416   3.062 -2.4705  0.4556 -0.4288
 5476TIP3   OH216433   2.915   1.160   1.347  0.4804  0.1224  0.2566
 5476TIP3    H116434   2.859   1.163   1.270  0.0104 -1.4530  0.5101
 5476TIP3    H216435   2.855   1.141   1.420  1.1932 -0.5582  0.6808
 5477TIP3   OH216436   3.111   3.536   2.330  0.1123 -0.4954  0.1878
 5477TIP3    H116437   3.198   3.561   2.300  0.2252 -1.2093 -0.0980
 5477TIP3    H216438   3.092   3.455   2.283 -0.3766 -0.7670  0.8376
 5478TIP3   OH216439   0.180   4.726   4.228  0.3895  0.1373  0.1449
 5478TIP3    H116440   0.168   4.639   4.266  2.1663 -0.8481 -1.3246
 5478TIP3    H216441   0.114   4.732   4.159 -0.1475  0.2327  0.6605
 5479TIP3   OH216442   4.516   1.463   1.830  0.3028  0.5260  0.5386
 5479TIP3    H116443   4.532   1.445   1.737 -0.5495  1.3228  0.2243
 5479TIP3    H216444   4.442   1.523   1.830  0.0163  0.1924  1.7637
 5480TIP3   OH216445   5.062   3.703   0.355  0.6013  0.0252  0.0138
 5480TIP3    H116446   5.032   3.668   0.270  0.2156 -0.6189  0.4062
 5480TIP3    H216447   5.049   3.798   0.347 -0.0752 -0.0905 -0.4106
 5481TIP3   OH216448   2.182   5.708   4.150 -0.8077 -0.2315  0.2573
 5481TIP3    H116449   2.243   5.760   4.202 -1.7177 -0.3384  1.4787
 5481TIP3    H216450   2.198   5.617   4.177  0.0946 -0.5288 -1.1474
 5482TIP3   OH216451   0.324   5.032   4.208  0.2118  0.2187  0.1653
 5482TIP3    H116452   0.251   4.970   4.215  0.0005  0.4806  0.3026
 5482TIP3    H216453   0.292   5.112   4.251 -0.1278  0.9692 -1.4129
 5483TIP3   OH216454   2.957   5.671   1.531 -0.1935 -0.0571  0.2152
 5483TIP3    H116455   2.940   5.760   1.560  1.0606  0.8632 -1.7111
 5483TIP3    H216456   3.009   5.632   1.601 -1.3152  0.4689  1.3717
 5484TIP3   OH216457   1.590   3.237   2.592  0.3236  0.1006 -0.1763
 5484TIP3    H116458   1.528   3.196   2.652  0.1143  2.1775  1.1352
 5484TIP3    H216459   1.539   3.258   2.514 -0.1633  0.1239  0.1482
 5485TIP3   OH216460   4.749   1.036   4.775 -0.1373 -0.2631 -0.0178
 5485TIP3    H116461   4.844   1.041   4.772 -0.0960 -1.0042 -0.1315
 5485TIP3    H216462   4.727   1.048   4.868  0.1187 -0.7749  0.1145
 5486TIP3   OH216463   2.001   3.534   4.883  0.2284  0.1495  0.5692
 5486TIP3    H116464   2.023   3.625   4.902 -1.9997  0.6335  1.1664
 5486TIP3    H216465   1.957   3.537   4.799  0.9650 -0.5335  0.1456
 5487TIP3   OH216466   4.490   2.756   2.145  0.9379 -0.4541 -0.6262
 5487TIP3    H116467   4.470   2.847   2.122  1.1768 -0.0693  0.6331
 5487TIP3    H216468   4.427   2.705   2.094  1.2070  0.3656 -1.8312
 5488TIP3   OH216469   1.546   4.687   0.543  0.3489  0.1950 -0.4411
 5488TIP3    H116470   1.467   4.735   0.568  0.0419 -0.8653  0.6885
 5488TIP3    H216471   1.598   4.751   0.494 -1.6084  0.6408 -2.0644
 5489TIP3   OH216472   2.484   4.341   1.448  0.1758 -0.0430  0.1534
 5489TIP3    H116473   2.546   4.346   1.375 -2.0501 -1.0037 -1.9255
 5489TIP3    H216474   2.471   4.248   1.462  0.3109  0.1372  1.6195
 5490TIP3   OH216475   1.991   5.435   3.276  0.1018 -0.0994 -0.0887
 5490TIP3    H116476   2.083   5.407   3.280  0.6091  1.1591 -1.7791
 5490TIP3    H216477   1.992   5.524   3.312 -0.8400 -0.7917  1.7667
 5491TIP3   OH216478   1.528   0.007   3.629  0.0337  0.1572 -0.2971
 5491TIP3    H116479   1.514   0.101   3.632 -0.4697  0.0889 -0.4809
 5491TIP3    H216480   1.537  -0.013   3.536 -1.8632 -0.2560 -0.4349
 5492TIP3   OH216481   3.638   4.837   1.023  0.2925 -0.2313  0.2437
 5492TIP3    H116482   3.610   4.807   1.109 -1.4886 -1.6737 -0.7410
 5492TIP3    H216483   3.641   4.757   0.970  1.7850  0.5522 -0.9295
 5493TIP3   OH216484   4.530   2.637   3.619 -0.4800 -0.5314  0.3991
 5493TIP3    H116485   4.518   2.717   3.567 -2.3807 -0.1008  1.4209
 5493TIP3    H216486   4.595   2.662   3.685 -1.2161  0.2609  0.8424
 5494TIP3   OH216487   5.557   1.211   1.467 -0.2266 -0.3101  0.2719
 5494TIP3    H116488   5.598   1.268   1.402 -3.2084  0.5523 -0.9839
 5494TIP3    H216489   5.547   1.266   1.544 -0.7844  0.0968 -0.0835
 5495TIP3   OH216490   1.196   3.172   5.140  0.1737  0.2969 -0.3170
 5495TIP3    H116491   1.194   3.134   5.052  2.4166  0.9217 -0.7012
 5495TIP3    H216492   1.154   3.258   5.130  1.3012  0.7958 -1.0576
 5496TIP3   OH216493   1.163   1.052   4.059  0.0459 -0.6352 -0.5174
 5496TIP3    H116494   1.072   1.073   4.038 -0.0606  0.1823  0.6953
 5496TIP3    H216495   1.182   0.976   4.004 -0.7197  0.3708 -2.2694
 5497TIP3   OH216496   4.556   0.383   4.401  0.3474  0.5125 -0.5692
 5497TIP3    H116497   4.506   0.442   4.457  0.3700  1.1090 -1.1682
 5497TIP3    H216498   4.544   0.418   4.312  0.9382  0.0277 -0.8465
 5498TIP3   OH216499   5.318   5.969   2.326 -0.1447  0.0009  0.3895
 5498TIP3    H116500   5.320   5.933   2.414  2.4141 -2.3509 -0.5025
 5498TIP3    H216501   5.284   5.899   2.271 -0.0659  0.8125 -0.7472
 5499TIP3   OH216502   5.426   2.069   2.707 -0.4900 -0.3411 -0.1478
 5499TIP3    H116503   5.342   2.114   2.714  0.4796  1.5424 -0.0749
 5499TIP3    H216504   5.439   2.057   2.613 -0.8804 -0.7504 -0.1543
 5500TIP3   OH216505   2.424   1.402   3.373  0.0993  0.1829 -0.3473
 5500TIP3    H116506   2.458   1.313   3.360  0.2166  0.3544 -1.2902
 5500TIP3    H216507   2.455   1.451   3.296 -1.7309  0.5023 -0.9397
 5501TIP3   OH216508   2.620   3.743   4.476 -0.0835  0.5066  0.2072
 5501TIP3    H116509   2.629   3.837   4.495 -0.7765  1.3968 -3.2363
 5501TIP3    H216510   2.709   3.716   4.452 -0.0726  0.5327  0.2169
 5502TIP3   OH216511   2.854   5.120   4.603 -0.3662 -0.0090  0.2973
 5502TIP3    H116512   2.926   5.155   4.656 -0.6386  1.9409 -0.5013
 5502TIP3    H216513   2.826   5.041   4.649  1.1609  0.1196  1.5483
 5503TIP3   OH216514   2.431   5.707   1.772 -0.1471  0.0158  0.2182
 5503TIP3    H116515   2.385   5.777   1.817 -0.4338 -0.0384  0.0174
 5503TIP3    H216516   2.449   5.742   1.685 -1.2220 -0.5179 -0.2397
 5504TIP3   OH216517   1.153   4.476   3.470 -0.3736 -0.1685 -0.1958
 5504TIP3    H116518   1.147   4.562   3.512  2.1266 -0.8301  1.7699
 5504TIP3    H216519   1.213   4.490   3.397 -0.7154 -0.0463 -0.4528
 5505TIP3   OH216520   0.131   0.897   2.753 -0.2229 -0.7110 -0.2184
 5505TIP3    H116521   0.135   0.984   2.792  0.2387 -0.8596  0.0713
 5505TIP3    H216522   0.210   0.891   2.699  1.1358 -1.8967  1.7791
 5506TIP3   OH216523   1.270   1.115   3.251  0.6885  0.0676 -0.4548
 5506TIP3    H116524   1.255   1.071   3.168 -1.2426  0.6046 -0.4491
 5506TIP3    H216525   1.214   1.070   3.313 -1.2419  2.3144 -0.4190
 5507TIP3   OH216526   6.213   4.389   1.313 -0.0526  0.6326  0.0684
 5507TIP3    H116527   6.253   4.327   1.250  1.3027  1.4140  0.1102
 5507TIP3    H216528   6.230   4.350   1.399 -0.5880  0.2968  0.0235
 5508TIP3   OH216529   3.553   0.880   1.867  0.7599 -0.2968  0.1219
 5508TIP3    H116530   3.508   0.958   1.899  1.1302 -0.2276  0.4777
 5508TIP3    H216531   3.645   0.905   1.864  0.9249 -0.8237  0.5665
 5509TIP3   OH216532   5.366   4.298   4.829  0.1078 -0.0611  0.7278
 5509TIP3    H116533   5.322   4.306   4.745 -1.7605  0.9546  1.7391
 5509TIP3    H216534   5.457   4.276   4.807 -0.4658 -0.4241 -1.5017
 5510TIP3   OH216535   6.056   1.606   2.720  0.0237  0.5416 -0.0143
 5510TIP3    H116536   6.149   1.617   2.703  0.0513  0.9682  0.3991
 5510TIP3    H216537   6.027   1.543   2.654  0.3985  1.1546 -0.7795
 5511TIP3   OH216538   0.028   4.725   3.300 -0.1675  0.0337 -0.1095
 5511TIP3    H116539   0.012   4.761   3.213 -1.9418  0.2970  0.2812
 5511TIP3    H216540   0.119   4.745   3.319 -0.4000  2.0985 -0.9393
 5512TIP3   OH216541   4.634   1.993   2.689  0.0869  0.3330  0.6096
 5512TIP3    H116542   4.557   2.049   2.694 -0.1126  0.4213 -1.9148
 5512TIP3    H216543   4.603   1.914   2.645  1.0836 -0.3516  1.1049
 5513TIP3   OH216544   0.943   2.314   4.368 -0.3192  0.0945  0.3151
 5513TIP3    H116545   0.989   2.374   4.310  1.0522 -1.1186  0.0984
 5513TIP3    H216546   1.012   2.274   4.421 -0.8154 -3.1587 -1.2603
 5514TIP3   OH216547   3.189   2.718   0.178  0.3663 -0.0671  0.4364
 5514TIP3    H116548   3.147   2.804   0.174 -0.4841 -0.5103 -0.5819
 5514TIP3    H216549   3.117   2.657   0.195  0.7209 -0.7502 -0.4821
 5515TIP3   OH216550   1.880   4.800   1.806 -0.3006 -0.4679  0.2135
 5515TIP3    H116551   1.965   4.789   1.765 -0.0879  1.0121  0.2090
 5515TIP3    H216552   1.875   4.729   1.870  0.9448 -0.5733  0.2190
 5516TIP3   OH216553   1.966   0.401   0.918 -0.3349  0.0383 -0.2119
 5516TIP3    H116554   1.948   0.410   1.011  1.5663  0.7458  0.1275
 5516TIP3    H216555   1.971   0.491   0.885 -0.5791 -0.1960 -0.9276
 5517TIP3   OH216556   3.310   0.251   2.759  0.1400 -0.1822 -0.3469
 5517TIP3    H116557   3.249   0.280   2.826 -0.0674  0.8628 -0.9697
 5517TIP3    H216558   3.358   0.330   2.733 -1.0487 -0.1557 -2.7040
 5518TIP3   OH216559   5.287   4.942   3.660  0.1149  0.0970  0.4275
 5518TIP3    H116560   5.276   4.900   3.745 -1.6176 -0.1064  0.1404
 5518TIP3    H216561   5.198   4.961   3.630  0.6629  0.0114 -1.4175
 5519TIP3   OH216562   4.076   0.331   3.369 -0.0517 -0.2559  0.4755
 5519TIP3    H116563   4.025   0.270   3.316 -1.2475  0.3220  0.9242
 5519TIP3    H216564   4.123   0.275   3.431 -0.7767 -0.7566  0.5821
 5520TIP3   OH216565   0.050   1.514   1.147 -0.2124 -0.1709 -0.4266
 5520TIP3    H116566  -0.012   1.440   1.146 -1.5312  0.8951 -0.1459
 5520TIP3    H216567   0.087   1.512   1.235 -0.4807 -0.3092 -0.3151
 5521TIP3   OH216568   1.816   4.260   1.117  0.0431  0.0235 -0.3151
 5521TIP3    H116569   1.823   4.241   1.023  0.2846  0.5675 -0.4105
 5521TIP3    H216570   1.723   4.271   1.133 -0.0760 -0.9095 -0.3208
 5522TIP3   OH216571   1.563   5.113   0.930 -0.6670  0.2831 -0.0264
 5522TIP3    H116572   1.597   5.024   0.934  0.9170  0.8507 -0.1819
 5522TIP3    H216573   1.641   5.169   0.921 -1.2518  2.0133  3.7239
 5523TIP3   OH216574   4.721   5.846   2.430 -0.1227 -0.1080  0.3374
 5523TIP3    H116575   4.778   5.769   2.432  0.3752  0.2689  0.7928
 5523TIP3    H216576   4.687   5.847   2.340 -1.3496 -1.7310  0.7357
 5524TIP3   OH216577   3.127   1.640   0.807 -0.1293  0.1577  0.5273
 5524TIP3    H116578   3.038   1.663   0.835 -0.0776  1.1973 -0.1099
 5524TIP3    H216579   3.127   1.655   0.712  0.6206 -0.1867  0.4661
 5525TIP3   OH216580   1.322   1.300   3.648  0.1201  0.2619 -0.1767
 5525TIP3    H116581   1.284   1.223   3.690  0.2158 -0.5002 -1.4638
 5525TIP3    H216582   1.287   1.299   3.559  0.3789  1.5349 -0.3116
 5526TIP3   OH216583   2.834   0.685   2.030 -0.1203 -0.1653 -0.5024
 5526TIP3    H116584   2.744   0.707   2.004  0.0366  1.2504  0.0957
 5526TIP3    H216585   2.861   0.619   1.967 -1.4763 -0.3949 -0.8798
 5527TIP3   OH216586   6.035   5.505   1.227 -0.1550  0.5347  0.3006
 5527TIP3    H116587   6.052   5.538   1.315 -0.9214 -1.5215  1.2866
 5527TIP3    H216588   6.107   5.540   1.175  0.5300  1.5101  1.8186
 5528TIP3   OH216589   2.055   5.439   4.885 -0.2523 -0.3281 -0.1923
 5528TIP3    H116590   2.027   5.498   4.815  0.3081  0.1208 -0.0461
 5528TIP3    H216591   1.979   5.434   4.943  0.2909  1.7868  0.8065
 5529TIP3   OH216592   4.854   3.281   1.401 -0.2797 -0.6724 -0.8306
 5529TIP3    H116593   4.874   3.199   1.446  1.6187  2.0783  4.0998
 5529TIP3    H216594   4.930   3.298   1.346  0.5522 -1.0169  0.1812
 5530TIP3   OH216595   0.402   5.110   4.812 -0.0836  0.4388 -0.2650
 5530TIP3    H116596   0.318   5.135   4.852  0.0203  1.0214 -0.4090
 5530TIP3    H216597   0.445   5.058   4.880 -0.5488  0.1566 -0.1800
 5531TIP3   OH216598   1.722   3.895   3.085  0.3385 -0.9142  0.7227
 5531TIP3    H116599   1.649   3.937   3.131  0.4910 -0.5260  0.6095
 5531TIP3    H216600   1.794   3.958   3.091  0.5085 -1.0740  0.3827
 5532TIP3   OH216601   3.800   5.623   0.697  0.4079  0.2633 -0.2886
 5532TIP3    H116602   3.803   5.642   0.603  1.5787  0.3173 -0.2506
 5532TIP3    H216603   3.870   5.560   0.711  0.8501  0.9436  0.6921
 5533TIP3   OH216604   3.343   0.676   0.027  0.0134  0.0310 -0.3525
 5533TIP3    H116605   3.438   0.667   0.015  0.0234 -0.7327  0.1985
 5533TIP3    H216606   3.333   0.705   0.118 -0.3415 -1.9714  0.3029
 5534TIP3   OH216607   1.094   4.964   3.434 -0.5789  0.0680 -0.5644
 5534TIP3    H116608   1.043   4.970   3.515  1.2328 -0.3989  0.6613
 5534TIP3    H216609   1.110   5.056   3.410 -1.9600  0.2220 -0.9771
 5535TIP3   OH216610   0.778   1.585   0.465 -0.2182  0.6195  0.2434
 5535TIP3    H116611   0.785   1.491   0.485 -0.3461  0.6849  0.6146
 5535TIP3    H216612   0.852   1.625   0.509  0.8528  0.4901 -1.3604
 5536TIP3   OH216613   0.220   5.733   0.934 -0.7143  0.6032  0.1708
 5536TIP3    H116614   0.163   5.806   0.960  0.9084  1.5585  1.2358
 5536TIP3    H216615   0.309   5.770   0.937 -0.0541 -0.5910 -2.2515
 5537TIP3   OH216616   5.785   1.666   0.059 -0.3601 -0.0156  0.3574
 5537TIP3    H116617   5.768   1.669  -0.035 -1.2862  1.2156  0.5452
 5537TIP3    H216618   5.748   1.582   0.088 -0.5962 -0.1331 -0.2782
 5538TIP3   OH216619   0.735   0.348   3.858 -0.0495  0.2209 -0.2680
 5538TIP3    H116620   0.698   0.419   3.910  0.0621 -0.1222  0.2961
 5538TIP3    H216621   0.660   0.308   3.815 -0.0062  1.2908 -1.3785
 5539TIP3   OH216622   3.589   1.178   1.580  0.4419  0.2787  0.1469
 5539TIP3    H116623   3.609   1.182   1.674 -0.9663  0.0558  0.4851
 5539TIP3    H216624   3.524   1.108   1.573 -1.5412  2.0653 -0.5639
 5540TIP3   OH216625   4.496   4.988   0.186  0.3937 -0.7005 -0.0882
 5540TIP3    H116626   4.578   4.960   0.227  1.1844 -1.4128 -2.0500
 5540TIP3    H216627   4.481   5.076   0.220 -0.3301 -2.0557  3.5583
 5541TIP3   OH216628   2.262   0.883   0.728  0.1215  0.2658  0.1343
 5541TIP3    H116629   2.292   0.907   0.816 -1.9669 -0.4437  1.0918
 5541TIP3    H216630   2.204   0.955   0.703 -2.7721 -1.5168  1.2446
 5542TIP3   OH216631   1.550   0.236   4.575 -0.2894 -0.2127 -0.5038
 5542TIP3    H116632   1.560   0.326   4.608 -0.4130 -0.2614 -0.3335
 5542TIP3    H216633   1.575   0.241   4.483 -3.6024  0.6983 -1.4886
 5543TIP3   OH216634   0.908   1.701   0.878 -0.4154 -0.1630  0.0102
 5543TIP3    H116635   0.946   1.708   0.966 -0.2939 -0.0651 -0.0499
 5543TIP3    H216636   0.877   1.611   0.872 -0.1584 -0.2546  0.0463
 5544TIP3   OH216637   1.199   3.277   2.755 -0.4142  0.7094 -0.5290
 5544TIP3    H116638   1.265   3.223   2.711 -0.6838  0.3346 -0.4815
 5544TIP3    H216639   1.130   3.215   2.779  0.8723  0.3705  2.7809
 5545TIP3   OH216640   5.686   4.148   0.341 -0.2061 -0.0046 -0.0598
 5545TIP3    H116641   5.711   4.232   0.303 -1.3632  0.6240  0.5013
 5545TIP3    H216642   5.766   4.097   0.341  1.0648  1.8282  1.5145
 5546TIP3   OH216643   3.284   4.137   0.851  0.1422  0.3003 -0.2479
 5546TIP3    H116644   3.372   4.165   0.875 -0.1521 -1.0853  2.8332
 5546TIP3    H216645   3.229   4.215   0.866  0.5164  0.5175  0.0018
 5547TIP3   OH216646   1.753   4.252   2.576  0.2496 -0.1500  0.5062
 5547TIP3    H116647   1.796   4.335   2.598  0.3983  0.0080 -0.3644
 5547TIP3    H216648   1.661   4.267   2.599  0.3134  0.1762  0.5668
 5548TIP3   OH216649   2.418   1.723   1.713  0.0257 -0.5722 -0.4964
 5548TIP3    H116650   2.393   1.673   1.790 -2.1540 -0.2495 -0.9267
 5548TIP3    H216651   2.468   1.797   1.747 -0.2101 -0.8749  0.5256
 5549TIP3   OH216652   3.651   1.855   4.645 -0.5275 -0.0667 -0.3611
 5549TIP3    H116653   3.665   1.908   4.723 -1.4764 -0.8611  0.3651
 5549TIP3    H216654   3.574   1.894   4.603 -1.0211 -0.6504 -0.0078
 5550TIP3   OH216655   1.907   4.575   4.630  0.0381  0.0899  0.1721
 5550TIP3    H116656   1.927   4.616   4.714  0.4531  3.1764 -1.3056
 5550TIP3    H216657   1.852   4.639   4.584  0.3964 -1.1874 -2.1875
 5551TIP3   OH216658   2.843   4.388   0.860  0.6962  0.3157 -0.2946
 5551TIP3    H116659   2.753   4.409   0.888  0.1389 -1.2485 -0.8594
 5551TIP3    H216660   2.873   4.324   0.924  1.2435  0.4475 -0.4149
 5552TIP3   OH216661   4.038   2.769   2.490  0.3869 -0.4886  0.1674
 5552TIP3    H116662   3.965   2.823   2.459  0.7306 -0.5561 -0.8091
 5552TIP3    H216663   4.101   2.771   2.418 -0.4647 -3.8789 -0.8963
 5553TIP3   OH216664   2.083   4.771   2.149  0.9289 -0.3221  0.0441
 5553TIP3    H116665   2.117   4.857   2.175 -0.0034 -0.2756  1.1930
 5553TIP3    H216666   2.030   4.743   2.223  1.0883 -1.8368 -0.3817
 5554TIP3   OH216667   2.594   1.437   0.667 -0.4011  0.1774  0.3655
 5554TIP3    H116668   2.601   1.395   0.753 -1.7520 -1.3745 -0.2236
 5554TIP3    H216669   2.671   1.407   0.620  0.4660  1.2132  1.0632
 5555TIP3   OH216670   1.132   0.964   2.052  0.0386 -0.0703  0.3280
 5555TIP3    H116671   1.150   1.051   2.016 -1.6500 -0.4675 -1.6574
 5555TIP3    H216672   1.174   0.965   2.138  0.5623  2.4923  0.1371
 5556TIP3   OH216673   1.894   0.354   3.832  0.0226  0.7162  0.6255
 5556TIP3    H116674   1.963   0.367   3.767 -0.3962 -1.6292 -0.3928
 5556TIP3    H216675   1.933   0.383   3.914  1.5564  1.1572 -0.2196
 5557TIP3   OH216676   2.819   1.361   4.490 -0.2265  0.3603 -0.1884
 5557TIP3    H116677   2.744   1.318   4.449  0.0652 -0.0990 -0.2557
 5557TIP3    H216678   2.855   1.294   4.548  0.7356  0.2277 -0.9102
 5558TIP3   OH216679   5.299   4.143   3.461  0.3247  0.4406  0.3760
 5558TIP3    H116680   5.273   4.184   3.379  0.5189 -1.2264 -0.5741
 5558TIP3    H216681   5.299   4.214   3.525 -1.8401  1.4022 -0.5957
 5559TIP3   OH216682   2.046   5.042   3.029 -0.0941 -0.0420  0.7800
 5559TIP3    H116683   2.134   5.048   3.066  0.9914 -0.0555 -1.5747
 5559TIP3    H216684   2.033   5.127   2.985 -0.1584 -0.9367 -1.0344
 5560TIP3   OH216685   3.257   4.495   4.120  0.2935 -0.5166 -0.1650
 5560TIP3    H116686   3.239   4.518   4.211  0.2946 -2.1307  0.2710
 5560TIP3    H216687   3.313   4.418   4.125  0.5104 -0.4763 -1.5402
 5561TIP3   OH216688   5.873   4.244   3.946  0.1673  0.3818 -0.0571
 5561TIP3    H116689   5.810   4.217   4.012 -0.0713  0.7269 -0.1413
 5561TIP3    H216690   5.842   4.204   3.865  1.0059 -0.8684  0.2069
 5562TIP3   OH216691   1.313   2.139   3.085 -0.2231  0.0656 -0.5065
 5562TIP3    H116692   1.222   2.166   3.100  0.2560  3.4165 -2.6572
 5562TIP3    H216693   1.311   2.098   2.998  0.3312  0.1656 -0.5672
 5563TIP3   OH216694   5.341   4.729   0.280 -0.8335  0.3357  0.3681
 5563TIP3    H116695   5.263   4.762   0.235 -1.2918 -0.2447  0.7241
 5563TIP3    H216696   5.391   4.685   0.211 -0.3145  1.5683 -0.0699
 5564TIP3   OH216697   0.803   2.333   1.788  0.0457 -0.0951  0.2924
 5564TIP3    H116698   0.731   2.329   1.850 -0.5826  0.5480 -0.3822
 5564TIP3    H216699   0.799   2.421   1.751  1.0678 -0.1047  0.1199
 5565TIP3   OH216700   0.717   5.760   2.867 -0.5679 -0.8001  0.2201
 5565TIP3    H116701   0.643   5.796   2.819 -1.6196 -3.3199 -0.2169
 5565TIP3    H216702   0.677   5.702   2.932  0.9720 -0.5933  1.4120
 5566TIP3   OH216703   0.248   1.493   0.141 -0.5911 -0.2194 -0.0467
 5566TIP3    H116704   0.154   1.510   0.151 -0.4505  0.1509  0.7452
 5566TIP3    H216705   0.260   1.478   0.048 -1.0316  2.2464 -0.5534
 5567TIP3   OH216706   2.876   3.691   0.354 -0.1486 -0.1913 -0.3626
 5567TIP3    H116707   2.840   3.747   0.285 -1.3506 -0.5569 -0.0618
 5567TIP3    H216708   2.859   3.602   0.324  1.5017 -0.4101 -0.7045
 5568TIP3   OH216709   3.307   5.564   0.393 -0.0688  0.2748  0.2444
 5568TIP3    H116710   3.342   5.539   0.479 -0.0009 -1.3729 -0.2375
 5568TIP3    H216711   3.247   5.636   0.412  0.7086  0.6198  1.5449
 5569TIP3   OH216712   6.037   5.789   4.264 -0.2463 -0.1610  0.1800
 5569TIP3    H116713   6.082   5.843   4.329  1.9403 -1.4896 -0.1326
 5569TIP3    H216714   5.983   5.730   4.315  0.4733 -0.3511  0.7370
 5570TIP3   OH216715   3.743   3.276   4.528  0.0075 -0.6814 -0.4248
 5570TIP3    H116716   3.779   3.364   4.524  1.0057 -1.1364 -2.7857
 5570TIP3    H216717   3.814   3.222   4.563  0.3734 -0.9874 -1.6224
 5571TIP3   OH216718   2.553   4.458   2.324 -0.2308  0.6399  0.6890
 5571TIP3    H116719   2.567   4.495   2.412 -1.2853  2.4404  0.1463
 5571TIP3    H216720   2.485   4.512   2.286  0.4664  0.1315 -1.4073
 5572TIP3   OH216721   5.206   3.049   0.062  0.0587 -0.1776  0.2891
 5572TIP3    H116722   5.229   2.962   0.031  1.2423  0.1331  0.2345
 5572TIP3    H216723   5.287   3.100   0.054 -0.5877  0.9109  0.3837
 5573TIP3   OH216724   0.843   4.203   0.109  0.6276 -0.5510  0.2450
 5573TIP3    H116725   0.823   4.291   0.140  0.6745 -0.7193  0.7554
 5573TIP3    H216726   0.759   4.158   0.109  0.6096 -0.5213  0.0170
 5574TIP3   OH216727   1.370   1.703   2.853 -0.6436  0.2869  0.0661
 5574TIP3    H116728   1.364   1.785   2.903  0.1364  0.0121  0.6217
 5574TIP3    H216729   1.374   1.732   2.761 -0.9094  0.8476  0.2262
 5575TIP3   OH216730   3.372   1.569   2.756  0.1142 -0.4711  0.1956
 5575TIP3    H116731   3.297   1.510   2.748  0.8167 -1.4792  0.8320
 5575TIP3    H216732   3.381   1.609   2.669  0.4776 -2.3790 -0.6856
 5576TIP3   OH216733   2.041   4.679   3.813 -0.0133 -0.1627  1.0899
 5576TIP3    H116734   2.039   4.727   3.896 -0.4326  0.2872  0.8291
 5576TIP3    H216735   1.969   4.616   3.820 -0.1529 -0.0140  1.0073
 5577TIP3   OH216736   5.460   0.979   2.674 -0.0104  0.1762 -0.2142
 5577TIP3    H116737   5.528   1.036   2.710 -0.0097  0.4841 -0.6979
 5577TIP3    H216738   5.434   1.021   2.592 -0.9754  0.2064  0.0981
 5578TIP3   OH216739   0.513   1.479   0.205  0.1079  0.2851  0.1917
 5578TIP3    H116740   0.426   1.495   0.169 -0.1590  0.1021  0.7447
 5578TIP3    H216741   0.498   1.425   0.283  0.5562  1.6553  1.2693
 5579TIP3   OH216742   0.960   3.918   2.797  0.1085  0.1690 -0.4031
 5579TIP3    H116743   0.951   4.012   2.781 -0.0518  0.3730  0.7876
 5579TIP3    H216744   1.017   3.912   2.874  1.2354 -0.7655 -1.2650
 5580TIP3   OH216745   3.248   5.604   3.117  0.2409 -0.0565  0.1370
 5580TIP3    H116746   3.292   5.588   3.200  0.2453 -1.9656 -0.1931
 5580TIP3    H216747   3.297   5.553   3.053  0.2870  1.4388 -1.0831
 5581TIP3   OH216748   5.591   3.080   0.804  1.0438  0.4955  0.1969
 5581TIP3    H116749   5.505   3.086   0.845  2.8361  0.4875  4.4223
 5581TIP3    H216750   5.585   3.004   0.746 -1.1178 -0.9919  2.1963
 5582TIP3   OH216751   4.701   0.432   1.408  0.1596 -0.0116 -0.0015
 5582TIP3    H116752   4.775   0.408   1.464  1.3265 -0.9843 -1.8700
 5582TIP3    H216753   4.709   0.376   1.331 -2.4982 -0.0878 -0.3248
 5583TIP3   OH216754   6.142   3.742   2.101  0.4401  0.4925 -0.0439
 5583TIP3    H116755   6.069   3.709   2.049 -0.0192 -0.8093  1.3562
 5583TIP3    H216756   6.174   3.818   2.051 -2.0566  1.3232 -0.5568
 5584TIP3   OH216757   2.134   3.672   2.683  0.1292  0.5098  0.7272
 5584TIP3    H116758   2.136   3.581   2.652  2.5499  0.9534 -0.6280
 5584TIP3    H216759   2.079   3.717   2.619  0.6385  0.3871  0.1991
 5585TIP3   OH216760   4.916   1.931   0.356 -0.1475 -0.8524 -0.1562
 5585TIP3    H116761   4.989   1.922   0.418 -1.0114 -2.1600  0.7183
 5585TIP3    H216762   4.844   1.966   0.408 -0.0539  0.8683 -1.1131
 5586TIP3   OH216763   6.012   4.463   3.886 -0.1932  0.0399 -0.2889
 5586TIP3    H116764   5.983   4.380   3.924  0.8223  0.1289  0.7349
 5586TIP3    H216765   6.079   4.438   3.823 -0.5496  0.0283 -0.6694
 5587TIP3   OH216766   4.493   4.672   0.503  0.1829  0.0857  0.5297
 5587TIP3    H116767   4.514   4.720   0.583  2.3944  0.5044 -0.2199
 5587TIP3    H216768   4.575   4.627   0.481 -0.5312 -0.4172 -1.2139
 5588TIP3   OH216769   4.466   2.584   1.847  0.5030  0.1525  0.5533
 5588TIP3    H116770   4.483   2.607   1.756  2.5459  0.6856  1.0047
 5588TIP3    H216771   4.531   2.635   1.897 -0.5210 -0.1602  2.2988
 5589TIP3   OH216772   2.876   1.582   1.946  0.4556  0.7032 -0.0582
 5589TIP3    H116773   2.884   1.654   1.884 -1.4619 -0.0416 -1.2583
 5589TIP3    H216774   2.784   1.557   1.942  0.7576 -0.8514  1.4367
 5590TIP3   OH216775   6.133   0.561   0.108  0.1746 -0.6025 -0.0245
 5590TIP3    H116776   6.087   0.644   0.118 -0.1395 -0.9183  1.4431
 5590TIP3    H216777   6.214   0.572   0.159  0.5454 -0.9064 -0.5349
 5591TIP3   OH216778   2.792   1.967   0.031 -0.5375 -0.1576  0.1175
 5591TIP3    H116779   2.834   2.050   0.055  0.4065 -0.6900  0.3483
 5591TIP3    H216780   2.748   1.938   0.111 -2.2331  0.8823 -0.3787
 5592TIP3   OH216781   3.194   1.659   2.359 -0.5305  0.1268  0.1271
 5592TIP3    H116782   3.158   1.679   2.272  2.5815  1.1279 -1.0547
 5592TIP3    H216783   3.262   1.594   2.343 -0.7704 -0.6585  2.0424
 5593TIP3   OH216784   0.370   1.233   4.980 -0.7125  0.1566  0.0203
 5593TIP3    H116785   0.286   1.197   5.009 -0.7400  0.3187  0.1449
 5593TIP3    H216786   0.393   1.297   5.047 -0.9320  0.7693 -0.4701
 5594TIP3   OH216787   5.463   2.091   4.050  0.2711  0.6060  0.8465
 5594TIP3    H116788   5.386   2.059   4.003  0.1389 -0.6439  1.8627
 5594TIP3    H216789   5.436   2.093   4.142  0.9019  1.8620  1.0295
 5595TIP3   OH216790   1.584   5.590   2.984  0.0980 -0.1377  0.0932
 5595TIP3    H116791   1.669   5.608   3.025  0.3122  1.1111 -0.8559
 5595TIP3    H216792   1.606   5.561   2.895 -0.4552 -0.2393 -0.0119
 5596TIP3   OH216793   4.181   1.119   4.537 -0.1370  0.6793 -0.7151
 5596TIP3    H116794   4.179   1.198   4.484 -0.6230  1.5700  0.5609
 5596TIP3    H216795   4.117   1.060   4.496  0.0122  1.0540 -1.4994
 5597TIP3   OH216796   3.096   2.652   1.401  0.3953  0.4177  0.3335
 5597TIP3    H116797   3.062   2.741   1.395 -0.0520  0.3461  1.5301
 5597TIP3    H216798   3.028   2.604   1.448  1.1128 -0.2978  0.6512
 5598TIP3   OH216799   0.435   4.076   0.573 -0.1423  0.2516  0.1624
 5598TIP3    H116800   0.482   4.159   0.578 -0.7147  0.5939 -0.0421
 5598TIP3    H216801   0.457   4.031   0.654  0.3230  0.5234  0.1885
 5599TIP3   OH216802   3.138   3.064   3.031 -0.0179  0.0454 -0.3135
 5599TIP3    H116803   3.101   2.979   3.055 -0.9560 -0.0946 -2.1300
 5599TIP3    H216804   3.148   3.110   3.115 -0.2791 -1.5300  0.6135
 5600TIP3   OH216805   1.474   5.651   2.701  0.0883 -0.3527  0.3183
 5600TIP3    H116806   1.442   5.740   2.715 -0.9850 -0.4556 -1.1586
 5600TIP3    H216807   1.397   5.602   2.673  0.6766 -1.7445  1.0304
 5601TIP3   OH216808   2.130   2.993   0.572 -0.0903 -0.6211  0.4107
 5601TIP3    H116809   2.154   2.935   0.500  0.4809 -0.8092  0.7426
 5601TIP3    H216810   2.070   3.056   0.533 -0.1201 -0.9770 -0.1304
 5602TIP3   OH216811   5.829   2.878   2.450  0.3009  0.5597  0.1283
 5602TIP3    H116812   5.832   2.826   2.370 -1.0366  0.3562  0.1968
 5602TIP3    H216813   5.767   2.832   2.507  1.9345  0.1583  1.6883
 5603TIP3   OH216814   3.072   5.131   2.717 -0.1898  0.0853  0.3421
 5603TIP3    H116815   3.120   5.207   2.751 -1.1014  0.0468  1.8212
 5603TIP3    H216816   3.073   5.142   2.622  2.5457  0.1768  0.2973
 5604TIP3   OH216817   2.366   3.396   2.034 -0.2523 -0.0546 -0.1964
 5604TIP3    H116818   2.323   3.312   2.050 -1.3206  0.5939  0.4083
 5604TIP3    H216819   2.448   3.372   1.990 -0.4340 -1.4225  0.1498
 5605TIP3   OH216820   0.414   2.811   4.440  0.2893  0.0334  0.2794
 5605TIP3    H116821   0.338   2.827   4.383 -1.1568 -2.5172  1.2797
 5605TIP3    H216822   0.489   2.842   4.390 -1.0383 -0.9201 -2.5061
 5606TIP3   OH216823   6.301   4.509   0.613  0.4455 -0.3088 -0.1625
 5606TIP3    H116824   6.376   4.479   0.665  0.9033 -0.4141 -0.8673
 5606TIP3    H216825   6.226   4.500   0.672  0.3210 -4.0032 -0.6600
 5607TIP3   OH216826   1.374   2.100   2.178 -0.1790  0.0634  0.1840
 5607TIP3    H116827   1.439   2.079   2.245 -1.7377  3.5068  3.1438
 5607TIP3    H216828   1.293   2.114   2.227 -1.7725  1.3925 -2.6052
 5608TIP3   OH216829   5.046   1.311   1.441  0.4074  0.4369 -0.8420
 5608TIP3    H116830   5.131   1.344   1.469 -0.0382 -0.2731  1.5560
 5608TIP3    H216831   4.995   1.390   1.422  1.1899  0.8993 -1.0856
 5609TIP3   OH216832   3.132   2.242   3.355  0.0327 -0.1159  0.5914
 5609TIP3    H116833   3.087   2.211   3.433 -1.0398 -2.3814 -0.8347
 5609TIP3    H216834   3.065   2.242   3.287  1.3389  0.1059 -0.7381
 5610TIP3   OH216835   3.322   2.059   3.236 -0.2506  0.0027 -0.9128
 5610TIP3    H116836   3.288   1.982   3.191 -0.7958  0.2555 -0.9444
 5610TIP3    H216837   3.245   2.098   3.278  0.5181 -1.6047  2.4220
 5611TIP3   OH216838   3.272   0.160   3.784 -0.0382  0.0513 -0.1591
 5611TIP3    H116839   3.195   0.169   3.728 -0.4306  0.1159  0.3838
 5611TIP3    H216840   3.340   0.211   3.740 -0.6945  1.1286  0.0475
 5612TIP3   OH216841   4.583   5.682   3.126 -0.5812  0.3090 -0.3584
 5612TIP3    H116842   4.579   5.741   3.201 -0.5897  0.0361 -0.1420
 5612TIP3    H216843   4.599   5.596   3.165 -1.9073 -0.0531 -0.5674
 5613TIP3   OH216844   1.507   4.045   3.184 -0.1298  0.0030  0.4205
 5613TIP3    H116845   1.435   4.013   3.238 -1.6913 -0.9105 -2.0523
 5613TIP3    H216846   1.477   4.131   3.153 -0.7256 -0.8188 -1.4528
 5614TIP3   OH216847   4.058   4.912   3.435  0.5010  0.3581 -0.4059
 5614TIP3    H116848   4.075   4.818   3.430  1.0068  0.5093 -2.4403
 5614TIP3    H216849   4.125   4.945   3.494 -0.4893 -0.6881  1.3977
 5615TIP3   OH216850   6.218   2.820   4.262 -0.1300 -0.4442  0.4945
 5615TIP3    H116851   6.132   2.840   4.297 -0.8372 -0.3066 -1.2165
 5615TIP3    H216852   6.256   2.758   4.324 -0.2055  1.7040  2.8739
 5616TIP3   OH216853   4.870   1.825   3.210 -0.0751  0.7598  0.0505
 5616TIP3    H116854   4.820   1.744   3.211  0.0697  0.6087  2.8031
 5616TIP3    H216855   4.929   1.816   3.135  0.1686 -1.8397  0.4668
 5617TIP3   OH216856   1.886   1.972   5.037 -0.1039 -0.5702  0.6456
 5617TIP3    H116857   1.869   2.047   5.095 -0.4671  0.8454 -1.2064
 5617TIP3    H216858   1.978   1.980   5.012  0.2218 -1.5283  1.4370
 5618TIP3   OH216859   5.571   5.259   3.845 -0.0584  0.0254  0.3837
 5618TIP3    H116860   5.604   5.322   3.909 -0.3984 -0.1074  0.6919
 5618TIP3    H216861   5.580   5.174   3.888  0.1400 -0.1083  0.0773
 5619TIP3   OH216862   4.871   5.052   4.667  0.2280  0.1360 -0.1997
 5619TIP3    H116863   4.900   4.979   4.722 -0.8708 -1.5939 -1.7778
 5619TIP3    H216864   4.794   5.018   4.621  1.0736  1.4465 -2.7863
 5620TIP3   OH216865   6.311   3.812   0.572  0.1462 -0.3042 -0.1392
 5620TIP3    H116866   6.401   3.836   0.593  0.0943  2.0097 -2.0398
 5620TIP3    H216867   6.316   3.774   0.484 -0.7258  0.1753 -0.4171
 5621TIP3   OH216868   3.390   3.896   3.015 -0.1443 -0.6763  0.1634
 5621TIP3    H116869   3.404   3.805   3.041  1.0571 -1.2847 -2.3026
 5621TIP3    H216870   3.371   3.892   2.922  0.3774  1.6371 -0.1061
 5622TIP3   OH216871   2.312   3.005   4.179  0.0439 -0.2754 -0.1408
 5622TIP3    H116872   2.283   2.916   4.201 -1.1288  0.4244  1.3083
 5622TIP3    H216873   2.406   3.005   4.197  0.0570 -1.2240 -0.1588
 5623TIP3   OH216874   5.264   5.243   4.782  0.2332  0.1400  0.7097
 5623TIP3    H116875   5.201   5.289   4.726  0.3808 -1.8582 -1.2541
 5623TIP3    H216876   5.350   5.270   4.749  0.3211 -1.2989 -0.3289
 5624TIP3   OH216877   5.782   1.100   4.733 -0.3359 -0.2552  0.0286
 5624TIP3    H116878   5.825   1.135   4.811 -0.0878  1.3034 -0.7829
 5624TIP3    H216879   5.704   1.057   4.767  0.6909 -1.2270  1.3068
 5625TIP3   OH216880   0.892   0.510   3.468  0.2730  0.0995 -0.4326
 5625TIP3    H116881   0.937   0.505   3.552  0.6515 -0.1334 -0.6425
 5625TIP3    H216882   0.799   0.498   3.489  0.3821 -0.1258 -0.0696
 5626TIP3   OH216883   0.516   4.099   2.455  0.0542  0.4643  0.3376
 5626TIP3    H116884   0.471   4.064   2.532  1.6098  1.0890  1.5942
 5626TIP3    H216885   0.591   4.042   2.442 -0.9181 -0.4751 -1.6384
 5627TIP3   OH216886   2.292   4.847   0.883  0.1299 -0.1009  0.2364
 5627TIP3    H116887   2.283   4.807   0.797  0.8930  1.2491 -0.5082
 5627TIP3    H216888   2.386   4.849   0.900  0.0459  0.4802  0.6901
 5628TIP3   OH216889   4.859   1.386   2.401  0.4860  0.3326  0.0541
 5628TIP3    H116890   4.863   1.306   2.350  3.5687 -0.3058  1.1031
 5628TIP3    H216891   4.866   1.457   2.337  4.5715 -0.4390 -0.6077
 5629TIP3   OH216892   3.948   1.439   2.103  0.3172 -0.6573 -0.1670
 5629TIP3    H116893   3.921   1.456   2.012  1.4840 -1.9411 -0.7940
 5629TIP3    H216894   3.993   1.519   2.130 -1.9963  0.6286  0.1158
 5630TIP3   OH216895   5.918   0.297   0.348 -0.0647  0.5254 -0.1843
 5630TIP3    H116896   5.947   0.208   0.325 -1.2658 -0.4448  1.7726
 5630TIP3    H216897   5.899   0.338   0.264  1.7880 -0.5849 -1.2280
 5631TIP3   OH216898   3.355   5.768   4.249  0.0109 -0.6328  0.3367
 5631TIP3    H116899   3.437   5.790   4.293 -0.9435  1.0398  1.3688
 5631TIP3    H216900   3.367   5.799   4.159 -0.1411  1.4266  0.9702
 5632TIP3   OH216901   2.536   4.911   0.951  0.1117  0.5693  0.8103
 5632TIP3    H116902   2.595   4.978   0.986 -0.8400  2.0849 -0.3187
 5632TIP3    H216903   2.595   4.845   0.914  1.0960  1.2540  1.0878
 5633TIP3   OH216904   5.684   2.430   2.408  0.2484  0.3318  0.3003
 5633TIP3    H116905   5.663   2.445   2.501 -2.2296  0.6497 -0.2458
 5633TIP3    H216906   5.658   2.339   2.392  1.9073 -0.1576  0.1809
 5634TIP3   OH216907   2.886   2.838   4.443 -0.2040  0.0747 -0.4885
 5634TIP3    H116908   2.960   2.898   4.437  0.0690  0.0000  1.5887
 5634TIP3    H216909   2.810   2.895   4.457 -0.1779  0.0134 -0.1034
 5635TIP3   OH216910   3.092   2.983   1.724  0.0880  0.0002 -0.7889
 5635TIP3    H116911   3.181   2.984   1.688  0.8366 -2.2566  0.7808
 5635TIP3    H216912   3.040   3.035   1.662  2.1819  0.0800 -2.5829
 5636TIP3   OH216913   4.192   4.939   4.011  0.2482 -0.0768  0.0192
 5636TIP3    H116914   4.222   4.849   3.999 -1.0014 -0.5599  0.3582
 5636TIP3    H216915   4.096   4.933   4.016  0.0981  1.3315 -0.4641
 5637TIP3   OH216916   4.533   0.532   2.681  0.0473  0.1811 -0.6301
 5637TIP3    H116917   4.444   0.553   2.707 -0.2039 -1.0916 -0.4126
 5637TIP3    H216918   4.567   0.613   2.643 -1.0355  0.8084 -0.2838
 5638TIP3   OH216919   4.955   1.703   1.778  0.1935  0.2061  0.4185
 5638TIP3    H116920   4.862   1.720   1.766  0.2111  0.2856  0.3914
 5638TIP3    H216921   4.962   1.658   1.862  0.3143  1.8257  1.3072
 5639TIP3   OH216922   4.160   1.273   1.258 -0.9022 -1.0949 -0.0252
 5639TIP3    H116923   4.159   1.366   1.281 -0.1886 -1.1595  0.2718
 5639TIP3    H216924   4.198   1.230   1.334 -2.5120 -1.8029  0.4260
 5640TIP3   OH216925   5.309   4.694   4.206  0.2409 -0.0337 -0.1550
 5640TIP3    H116926   5.400   4.670   4.190  0.5749  1.7483 -1.2885
 5640TIP3    H216927   5.305   4.788   4.185 -1.3749  0.4535  1.9343
 5641TIP3   OH216928   1.266   5.117   1.732  0.2677 -0.2043  0.1669
 5641TIP3    H116929   1.185   5.143   1.688 -0.6474 -1.0715  1.2982
 5641TIP3    H216930   1.333   5.122   1.664 -0.4624  1.8234 -0.4799
 5642TIP3   OH216931   4.856   0.741   2.611  0.4284  0.3770 -0.7383
 5642TIP3    H116932   4.848   0.670   2.548  0.3898 -1.0480  0.8120
 5642TIP3    H216933   4.831   0.820   2.562 -0.6495 -0.8163 -2.1915
 5643TIP3   OH216934   1.996   2.151   1.566  0.0251 -0.6487  0.3502
 5643TIP3    H116935   1.994   2.217   1.496  0.7305 -0.0727  0.8619
 5643TIP3    H216936   1.925   2.091   1.544  0.0300 -0.2994 -0.6933
 5644TIP3   OH216937   1.538  -0.010   3.062 -0.0286  0.2485 -0.4953
 5644TIP3    H116938   1.618  -0.031   3.014  0.9211  0.0384  1.0887
 5644TIP3    H216939   1.489   0.049   3.004  1.4957  0.7589 -1.3102
 5645TIP3   OH216940   1.248   3.806   0.771  0.1834 -0.3226 -0.4719
 5645TIP3    H116941   1.289   3.721   0.758 -1.2492 -1.2695  0.8405
 5645TIP3    H216942   1.184   3.813   0.699 -1.5658 -1.6112  0.8676
 5646TIP3   OH216943   4.990   0.087   4.689 -0.4580 -0.3583  0.4960
 5646TIP3    H116944   5.026   0.175   4.701  1.6277 -1.2151  1.0857
 5646TIP3    H216945   4.915   0.099   4.631  0.3790  1.6651 -0.2659
 5647TIP3   OH216946   3.373   2.936   2.779  0.3156  0.2494  0.2522
 5647TIP3    H116947   3.440   3.002   2.799  3.0441 -1.1590 -3.2050
 5647TIP3    H216948   3.406   2.855   2.818  0.3594 -0.3305 -0.9434
 5648TIP3   OH216949   3.658   1.224   5.133 -0.3652 -0.2445 -0.1365
 5648TIP3    H116950   3.691   1.253   5.048  0.3043  1.3535  0.6150
 5648TIP3    H216951   3.737   1.213   5.187 -0.8626  2.5532  1.3591
 5649TIP3   OH216952   2.618   3.702   1.782  0.0249 -0.1845  0.0865
 5649TIP3    H116953   2.676   3.757   1.835 -0.8350  0.8149  0.0171
 5649TIP3    H216954   2.659   3.699   1.696  0.0371  0.4106  0.0708
 5650TIP3   OH216955   3.122   0.898   3.485 -0.1810 -0.4458  0.2563
 5650TIP3    H116956   3.116   0.927   3.576 -0.4340 -0.3654  0.2148
 5650TIP3    H216957   3.054   0.832   3.476 -0.1804 -0.4274  0.1141
 5651TIP3   OH216958   3.795   2.641   2.878  0.1364  0.0099  0.1650
 5651TIP3    H116959   3.727   2.623   2.812  0.1581 -1.0742  0.4141
 5651TIP3    H216960   3.873   2.662   2.827  0.2182 -1.0675 -0.1845
 5652TIP3   OH216961   2.850   0.079   3.452 -0.3593  0.1627  0.2018
 5652TIP3    H116962   2.817  -0.009   3.471 -0.8948  0.1978 -0.5274
 5652TIP3    H216963   2.772   0.130   3.430 -0.1711  1.0753  1.5209
 5653TIP3   OH216964   4.663   5.007   4.495  0.1682 -0.3078  0.1393
 5653TIP3    H116965   4.581   4.998   4.544  0.6117  1.6287  1.3398
 5653TIP3    H216966   4.644   5.071   4.426  1.1092  1.6574  1.6201
 5654TIP3   OH216967   4.627   4.316   2.502  0.1679 -0.1053 -0.0825
 5654TIP3    H116968   4.695   4.250   2.507  1.7161  1.4878  1.0866
 5654TIP3    H216969   4.656   4.376   2.434 -0.2990  0.3263  0.0898
 5655TIP3   OH216970   6.030   5.011   1.187 -0.2042 -0.3744 -0.0641
 5655TIP3    H116971   6.108   5.064   1.172 -0.0823 -0.2970  0.7617
 5655TIP3    H216972   6.044   4.973   1.274 -0.1897 -1.9185 -0.6962
 5656TIP3   OH216973   2.340   4.096   4.903  0.1265 -0.1552 -0.3461
 5656TIP3    H116974   2.431   4.088   4.874  0.4114 -2.3413  0.9601
 5656TIP3    H216975   2.346   4.103   4.998 -0.9592  3.3206 -0.3986
 5657TIP3   OH216976   2.024   4.648   0.273 -0.2885 -0.3687 -0.1326
 5657TIP3    H116977   1.954   4.613   0.219 -1.0052  0.9449 -0.1013
 5657TIP3    H216978   1.991   4.643   0.363 -1.0305  1.6480 -0.2377
 5658TIP3   OH216979   4.748   4.826   1.357  0.0156  0.5264  0.3660
 5658TIP3    H116980   4.826   4.881   1.350  1.4431 -1.5225 -1.7090
 5658TIP3    H216981   4.779   4.739   1.331 -2.9201 -0.4291 -0.2821
 5659TIP3   OH216982   2.779   5.632   2.453 -0.3474 -0.2498  0.1752
 5659TIP3    H116983   2.724   5.569   2.498 -0.1034 -0.1507  0.6178
 5659TIP3    H216984   2.755   5.624   2.361  0.4916 -1.8131  0.0555
 5660TIP3   OH216985   0.372   5.380   3.631  0.3878  0.4488  0.5109
 5660TIP3    H116986   0.402   5.327   3.705 -0.2856 -1.1473 -0.3081
 5660TIP3    H216987   0.278   5.393   3.648  0.4110  0.8400  0.3645
 5661TIP3   OH216988   0.112   0.293   1.256  0.0253  0.1703  0.1994
 5661TIP3    H116989   0.025   0.285   1.218 -0.0487 -0.1399  0.4300
 5661TIP3    H216990   0.171   0.255   1.191  0.0608  0.9293 -0.2235
 5662TIP3   OH216991   5.437   4.898   2.798 -0.2191  0.4718  0.0962
 5662TIP3    H116992   5.449   4.876   2.706  0.9487  0.0757  0.3246
 5662TIP3    H216993   5.445   4.994   2.800  1.8589  0.3413  0.0353
 5663TIP3   OH216994   5.258   3.711   5.044  0.2584 -0.0538  0.5961
 5663TIP3    H116995   5.329   3.685   5.103  1.6441  0.4439 -0.7740
 5663TIP3    H216996   5.292   3.788   4.998 -0.7281 -0.4569 -0.8892
 5664TIP3   OH216997   3.784   4.707   3.729 -0.6609 -0.1761  0.0989
 5664TIP3    H116998   3.800   4.794   3.694  2.6598  0.3221  2.3893
 5664TIP3    H216999   3.701   4.680   3.690 -0.2776  2.6756 -3.1409
 5665TIP3   OH217000   2.631   5.652   1.506 -0.2361  0.8360 -0.2340
 5665TIP3    H117001   2.693   5.720   1.531 -0.5071  0.2650  2.3573
 5665TIP3    H217002   2.636   5.648   1.411  3.9015  0.6496 -0.2188
 5666TIP3   OH217003   6.200   5.896   1.752 -0.1984 -0.1066  0.7209
 5666TIP3    H117004   6.175   5.803   1.755 -1.9086  0.3112  0.4446
 5666TIP3    H217005   6.188   5.927   1.841  1.2224 -0.3357  1.0093
 5667TIP3   OH217006   5.040   4.993   3.187  0.1699 -0.2995 -0.5409
 5667TIP3    H117007   4.993   4.961   3.264  1.0904 -0.3083  0.0343
 5667TIP3    H217008   5.039   4.919   3.126 -0.3589 -0.3701 -0.4575
 5668TIP3   OH217009   2.805   1.371   0.253  0.4208  0.3528 -0.3077
 5668TIP3    H117010   2.865   1.299   0.231  0.8085  0.4483  0.4198
 5668TIP3    H217011   2.718   1.336   0.232  0.6974  0.1255 -1.1413
 5669TIP3   OH217012   0.314   2.333   4.090  0.5085 -0.0281 -0.1232
 5669TIP3    H117013   0.338   2.241   4.101 -0.6959 -0.3769 -0.2539
 5669TIP3    H217014   0.320   2.370   4.178 -1.5311 -0.9075  0.4637
 5670TIP3   OH217015   3.329   2.857   2.537 -0.4514 -0.2954 -0.1984
 5670TIP3    H117016   3.279   2.929   2.498  0.8223 -0.5573 -2.4545
 5670TIP3    H217017   3.341   2.883   2.628 -0.9547  1.8392 -0.6883
 5671TIP3   OH217018   3.269   2.216   0.497  0.1966 -0.3495  0.3059
 5671TIP3    H117019   3.304   2.295   0.455 -1.6033  1.3006  1.7431
 5671TIP3    H217020   3.347   2.166   0.522  1.4633  1.6740  0.6351
 5672TIP3   OH217021   2.391   3.256   1.402 -0.6542  0.0500  0.1880
 5672TIP3    H117022   2.355   3.176   1.366 -1.8549  0.4418  0.4783
 5672TIP3    H217023   2.442   3.227   1.478 -1.1254 -0.4296  0.3255
 5673TIP3   OH217024   3.478   1.208   1.160 -0.3793 -0.1371  0.1392
 5673TIP3    H117025   3.426   1.139   1.199 -0.2768 -0.3848 -0.1582
 5673TIP3    H217026   3.523   1.249   1.234 -1.3077  0.3578  0.4489
 5674TIP3   OH217027   5.829   2.564   5.002  0.1602 -0.5248  0.3053
 5674TIP3    H117028   5.793   2.556   5.090 -0.8659 -0.5023 -0.0912
 5674TIP3    H217029   5.826   2.475   4.966  2.4831 -0.9204  0.9785
 5675TIP3   OH217030   5.579   0.362   1.214 -0.1562 -0.0848 -0.1056
 5675TIP3    H117031   5.493   0.361   1.173 -0.1423  0.5144 -0.1584
 5675TIP3    H217032   5.562   0.357   1.308 -0.2583  0.2755 -0.1050
 5676TIP3   OH217033   1.678   4.671   0.257 -0.3609  0.3962  0.4720
 5676TIP3    H117034   1.714   4.720   0.183  0.6444  1.8033  1.8419
 5676TIP3    H217035   1.646   4.737   0.317 -0.1120 -0.6719  1.8233
 5677TIP3   OH217036   6.323   3.612   3.231  0.4084 -0.5043  0.1362
 5677TIP3    H117037   6.235   3.576   3.242  0.6173 -1.1160 -0.1248
 5677TIP3    H217038   6.367   3.549   3.174  1.3302 -0.7473  1.0821
 5678TIP3   OH217039   4.899   5.781   3.739  0.5969  0.1721 -0.2376
 5678TIP3    H117040   4.992   5.769   3.756  0.4670 -0.1894  0.2147
 5678TIP3    H217041   4.887   5.877   3.738  0.8048  0.2118  0.6223
 5679TIP3   OH217042   5.445   2.996   4.787 -0.3568 -0.1980  0.0410
 5679TIP3    H117043   5.452   3.087   4.817 -0.3248 -0.0817 -0.3171
 5679TIP3    H217044   5.413   3.003   4.697 -0.0537 -0.5327 -0.0918
 5680TIP3   OH217045   3.727   0.446   0.889  0.1024 -0.0078 -0.0297
 5680TIP3    H117046   3.810   0.434   0.843 -0.4418  0.6661 -1.2309
 5680TIP3    H217047   3.739   0.399   0.971  2.0298  0.9180  0.2738
 5681TIP3   OH217048   1.358   1.295   0.072 -0.2131  0.3699  0.7302
 5681TIP3    H117049   1.343   1.245  -0.009 -1.8028  1.0410  0.5836
 5681TIP3    H217050   1.438   1.345   0.055 -0.5945  0.5913 -0.4826
 5682TIP3   OH217051   2.677   3.071   3.405  0.4806 -0.2822 -0.5522
 5682TIP3    H117052   2.762   3.069   3.361  0.2888  1.3626 -1.0585
 5682TIP3    H217053   2.664   2.982   3.437  1.5315 -1.0257 -2.1100
 5683TIP3   OH217054   6.009   3.262   2.617  0.0860 -0.2895  0.3618
 5683TIP3    H117055   6.045   3.293   2.534  0.4721 -2.0330 -0.1705
 5683TIP3    H217056   6.071   3.292   2.683  0.0143  0.7200 -0.0092
 5684TIP3   OH217057   0.189   2.039   2.225  0.4134  0.0866  0.5621
 5684TIP3    H117058   0.111   2.074   2.181  1.3821  0.8921 -0.6018
 5684TIP3    H217059   0.219   2.111   2.281  1.4492  0.5528 -0.5467
 5685TIP3   OH217060   0.211   5.056   3.634  0.2507  0.4136 -0.0452
 5685TIP3    H117061   0.289   5.058   3.578  0.4408 -0.5186  0.1760
 5685TIP3    H217062   0.141   5.090   3.578  0.6159  0.3126 -0.5696
 5686TIP3   OH217063   2.121   2.834   4.790 -0.1695  0.1735 -0.2211
 5686TIP3    H117064   2.046   2.892   4.795 -0.5246 -0.1315 -1.5167
 5686TIP3    H217065   2.085   2.746   4.798  0.2825  0.0869  1.0311
 5687TIP3   OH217066   2.229   0.202   3.025 -0.1042  0.8107 -0.3137
 5687TIP3    H117067   2.321   0.197   3.054  0.4879  1.4833 -1.9666
 5687TIP3    H217068   2.203   0.292   3.044 -0.0447  0.9546 -0.9064
 5688TIP3   OH217069   1.195   0.521   2.445 -0.4231  0.2584  0.5764
 5688TIP3    H117070   1.206   0.559   2.532 -1.5058  1.0582  0.3915
 5688TIP3    H217071   1.134   0.448   2.457 -1.5171  1.1106  0.3253
 5689TIP3   OH217072   4.137   3.220   3.013  0.2116  0.2040  0.3260
 5689TIP3    H117073   4.217   3.180   2.978 -0.5494 -0.2885 -0.9079
 5689TIP3    H217074   4.164   3.308   3.038  1.2248 -0.0661  0.2392
 5690TIP3   OH217075   1.668   4.463   1.408  0.2033 -0.0442  0.6183
 5690TIP3    H117076   1.678   4.407   1.330  1.8538  0.9499  0.0730
 5690TIP3    H217077   1.575   4.487   1.408  0.4516  1.2451 -2.0118
 5691TIP3   OH217078   5.209   1.354   0.187 -0.0628  0.6198 -0.4409
 5691TIP3    H117079   5.274   1.363   0.117  0.7850 -2.6870 -0.2228
 5691TIP3    H217080   5.127   1.340   0.141 -0.2911  2.5786 -0.7097
 5692TIP3   OH217081   2.544   2.884   3.816  0.4809 -0.2169 -0.3832
 5692TIP3    H117082   2.478   2.815   3.827 -1.9681  1.8510 -1.2589
 5692TIP3    H217083   2.573   2.875   3.726  0.9348 -0.7289 -0.1898
 5693TIP3   OH217084   1.388   3.788   3.063  0.0597  0.5456 -0.9086
 5693TIP3    H117085   1.455   3.857   3.059  0.2076  0.4133 -0.7350
 5693TIP3    H217086   1.339   3.808   3.143  0.0316  0.5145 -0.9182
 5694TIP3   OH217087   1.252   0.800   0.237  0.4778  0.1082 -0.0523
 5694TIP3    H117088   1.175   0.856   0.237  0.5293  0.2834  2.1724
 5694TIP3    H217089   1.219   0.714   0.265  0.9254 -0.0535 -0.0106
 5695TIP3   OH217090   4.663   2.379   3.560 -0.6742  0.1784 -0.4668
 5695TIP3    H117091   4.738   2.430   3.527  0.4509 -0.2371  1.3130
 5695TIP3    H217092   4.598   2.445   3.582 -0.9954  0.5306 -2.3386
 5696TIP3   OH217093   3.322   4.720   3.337  0.0926  0.5048 -0.5283
 5696TIP3    H117094   3.363   4.649   3.387  2.1314  2.4830  0.7645
 5696TIP3    H217095   3.298   4.680   3.254  0.4056 -1.8789  0.4544
 5697TIP3   OH217096   2.317   1.527   4.418  0.0961  0.0260 -0.7505
 5697TIP3    H117097   2.222   1.515   4.424 -0.2320  1.0303 -3.0054
 5697TIP3    H217098   2.328   1.607   4.366  2.1908  0.2861 -0.0020
 5698TIP3   OH217099   5.312   3.478   4.104  0.1241  0.4857  0.2065
 5698TIP3    H117100   5.314   3.397   4.054  1.2286  1.4238 -1.3575
 5698TIP3    H217101   5.252   3.535   4.056 -0.6841  0.6122  1.3150
 5699TIP3   OH217102   1.784   4.971   2.066  0.1003 -0.1565  0.2198
 5699TIP3    H117103   1.841   4.970   2.143 -0.4403  1.1923  0.6638
 5699TIP3    H217104   1.844   4.958   1.992  0.8208 -0.0049  0.7617
 5700TIP3   OH217105   2.827   1.530   2.611  0.1417  0.5346 -0.3599
 5700TIP3    H117106   2.749   1.574   2.577  0.1474 -0.4471 -1.7935
 5700TIP3    H217107   2.896   1.595   2.606 -0.2276  0.9061 -0.7365
 5701TIP3   OH217108   0.721   4.535   1.984 -0.3504 -0.0278  0.8703
 5701TIP3    H117109   0.717   4.623   1.946 -1.6673 -0.3105  0.3132
 5701TIP3    H217110   0.675   4.480   1.921  0.3091 -1.0962  1.3027
 5702TIP3   OH217111   0.932   4.832   4.378 -0.3216 -0.8792 -0.0185
 5702TIP3    H117112   0.982   4.797   4.304 -0.0399 -2.3940  0.8294
 5702TIP3    H217113   0.850   4.783   4.376 -1.2785  0.7095 -0.6663
 5703TIP3   OH217114   4.455   5.234   3.781 -0.0340 -0.0321 -0.1326
 5703TIP3    H117115   4.527   5.296   3.790  0.2056  0.0893 -2.2145
 5703TIP3    H217116   4.387   5.284   3.735 -1.5593 -0.0972  1.9157
 5704TIP3   OH217117   0.731   0.606   5.136  0.0932 -0.0630  0.7925
 5704TIP3    H117118   0.808   0.549   5.144  0.4464  0.3275  0.2453
 5704TIP3    H217119   0.668   0.553   5.088 -0.2140 -0.6018  1.7525
 5705TIP3   OH217120   6.046   4.640   1.639  0.3533  0.1118  0.2716
 5705TIP3    H117121   6.015   4.709   1.697  1.9969  0.5469  0.6910
 5705TIP3    H217122   6.027   4.559   1.685 -1.5107  0.2503 -0.1829
 5706TIP3   OH217123   0.683   1.046   4.518  0.4416 -0.0470  0.8413
 5706TIP3    H117124   0.616   1.045   4.449  0.4166 -0.1812  0.8682
 5706TIP3    H217125   0.734   1.126   4.500  0.4310 -0.0777  0.6720
 5707TIP3   OH217126   3.400   4.742   4.654  0.6031 -0.3309  0.0112
 5707TIP3    H117127   3.439   4.808   4.712  1.5486  0.3695 -1.3710
 5707TIP3    H217128   3.461   4.735   4.581 -0.5396 -1.2208 -0.8969
 5708TIP3   OH217129   4.931   2.901   0.446  0.0437  0.0272 -0.2376
 5708TIP3    H117130   4.938   2.908   0.351  2.5313  1.5841 -0.0400
 5708TIP3    H217131   4.982   2.976   0.479 -0.8459 -0.3938  2.3188
 5709TIP3   OH217132   1.222   2.633   3.056 -0.2111  0.3497  0.0350
 5709TIP3    H117133   1.308   2.649   3.015 -0.2943  1.0418  0.1175
 5709TIP3    H217134   1.220   2.693   3.130 -0.4069 -0.3031  0.5613
 5710TIP3   OH217135   0.380   2.539   3.956 -0.7185  0.0131 -0.1012
 5710TIP3    H117136   0.302   2.588   3.929  0.0273  0.7733 -0.9557
 5710TIP3    H217137   0.346   2.455   3.986 -1.8982  0.4728 -0.0896
 5711TIP3   OH217138   0.812   4.760   0.615 -0.6936  0.6182 -0.1739
 5711TIP3    H117139   0.866   4.831   0.648 -0.5395  1.0940 -1.3936
 5711TIP3    H217140   0.847   4.742   0.528 -1.3128 -0.3344 -0.2373
 5712TIP3   OH217141   4.227   4.324   0.040 -1.1742 -0.0397  0.5361
 5712TIP3    H117142   4.201   4.341  -0.050 -0.8647  1.7111  0.7456
 5712TIP3    H217143   4.145   4.327   0.090 -1.0817  1.6305  0.6515
 5713TIP3   OH217144   4.731   5.044   2.731  0.1328  0.6649 -0.6510
 5713TIP3    H117145   4.666   5.074   2.795 -0.5051 -0.8960 -0.5191
 5713TIP3    H217146   4.778   5.124   2.704 -0.3725  1.5130  0.8792
 5714TIP3   OH217147   1.569   5.383   3.458  0.2482  0.4225 -0.2960
 5714TIP3    H117148   1.645   5.341   3.498 -0.8284  0.2411  1.7064
 5714TIP3    H217149   1.562   5.468   3.503 -1.5430 -0.1633  0.6202
 5715TIP3   OH217150   6.071   3.685   0.486  0.4219 -0.3558  0.7477
 5715TIP3    H117151   6.160   3.663   0.515  0.7033  0.4550  0.5275
 5715TIP3    H217152   6.067   3.781   0.493 -0.5385 -0.4107  1.0425
 5716TIP3   OH217153   0.247   4.521   0.636  0.5441  0.4648  0.1977
 5716TIP3    H117154   0.291   4.583   0.695  0.8757  2.1641 -1.7122
 5716TIP3    H217155   0.190   4.576   0.582 -0.6616 -1.1820 -0.2645
 5717TIP3   OH217156   1.514   1.129   3.367  0.0661  0.2166 -0.1005
 5717TIP3    H117157   1.421   1.134   3.342 -0.4478  1.7502  1.8358
 5717TIP3    H217158   1.536   1.218   3.395  2.3497  0.0308 -1.1134
 5718TIP3   OH217159   4.231   1.392   2.326 -0.2822  0.0951  0.2949
 5718TIP3    H117160   4.248   1.485   2.316 -1.0747  0.0535 -1.9318
 5718TIP3    H217161   4.147   1.387   2.371 -0.9596  0.5026 -0.8972
 5719TIP3   OH217162   3.948   0.667   5.085 -1.0353  0.4805  0.3143
 5719TIP3    H117163   3.922   0.585   5.042  3.3978 -1.3112  0.4967
 5719TIP3    H217164   3.948   0.645   5.179  1.6843 -0.0323  0.2907
 5720TIP3   OH217165   5.918   4.179   1.802 -0.3795 -0.2231 -0.2663
 5720TIP3    H117166   5.915   4.101   1.857  2.5680 -0.4078 -0.1999
 5720TIP3    H217167   5.889   4.149   1.716  0.6083 -1.4062 -0.2168
 5721TIP3   OH217168   6.300   4.608   4.552  0.1185 -0.2336  0.4231
 5721TIP3    H117169   6.219   4.613   4.501  0.6627 -0.7365 -0.5226
 5721TIP3    H217170   6.306   4.692   4.596 -0.5156  0.1141 -0.1337
 5722TIP3   OH217171   1.131   4.327   3.213  0.5420  0.0442 -0.0280
 5722TIP3    H117172   1.056   4.333   3.272  0.4285 -1.0520 -0.0463
 5722TIP3    H217173   1.128   4.409   3.162 -1.2512 -0.4214 -0.7334
 5723TIP3   OH217174   2.408   3.752   3.023  0.4723  0.0763  0.6898
 5723TIP3    H117175   2.486   3.731   2.971  1.3892  2.4478  1.0123
 5723TIP3    H217176   2.403   3.847   3.023 -1.9039  0.0203  1.5120
 5724TIP3   OH217177   0.016   5.101   1.729 -0.3652  0.3936 -0.5482
 5724TIP3    H117178   0.019   5.171   1.664  1.6937  0.6439 -0.2539
 5724TIP3    H217179   0.088   5.043   1.706 -0.1751 -0.0104  0.9460
 5725TIP3   OH217180   4.926   5.098   0.718  0.4147 -0.0257  0.4194
 5725TIP3    H117181   4.894   5.017   0.679  0.0943 -1.4296  3.3358
 5725TIP3    H217182   4.908   5.165   0.652 -0.0145 -2.1634 -1.7892
 5726TIP3   OH217183   2.574   2.266   5.113 -0.1651  0.6124  0.3696
 5726TIP3    H117184   2.583   2.173   5.138 -0.8748 -0.0533 -1.6706
 5726TIP3    H217185   2.509   2.301   5.174 -2.2189 -1.0727 -0.7220
 5727TIP3   OH217186   2.945   3.818   4.129  0.1941 -0.5912  0.5761
 5727TIP3    H117187   2.939   3.912   4.141  3.3768 -0.2085  0.0186
 5727TIP3    H217188   2.880   3.798   4.061  0.0978  1.3449  0.0438
 5728TIP3   OH217189   5.266   2.832   2.903  0.0036  0.2557  0.6511
 5728TIP3    H117190   5.305   2.753   2.867 -0.3012  0.5809 -0.4345
 5728TIP3    H217191   5.325   2.902   2.877  0.2403  0.3975  1.5573
 5729TIP3   OH217192   0.386   1.162   2.333 -0.4501  0.1137  0.1100
 5729TIP3    H117193   0.453   1.117   2.385 -0.4279 -0.1974 -0.1835
 5729TIP3    H217194   0.434   1.232   2.289 -0.0715 -0.7790 -0.9690
 5730TIP3   OH217195   0.204   5.186   4.431 -0.4344 -0.0489 -0.4752
 5730TIP3    H117196   0.151   5.246   4.485 -0.9924  0.6324 -1.7355
 5730TIP3    H217197   0.156   5.103   4.434  0.8132 -0.7950  2.0309
 5731TIP3   OH217198   0.443   4.699   1.878 -0.1767  0.1714 -0.2758
 5731TIP3    H117199   0.371   4.750   1.840  0.5239  0.4116 -1.2929
 5731TIP3    H217200   0.405   4.663   1.959 -0.9390  1.6485  0.0743
 5732TIP3   OH217201   3.019   5.602   4.016  0.4803  0.0479  0.3169
 5732TIP3    H117202   3.041   5.693   4.036 -3.0782  0.9946  0.6849
 5732TIP3    H217203   3.041   5.592   3.923 -0.6460  1.8962 -0.2071
 5733TIP3   OH217204   3.362   3.833   2.737 -0.0175 -0.4900 -0.3967
 5733TIP3    H117205   3.453   3.849   2.711 -0.0542  0.1521 -0.1504
 5733TIP3    H217206   3.310   3.862   2.663 -0.1504  1.8586  0.5247
 5734TIP3   OH217207   0.846   0.085   3.578  0.2572 -0.0430 -0.3128
 5734TIP3    H117208   0.832   0.154   3.513  1.5442 -1.2324 -1.9283
 5734TIP3    H217209   0.762   0.077   3.623 -0.8167  0.5178 -2.1337
 5735TIP3   OH217210   2.991   1.187   0.040 -0.3687 -0.1826 -0.4984
 5735TIP3    H117211   3.062   1.246   0.066  0.1222 -1.6360  1.7847
 5735TIP3    H217212   2.990   1.120   0.109 -1.1387 -2.6452 -2.7479
 5736TIP3   OH217213   4.642   2.900   4.942 -0.0208 -0.1048 -0.2216
 5736TIP3    H117214   4.685   2.837   5.000  0.3969  0.8982  0.5881
 5736TIP3    H217215   4.567   2.852   4.906  0.2967 -1.0663  0.3518
 5737TIP3   OH217216   4.457   2.944   1.784  0.9482  0.1004  0.3526
 5737TIP3    H117217   4.501   2.862   1.804  0.7656 -0.4490 -1.3258
 5737TIP3    H217218   4.519   2.991   1.729  0.6816  0.7021  0.5575
 5738TIP3   OH217219   3.056   5.102   3.373  0.0124  0.0734 -0.1036
 5738TIP3    H117220   3.011   5.080   3.454  0.0752  2.2721  0.5863
 5738TIP3    H217221   3.148   5.107   3.397  0.0992  0.1468 -0.4452
 5739TIP3   OH217222   6.260   4.827   4.750  0.5646 -0.2227  0.1185
 5739TIP3    H117223   6.229   4.862   4.833  2.2304  1.2236  0.1878
 5739TIP3    H217224   6.350   4.860   4.742  0.2927  0.0900 -2.4822
 5740TIP3   OH217225   5.895   3.021   3.507 -0.0909  0.4220 -0.4084
 5740TIP3    H117226   5.849   2.943   3.538 -0.9786  1.2114  0.3402
 5740TIP3    H217227   5.887   3.018   3.412  0.5012 -0.7477 -0.4442
 5741TIP3   OH217228   4.272   5.397   1.419 -0.7488 -0.1769  0.2327
 5741TIP3    H117229   4.180   5.378   1.401 -0.6428 -0.4255 -0.0588
 5741TIP3    H217230   4.276   5.492   1.427 -1.2662 -0.2367  1.5689
 5742TIP3   OH217231   2.012   0.494   1.773  0.6613 -0.0804 -0.3777
 5742TIP3    H117232   1.938   0.548   1.800 -0.3068 -1.2894 -0.5092
 5742TIP3    H217233   2.056   0.545   1.705 -2.1690 -0.7341 -2.9448
 5743TIP3   OH217234   5.554   1.449   1.640  0.1754 -0.5383  0.0612
 5743TIP3    H117235   5.603   1.511   1.586 -0.9581 -0.8809 -1.4527
 5743TIP3    H217236   5.620   1.407   1.695  1.4034 -0.1892 -1.0830
 5744TIP3   OH217237   4.256   0.582   4.513  0.1482  0.6169 -0.6337
 5744TIP3    H117238   4.320   0.638   4.556 -1.1540  1.2835  0.5004
 5744TIP3    H217239   4.171   0.617   4.540 -0.7069 -0.3513 -1.9516
 5745TIP3   OH217240   2.599   2.519   2.251 -0.3619 -0.5416 -0.1177
 5745TIP3    H117241   2.685   2.526   2.292 -0.6559  0.1946  0.3681
 5745TIP3    H217242   2.609   2.563   2.166 -0.3234 -0.2626  0.0330
 5746TIP3   OH217243   3.140   0.770   1.308 -0.0683 -0.1949 -0.1766
 5746TIP3    H117244   3.140   0.803   1.398 -1.4142 -0.0942 -0.2020
 5746TIP3    H217245   3.216   0.712   1.304  0.5827  0.5753  0.7327
 5747TIP3   OH217246   2.061   1.236   1.036  0.4990  0.3387  0.1593
 5747TIP3    H117247   2.049   1.141   1.047  0.6296 -0.0752 -2.5262
 5747TIP3    H217248   1.973   1.269   1.022  0.3222  0.8546  2.1790
 5748TIP3   OH217249   5.523   5.690   2.443 -0.3626  0.2122  0.0778
 5748TIP3    H117250   5.506   5.635   2.367 -2.5106  0.2537  0.4722
 5748TIP3    H217251   5.600   5.742   2.419 -0.0650 -0.8682 -1.4287
 5749TIP3   OH217252   3.377   0.457   0.483  0.0560 -0.3374 -0.4856
 5749TIP3    H117253   3.372   0.370   0.444 -1.8203 -0.5866  0.2105
 5749TIP3    H217254   3.438   0.447   0.556  0.7151 -0.7699 -1.0785
 5750TIP3   OH217255   1.803   0.638   1.848  0.1395  0.0469 -0.2852
 5750TIP3    H117256   1.736   0.625   1.781  1.4920 -0.7095 -1.5498
 5750TIP3    H217257   1.770   0.711   1.901 -1.7005 -0.3628 -0.7979
 5751TIP3   OH217258   1.292   4.797   0.663  0.6718  0.3613 -0.9894
 5751TIP3    H117259   1.315   4.814   0.754  1.4957 -0.9982 -0.9146
 5751TIP3    H217260   1.247   4.876   0.634 -0.1836  0.5625  0.7811
 5752TIP3   OH217261   4.427   1.932   4.716 -0.1725  0.1866  0.1456
 5752TIP3    H117262   4.506   1.878   4.721 -0.2911 -0.1680 -1.3372
 5752TIP3    H217263   4.392   1.915   4.628 -2.0314  0.1672  0.8456
 5753TIP3   OH217264   0.751   2.568   3.607 -0.5371  0.1170  0.0805
 5753TIP3    H117265   0.792   2.492   3.647  0.8720  1.0520  0.4783
 5753TIP3    H217266   0.700   2.608   3.677 -1.5167 -0.5942 -0.2043
 5754TIP3   OH217267   2.379   4.302   1.702 -0.5128  0.5826 -0.0570
 5754TIP3    H117268   2.313   4.330   1.766 -1.2489  0.4622 -0.7488
 5754TIP3    H217269   2.328   4.266   1.629  0.3332  0.1227 -0.4366
 5755TIP3   OH217270   0.874   5.444   3.247 -0.2956  0.1609  0.4005
 5755TIP3    H117271   0.958   5.449   3.293 -0.6795  1.0118  1.0479
 5755TIP3    H217272   0.885   5.500   3.171 -0.4542  0.7513  0.8022
 5756TIP3   OH217273   6.027   0.363   4.315  0.1546  0.2584 -0.1573
 5756TIP3    H117274   6.080   0.289   4.286 -0.9627 -1.1402  1.1439
 5756TIP3    H217275   6.055   0.379   4.405 -0.2500  0.8070 -0.1197
 5757TIP3   OH217276   3.903   2.427   0.312  0.4140  1.0930 -0.3013
 5757TIP3    H117277   3.977   2.464   0.361 -0.4957  0.7151  1.4201
 5757TIP3    H217278   3.833   2.491   0.323  0.3564  1.2983 -1.6672
 5758TIP3   OH217279   4.328   3.077   2.859  0.1366 -0.2426  0.2059
 5758TIP3    H117280   4.390   3.014   2.823 -0.8870 -0.9256 -0.4497
 5758TIP3    H217281   4.271   3.099   2.785 -0.7603 -0.0891  0.9224
 5759TIP3   OH217282   0.052   2.543   2.246 -0.0078  0.5886  0.4220
 5759TIP3    H117283   0.019   2.459   2.216  1.0859 -0.1001  1.0949
 5759TIP3    H217284  -0.027   2.596   2.260 -0.6538  0.4128 -1.9992
 5760TIP3   OH217285   0.972   2.394   2.684 -0.1121  0.2108  0.7424
 5760TIP3    H117286   0.973   2.459   2.755 -1.4861  1.3012 -0.1814
 5760TIP3    H217287   0.895   2.417   2.632  0.7517 -0.6948 -1.0032
 5761TIP3   OH217288   2.406   0.464   0.112 -0.0380 -0.0572 -0.1274
 5761TIP3    H117289   2.406   0.439   0.020  1.2228 -0.3718 -0.0569
 5761TIP3    H217290   2.391   0.559   0.112  0.6646  0.0609 -0.7034
 5762TIP3   OH217291   0.038   0.459   2.022 -0.7258  0.2569  0.3297
 5762TIP3    H117292   0.006   0.368   2.026  0.0809 -0.0769 -0.4765
 5762TIP3    H217293   0.097   0.460   1.947 -0.6118  1.4271  0.4207
 5763TIP3   OH217294   3.530   0.534   3.495  1.1323  0.4126 -0.7258
 5763TIP3    H117295   3.589   0.478   3.445  0.4512 -0.2355 -0.8160
 5763TIP3    H217296   3.543   0.507   3.586 -0.1710 -0.8518 -0.8882
 5764TIP3   OH217297   1.654   2.404   3.073  0.1205  0.2747  0.1333
 5764TIP3    H117298   1.689   2.450   3.149  0.2141 -1.2474  1.0720
 5764TIP3    H217299   1.565   2.379   3.100  0.8630 -2.0881  0.6283
 5765TIP3   OH217300   3.648   0.749   2.866 -0.1285 -0.5861 -0.4863
 5765TIP3    H117301   3.639   0.741   2.961  1.4503 -1.9038 -0.4028
 5765TIP3    H217302   3.648   0.843   2.849 -1.0425 -0.3466  0.7312
 5766TIP3   OH217303   4.149   0.250   1.524  0.2619 -0.4829  0.4182
 5766TIP3    H117304   4.074   0.259   1.584  0.8170 -1.7112  1.3413
 5766TIP3    H217305   4.111   0.217   1.443 -0.3227 -0.1329  0.5404
 5767TIP3   OH217306   3.396   2.580   0.096 -0.5263  0.4515 -0.4170
 5767TIP3    H117307   3.468   2.618   0.147 -0.2145 -0.8700  0.1645
 5767TIP3    H217308   3.317   2.617   0.135 -0.3102 -0.7131  1.2316
 5768TIP3   OH217309   1.423   0.380   3.510 -0.0038 -0.3111 -0.0165
 5768TIP3    H117310   1.363   0.451   3.534 -1.1330 -0.7318 -1.4503
 5768TIP3    H217311   1.464   0.355   3.593 -0.3306  1.3192  0.6842
 5769TIP3   OH217312   1.752   3.648   4.295  0.2403  0.6043 -0.3559
 5769TIP3    H117313   1.702   3.567   4.300 -0.1856  0.6997 -2.1976
 5769TIP3    H217314   1.730   3.685   4.209  0.8790  2.3777  0.1845
 5770TIP3   OH217315   6.038   1.893   4.970 -0.0507  0.0225 -0.1362
 5770TIP3    H117316   5.989   1.951   4.911  1.0027  0.4451 -0.6254
 5770TIP3    H217317   6.090   1.953   5.023  0.9792 -0.4704 -0.5795
 5771TIP3   OH217318   3.204   5.053   3.896  0.3871 -0.4822  0.3149
 5771TIP3    H117319   3.228   5.027   3.985 -0.6905 -0.6050  0.5796
 5771TIP3    H217320   3.115   5.087   3.904  0.1338 -0.8503 -0.7844
 5772TIP3   OH217321   3.995   1.669   5.061 -0.0370  0.6128 -0.4563
 5772TIP3    H117322   4.067   1.619   5.024 -0.3655  0.6792 -1.2090
 5772TIP3    H217323   3.952   1.709   4.985  0.3073  2.1736  0.1287
 5773TIP3   OH217324   3.804   2.354   3.007 -0.3695  0.7631 -0.5167
 5773TIP3    H117325   3.791   2.444   2.977  1.5620  0.5273 -2.2573
 5773TIP3    H217326   3.898   2.339   3.001 -0.4129 -0.8013  1.5622
 5774TIP3   OH217327   0.391   5.049   0.166 -0.3185  0.6807 -0.0122
 5774TIP3    H117328   0.404   5.096   0.249 -0.5508 -0.3954  0.6520
 5774TIP3    H217329   0.311   5.089   0.129  1.0376  2.7647 -0.9033
 5775TIP3   OH217330   0.043   3.997   1.459 -0.4383  0.5669 -0.2007
 5775TIP3    H117331  -0.005   4.025   1.382  0.6323 -0.9312 -1.4832
 5775TIP3    H217332  -0.010   4.026   1.533 -1.9231  1.2945 -1.4990
 5776TIP3   OH217333   3.314   1.831   1.293  0.5644 -0.1395  0.2449
 5776TIP3    H117334   3.355   1.831   1.207  1.0752  2.3843  0.4276
 5776TIP3    H217335   3.384   1.857   1.353  0.5196 -2.8940  1.6734
 5777TIP3   OH217336   4.346   1.729   2.911  0.6367 -0.3797  0.8058
 5777TIP3    H117337   4.297   1.649   2.890  0.0239 -0.1807  1.4497
 5777TIP3    H217338   4.424   1.724   2.855 -0.5839 -0.2042 -1.0018
 5778TIP3   OH217339   0.491   5.464   2.283  0.1185 -0.3584  0.3758
 5778TIP3    H117340   0.577   5.446   2.245  0.2767  1.3534 -0.1502
 5778TIP3    H217341   0.433   5.398   2.244  1.0233 -1.0111  0.1097
 5779TIP3   OH217342   0.351  -0.022   3.562 -0.6800  0.3105 -0.0153
 5779TIP3    H117343   0.337   0.048   3.626 -0.5519  1.0589 -0.7895
 5779TIP3    H217344   0.311   0.011   3.481 -0.6395 -0.5231 -0.3875
 5780TIP3   OH217345   4.914   2.945   3.518 -0.1036  0.0539 -0.2413
 5780TIP3    H117346   4.998   2.981   3.487 -0.8540  0.4757 -1.9267
 5780TIP3    H217347   4.888   2.883   3.449  0.2330 -2.3931  1.6945
 5781TIP3   OH217348   3.713   2.466   3.261 -0.1107 -0.6046  0.3298
 5781TIP3    H117349   3.718   2.412   3.340 -0.9383 -1.1540  0.0184
 5781TIP3    H217350   3.727   2.405   3.189 -0.9845 -0.4072 -0.0212
 5782TIP3   OH217351   0.471   4.853   4.350 -0.3837  0.0334  0.3691
 5782TIP3    H117352   0.511   4.887   4.431 -0.9048  0.0005  0.6444
 5782TIP3    H217353   0.418   4.926   4.317  0.1416  0.1825 -0.1630
 5783TIP3   OH217354   1.735   4.764   4.917  0.2913 -0.2988  0.3603
 5783TIP3    H117355   1.645   4.732   4.925  0.1154  0.3139  0.9512
 5783TIP3    H217356   1.782   4.692   4.874 -0.6109 -0.3667 -0.5519
 5784TIP3   OH217357   1.427   3.855   4.154  0.3272  0.2003  0.4175
 5784TIP3    H117358   1.512   3.827   4.119 -0.8108 -0.4715 -2.0554
 5784TIP3    H217359   1.448   3.900   4.236  3.1240  0.7898 -0.5123
 5785TIP3   OH217360   1.406   5.320   2.064 -0.5781  0.0251  0.3940
 5785TIP3    H117361   1.485   5.270   2.084 -1.8951 -1.9161  0.9433
 5785TIP3    H217362   1.433   5.412   2.075  1.4024 -0.6057  1.2383
 5786TIP3   OH217363   2.039   1.993   3.888  0.1001 -0.0084 -1.1023
 5786TIP3    H117364   2.032   1.917   3.946  1.3011  2.3536  2.4274
 5786TIP3    H217365   2.123   1.983   3.844  0.7752 -0.2496  0.1903
 5787TIP3   OH217366   4.285   0.867   4.022  0.0067  0.2402 -0.5821
 5787TIP3    H117367   4.375   0.841   4.003 -0.0819 -0.4339 -0.1172
 5787TIP3    H217368   4.257   0.807   4.091 -1.3766 -0.6876 -1.9169
 5788TIP3   OH217369   0.421   3.799   1.773 -0.2633  0.6291  0.0590
 5788TIP3    H117370   0.427   3.811   1.868 -1.3690 -0.7638  0.3306
 5788TIP3    H217371   0.328   3.805   1.754 -0.1576 -0.2486 -0.7812
 5789TIP3   OH217372   1.648   0.967   2.446  0.4773 -0.2744 -0.8946
 5789TIP3    H117373   1.591   1.011   2.384  0.1474  0.3543 -0.1707
 5789TIP3    H217374   1.639   1.018   2.527  0.3333 -1.4790 -0.1223
 5790TIP3   OH217375   0.627   4.661   1.292  0.0776 -0.5076 -0.5932
 5790TIP3    H117376   0.696   4.649   1.227  0.5297  0.6590 -0.3624
 5790TIP3    H217377   0.547   4.671   1.241  0.5693  1.4217 -1.0869
 5791TIP3   OH217378   1.476   1.701   5.201 -0.1305  0.3010  0.2496
 5791TIP3    H117379   1.499   1.645   5.127  0.4346 -1.6751  1.8158
 5791TIP3    H217380   1.386   1.728   5.184 -0.6581 -1.6427 -0.2995
 5792TIP3   OH217381   4.599   2.183   3.737 -0.1522  0.2158 -0.2776
 5792TIP3    H117382   4.638   2.267   3.714 -0.2071 -0.0653 -1.4648
 5792TIP3    H217383   4.532   2.168   3.670 -0.1381 -0.7749 -0.0918
 5793TIP3   OH217384   3.643   3.600   4.999  0.2436  0.1496 -0.3254
 5793TIP3    H117385   3.702   3.546   4.947 -0.6862  0.3350 -1.6117
 5793TIP3    H217386   3.675   3.689   4.988 -0.3537  0.2664 -1.1387
 5794TIP3   OH217387   6.356   3.098   0.498 -0.1347 -0.1514 -0.2302
 5794TIP3    H117388   6.297   3.024   0.509 -0.7042  0.2166 -0.6990
 5794TIP3    H217389   6.387   3.118   0.586  0.3028 -1.1596 -0.1438
 5795TIP3   OH217390   5.544   3.215   4.906 -0.1734  0.0576 -0.1898
 5795TIP3    H117391   5.509   3.289   4.956 -1.5062 -1.2849  0.9656
 5795TIP3    H217392   5.637   3.236   4.895 -0.1664  1.1609  1.5260
 5796TIP3   OH217393   2.636   1.340   1.780 -0.2864 -0.1068  0.0317
 5796TIP3    H117394   2.600   1.314   1.695 -0.3479 -0.3860  0.1436
 5796TIP3    H217395   2.729   1.318   1.775 -0.1160  0.6364 -0.2659
 5797TIP3   OH217396   1.252   5.558   4.745 -0.0388  0.0136  0.7823
 5797TIP3    H117397   1.230   5.590   4.658  0.6180  1.0073  0.9693
 5797TIP3    H217398   1.335   5.600   4.766  0.9973 -1.9870  0.9598
 5798TIP3   OH217399   5.259   4.375   0.276  0.7065  0.3250  0.3497
 5798TIP3    H117400   5.309   4.333   0.206  1.3390  0.5485  0.6603
 5798TIP3    H217401   5.218   4.303   0.323 -0.3866  0.2121 -0.7311
 5799TIP3   OH217402   5.134   1.492   0.563 -0.2534 -0.6229 -0.1866
 5799TIP3    H117403   5.160   1.451   0.646 -3.9552 -2.4958  0.2925
 5799TIP3    H217404   5.063   1.552   0.588 -0.1725  0.1891 -1.8127
 5800TIP3   OH217405   1.695   4.204   4.112 -0.5825 -0.3696 -0.3851
 5800TIP3    H117406   1.710   4.120   4.068  1.1688 -0.2127 -0.1502
 5800TIP3    H217407   1.717   4.187   4.204 -0.0844  0.3735 -0.3585
 5801TIP3   OH217408   3.933   0.371   0.751 -0.0754  0.4589  0.0759
 5801TIP3    H117409   3.898   0.380   0.663 -0.3700 -0.8922  0.0305
 5801TIP3    H217410   4.015   0.323   0.740 -0.4943 -0.4152  0.5797
 5802TIP3   OH217411   5.215   2.065   4.998  0.0596  0.0007 -0.1649
 5802TIP3    H117412   5.256   2.075   4.913 -0.3896  0.9688 -0.2819
 5802TIP3    H217413   5.157   1.989   4.988 -0.7747  0.7290 -1.0529
 5803TIP3   OH217414   0.532   5.862   3.784 -0.0383 -0.5688 -0.3011
 5803TIP3    H117415   0.492   5.809   3.716 -0.2536  2.1862 -2.4901
 5803TIP3    H217416   0.626   5.856   3.766 -0.0769 -0.0537 -0.6779
 5804TIP3   OH217417   0.175   0.704   0.452  0.3788  0.0829  0.0645
 5804TIP3    H117418   0.237   0.634   0.435  0.3978  0.2516 -0.5969
 5804TIP3    H217419   0.136   0.682   0.536 -0.1229 -1.0964 -0.4485
 5805TIP3   OH217420   2.410   0.698   0.891  0.0543  0.4475  0.3611
 5805TIP3    H117421   2.411   0.717   0.797  0.7504  1.5628  0.5697
 5805TIP3    H217422   2.502   0.693   0.916 -0.0846 -2.1270  0.5909
 5806TIP3   OH217423   4.945   5.007   1.352 -0.5073  0.0133  0.3945
 5806TIP3    H117424   5.026   4.971   1.388  0.8198  1.2327 -1.2482
 5806TIP3    H217425   4.962   5.100   1.342 -1.8777  0.1786 -0.6426
 5807TIP3   OH217426   3.285   1.891   1.711 -0.2047 -0.0990  0.4565
 5807TIP3    H117427   3.255   1.805   1.681 -2.3506  0.9135 -0.5803
 5807TIP3    H217428   3.278   1.947   1.633 -0.6040  1.4020  1.5278
 5808TIP3   OH217429   0.510   1.032   0.427  0.1472 -0.7882  0.3255
 5808TIP3    H117430   0.518   1.052   0.333  0.6377 -0.4811  0.4290
 5808TIP3    H217431   0.598   1.043   0.461 -0.2005  0.0032  1.0000
 5809TIP3   OH217432   4.948   5.775   1.945  0.1551 -0.5933  0.0804
 5809TIP3    H117433   4.862   5.806   1.919 -0.5319 -1.1636  1.5939
 5809TIP3    H217434   5.005   5.851   1.932 -0.9653  0.4490  1.0266
 5810TIP3   OH217435   3.657   1.964   3.663 -0.0409 -0.0412 -0.5884
 5810TIP3    H117436   3.738   2.010   3.643  0.2033 -0.4395 -0.5246
 5810TIP3    H217437   3.682   1.895   3.725 -0.4663 -0.0172 -0.3817
 5811TIP3   OH217438   1.202   4.569   0.765 -0.0921  0.0241  0.4476
 5811TIP3    H117439   1.251   4.597   0.842  0.2925 -1.1023  0.6386
 5811TIP3    H217440   1.234   4.624   0.694 -0.0038  0.6507  0.9695
 5812TIP3   OH217441   3.111   4.675   3.054  0.0334  0.2859 -0.1833
 5812TIP3    H117442   3.094   4.755   3.103  0.2230 -0.7327  1.6487
 5812TIP3    H217443   3.203   4.680   3.029  0.3706  0.1125  0.9922
 5813TIP3   OH217444   5.289   0.263   1.411 -0.7355 -0.1370  0.0649
 5813TIP3    H117445   5.370   0.289   1.453 -1.2675 -0.2033  1.1743
 5813TIP3    H217446   5.240   0.344   1.401 -0.7420 -0.1658 -0.1523
 5814TIP3   OH217447   3.387   5.334   3.315 -0.0785 -0.6054 -0.2144
 5814TIP3    H117448   3.424   5.284   3.387 -1.7141  0.8621  1.7328
 5814TIP3    H217449   3.392   5.426   3.343 -4.0914 -0.2208 -0.2369
 5815TIP3   OH217450   4.643   5.503   0.623  0.2569  0.5327  0.0473
 5815TIP3    H117451   4.683   5.552   0.551 -0.2959 -0.1639 -0.7553
 5815TIP3    H217452   4.550   5.505   0.604 -0.0420  1.3784  1.4240
 5816TIP3   OH217453   1.844   3.113   5.038  0.3615  0.1168 -0.9713
 5816TIP3    H117454   1.912   3.139   5.100 -0.3682 -1.8619  0.7659
 5816TIP3    H217455   1.807   3.195   5.007  0.9688  1.1879  0.9879
 5817TIP3   OH217456   5.383   4.337   2.842 -0.5691  0.0637  0.4435
 5817TIP3    H117457   5.415   4.417   2.884  1.1792 -0.8035  0.8215
 5817TIP3    H217458   5.355   4.281   2.914  2.7420 -1.5617  0.6382
 5818TIP3   OH217459   2.028   2.830   5.108  0.1649  0.1884 -0.2141
 5818TIP3    H117460   2.092   2.759   5.104 -0.2474 -0.1302 -1.6130
 5818TIP3    H217461   1.949   2.794   5.068 -0.1228  1.3468 -0.7391
 5819TIP3   OH217462   3.850   2.448   4.249 -0.1400  0.5976  0.0438
 5819TIP3    H117463   3.807   2.388   4.310  0.1661  1.4348  1.1216
 5819TIP3    H217464   3.787   2.519   4.237 -0.3574  0.2564 -0.9452
 5820TIP3   OH217465   0.668   2.723   3.092 -0.2187 -0.7650  0.5808
 5820TIP3    H117466   0.651   2.818   3.095 -1.4413 -0.9368 -0.2366
 5820TIP3    H217467   0.708   2.704   3.177 -0.1290  0.4554  0.8352
 5821TIP3   OH217468   3.721   2.071   0.774  0.1433  0.0024 -0.5046
 5821TIP3    H117469   3.636   2.032   0.795 -0.0473  1.1462  1.0359
 5821TIP3    H217470   3.770   2.066   0.856  1.1835  0.3338 -1.0912
 5822TIP3   OH217471   2.225   5.292   2.244  0.5197 -0.3634 -0.2480
 5822TIP3    H117472   2.217   5.388   2.246 -0.2235 -0.3884 -1.2823
 5822TIP3    H217473   2.288   5.272   2.313 -0.1428  0.7846  0.7339
 5823TIP3   OH217474   0.219   2.839   0.788  0.1169 -0.4578  0.9861
 5823TIP3    H117475   0.251   2.910   0.842 -1.6876 -0.0133  1.5573
 5823TIP3    H217476   0.239   2.759   0.838  1.2533 -0.2896  0.8114
 5824TIP3   OH217477   4.123   3.738   1.032 -0.0619  0.1946 -0.4408
 5824TIP3    H117478   4.173   3.657   1.044  0.4728  0.7606  1.4947
 5824TIP3    H217479   4.110   3.771   1.121 -2.3662  0.9975 -1.0190
 5825TIP3   OH217480   4.209   5.926   1.086 -0.0846  0.0811  0.2413
 5825TIP3    H117481   4.302   5.925   1.110 -0.2076 -0.9171  0.7106
 5825TIP3    H217482   4.186   5.834   1.074 -0.9490  0.3374 -0.1588
 5826TIP3   OH217483   6.200   3.523   4.004  0.0845 -0.4043  0.4681
 5826TIP3    H117484   6.143   3.596   4.030  0.8293  0.4549 -0.2708
 5826TIP3    H217485   6.286   3.563   3.991  0.2213 -1.1609 -1.2218
 5827TIP3   OH217486   1.133   5.497   1.197  0.7682 -0.2707  0.1254
 5827TIP3    H117487   1.154   5.522   1.287  0.6342 -0.0626  0.1002
 5827TIP3    H217488   1.216   5.465   1.161  1.5513  2.1998 -0.5298
 5828TIP3   OH217489   1.857   3.511   0.118 -0.1777  0.6439  0.4268
 5828TIP3    H117490   1.857   3.606   0.102  0.0766  0.5330 -0.2490
 5828TIP3    H217491   1.766   3.491   0.140 -1.2576  0.4050 -3.5363
 5829TIP3   OH217492   6.029   4.496   4.458 -0.3731 -0.6129 -0.2697
 5829TIP3    H117493   5.954   4.438   4.453 -0.9280  0.0813 -0.2510
 5829TIP3    H217494   5.993   4.578   4.494  0.6241 -0.6827  0.9789
 5830TIP3   OH217495   0.738   5.172   2.154 -0.0074 -0.1741  0.1043
 5830TIP3    H117496   0.705   5.098   2.103  0.6987 -1.1461  1.0181
 5830TIP3    H217497   0.815   5.137   2.199  1.1070  1.4763 -0.4365
 5831TIP3   OH217498   3.534   4.066   1.318  0.0111  0.0859  0.2333
 5831TIP3    H117499   3.625   4.088   1.300  0.0098  0.3959  0.5977
 5831TIP3    H217500   3.504   4.132   1.380 -0.0606 -0.7727  1.1533
 5832TIP3   OH217501   4.041   5.727   4.505 -0.6809  0.2806  0.4307
 5832TIP3    H117502   3.950   5.753   4.490 -0.8782 -0.4007  0.4095
 5832TIP3    H217503   4.070   5.696   4.419 -0.1055  1.4471  0.1949
 5833TIP3   OH217504   2.619   3.248   0.749  0.3008  0.2254  0.4685
 5833TIP3    H117505   2.627   3.217   0.839  0.3178  1.4153  0.8889
 5833TIP3    H217506   2.594   3.340   0.757  1.6524  0.7294 -0.7242
 5834TIP3   OH217507   2.256   2.622   4.053 -0.3875  0.0116 -0.3306
 5834TIP3    H117508   2.290   2.678   3.984 -0.1994  0.1864 -0.0995
 5834TIP3    H217509   2.242   2.681   4.127  2.7266 -0.6957  0.9698
 5835TIP3   OH217510   3.347   0.937   4.172  0.3609  0.7178 -0.3403
 5835TIP3    H117511   3.352   1.015   4.117 -0.3944 -0.0645 -1.5769
 5835TIP3    H217512   3.266   0.948   4.222 -0.2813  0.2970 -1.2509
 5836TIP3   OH217513   5.195   3.530   2.935 -0.2606 -0.5976  0.0596
 5836TIP3    H117514   5.123   3.514   2.995 -0.3034  0.9617  0.4675
 5836TIP3    H217515   5.247   3.449   2.938  0.8926  0.0781  3.8068
 5837TIP3   OH217516   2.531   2.812   4.743  0.6033 -0.3313  0.2845
 5837TIP3    H117517   2.497   2.736   4.791 -0.6150 -0.0303 -0.0499
 5837TIP3    H217518   2.475   2.885   4.771  1.1103  0.2352 -0.1489
 5838TIP3   OH217519   3.113   4.339   0.947 -0.0020  0.2177  0.0750
 5838TIP3    H117520   3.102   4.310   1.037  1.4095 -1.2051 -0.1483
 5838TIP3    H217521   3.032   4.384   0.925 -1.0278 -0.8613  1.5220
 5839TIP3   OH217522   3.738   1.996   1.033 -1.0616  0.3467 -0.2664
 5839TIP3    H117523   3.656   2.043   1.016 -0.6392  1.4558  0.6587
 5839TIP3    H217524   3.735   1.973   1.125 -0.1755  0.7412 -0.1221
 5840TIP3   OH217525   1.490   2.750   5.029  0.2476  0.7228 -0.5075
 5840TIP3    H117526   1.409   2.730   4.981 -0.4090  2.5097 -0.2177
 5840TIP3    H217527   1.540   2.805   4.969 -0.0182  1.9265  0.3339
 5841TIP3   OH217528   5.160   4.849   1.339  0.1227  0.5291  0.2874
 5841TIP3    H117529   5.250   4.865   1.310  1.1463  0.8825  3.3305
 5841TIP3    H217530   5.154   4.754   1.350  0.5162  0.5962  1.1491
 5842TIP3   OH217531   5.773   2.334   1.519 -0.3032  0.0630 -0.5885
 5842TIP3    H117532   5.792   2.268   1.452  1.0735 -0.3011  0.1343
 5842TIP3    H217533   5.727   2.286   1.588 -0.5054  0.1461 -0.6659
 5843TIP3   OH217534   2.882   5.889   0.847  0.1565 -0.7534 -0.0740
 5843TIP3    H117535   2.840   5.962   0.802 -1.7810 -0.4661  2.0240
 5843TIP3    H217536   2.857   5.812   0.795  1.5027 -0.0802 -1.8134
 5844TIP3   OH217537   0.673   2.994   3.116  0.0598 -0.0790  0.5041
 5844TIP3    H117538   0.633   3.012   3.201  0.3472 -1.9130  1.0703
 5844TIP3    H217539   0.765   3.019   3.127  0.2622 -1.0186  0.9872
 5845TIP3   OH217540   4.120   5.363   2.748 -0.1057 -0.6756  0.0600
 5845TIP3    H117541   4.038   5.412   2.742  0.2257  0.0835  1.3302
 5845TIP3    H217542   4.126   5.337   2.840  0.0108 -2.6420 -0.4691
 5846TIP3   OH217543   1.649   3.476   2.865 -0.3602 -0.2268  0.0314
 5846TIP3    H117544   1.726   3.497   2.917 -0.4341 -2.1214  1.0105
 5846TIP3    H217545   1.627   3.386   2.891 -0.8664 -0.9831 -2.7065
 5847TIP3   OH217546   2.854   1.719   2.361  0.3224  0.6546 -0.3869
 5847TIP3    H117547   2.897   1.730   2.446  0.8902  1.1261 -0.7276
 5847TIP3    H217548   2.925   1.693   2.302  0.0035  0.7067 -0.7951
 5848TIP3   OH217549   5.898   4.750   3.682 -0.2927 -0.0642  0.1454
 5848TIP3    H117550   5.927   4.832   3.642  0.7651 -0.2876  0.4109
 5848TIP3    H217551   5.918   4.761   3.775 -0.6471 -0.4139  0.2653
 5849TIP3   OH217552   0.151   3.430   2.557  0.3377  0.2439 -0.0764
 5849TIP3    H117553   0.165   3.504   2.497  1.0523 -0.9617 -1.4520
 5849TIP3    H217554   0.237   3.416   2.597 -0.0297  0.7520  0.9073
 5850TIP3   OH217555   6.088   2.962   2.340  0.5354 -0.1529  0.1581
 5850TIP3    H117556   6.167   2.978   2.392  0.6597 -1.2439  0.3409
 5850TIP3    H217557   6.016   2.980   2.399  0.6302  0.8973 -0.0235
 5851TIP3   OH217558   0.294   0.529   3.003 -0.7498 -0.3199  0.4109
 5851TIP3    H117559   0.348   0.480   3.065 -0.8563 -0.0108  0.7529
 5851TIP3    H217560   0.352   0.549   2.930 -0.2370  0.4894  1.0219
 5852TIP3   OH217561   1.149   0.512   4.681  0.0530 -0.7014  0.0838
 5852TIP3    H117562   1.136   0.591   4.629  1.0033 -1.1683 -0.9186
 5852TIP3    H217563   1.093   0.447   4.640  1.6104 -1.3667 -1.1022
 5853TIP3   OH217564   3.080   3.788   2.027  0.1791  0.1797  0.4704
 5853TIP3    H117565   3.111   3.867   1.982 -0.5198  0.3382  0.2504
 5853TIP3    H217566   3.120   3.715   1.979 -0.6683  0.3435 -0.5221
 5854TIP3   OH217567   4.216   1.943   3.008  0.1613  0.0448  0.3626
 5854TIP3    H117568   4.120   1.947   3.003  0.2342  0.3262 -1.4287
 5854TIP3    H217569   4.240   1.868   2.954  1.0585  1.5631 -1.4649
 5855TIP3   OH217570   2.203   2.784   4.281 -0.0798 -0.4410  0.2488
 5855TIP3    H117571   2.230   2.803   4.371  0.3302  0.6926 -0.1101
 5855TIP3    H217572   2.111   2.757   4.289 -0.8878  2.2491  0.7369
 5856TIP3   OH217573   4.874   1.863   4.124 -0.1712  0.1312  0.1900
 5856TIP3    H117574   4.938   1.900   4.185  0.3032  1.0481 -0.8267
 5856TIP3    H217575   4.813   1.934   4.108  0.2093  0.1987 -1.0663
 5857TIP3   OH217576   5.088   3.990   0.961  0.5806 -0.1779  0.5162
 5857TIP3    H117577   5.073   4.032   1.045  1.0317  0.2139  0.4039
 5857TIP3    H217578   5.085   4.061   0.897 -0.7994 -0.6008  0.0675
 5858TIP3   OH217579   3.601   1.224   0.422 -0.4500 -0.2452 -0.5096
 5858TIP3    H117580   3.657   1.236   0.345 -2.4383 -0.0958 -2.0157
 5858TIP3    H217581   3.558   1.309   0.433  0.7535  0.1419  1.6199
 5859TIP3   OH217582   5.430   4.009   2.711  0.3773  0.1681 -0.8387
 5859TIP3    H117583   5.482   4.005   2.631 -0.6223 -0.2486 -1.4762
 5859TIP3    H217584   5.476   4.073   2.766  3.5517 -2.5383  0.0507
 5860TIP3   OH217585   0.046   1.205   4.138  0.0956  0.9191 -0.1112
 5860TIP3    H117586   0.057   1.290   4.182  0.1458  0.2717  1.1722
 5860TIP3    H217587   0.054   1.225   4.045 -2.3626  2.7372 -0.0218
 5861TIP3   OH217588   1.729   5.782   3.211  0.5961 -0.2850 -0.0888
 5861TIP3    H117589   1.720   5.686   3.205 -0.5424 -0.1227 -1.3888
 5861TIP3    H217590   1.659   5.809   3.269  0.4883 -0.1760 -0.2702
 5862TIP3   OH217591   5.703   0.415   0.896 -0.4464  0.5535 -0.4209
 5862TIP3    H117592   5.611   0.401   0.916 -1.1219  1.8025 -2.4117
 5862TIP3    H217593   5.703   0.471   0.818  1.9933  0.5824 -0.4797
 5863TIP3   OH217594   0.679   0.581   4.013 -0.0792  0.2903  0.3561
 5863TIP3    H117595   0.741   0.582   4.086  0.5676 -0.6386 -0.1467
 5863TIP3    H217596   0.600   0.622   4.047  0.2539 -0.0115  1.5381
 5864TIP3   OH217597   4.601   1.739   4.802 -0.6423  0.1901 -0.0647
 5864TIP3    H117598   4.664   1.670   4.823  0.4433  1.2155  0.1942
 5864TIP3    H217599   4.539   1.698   4.742 -0.1647 -1.0618  0.2610
 5865TIP3   OH217600   5.927   1.653   1.857  0.4094 -0.2481  0.0332
 5865TIP3    H117601   5.970   1.669   1.941  0.9667 -0.6105 -0.1798
 5865TIP3    H217602   5.957   1.566   1.831 -0.0745 -0.2997 -0.3504
 5866TIP3   OH217603   0.506   3.535   2.814  0.4815  0.2365 -0.4266
 5866TIP3    H117604   0.559   3.614   2.809  1.3902 -0.3499 -0.3135
 5866TIP3    H217605   0.481   3.517   2.724 -0.5291  1.1625 -0.3526
 5867TIP3   OH217606   4.779   1.956   0.928  0.5387 -0.4474 -0.2721
 5867TIP3    H117607   4.707   1.894   0.940 -0.5389  0.7128 -0.5365
 5867TIP3    H217608   4.843   1.908   0.876 -0.9479 -0.8648 -1.8192
 5868TIP3   OH217609   3.862   2.208   0.152 -0.1360  0.5815 -0.6387
 5868TIP3    H117610   3.894   2.280   0.207 -0.5692  1.7975 -1.9328
 5868TIP3    H217611   3.781   2.179   0.196 -1.0277  2.2063 -1.1148
 5869TIP3   OH217612   2.405   5.163   1.165 -0.0047 -0.2913  0.0878
 5869TIP3    H117613   2.435   5.200   1.082 -0.8676 -0.7035 -0.4224
 5869TIP3    H217614   2.394   5.239   1.223 -0.6444  0.1504 -0.5872
 5870TIP3   OH217615   5.770   4.373   4.891 -0.0718 -0.2979  0.4363
 5870TIP3    H117616   5.855   4.390   4.932 -1.3469 -0.4792  3.4051
 5870TIP3    H217617   5.735   4.460   4.871 -0.3439 -0.0382  1.9062
 5871TIP3   OH217618   1.071   2.158   4.119 -0.3430 -0.1961  0.2979
 5871TIP3    H117619   1.121   2.078   4.135  2.0506  1.0035 -0.7067
 5871TIP3    H217620   1.020   2.139   4.040  1.6076 -0.2142 -1.0286
 5872TIP3   OH217621   2.537   4.331   4.497 -0.4676 -0.1576  0.4039
 5872TIP3    H117622   2.467   4.375   4.449 -0.7406 -0.9723  0.0340
 5872TIP3    H217623   2.531   4.240   4.469  0.8101 -0.2234  0.3012
 5873TIP3   OH217624   3.249   0.621   3.446 -0.1395  0.4646 -0.3006
 5873TIP3    H117625   3.328   0.657   3.486  0.3637 -0.7365 -0.1813
 5873TIP3    H217626   3.181   0.685   3.468  0.1297 -0.0392  2.3960
 5874TIP3   OH217627   1.626   4.472   4.027  0.0152  0.4077 -0.4671
 5874TIP3    H117628   1.656   4.381   4.019  0.0714  0.5529 -2.3907
 5874TIP3    H217629   1.707   4.523   4.034 -0.0330  0.2628  2.0522
 5875TIP3   OH217630   5.700   1.876   0.812 -0.1048  0.0808  0.2369
 5875TIP3    H117631   5.784   1.920   0.799  0.4572 -1.1681 -0.6210
 5875TIP3    H217632   5.643   1.912   0.745  0.5928 -1.0148 -0.9980
 5876TIP3   OH217633   4.520   0.343   0.888  0.2214  0.7751 -0.3599
 5876TIP3    H117634   4.480   0.412   0.836  0.1939  1.4634  0.5396
 5876TIP3    H217635   4.607   0.331   0.851 -0.4553 -0.0524 -1.7253
 5877TIP3   OH217636   2.450   4.306   0.322 -0.1768  0.2852 -0.1813
 5877TIP3    H117637   2.471   4.229   0.375 -0.2142 -0.4094 -1.1538
 5877TIP3    H217638   2.379   4.349   0.369 -2.6240 -2.2110 -1.3847
 5878TIP3   OH217639   1.412   2.398   0.123  0.1648  0.3202 -0.8791
 5878TIP3    H117640   1.490   2.355   0.158  0.2021  1.3593  0.3700
 5878TIP3    H217641   1.377   2.448   0.196 -2.7896 -1.5953 -0.7930
 5879TIP3   OH217642   5.318   2.672   5.087  0.1250  0.5000 -0.1206
 5879TIP3    H117643   5.253   2.682   5.017  0.0144  1.1541  0.0646
 5879TIP3    H217644   5.402   2.690   5.044  0.1056  0.4269 -0.1889
 5880TIP3   OH217645   5.697   5.130   1.759  0.1111 -0.2466 -0.5363
 5880TIP3    H117646   5.605   5.147   1.739 -0.1916 -0.8875  0.2244
 5880TIP3    H217647   5.734   5.094   1.678 -0.6694 -1.2828 -0.4580
 5881TIP3   OH217648   0.509   5.444   0.056 -0.0725  0.1910 -0.1326
 5881TIP3    H117649   0.437   5.492   0.097 -0.1960 -0.6937  0.7149
 5881TIP3    H217650   0.577   5.441   0.123 -0.0014 -0.6611 -0.2311
 5882TIP3   OH217651   3.860   2.772   2.106  0.1394  0.7162 -0.6066
 5882TIP3    H117652   3.875   2.763   2.012  0.5788 -0.7357 -0.4220
 5882TIP3    H217653   3.940   2.813   2.139  1.1732 -1.2444 -0.5205
 5883TIP3   OH217654   4.023   1.704   2.159  0.0800 -0.0798  0.1153
 5883TIP3    H117655   4.118   1.699   2.146 -0.1581  0.3253 -2.1491
 5883TIP3    H217656   4.011   1.778   2.219  1.0916  1.7207 -1.7613
 5884TIP3   OH217657   5.791   2.283   5.071 -0.1375  0.3476 -0.2249
 5884TIP3    H117658   5.771   2.209   5.129  0.0519  0.3018 -0.2175
 5884TIP3    H217659   5.751   2.259   4.987  0.7097 -0.1980 -0.4969
 5885TIP3   OH217660   4.607   3.690   1.427 -0.1345 -0.0299  0.0068
 5885TIP3    H117661   4.597   3.597   1.449 -0.6657 -0.2134 -0.9029
 5885TIP3    H217662   4.642   3.731   1.506  4.2770 -1.7081 -0.7703
 5886TIP3   OH217663   1.217   1.757   5.124 -0.1281 -0.1858  0.4816
 5886TIP3    H117664   1.222   1.705   5.044 -1.3883 -1.2703  1.0735
 5886TIP3    H217665   1.181   1.841   5.096 -1.4861 -0.8878  0.0217
 5887TIP3   OH217666   2.121   3.606   0.171  0.1621 -0.5628  0.5981
 5887TIP3    H117667   2.051   3.542   0.164  0.9653 -1.3948 -0.1109
 5887TIP3    H217668   2.103   3.670   0.102  0.8205 -1.5310 -0.5188
 5888TIP3   OH217669   4.575   4.321   3.737  0.4324  0.3089  0.2306
 5888TIP3    H117670   4.565   4.274   3.655 -0.4102  0.3997  0.2756
 5888TIP3    H217671   4.572   4.253   3.805  1.1640  0.2299  0.1945
 5889TIP3   OH217672   3.814   1.916   3.988 -0.4759  0.2199 -0.2025
 5889TIP3    H117673   3.828   1.998   4.037  0.9187 -0.1433  0.0739
 5889TIP3    H217674   3.878   1.920   3.917 -0.9347 -0.2847 -0.6469
 5890TIP3   OH217675   5.249   4.361   3.625  0.1070 -0.0868 -0.1704
 5890TIP3    H117676   5.221   4.419   3.696  1.1856  0.2894 -0.0315
 5890TIP3    H217677   5.309   4.414   3.574  3.1668 -1.7813  1.4066
 5891TIP3   OH217678   2.672   1.034   3.275  0.6639 -0.5648 -0.1623
 5891TIP3    H117679   2.679   0.946   3.312  1.1939 -0.2732  0.4468
 5891TIP3    H217680   2.757   1.074   3.291  1.1835 -0.6595 -2.3466
 5892TIP3   OH217681   2.689   5.823   1.191  0.1505 -0.2485 -0.3543
 5892TIP3    H117682   2.669   5.916   1.191 -1.8599 -0.6066  0.8594
 5892TIP3    H217683   2.670   5.794   1.102  0.1303  0.3626 -0.5549
 5893TIP3   OH217684   2.357   2.335   4.564  0.0012 -0.4151 -0.1712
 5893TIP3    H117685   2.276   2.283   4.564  0.3697 -1.0022  0.5545
 5893TIP3    H217686   2.347   2.394   4.489 -2.0079  0.9354  1.0292
 5894TIP3   OH217687   3.552   2.619   1.889 -0.4921 -0.2663 -0.4106
 5894TIP3    H117688   3.508   2.568   1.956  1.6462  0.0966  1.3798
 5894TIP3    H217689   3.497   2.697   1.879 -0.4810  0.0292  1.4890
 5895TIP3   OH217690   4.437   3.436   0.781 -0.1879  0.6644 -0.8017
 5895TIP3    H117691   4.521   3.482   0.780  0.2993 -0.1633 -2.6131
 5895TIP3    H217692   4.417   3.424   0.874  0.7088  2.6039 -0.3172
 5896TIP3   OH217693   2.859   2.450   0.934 -0.0618 -0.5205  0.1603
 5896TIP3    H117694   2.785   2.404   0.973 -0.1021  0.2259  1.0110
 5896TIP3    H217695   2.908   2.484   1.009  0.1194  0.5580 -0.4202
 5897TIP3   OH217696   5.907   0.149   5.019 -0.1010 -0.0236 -0.4596
 5897TIP3    H117697   5.977   0.208   5.049  1.7926 -1.8797 -1.0084
 5897TIP3    H217698   5.838   0.159   5.085  1.1419  1.0251  0.7443
 5898TIP3   OH217699   1.459   2.604   2.285 -0.0367  0.6053 -0.1309
 5898TIP3    H117700   1.444   2.511   2.304 -1.9778  1.1513  1.4257
 5898TIP3    H217701   1.406   2.621   2.207 -2.2776  1.0124  1.3840
 5899TIP3   OH217702   1.889   5.027   0.305  0.1451  0.5086 -0.2948
 5899TIP3    H117703   1.932   5.019   0.390 -0.8850 -0.5080  0.1563
 5899TIP3    H217704   1.933   5.101   0.262  2.2899 -0.4264  0.1537
 5900TIP3   OH217705   4.391   4.321   4.648 -0.3195 -0.5192 -0.4236
 5900TIP3    H117706   4.473   4.296   4.605 -1.4257 -0.1467 -2.9445
 5900TIP3    H217707   4.412   4.402   4.694  0.5678 -0.0230 -1.6511
 5901TIP3   OH217708   6.212   3.849   3.894 -0.5978  0.3744 -0.0251
 5901TIP3    H117709   6.191   3.802   3.975 -0.2115 -0.0865 -0.1836
 5901TIP3    H217710   6.306   3.835   3.882 -0.4694  1.2007 -0.0754
 5902TIP3   OH217711   3.113   5.867   3.971 -0.2590 -0.0618 -0.3010
 5902TIP3    H117712   3.106   5.952   4.014  0.2218  1.0050 -2.2131
 5902TIP3    H217713   3.195   5.871   3.921 -0.8287 -1.1527 -1.3978
 5903TIP3   OH217714   2.919   1.224   3.597  0.2465 -0.1790  0.4902
 5903TIP3    H117715   2.826   1.218   3.575  0.2136  1.0171  0.2618
 5903TIP3    H217716   2.920   1.255   3.687  0.4183  0.9624  0.1099
 5904TIP3   OH217717   2.791   4.436   4.423  0.3272  0.1921  0.3293
 5904TIP3    H117718   2.705   4.415   4.461 -0.9631  1.3412 -1.7077
 5904TIP3    H217719   2.791   4.531   4.417  1.1423  0.1302 -0.9674
 5905TIP3   OH217720   0.019   5.224   2.070  0.5821 -0.0240  0.0915
 5905TIP3    H117721   0.049   5.144   2.112  1.0278 -0.3036 -0.7274
 5905TIP3    H217722   0.087   5.244   2.006 -1.2860 -1.1720 -2.4733
 5906TIP3   OH217723   4.638   0.671   2.101 -0.3070  0.5579  0.0279
 5906TIP3    H117724   4.567   0.619   2.064 -1.2068 -0.0832  2.4694
 5906TIP3    H217725   4.718   0.621   2.082 -0.6821  0.4263 -1.2645
 5907TIP3   OH217726   3.158   4.083   3.952 -0.1652  0.0317  0.2764
 5907TIP3    H117727   3.216   4.007   3.957 -0.8799 -0.4923  0.6330
 5907TIP3    H217728   3.216   4.155   3.928  0.1770 -1.0481 -2.5057
 5908TIP3   OH217729   5.162   1.163   4.982 -0.1189 -0.0520  0.0542
 5908TIP3    H117730   5.240   1.218   4.983 -1.5308  2.1414 -1.6375
 5908TIP3    H217731   5.128   1.166   5.071 -0.1572  1.8939  0.0125
 5909TIP3   OH217732   3.226   3.615   2.854 -0.4089 -0.4767 -0.5747
 5909TIP3    H117733   3.279   3.693   2.839 -0.4626 -0.3542 -0.1415
 5909TIP3    H217734   3.178   3.602   2.772 -0.9134  0.3456 -0.4129
 5910TIP3   OH217735   5.419   5.570   2.190  0.8088  0.1398  0.3388
 5910TIP3    H117736   5.358   5.520   2.245  1.0562 -1.3113 -0.6742
 5910TIP3    H217737   5.374   5.654   2.175  0.1329  0.0294  1.5806
 5911TIP3   OH217738   2.062   0.405   2.508 -0.4540  0.0862 -0.1407
 5911TIP3    H117739   1.974   0.441   2.506 -0.6920 -0.4785 -0.0427
 5911TIP3    H217740   2.093   0.412   2.418 -1.1299 -0.9834 -0.4771
 5912TIP3   OH217741   0.811   1.168   4.244 -0.2996 -0.2363 -0.2883
 5912TIP3    H117742   0.720   1.143   4.257 -0.6164 -0.2712 -2.2421
 5912TIP3    H217743   0.845   1.183   4.332 -2.7483  1.7962  0.4226
 5913TIP3   OH217744   1.742   1.836   0.872 -0.3555 -0.2226  0.2345
 5913TIP3    H117745   1.758   1.768   0.807 -0.3855  0.6542 -0.7106
 5913TIP3    H217746   1.722   1.788   0.952 -0.9593 -1.3326 -0.5536
 5914TIP3   OH217747   4.748   0.248   2.351 -0.8143  0.0078 -0.0515
 5914TIP3    H117748   4.798   0.170   2.376 -0.4265  1.0718  2.8954
 5914TIP3    H217749   4.685   0.260   2.421 -0.6906  2.4721 -0.2650
 5915TIP3   OH217750   4.129   1.394   0.704 -0.3385 -0.1409  0.2562
 5915TIP3    H117751   4.110   1.306   0.673  1.0643 -0.3371 -0.0991
 5915TIP3    H217752   4.096   1.396   0.794 -1.0763 -0.7669  0.0041
 5916TIP3   OH217753   3.256   2.686   3.486 -0.5594  0.6771 -0.2945
 5916TIP3    H117754   3.206   2.631   3.425 -0.7343 -0.4440  0.8072
 5916TIP3    H217755   3.241   2.646   3.572  1.8154  0.6097  0.1565
 5917TIP3   OH217756   5.650   0.056   1.370  0.1096  0.3123  0.0161
 5917TIP3    H117757   5.563   0.079   1.338  0.1162  0.3825  0.0486
 5917TIP3    H217758   5.634  -0.005   1.442  0.0846  0.4135  0.0947
 5918TIP3   OH217759   3.048   3.101   0.772 -0.5425 -0.4186  0.0472
 5918TIP3    H117760   3.143   3.113   0.762 -0.6281  1.0446  0.7947
 5918TIP3    H217761   3.035   3.006   0.764  1.0964 -0.7479  0.8568
 5919TIP3   OH217762   5.396   5.387   4.062  0.3683 -0.5829 -0.6268
 5919TIP3    H117763   5.427   5.403   4.151  0.1241  0.0333 -0.6477
 5919TIP3    H217764   5.320   5.329   4.073  0.3198 -0.4820 -0.4314
 5920TIP3   OH217765   6.272   2.161   3.022 -0.6218  0.5813 -0.0483
 5920TIP3    H117766   6.367   2.149   3.028 -0.7176 -0.4162 -0.2463
 5920TIP3    H217767   6.249   2.122   2.938 -1.6604 -2.5929  1.5548
 5921TIP3   OH217768   4.400   0.931   4.936  0.0904  0.1139 -0.1742
 5921TIP3    H117769   4.308   0.906   4.931  0.0154  0.0659  1.0452
 5921TIP3    H217770   4.398   1.027   4.942  0.0656  0.0766  0.5408
 5922TIP3   OH217771   5.556   3.442   3.931  0.1288  0.2033  0.0169
 5922TIP3    H117772   5.486   3.390   3.970  0.7877 -0.1438  0.7562
 5922TIP3    H217773   5.559   3.522   3.983  1.1427 -0.3469  0.8334
 5923TIP3   OH217774   3.909   4.961   4.003  0.2391  0.1414 -0.0892
 5923TIP3    H117775   3.863   4.878   4.018 -2.2157  1.3415 -0.4093
 5923TIP3    H217776   3.899   4.977   3.909  0.4089  0.9404  0.0261
 5924TIP3   OH217777   4.223   3.442   4.378  0.0416  0.4525  0.0270
 5924TIP3    H117778   4.137   3.406   4.359  0.7892 -1.5839  0.2020
 5924TIP3    H217779   4.222   3.460   4.472 -0.0908  0.0734  0.1009
 5925TIP3   OH217780   5.208   5.798   1.473  0.0892  0.2067 -0.8085
 5925TIP3    H117781   5.270   5.857   1.515  2.9107 -2.1006 -1.3429
 5925TIP3    H217782   5.157   5.762   1.545  1.5761 -0.1435  0.1279
 5926TIP3   OH217783   2.092   0.693   2.293  0.1924 -0.3785 -0.0341
 5926TIP3    H117784   2.116   0.674   2.203 -2.1705 -4.8838  0.0330
 5926TIP3    H217785   2.007   0.736   2.287  2.1025  4.0415  0.1648
 5927TIP3   OH217786   4.476   2.643   0.902  0.2446  0.2644 -0.2396
 5927TIP3    H117787   4.402   2.694   0.935  0.1124  0.1125 -0.3009
 5927TIP3    H217788   4.552   2.700   0.916 -0.0868  1.1569 -1.7613
 5928TIP3   OH217789   1.168   5.079   0.014  0.3117  0.6040  0.2118
 5928TIP3    H117790   1.090   5.066  -0.040  0.3287 -0.1336  0.3576
 5928TIP3    H217791   1.144   5.151   0.072 -0.9277 -0.6942  1.4289
 5929TIP3   OH217792   5.150   5.195   1.040  0.0660 -0.2402 -0.4324
 5929TIP3    H117793   5.111   5.225   1.122 -0.9562 -1.3446 -0.4906
 5929TIP3    H217794   5.218   5.133   1.068  0.1110 -0.1794 -0.4060
 5930TIP3   OH217795   5.517   3.031   3.434 -0.3218  0.0043  0.5083
 5930TIP3    H117796   5.435   2.982   3.425 -0.9153  1.0038  0.2532
 5930TIP3    H217797   5.571   3.001   3.361 -0.7679 -0.0974  0.2113
 5931TIP3   OH217798   2.811   3.629   2.189  0.3450  0.6234  0.3373
 5931TIP3    H117799   2.887   3.641   2.132  0.6751  1.4190  0.9380
 5931TIP3    H217800   2.848   3.612   2.275 -0.1603  0.6434  0.5600
 5932TIP3   OH217801   5.898   4.524   0.008  0.0134 -0.7118 -0.1868
 5932TIP3    H117802   5.980   4.552  -0.031  0.9148 -1.0702  1.3509
 5932TIP3    H217803   5.870   4.599   0.061 -0.0496 -0.9867  0.1762
 5933TIP3   OH217804   0.362   0.295   1.574 -0.1753  0.1701 -0.3442
 5933TIP3    H117805   0.330   0.275   1.661 -2.4437  0.5675 -1.0238
 5933TIP3    H217806   0.389   0.386   1.578  1.7394 -0.3838  0.4396
 5934TIP3   OH217807   4.954   5.052   2.240  0.1790  0.1808  0.3184
 5934TIP3    H117808   4.862   5.058   2.266  0.3076  1.1267  0.5782
 5934TIP3    H217809   4.988   4.978   2.290 -0.4558 -0.2482  0.1425
 5935TIP3   OH217810   1.828   0.832   2.256 -0.4607  0.4519  0.0303
 5935TIP3    H117811   1.761   0.775   2.217  0.0225 -0.2932  0.2717
 5935TIP3    H217812   1.783   0.875   2.329 -0.1278 -1.7653  1.6459
 5936TIP3   OH217813   2.309   1.168   2.752 -0.0046  0.5193  0.4293
 5936TIP3    H117814   2.235   1.223   2.727  0.4306  0.1432 -1.9167
 5936TIP3    H217815   2.271   1.098   2.804 -0.8682  1.7812  1.5732
 5937TIP3   OH217816   6.270   3.223   1.333 -0.4767 -0.1569  0.6070
 5937TIP3    H117817   6.249   3.210   1.240 -0.7329 -0.0293  0.6447
 5937TIP3    H217818   6.230   3.148   1.377  0.4496 -0.7251  0.5149
 5938TIP3   OH217819   2.647   2.838   3.545 -0.3109 -0.0179 -0.0432
 5938TIP3    H117820   2.579   2.781   3.510 -0.5305 -0.6518  1.3500
 5938TIP3    H217821   2.729   2.798   3.515 -0.4716 -0.9607  0.7319
 5939TIP3   OH217822   1.991   4.428   0.920 -0.4282 -0.4344 -0.6864
 5939TIP3    H117823   2.060   4.362   0.918 -0.4431 -0.6883  2.3629
 5939TIP3    H217824   2.022   4.494   0.982 -1.1827  1.6068 -2.3408
 5940TIP3   OH217825   2.584   1.045   0.799  0.2012  0.0492  0.1336
 5940TIP3    H117826   2.652   1.008   0.855 -0.1384  1.6689  1.6642
 5940TIP3    H217827   2.506   1.046   0.853 -0.5853  0.0471 -0.9644
 5941TIP3   OH217828   2.285   3.271   3.273 -0.5728  0.2513 -0.4158
 5941TIP3    H117829   2.316   3.357   3.299  0.2752  0.8807 -3.2005
 5941TIP3    H217830   2.251   3.283   3.184 -2.7388 -1.8084  0.0228
 5942TIP3   OH217831   2.207   5.943   3.788  0.0531  0.1425  0.0446
 5942TIP3    H117832   2.121   5.910   3.814 -0.5337  1.1381 -0.5767
 5942TIP3    H217833   2.189   6.004   3.717  1.3335 -0.0494 -0.4649
 5943TIP3   OH217834   1.424   3.350   3.867  0.1857 -0.3194 -0.5929
 5943TIP3    H117835   1.509   3.330   3.828  2.1009  1.1345  2.4202
 5943TIP3    H217836   1.419   3.293   3.944  0.3085  2.1792  1.4075
 5944TIP3   OH217837   0.721   2.543   2.813  0.6042  0.2448 -0.2661
 5944TIP3    H117838   0.681   2.605   2.874  0.8466  0.1034  0.0406
 5944TIP3    H217839   0.802   2.516   2.857 -0.2468 -1.4574  0.3200
 5945TIP3   OH217840   5.691   0.042   0.054  0.0298  0.5780  0.0319
 5945TIP3    H117841   5.601   0.036   0.086  0.5875 -0.7107  1.5151
 5945TIP3    H217842   5.711  -0.046   0.022  1.3306  0.2792  1.4914
 5946TIP3   OH217843   2.342   2.100   4.022 -0.1745 -0.1097 -0.4046
 5946TIP3    H117844   2.403   2.154   4.072 -0.7688  1.3281 -1.1928
 5946TIP3    H217845   2.257   2.142   4.035 -0.4715 -0.1738 -1.9510
 5947TIP3   OH217846   6.281   2.407   4.720  0.0029  0.3189  0.1738
 5947TIP3    H117847   6.324   2.352   4.785 -1.4384 -1.3134 -0.1881
 5947TIP3    H217848   6.245   2.345   4.656  0.0705  1.7960 -1.3696
 5948TIP3   OH217849   5.971   5.270   4.150  0.1941  0.1282 -0.4075
 5948TIP3    H117850   5.899   5.268   4.212  0.6648  1.3254  0.2241
 5948TIP3    H217851   5.959   5.193   4.095 -1.4650  0.2229 -0.2088
 5949TIP3   OH217852   5.561   2.130   3.105 -0.3964  0.1706  0.0987
 5949TIP3    H117853   5.488   2.156   3.161 -0.2654 -1.0215  0.8793
 5949TIP3    H217854   5.636   2.125   3.164 -0.0562 -0.2159 -0.3548
 5950TIP3   OH217855   0.023   4.029   4.212 -0.1604  0.1247  0.0685
 5950TIP3    H117856  -0.062   4.035   4.169 -0.0432 -0.3762 -0.2541
 5950TIP3    H217857   0.079   3.987   4.147 -0.2584 -1.7275  1.0907
 5951TIP3   OH217858   0.415   1.580   2.104  0.3877 -0.0927  0.1581
 5951TIP3    H117859   0.380   1.529   2.030  0.0663 -0.1563  0.3526
 5951TIP3    H217860   0.387   1.670   2.086  0.8607  0.0034 -0.1277
 5952TIP3   OH217861   3.778   1.255   0.225 -0.5793  0.4263  0.2429
 5952TIP3    H117862   3.835   1.180   0.208 -2.9392 -1.3271 -0.4443
 5952TIP3    H217863   3.782   1.307   0.145  0.1956  0.4586  0.2902
 5953TIP3   OH217864   2.607   1.076   4.417  0.1568 -0.3133 -0.1592
 5953TIP3    H117865   2.576   1.049   4.330  2.3419  3.5009 -2.3994
 5953TIP3    H217866   2.564   1.160   4.432  0.1809 -0.6785  2.3286
 5954TIP3   OH217867   0.624   2.430   3.244  0.3762 -0.0299 -0.2727
 5954TIP3    H117868   0.609   2.508   3.298  0.3377  0.0133 -0.3453
 5954TIP3    H217869   0.560   2.437   3.174  2.0265  1.2246 -1.7603
 5955TIP3   OH217870   6.100   4.466   0.291  0.0259  0.4725 -0.8066
 5955TIP3    H117871   6.121   4.545   0.241  1.4734  1.6221  1.4357
 5955TIP3    H217872   6.169   4.404   0.268 -1.6571 -0.6408 -3.3335
 5956TIP3   OH217873   0.617   3.785   2.692  0.8661  0.4320  0.2234
 5956TIP3    H117874   0.549   3.853   2.684 -1.3642 -1.8272 -1.7714
 5956TIP3    H217875   0.683   3.809   2.628 -0.1906  0.4470 -0.8874
 5957TIP3   OH217876   1.502   5.605   2.418 -0.0283 -0.1900 -0.1141
 5957TIP3    H117877   1.442   5.531   2.405 -0.7684  0.3292  0.2566
 5957TIP3    H217878   1.509   5.614   2.513 -0.8464  0.9076 -0.1336
 5958TIP3   OH217879   5.588   2.857   0.637 -0.0593 -0.2122  0.4780
 5958TIP3    H117880   5.670   2.809   0.625 -0.8579 -1.6861  0.6872
 5958TIP3    H217881   5.522   2.789   0.653 -0.5698  1.0585  5.2525
 5959TIP3   OH217882   5.773   2.479   3.604  0.0898  0.4069  0.3180
 5959TIP3    H117883   5.761   2.442   3.691  0.5933  0.4589  0.4106
 5959TIP3    H217884   5.837   2.422   3.562 -0.1471  0.3853 -0.0158
 5960TIP3   OH217885   0.403   5.338   1.716 -0.3534 -0.3583 -0.2524
 5960TIP3    H117886   0.495   5.358   1.731  0.3280 -0.6364 -3.3010
 5960TIP3    H217887   0.404   5.248   1.682 -1.9161 -0.8118  0.7893
 5961TIP3   OH217888   6.225   0.491   4.055 -0.4060 -0.1420  0.0826
 5961TIP3    H117889   6.272   0.547   4.117  0.2966 -0.4592 -0.1578
 5961TIP3    H217890   6.201   0.414   4.106  1.7045 -1.2062 -0.4355
 5962TIP3   OH217891   1.364   4.148   1.642  0.0387  0.6816 -0.0687
 5962TIP3    H117892   1.316   4.145   1.559 -1.4151  0.0017  0.7517
 5962TIP3    H217893   1.316   4.212   1.695  1.3673  1.6373  0.0253
 5963TIP3   OH217894   0.834   4.240   1.454  0.5036  0.1651  0.2390
 5963TIP3    H117895   0.922   4.236   1.493  0.7053 -0.4810 -0.2650
 5963TIP3    H217896   0.816   4.150   1.426  1.0131  0.8175 -2.5230
 5964TIP3   OH217897   3.533   4.716   2.165 -0.0780  0.3965  0.1813
 5964TIP3    H117898   3.470   4.731   2.236 -0.0340 -0.7257  0.4763
 5964TIP3    H217899   3.484   4.669   2.098  0.6316 -1.3254  0.8049
 5965TIP3   OH217900   0.374   5.442   4.311 -0.5307 -0.0373  0.2173
 5965TIP3    H117901   0.351   5.368   4.368 -1.1494  0.4436  0.6000
 5965TIP3    H217902   0.388   5.402   4.226  1.7022 -0.9651  0.9398
 5966TIP3   OH217903   0.138   5.982   1.760 -0.0080 -0.2697 -0.1686
 5966TIP3    H117904   0.049   5.949   1.772 -1.0333  2.4401  0.3793
 5966TIP3    H217905   0.141   6.009   1.668  0.4293 -0.7626 -0.3066
 5967TIP3   OH217906   4.108   0.354   0.440 -0.2028  0.5436  0.3751
 5967TIP3    H117907   4.091   0.362   0.346  0.4889 -0.0965  0.1808
 5967TIP3    H217908   4.066   0.431   0.479  0.0446  1.1551 -0.5313
 5968TIP3   OH217909   4.375   3.587   1.096 -0.4206 -0.0851 -0.0511
 5968TIP3    H117910   4.393   3.510   1.150 -0.9037  0.6856  1.2366
 5968TIP3    H217911   4.423   3.570   1.014  0.0785 -1.4104  0.4898
 5969TIP3   OH217912   1.125   1.841   3.090 -0.6715 -0.1395  0.4279
 5969TIP3    H117913   1.132   1.887   3.006  0.2301 -0.5311  0.2796
 5969TIP3    H217914   1.175   1.896   3.151  2.2252 -1.8927 -0.1855
 5970TIP3   OH217915   0.963   4.980   1.757  0.2762 -0.2838  0.8701
 5970TIP3    H117916   0.976   5.049   1.692  2.2288  0.5317  2.0254
 5970TIP3    H217917   0.947   4.901   1.705 -1.6541  0.9282 -0.4887
 5971TIP3   OH217918   0.422   4.565   2.825  0.0328  0.7413 -0.1758
 5971TIP3    H117919   0.455   4.627   2.890 -0.2773 -0.2649  0.9829
 5971TIP3    H217920   0.327   4.577   2.827 -0.1282 -0.4680  0.8430
 5972TIP3   OH217921   0.938   0.986   3.908 -0.6680  0.3415  0.6926
 5972TIP3    H117922   1.010   0.929   3.880 -0.7921 -1.4228  3.5159
 5972TIP3    H217923   0.861   0.930   3.903 -2.0077  2.1866 -2.2300
 5973TIP3   OH217924   2.109   2.811   0.357 -0.4963  0.5828 -0.1492
 5973TIP3    H117925   2.084   2.876   0.292 -0.1667 -1.4343 -2.4092
 5973TIP3    H217926   2.095   2.726   0.314  0.6237 -0.8394  2.0703
 5974TIP3   OH217927   2.392   0.936   3.149  0.0566  0.1856 -0.0382
 5974TIP3    H117928   2.361   0.938   3.058  2.6475 -0.9077 -1.0361
 5974TIP3    H217929   2.357   0.855   3.185  0.0509  0.0060 -0.4490
 5975TIP3   OH217930   0.268   3.438   3.573 -0.0039 -0.1730  0.7338
 5975TIP3    H117931   0.327   3.368   3.602  1.3799 -0.1184 -1.6860
 5975TIP3    H217932   0.199   3.392   3.525  0.2226  0.0217  0.2166
 5976TIP3   OH217933   2.735   4.770   5.139 -0.5117 -0.6213  0.3611
 5976TIP3    H117934   2.760   4.678   5.146  1.4014 -0.3301 -1.5853
 5976TIP3    H217935   2.776   4.800   5.058 -1.0002  1.9813  0.9853
 5977TIP3   OH217936   1.914   4.073   0.692  0.8467 -0.1178  0.2786
 5977TIP3    H117937   1.859   4.103   0.619  1.2335  1.0893  0.4535
 5977TIP3    H217938   1.852   4.058   0.764  0.7901  2.4488  0.8620
 5978TIP3   OH217939   5.254   2.030   0.792  0.0370  0.2559 -0.7556
 5978TIP3    H117940   5.334   1.990   0.758  0.7066 -0.0631  1.0842
 5978TIP3    H217941   5.279   2.065   0.877 -1.8534 -0.0759 -0.0188
 5979TIP3   OH217942   4.276   3.152   1.887  0.4637  0.1613  0.0510
 5979TIP3    H117943   4.290   3.071   1.839 -0.0886 -0.1013  0.3223
 5979TIP3    H217944   4.273   3.125   1.979  0.1521  0.4702  0.1327
 5980TIP3   OH217945   4.148   3.676   3.711  0.1801 -0.3096 -0.4355
 5980TIP3    H117946   4.104   3.659   3.628  1.3756  0.4967 -1.2711
 5980TIP3    H217947   4.238   3.647   3.696  1.3474  2.9846 -0.6742
 5981TIP3   OH217948   0.879   3.789   2.577 -0.0166  0.0155  0.2472
 5981TIP3    H117949   0.952   3.766   2.520  0.5260 -0.8963  1.2728
 5981TIP3    H217950   0.921   3.831   2.653 -0.6153  0.1130  0.5249
 5982TIP3   OH217951   0.444   0.938   2.929  0.2034  0.0348 -0.0666
 5982TIP3    H117952   0.423   0.923   2.836  0.4865  1.3093 -0.3591
 5982TIP3    H217953   0.360   0.962   2.969 -0.4784 -3.0878  0.6411
 5983TIP3   OH217954   4.244   1.148   3.656  0.1097 -0.2421  0.2448
 5983TIP3    H117955   4.245   1.053   3.653 -1.8424 -0.2875 -1.4357
 5983TIP3    H217956   4.275   1.175   3.569 -0.7757  0.5907  0.1717
 5984TIP3   OH217957   4.769   1.178   2.567 -0.0325 -0.0413  0.3056
 5984TIP3    H117958   4.841   1.117   2.583 -1.2365 -1.4614  0.5779
 5984TIP3    H217959   4.712   1.168   2.644 -0.5714  0.9698  0.0526
 5985TIP3   OH217960   4.806   1.532   4.771  0.0519  0.5104 -0.0008
 5985TIP3    H117961   4.887   1.492   4.802  0.8472  0.6012 -1.8861
 5985TIP3    H217962   4.753   1.458   4.740  0.0082  0.5849 -0.1045
 5986TIP3   OH217963   0.923   3.216   4.882  0.2089 -0.0864 -0.0316
 5986TIP3    H117964   0.960   3.270   4.952  1.4380 -0.4923 -0.3355
 5986TIP3    H217965   0.915   3.129   4.920  1.6721 -0.5053 -0.6044
 5987TIP3   OH217966   3.971   3.523   2.120  1.0591 -0.0739 -0.3063
 5987TIP3    H117967   3.995   3.615   2.108  2.6174 -0.7263 -3.1320
 5987TIP3    H217968   3.878   3.520   2.097  0.8680  0.8471  0.2775
 5988TIP3   OH217969   1.454   2.010   1.649 -0.1781  0.3511  0.0145
 5988TIP3    H117970   1.368   2.053   1.641 -0.6868 -0.8801 -2.0372
 5988TIP3    H217971   1.496   2.053   1.723 -2.0153  1.9641  0.2010
 5989TIP3   OH217972   5.942   0.106   0.158  0.0058  0.0747 -0.3631
 5989TIP3    H117973   5.995   0.056   0.096 -0.4664 -0.3627 -0.4232
 5989TIP3    H217974   5.852   0.095   0.127 -0.5082 -1.8989  1.5314
 5990TIP3   OH217975   2.004   1.580   2.795  0.4705 -0.0626 -0.1604
 5990TIP3    H117976   2.030   1.525   2.869  1.4035 -0.6943 -0.9292
 5990TIP3    H217977   1.949   1.523   2.741 -1.1399  0.7390  0.5797
 5991TIP3   OH217978   5.291   0.650   2.418  0.6622  0.6122 -0.2970
 5991TIP3    H117979   5.280   0.625   2.327 -0.0964  1.7762 -0.5526
 5991TIP3    H217980   5.318   0.570   2.463  1.8004  0.2053 -1.6704
 5992TIP3   OH217981   1.949   1.788   4.481 -0.0259  0.0380  0.0817
 5992TIP3    H117982   2.007   1.864   4.480  0.0046  0.0072 -1.0007
 5992TIP3    H217983   1.882   1.807   4.416 -1.7594  0.4492  1.8750
 5993TIP3   OH217984   1.152   5.288   4.789 -0.2018  0.7834  0.0730
 5993TIP3    H117985   1.199   5.371   4.787 -1.1845  1.3966 -2.4240
 5993TIP3    H217986   1.073   5.304   4.737 -1.7993 -0.9783  1.7936
 5994TIP3   OH217987   2.793   1.503   4.242  0.2345 -0.0062  0.0740
 5994TIP3    H117988   2.798   1.465   4.329  1.1566 -0.1068 -0.0098
 5994TIP3    H217989   2.828   1.592   4.253  2.0017 -0.5864 -0.4910
 5995TIP3   OH217990   2.909   0.593   1.292 -0.2205  1.4946  0.2154
 5995TIP3    H117991   2.902   0.535   1.368  0.0147 -0.0688 -0.9171
 5995TIP3    H217992   2.985   0.648   1.310  1.5866 -0.7949 -0.1222
 5996TIP3   OH217993   3.996   3.517   5.092  0.3527 -0.1171 -0.0099
 5996TIP3    H117994   3.937   3.583   5.128  0.4102  0.4071 -0.8543
 5996TIP3    H217995   4.059   3.500   5.163  1.7330  2.4259 -0.5253
 5997TIP3   OH217996   0.862   0.710   1.613  0.8413  0.3221  0.1605
 5997TIP3    H117997   0.840   0.620   1.636  0.4936 -0.0853 -1.6803
 5997TIP3    H217998   0.876   0.708   1.519 -1.6353  2.6826 -0.3680
 5998TIP3   OH217999   2.265   0.724   3.275  0.0645 -0.2940  0.0498
 5998TIP3    H118000   2.182   0.726   3.229  0.0708  0.2454  0.0555
 5998TIP3    H218001   2.242   0.738   3.367  0.1028 -0.8103  0.1406
 5999TIP3   OH218002   0.181   5.274   0.742 -0.4265 -0.2127 -0.6777
 5999TIP3    H118003   0.194   5.369   0.733  0.6255 -0.2907 -0.1814
 5999TIP3    H218004   0.086   5.264   0.750 -0.5636  0.7931 -0.8417
 6000TIP3   OH218005   5.922   1.834   2.563 -0.1987 -0.1610  0.0276
 6000TIP3    H118006   5.965   1.758   2.525  1.4001 -0.0946  1.5515
 6000TIP3    H218007   5.942   1.906   2.503  0.3670 -0.4830 -0.1766
 6001TIP3   OH218008   1.897   0.493   5.130  0.4620 -0.2077  0.1123
 6001TIP3    H118009   1.932   0.579   5.153  0.9983  0.2037 -2.0761
 6001TIP3    H218010   1.973   0.441   5.106  0.0110 -0.8685  0.0730
 6002TIP3   OH218011   0.656   4.326   3.811 -0.4158 -0.0664 -0.6048
 6002TIP3    H118012   0.628   4.387   3.879 -1.0841  0.8444 -1.6572
 6002TIP3    H218013   0.662   4.379   3.732 -0.6749 -1.3053 -1.4872
 6003TIP3   OH218014   0.222   0.965   0.401 -0.0488 -0.1748  0.2042
 6003TIP3    H118015   0.200   0.872   0.415 -0.8320 -0.1251 -0.6589
 6003TIP3    H218016   0.316   0.970   0.421  0.0260 -1.1759  0.1550
 6004TIP3   OH218017   5.173   2.806   4.887 -0.1867  0.8287 -0.8785
 6004TIP3    H118018   5.165   2.875   4.953  1.7495 -0.7784  1.2053
 6004TIP3    H218019   5.237   2.841   4.824 -0.0705  1.3737 -0.4719
 6005TIP3   OH218020   2.843   4.745   2.125 -0.3078 -0.1153 -0.0808
 6005TIP3    H118021   2.924   4.795   2.140 -0.4814  0.1841 -0.1288
 6005TIP3    H218022   2.863   4.691   2.049  0.2108 -0.8414  0.5610
 6006TIP3   OH218023   5.926   4.004   4.246 -0.0627 -0.1066 -0.7421
 6006TIP3    H118024   5.875   4.052   4.311 -0.7909 -0.7318 -0.8403
 6006TIP3    H218025   5.963   3.930   4.294  0.0301 -0.1407 -0.8666
 6007TIP3   OH218026   0.173   2.175   4.461 -0.4321 -0.4095  0.4893
 6007TIP3    H118027   0.182   2.175   4.366 -0.2354  1.1487  0.4733
 6007TIP3    H218028   0.079   2.176   4.477 -0.4761  1.1819  0.2488
 6008TIP3   OH218029   4.233   3.975   0.419  0.2353 -0.3881 -0.1128
 6008TIP3    H118030   4.310   3.990   0.365 -0.1088  1.9203 -0.1008
 6008TIP3    H218031   4.262   3.994   0.508 -0.2215  0.0219 -0.0483
 6009TIP3   OH218032   4.481   1.564   5.156 -0.3319  0.0394  0.3894
 6009TIP3    H118033   4.528   1.640   5.191  0.0239 -0.9840  2.2894
 6009TIP3    H218034   4.548   1.515   5.109 -0.9229  1.6906 -2.4056
 6010TIP3   OH218035   5.143   4.520   3.831  0.5814  0.3926  0.0461
 6010TIP3    H118036   5.086   4.489   3.901  2.5102  0.5796  1.8057
 6010TIP3    H218037   5.124   4.613   3.823  1.4469  0.7436  1.5348
 6011TIP3   OH218038   2.996   4.812   1.829 -0.3857  0.3823 -0.4976
 6011TIP3    H118039   2.932   4.875   1.862 -2.1426  0.4011 -3.5243
 6011TIP3    H218040   2.952   4.727   1.837 -0.4129  0.2704 -1.6489
 6012TIP3   OH218041   5.253   1.070   3.953 -0.3338  0.8058 -1.1858
 6012TIP3    H118042   5.257   0.984   3.911  0.3681  0.5587 -0.6289
 6012TIP3    H218043   5.229   1.130   3.882  0.8940  0.4079 -1.9607
 6013TIP3   OH218044   1.318   4.475   1.698 -0.9159  0.0373  0.0713
 6013TIP3    H118045   1.269   4.401   1.735 -0.6808  1.1359  2.7883
 6013TIP3    H218046   1.389   4.491   1.760  0.1424  1.4117 -1.3980
 6014TIP3   OH218047   0.397   4.797   1.500  0.5198 -0.0586  0.2273
 6014TIP3    H118048   0.483   4.817   1.535  0.3154  0.2875  0.5394
 6014TIP3    H218049   0.393   4.701   1.499  1.1275 -0.0797 -0.3460
 6015TIP3   OH218050   4.625   5.757   1.614 -0.2725  0.2622  0.0735
 6015TIP3    H118051   4.648   5.740   1.706  0.0284 -0.1272 -0.0686
 6015TIP3    H218052   4.597   5.848   1.613 -1.2223 -0.0119  0.7308
 6016TIP3   OH218053   1.281   2.949   0.936  0.2788 -0.1502  0.0565
 6016TIP3    H118054   1.375   2.951   0.921  0.4740 -2.3864  0.5021
 6016TIP3    H218055   1.272   2.957   1.031  0.1796 -1.5539  0.1926
 6017TIP3   OH218056   0.147   1.129   0.196 -0.0988 -0.2681 -0.4255
 6017TIP3    H118057   0.098   1.207   0.223 -1.2971 -0.5824 -1.5562
 6017TIP3    H218058   0.169   1.084   0.277 -0.5502  0.5711  0.1726
 6018TIP3   OH218059   2.026   2.869   0.105 -0.1338  0.3779 -0.2809
 6018TIP3    H118060   2.047   2.870   0.012 -0.3889  1.2717 -0.3467
 6018TIP3    H218061   1.976   2.950   0.119 -0.8357 -0.1584  0.4639
 6019TIP3   OH218062   5.732   3.825   2.975 -0.1254  0.0880  0.4697
 6019TIP3    H118063   5.811   3.817   3.029  0.9170 -3.7883 -1.2762
 6019TIP3    H218064   5.675   3.755   3.006 -1.3613  0.5625 -0.6434
 6020TIP3   OH218065   0.610   3.030   2.140 -0.6071  0.6803  0.4328
 6020TIP3    H118066   0.517   3.037   2.116 -0.8606  1.2986  1.5141
 6020TIP3    H218067   0.655   3.086   2.076 -0.7636 -0.8482 -1.0899
 6021TIP3   OH218068   2.241   4.158   1.245  0.3884  0.3060  0.4326
 6021TIP3    H118069   2.166   4.098   1.241  0.0128  0.7563  0.6730
 6021TIP3    H218070   2.317   4.100   1.243  0.0868 -0.0853 -1.5001
 6022TIP3   OH218071   5.946   3.805   3.427  0.3550  0.1803  0.0213
 6022TIP3    H118072   5.923   3.820   3.519  0.4694 -0.5256  0.1687
 6022TIP3    H218073   5.996   3.723   3.428  1.5121  0.8546 -0.4962
 6023TIP3   OH218074   0.986   0.099   2.619  0.3516 -0.4568 -0.0504
 6023TIP3    H118075   1.004   0.009   2.594  0.6644 -0.0768 -1.2566
 6023TIP3    H218076   0.890   0.103   2.625  0.1820 -0.3957 -2.0222
 6024TIP3   OH218077   3.147   3.263   4.101  0.0549  0.4934 -0.6085
 6024TIP3    H118078   3.115   3.353   4.104 -0.8246  0.1783 -0.2190
 6024TIP3    H218079   3.070   3.209   4.117  0.7015 -0.3083 -0.0875
 6025TIP3   OH218080   3.555   3.165   4.681  0.0471 -0.6478 -0.1366
 6025TIP3    H118081   3.594   3.228   4.621 -0.0478  0.3178  0.7867
 6025TIP3    H218082   3.544   3.213   4.763 -2.6303 -1.0029 -0.1819
 6026TIP3   OH218083   2.085   3.830   2.450 -0.6244  0.0021 -0.4479
 6026TIP3    H118084   2.156   3.809   2.389 -0.0562  1.9480 -0.5011
 6026TIP3    H218085   2.050   3.913   2.419 -1.3256  0.2739  0.9903
 6027TIP3   OH218086   0.533   5.358   1.233 -0.4124  0.1533 -0.6893
 6027TIP3    H118087   0.600   5.300   1.270 -1.0515 -1.9275 -2.5952
 6027TIP3    H218088   0.577   5.403   1.162 -0.2108  1.2696  0.1160
 6028TIP3   OH218089   3.760   5.935   1.091  0.0608 -0.6888 -0.3712
 6028TIP3    H118090   3.684   5.993   1.086  0.9002  0.4004 -1.1033
 6028TIP3    H218091   3.793   5.932   1.001  0.0953 -2.2577 -0.3248
 6029TIP3   OH218092   2.485   3.919   4.019 -0.0916  0.2941  0.1004
 6029TIP3    H118093   2.518   3.952   4.103 -0.6894  1.4954 -0.1111
 6029TIP3    H218094   2.419   3.855   4.042 -1.3038  1.6666  0.5968
 6030TIP3   OH218095   1.087   5.266   0.890  0.4357  0.1026  0.1411
 6030TIP3    H118096   1.057   5.229   0.806  0.8872 -1.8923  0.7874
 6030TIP3    H218097   1.154   5.203   0.920 -0.9235 -0.1808  2.8145
 6031TIP3   OH218098   3.293   1.367   4.464  0.6243  0.4985  0.3596
 6031TIP3    H118099   3.370   1.322   4.430  0.5615  1.1035 -0.6242
 6031TIP3    H218100   3.229   1.297   4.477  1.2914  0.0090  1.0815
 6032TIP3   OH218101   1.070   4.968   2.226 -0.0777 -0.0411  0.5427
 6032TIP3    H118102   1.049   4.940   2.137 -0.5343 -0.0712  0.6573
 6032TIP3    H218103   1.104   4.890   2.268 -1.3793 -0.4594  0.8723
 6033TIP3   OH218104   2.506   1.909   4.698 -0.3276 -0.0318  0.3489
 6033TIP3    H118105   2.501   1.899   4.602 -2.2263 -0.2659  0.4203
 6033TIP3    H218106   2.511   2.004   4.711  0.3728 -0.0155  0.0182
 6034TIP3   OH218107   5.181   3.066   4.088 -0.8478 -0.0637 -0.5123
 6034TIP3    H118108   5.264   3.029   4.057 -0.6281  0.3186 -0.3860
 6034TIP3    H218109   5.114   3.019   4.039 -0.5679 -0.5402 -0.4493
 6035TIP3   OH218110   0.760   1.109   4.908 -0.2320 -0.6294  0.1588
 6035TIP3    H118111   0.688   1.138   4.853  0.3635 -0.2960 -0.4692
 6035TIP3    H218112   0.774   1.017   4.882  0.4915 -0.2791 -0.7727
 6036TIP3   OH218113   5.682   4.829   4.681 -0.0266 -0.2306  0.3879
 6036TIP3    H118114   5.610   4.785   4.635 -0.3970 -0.8424  1.5248
 6036TIP3    H218115   5.642   4.864   4.761  0.5834  0.9134  0.2117
 6037TIP3   OH218116   0.465   4.948   5.015  0.2903  0.3202 -0.0497
 6037TIP3    H118117   0.497   4.861   4.991  0.3103  0.3781 -0.2367
 6037TIP3    H218118   0.408   4.933   5.090  1.3735  0.3225  0.7774
 6038TIP3   OH218119   0.854   5.871   4.309  0.1533  0.2676 -0.1234
 6038TIP3    H118120   0.826   5.851   4.399  0.9341  3.7868  1.0469
 6038TIP3    H218121   0.940   5.830   4.302 -0.6887 -1.6291 -0.0025
 6039TIP3   OH218122   1.540   3.023   0.936 -0.3937 -0.5696 -0.1814
 6039TIP3    H118123   1.546   3.104   0.987 -2.1457 -0.5756  0.0964
 6039TIP3    H218124   1.630   2.994   0.926  0.0710 -0.1998  2.3364
 6040TIP3   OH218125   5.278   1.029   1.945  0.2945  0.6763  0.2896
 6040TIP3    H118126   5.344   1.093   1.918  0.8840  0.7116  1.7007
 6040TIP3    H218127   5.209   1.082   1.985 -0.3220  0.5884 -0.6216
 6041TIP3   OH218128   2.813   0.750   3.956  0.5403  0.1839  0.4185
 6041TIP3    H118129   2.777   0.687   3.895  1.6505 -0.6323  0.5666
 6041TIP3    H218130   2.757   0.827   3.947  1.1060  0.3878 -2.1878
 6042TIP3   OH218131   5.499   0.696   1.216 -0.6085 -0.7606  0.3326
 6042TIP3    H118132   5.577   0.750   1.214 -0.3297 -1.0908  1.4559
 6042TIP3    H218133   5.524   0.616   1.170 -0.2128 -0.9398  0.8434
 6043TIP3   OH218134   5.562   5.115   1.475 -0.1208 -0.3223 -0.1289
 6043TIP3    H118135   5.640   5.081   1.431  0.0246 -1.2526  0.7999
 6043TIP3    H218136   5.527   5.040   1.522 -0.2443  0.6228  1.3685
 6044TIP3   OH218137   3.600   2.596   4.447  0.3008 -0.0654 -0.0885
 6044TIP3    H118138   3.562   2.635   4.368  1.5679 -0.3148 -0.8517
 6044TIP3    H218139   3.535   2.531   4.475 -0.7487  0.9203 -0.1599
 6045TIP3   OH218140   0.416   4.252   2.249 -0.8278 -0.4317  0.2913
 6045TIP3    H118141   0.462   4.207   2.320 -2.7006 -2.0279  0.5586
 6045TIP3    H218142   0.463   4.336   2.240  1.0786 -1.2831  1.6036
 6046TIP3   OH218143   0.981   5.765   4.585  0.2576  0.2827  0.3430
 6046TIP3    H118144   0.960   5.839   4.642 -1.5509  0.1612 -0.1299
 6046TIP3    H218145   0.921   5.696   4.611  0.0752 -0.1093 -1.0157
 6047TIP3   OH218146   4.580   3.257   1.827 -0.6356  0.5569  0.2932
 6047TIP3    H118147   4.620   3.195   1.765 -1.9720 -0.5265  0.4765
 6047TIP3    H218148   4.605   3.343   1.794 -0.0336 -0.0398 -0.8670
 6048TIP3   OH218149   1.046   3.790   1.836  0.4997  0.0463 -0.0477
 6048TIP3    H118150   1.049   3.700   1.870  0.2045  0.3794  0.8836
 6048TIP3    H218151   1.066   3.845   1.911  3.0767  0.6845 -1.0907
 6049TIP3   OH218152   1.413   0.181   2.883  0.2806  0.6860 -0.1116
 6049TIP3    H118153   1.506   0.188   2.865  0.1481  0.5315 -0.9145
 6049TIP3    H218154   1.388   0.266   2.919  0.5868  0.9863 -0.5972
 6050TIP3   OH218155   3.420   5.150   1.729 -0.1352 -0.2400 -0.3082
 6050TIP3    H118156   3.367   5.194   1.795  0.3169  1.2591 -0.9054
 6050TIP3    H218157   3.382   5.062   1.722 -1.6491  0.3358  0.2758
 6051TIP3   OH218158   3.513   4.612   4.052 -0.1995  0.7262  0.2206
 6051TIP3    H118159   3.441   4.652   4.102 -2.2087  0.1350 -2.0164
 6051TIP3    H218160   3.483   4.614   3.962  1.4769 -1.9660 -0.5038
 6052TIP3   OH218161   4.757   4.073   2.536 -0.1379  0.4482 -0.7003
 6052TIP3    H118162   4.713   3.996   2.572  1.2297 -0.9351 -1.8831
 6052TIP3    H218163   4.841   4.077   2.582  0.4466  0.3004 -1.7292
 6053TIP3   OH218164   4.509   5.347   0.095  0.1784  0.3070  0.5938
 6053TIP3    H118165   4.419   5.377   0.086  0.0139 -0.7078 -2.8724
 6053TIP3    H218166   4.510   5.296   0.176 -2.3134  0.4449  0.7896
 6054TIP3   OH218167   1.769   0.901   5.036  0.3069 -0.1462 -0.2377
 6054TIP3    H118168   1.786   0.995   5.043  0.2729 -0.1089 -0.6340
 6054TIP3    H218169   1.768   0.883   4.942 -0.0791 -0.4718 -0.1744
 6055TIP3   OH218170   2.024   3.473   4.335  0.0230  0.6060  0.3733
 6055TIP3    H118171   2.080   3.396   4.339  0.1816  0.6535 -0.7129
 6055TIP3    H218172   2.036   3.517   4.420  2.6235  1.3196 -0.2946
 6056TIP3   OH218173   5.226   5.361   1.940  0.1394  0.3499  0.2730
 6056TIP3    H118174   5.231   5.296   2.010  0.0777 -0.9143 -0.8449
 6056TIP3    H218175   5.169   5.430   1.975  1.2447  0.4679  1.9712
 6057TIP3   OH218176   4.325   3.991   0.695  0.3136 -0.2792 -0.0156
 6057TIP3    H118177   4.311   3.914   0.750 -0.5944 -1.2765 -1.5953
 6057TIP3    H218178   4.333   4.064   0.758 -0.5340 -1.3797  1.4254
 6058TIP3   OH218179   2.503   2.237   2.854 -0.0189 -0.2798 -0.3010
 6058TIP3    H118180   2.452   2.162   2.884 -1.2707  1.0038  0.9701
 6058TIP3    H218181   2.451   2.275   2.784 -0.6267  0.7376  0.6560
 6059TIP3   OH218182   3.819   0.068   2.189  0.0657 -0.1999  0.2780
 6059TIP3    H118183   3.914   0.059   2.188 -0.0040 -1.2253 -0.9932
 6059TIP3    H218184   3.802   0.144   2.244  1.6624  0.4475 -0.0712
 6060TIP3   OH218185   3.327   4.899   1.190 -0.7142  0.0638  0.3768
 6060TIP3    H118186   3.411   4.863   1.216 -1.7188 -0.1695  3.7757
 6060TIP3    H218187   3.349   4.976   1.137  1.6139 -0.1448  0.9347
 6061TIP3   OH218188   0.897   0.141   1.688 -0.0423 -0.1263  0.4683
 6061TIP3    H118189   0.901   0.118   1.596  0.3205  0.9508  0.1974
 6061TIP3    H218190   0.924   0.233   1.691  0.6489 -0.3387  1.7188
 6062TIP3   OH218191   2.305   1.909   3.375 -0.0175  0.0050  0.0380
 6062TIP3    H118192   2.227   1.941   3.420  0.8222  1.4314  0.5344
 6062TIP3    H218193   2.272   1.879   3.290 -1.2677 -0.5434  0.6816
 6063TIP3   OH218194   4.534   5.120   3.145  0.1557  0.6760 -0.6005
 6063TIP3    H118195   4.555   5.209   3.174  0.4169  0.2586  0.5275
 6063TIP3    H218196   4.620   5.079   3.130  0.0324  0.7203 -1.4990
 6064TIP3   OH218197   3.101   2.390   5.093 -0.7397 -0.3203  0.1084
 6064TIP3    H118198   3.179   2.413   5.142 -0.1930 -0.3282 -0.7371
 6064TIP3    H218199   3.131   2.379   5.002 -2.0189  1.5242 -0.5967
 6065TIP3   OH218200   1.663   3.739   0.749  0.4330  0.1716  0.4072
 6065TIP3    H118201   1.654   3.782   0.664 -0.0010 -0.1633  0.2800
 6065TIP3    H218202   1.646   3.809   0.813  3.8835  1.2485  0.3504
 6066TIP3   OH218203   3.286   5.845   2.911  0.1436 -0.9286  0.5618
 6066TIP3    H118204   3.350   5.797   2.964  1.4146  0.6399  0.5416
 6066TIP3    H218205   3.229   5.887   2.975  1.0635  0.1494  0.7176
 6067TIP3   OH218206   1.088   4.175   2.917 -0.2165 -0.4184 -0.4113
 6067TIP3    H118207   1.077   4.167   3.012 -0.3874  1.9136 -0.1724
 6067TIP3    H218208   1.167   4.125   2.898  0.3933 -0.0981  1.1396
 6068TIP3   OH218209   4.041   0.456   2.259  0.1074  0.4958 -0.0061
 6068TIP3    H118210   4.083   0.427   2.340  0.9716  2.3391  0.2377
 6068TIP3    H218211   4.108   0.506   2.214  0.1892 -1.7606 -2.6804
 6069TIP3   OH218212   0.916   0.483   1.983  0.4631  0.7170  0.2464
 6069TIP3    H118213   0.983   0.415   1.976  0.6787  1.0765 -2.5364
 6069TIP3    H218214   0.854   0.450   2.047  1.2100 -1.5090 -0.0892
 6070TIP3   OH218215   3.758   0.921   0.803  0.1257 -0.4687  0.0455
 6070TIP3    H118216   3.745   1.014   0.787 -0.1292 -0.5628 -0.3006
 6070TIP3    H218217   3.790   0.917   0.893 -2.5720 -0.2376  1.1174
 6071TIP3   OH218218   4.455   0.384   3.272  0.2391 -0.5821  0.2530
 6071TIP3    H118219   4.508   0.398   3.351  0.5559 -1.2297  0.1603
 6071TIP3    H218220   4.482   0.298   3.240  1.1621  0.2526 -1.3621
 6072TIP3   OH218221   4.717   4.159   1.752 -0.0491 -0.4193  0.1252
 6072TIP3    H118222   4.810   4.143   1.763 -0.2903 -0.9026  1.7063
 6072TIP3    H218223   4.710   4.253   1.736  0.6623 -0.2315  0.8465
 6073TIP3   OH218224   5.832   4.656   4.894 -0.0801  0.1250  0.6572
 6073TIP3    H118225   5.921   4.641   4.864 -0.4751 -0.2697 -0.3841
 6073TIP3    H218226   5.802   4.732   4.845 -0.6417 -0.3551  0.2295
 6074TIP3   OH218227   1.763   2.460   4.987  0.2240  0.2182 -0.4632
 6074TIP3    H118228   1.774   2.378   5.034 -1.2459  0.4267  0.3167
 6074TIP3    H218229   1.773   2.528   5.054  1.5402  0.6984 -1.1207
 6075TIP3   OH218230   1.811   5.868   2.783  0.2938  0.3583 -0.3110
 6075TIP3    H118231   1.823   5.917   2.864 -0.3910  0.2874 -0.1608
 6075TIP3    H218232   1.813   5.776   2.809  3.7321  0.1595 -0.8695
 6076TIP3   OH218233   2.230   2.355   4.923  0.1760  1.0864 -0.4263
 6076TIP3    H118234   2.217   2.427   4.985  1.3299  1.9815 -1.1963
 6076TIP3    H218235   2.272   2.395   4.847  0.5257 -0.3374 -1.0193
 6077TIP3   OH218236   6.017   5.536   3.805 -0.2706  0.2168  0.4203
 6077TIP3    H118237   5.970   5.586   3.738 -0.4874  0.8903  1.0703
 6077TIP3    H218238   6.034   5.451   3.763 -3.0494 -0.4833  0.5220
 6078TIP3   OH218239   1.420   1.189   1.478 -0.0103  0.3035 -0.2843
 6078TIP3    H118240   1.463   1.113   1.517  2.8236  1.5312 -0.7765
 6078TIP3    H218241   1.404   1.248   1.551 -1.2984 -0.3042 -0.0469
 6079TIP3   OH218242   0.603   5.525   4.571 -0.1741 -0.1917 -0.5891
 6079TIP3    H118243   0.611   5.430   4.581  0.6355  0.0698  1.8966
 6079TIP3    H218244   0.626   5.560   4.657 -1.1385  2.2371 -1.2406
 6080TIP3   OH218245   1.369   1.604   4.088  0.1147 -0.8396  0.0887
 6080TIP3    H118246   1.397   1.521   4.050  2.4084  0.7426 -2.0670
 6080TIP3    H218247   1.320   1.647   4.018 -0.7195 -0.2123  1.0414
 6081TIP3   OH218248   4.448   4.063   3.083 -0.4820 -0.2660 -0.3338
 6081TIP3    H118249   4.522   4.026   3.036  0.3016  0.7579  0.0701
 6081TIP3    H218250   4.387   4.090   3.014  0.8266  1.5962 -0.8350
 6082TIP3   OH218251   5.759   1.829   4.839 -0.1027  0.6532  0.0641
 6082TIP3    H118252   5.775   1.784   4.923 -0.5504 -1.9760 -1.1548
 6082TIP3    H218253   5.843   1.823   4.793 -0.3441  0.4899 -0.3550
 6083TIP3   OH218254   6.023   1.685   0.523  0.1650 -0.0123  0.1522
 6083TIP3    H118255   6.033   1.774   0.555 -0.4844 -0.5130  1.8531
 6083TIP3    H218256   5.959   1.645   0.582 -0.6961 -1.1659 -1.5003
 6084TIP3   OH218257   2.970   2.075   3.525 -0.0573 -0.3629  0.5516
 6084TIP3    H118258   3.005   2.003   3.472  3.3637  0.8848  0.8904
 6084TIP3    H218259   2.887   2.097   3.483  0.0149 -2.7815 -1.0950
 6085TIP3   OH218260   4.775   2.997   4.701  0.0121 -0.2273  0.2004
 6085TIP3    H118261   4.862   3.035   4.706  0.7380 -1.4356 -1.8456
 6085TIP3    H218262   4.755   2.969   4.790  1.5725  0.3401  0.7596
 6086TIP3   OH218263   5.940   5.862   1.923  0.0849  0.0908  0.2923
 6086TIP3    H118264   5.860   5.856   1.870 -0.9045  1.1135  1.5704
 6086TIP3    H218265   5.946   5.777   1.967 -0.6477  0.1901  0.6139
 6087TIP3   OH218266   2.528   1.323   4.350  0.2969 -0.1342  0.4343
 6087TIP3    H118267   2.456   1.386   4.355  1.2956  1.0519  0.3448
 6087TIP3    H218268   2.541   1.309   4.257 -0.3965 -1.0884  0.4528
 6088TIP3   OH218269   4.674   5.430   3.784  0.2015 -0.6292 -0.0919
 6088TIP3    H118270   4.662   5.522   3.762  0.5750 -0.8197 -1.1570
 6088TIP3    H218271   4.657   5.425   3.878  1.7307  0.7985  0.2893
 6089TIP3   OH218272   0.791   3.999   3.408  0.0615 -0.3112  0.2492
 6089TIP3    H118273   0.751   3.950   3.479 -1.5223  0.4352 -0.0856
 6089TIP3    H218274   0.741   3.975   3.330  1.4210 -0.7006 -0.5481
 6090TIP3   OH218275   3.818   1.884   0.592  0.2557 -0.3155 -0.0445
 6090TIP3    H118276   3.800   1.924   0.677 -0.1413 -1.1885  0.3012
 6090TIP3    H218277   3.740   1.830   0.574 -0.3462  1.0117 -1.6794
 6091TIP3   OH218278   1.101   3.939   4.194 -0.3286  0.0315  0.1490
 6091TIP3    H118279   1.087   3.921   4.287  0.4958  0.1439  0.3086
 6091TIP3    H218280   1.195   3.925   4.182 -0.7318 -1.9125 -1.1037
 6092TIP3   OH218281   2.284   2.439   4.313  0.4010 -0.4875  0.2530
 6092TIP3    H118282   2.357   2.501   4.322  0.5798  0.5942 -5.2546
 6092TIP3    H218283   2.210   2.483   4.355  1.7869  0.6290  1.6556
 6093TIP3   OH218284   4.886   1.898   2.384 -0.2943 -0.3706  0.0367
 6093TIP3    H118285   4.887   1.833   2.454  0.0329 -0.0193  0.3632
 6093TIP3    H218286   4.945   1.863   2.318  1.4309  0.4989  1.0567
 6094TIP3   OH218287   3.332   0.291   0.956 -0.0935 -0.1425  0.0722
 6094TIP3    H118288   3.280   0.282   0.876 -0.5868 -1.6379  0.5278
 6094TIP3    H218289   3.268   0.291   1.027  0.4823 -2.4864  0.6771
 6095TIP3   OH218290   5.932   3.360   1.819 -0.3568  0.2658  0.5261
 6095TIP3    H118291   5.938   3.276   1.865  2.4706  0.7984  1.2940
 6095TIP3    H218292   5.954   3.340   1.728  2.0566  0.3550  1.0354
 6096TIP3   OH218293   0.181   4.898   4.850  0.0392  0.3292  0.1630
 6096TIP3    H118294   0.122   4.911   4.924  0.0864  0.3636  0.1951
 6096TIP3    H218295   0.247   4.967   4.860 -1.6767  2.3687 -1.6357
 6097TIP3   OH218296   4.119   5.559   1.605  0.2410 -0.2436 -0.1230
 6097TIP3    H118297   4.146   5.582   1.694  0.6241  0.8647 -0.4992
 6097TIP3    H218298   4.162   5.476   1.587 -1.2871 -1.4079  1.3559
 6098TIP3   OH218299   4.455   4.468   1.881  0.3424  0.6968  0.1097
 6098TIP3    H118300   4.394   4.512   1.822 -1.0902 -0.9529  0.3039
 6098TIP3    H218301   4.402   4.404   1.928  2.2223 -0.8613  0.2456
 6099TIP3   OH218302   0.761   4.711   3.073  0.1811  0.3916 -0.2868
 6099TIP3    H118303   0.675   4.748   3.094 -0.4875 -0.5576 -1.2993
 6099TIP3    H218304   0.743   4.642   3.009  1.3297 -1.9944  1.7815
 6100TIP3   OH218305   1.076   2.537   0.268  0.0982  0.4690  0.0990
 6100TIP3    H118306   1.112   2.590   0.340 -1.3180 -0.0279  1.2252
 6100TIP3    H218307   1.026   2.599   0.216 -0.2868  0.5295  0.5339
 6101TIP3   OH218308   1.477   4.608   1.079  0.5295  0.1503 -0.4582
 6101TIP3    H118309   1.446   4.586   1.167 -0.5448  0.8100 -0.6425
 6101TIP3    H218310   1.433   4.691   1.059 -2.2529 -1.7108 -3.0315
 6102TIP3   OH218311   3.740   3.150   0.121  0.3953  0.1335  0.4207
 6102TIP3    H118312   3.733   3.178   0.212 -2.6157  0.7911  0.0857
 6102TIP3    H218313   3.667   3.090   0.109 -0.7392  1.8480 -2.1116
 6103TIP3   OH218314   0.426   2.371   0.117 -0.4128  0.0083 -0.1911
 6103TIP3    H118315   0.434   2.410   0.030  1.4492  0.8714  0.3039
 6103TIP3    H218316   0.354   2.419   0.159 -1.0988 -0.1850 -1.1312
 6104TIP3   OH218317   5.351   1.021   1.472  0.1663  0.5119  0.4949
 6104TIP3    H118318   5.421   1.080   1.444 -0.0095  0.3892 -0.2260
 6104TIP3    H218319   5.315   1.062   1.550  0.4162  1.0697  0.3249
 6105TIP3   OH218320   1.144   4.398   1.022 -0.2607 -0.2497 -0.3175
 6105TIP3    H118321   1.117   4.470   1.078  0.5392 -0.5311  0.4534
 6105TIP3    H218322   1.090   4.407   0.943 -0.6421  0.7831  0.0473
 6106TIP3   OH218323   1.640   4.826   0.966 -0.0073  0.3366  0.3275
 6106TIP3    H118324   1.682   4.779   1.039 -0.9744 -0.4578  0.3905
 6106TIP3    H218325   1.674   4.785   0.887 -1.0310 -0.6735  0.3849
 6107TIP3   OH218326   1.111   1.208   1.697  0.4490 -0.9424 -0.1583
 6107TIP3    H118327   1.112   1.186   1.790  0.0876 -0.3795 -0.0171
 6107TIP3    H218328   1.202   1.231   1.677  0.0461  2.0027  0.8331
 6108TIP3   OH218329   4.961   4.996   0.122  0.3974 -0.1094  0.6278
 6108TIP3    H118330   5.002   5.058   0.062  0.6318 -1.2335 -0.4077
 6108TIP3    H218331   4.868   4.997   0.099  0.5067 -0.6341  0.1384
 6109TIP3   OH218332   1.640   5.657   1.204  0.6547 -0.3252  0.2784
 6109TIP3    H118333   1.580   5.627   1.272 -0.8105  0.0199 -0.7904
 6109TIP3    H218334   1.708   5.590   1.200 -0.0388 -1.1030  1.0662
 6110TIP3   OH218335   5.633   1.830   1.517  0.1326 -0.6815  0.2364
 6110TIP3    H118336   5.714   1.877   1.538  0.9881 -1.8140 -0.3911
 6110TIP3    H218337   5.663   1.748   1.478 -1.3496 -0.5417 -1.2962
 6111TIP3   OH218338   5.712   0.831   4.957 -0.2734 -0.6123  0.4283
 6111TIP3    H118339   5.657   0.780   4.897 -0.1393  0.1026 -0.3325
 6111TIP3    H218340   5.651   0.869   5.019 -0.8563  1.1622 -1.1263
 6112TIP3   OH218341   5.542   4.863   3.592  0.0766 -0.5513  0.1485
 6112TIP3    H118342   5.573   4.928   3.528  0.9712 -0.6223  0.4906
 6112TIP3    H218343   5.450   4.884   3.606 -0.4385 -1.1714 -1.9424
 6113TIP3   OH218344   1.769   5.109   3.591 -0.8832  0.5810  0.5220
 6113TIP3    H118345   1.819   5.068   3.661  1.4942  1.7110 -0.3954
 6113TIP3    H218346   1.793   5.201   3.595 -1.8368  0.9249 -0.8608
 6114TIP3   OH218347   0.232   2.946   3.604  0.1962  0.2260 -0.7609
 6114TIP3    H118348   0.238   2.853   3.584 -1.9939 -0.1904  0.2673
 6114TIP3    H218349   0.167   2.952   3.674  2.4644  2.2469  1.3859
 6115TIP3   OH218350   6.318   5.947   2.612  0.0442  0.0220  0.3621
 6115TIP3    H118351   6.379   5.936   2.538 -0.6024  0.3238 -0.2338
 6115TIP3    H218352   6.242   5.990   2.573  0.2734  1.5339  1.5013
 6116TIP3   OH218353   4.834   0.600   3.201 -0.5429  0.0135 -0.0874
 6116TIP3    H118354   4.895   0.674   3.194 -0.1154 -0.4121 -0.8761
 6116TIP3    H218355   4.827   0.584   3.296  0.5350  0.0972  0.0145
 6117TIP3   OH218356   3.758   4.304   2.991 -0.0060  0.3197 -0.5034
 6117TIP3    H118357   3.743   4.347   3.075  1.2519 -0.8746  0.3687
 6117TIP3    H218358   3.694   4.233   2.988  0.3047  0.0279 -0.2994
 6118TIP3   OH218359   2.314   4.051   1.873  0.6528  0.1619 -0.1705
 6118TIP3    H118360   2.386   4.081   1.928  0.7502  0.1441 -0.2874
 6118TIP3    H218361   2.253   4.125   1.870  0.4382  0.0053  0.3185
 6119TIP3   OH218362   5.488   5.332   3.148 -0.0056  0.0486  0.2362
 6119TIP3    H118363   5.524   5.363   3.065  1.0461 -0.9703  0.2938
 6119TIP3    H218364   5.418   5.272   3.123 -0.0714  0.1852  0.0933
 6120TIP3   OH218365   0.562   1.869   2.774  0.0601 -0.6230  0.5884
 6120TIP3    H118366   0.484   1.877   2.719 -0.7118 -1.4479  1.5309
 6120TIP3    H218367   0.608   1.952   2.762 -1.0133 -0.0758  0.1097
 6121TIP3   OH218368   0.433   4.823   2.950  0.6687  0.0255  0.3618
 6121TIP3    H118369   0.339   4.834   2.939  0.4122 -1.1553  1.2098
 6121TIP3    H218370   0.453   4.868   3.032  1.0303  1.1125 -0.3013
 6122TIP3   OH218371   3.063   1.134   1.094  0.4409 -0.0022  0.0954
 6122TIP3    H118372   2.981   1.088   1.110  0.2378 -0.1538 -1.2506
 6122TIP3    H218373   3.055   1.216   1.143 -2.2268  1.8204 -2.9794
 6123TIP3   OH218374   5.020   0.375   0.659 -0.3248  0.0783  0.2489
 6123TIP3    H118375   5.099   0.425   0.681 -1.0957  1.2844  0.3772
 6123TIP3    H218376   5.000   0.401   0.569 -0.7027 -0.0506  0.2947
 6124TIP3   OH218377   1.998   2.932   2.172 -0.0701 -0.3364 -0.2390
 6124TIP3    H118378   2.037   3.002   2.224  1.1866  0.7475 -2.5175
 6124TIP3    H218379   2.064   2.910   2.107 -1.9356 -0.8865 -2.0606
 6125TIP3   OH218380   5.034   5.272   1.514 -0.2104 -0.4110  0.6474
 6125TIP3    H118381   5.052   5.202   1.578  1.0942  0.4420  1.2644
 6125TIP3    H218382   5.112   5.327   1.517 -0.3795 -0.0054 -1.2702
 6126TIP3   OH218383   3.449   1.706   0.277 -0.0767  0.3158 -0.5405
 6126TIP3    H118384   3.371   1.748   0.313  0.5862  1.4550 -0.3831
 6126TIP3    H218385   3.463   1.750   0.193  1.0234  0.9199 -0.0628
 6127TIP3   OH218386   4.136   5.094   1.889  0.6643 -0.2578 -0.5190
 6127TIP3    H118387   4.116   5.175   1.935 -1.9539  0.9013 -3.3777
 6127TIP3    H218388   4.120   5.025   1.955  0.3877  1.3866  1.2239
 6128TIP3   OH218389   4.962   0.684   2.229  0.8471  0.0036  0.6463
 6128TIP3    H118390   5.048   0.642   2.231  0.7900 -0.1755 -0.3129
 6128TIP3    H218391   4.965   0.741   2.152  0.0047 -0.2187  0.4415
 6129TIP3   OH218392   2.846   5.026   1.711 -0.0825  0.7424 -0.5175
 6129TIP3    H118393   2.804   5.054   1.630  1.5516  1.9709 -0.9670
 6129TIP3    H218394   2.920   4.972   1.683 -1.5059 -1.8165  0.2767
 6130TIP3   OH218395   4.359   0.134   0.623 -0.0377 -0.1007  0.4607
 6130TIP3    H118396   4.336   0.051   0.581 -0.5170  0.0228  0.4669
 6130TIP3    H218397   4.454   0.130   0.635 -0.1134 -0.8425  0.8814
 6131TIP3   OH218398   2.621   3.092   4.913  0.0006  0.5301 -0.1395
 6131TIP3    H118399   2.552   3.031   4.940  0.1454  0.2481 -0.3889
 6131TIP3    H218400   2.672   3.107   4.993 -0.4412  0.8699  0.0843
 6132TIP3   OH218401   4.559   0.253   2.562 -0.2596 -0.2882  0.0679
 6132TIP3    H118402   4.543   0.174   2.613  1.5596  0.5106  2.0295
 6132TIP3    H218403   4.567   0.322   2.628 -1.1733  1.4507 -1.5508
 6133TIP3   OH218404   2.306   3.599   3.733  0.6672  0.1646 -0.4434
 6133TIP3    H118405   2.222   3.554   3.725  1.3969 -1.2369 -0.5542
 6133TIP3    H218406   2.371   3.532   3.712  1.8725  0.9076  0.7948
 6134TIP3   OH218407   3.158   5.580   2.042  0.6351  0.0918 -0.3484
 6134TIP3    H118408   3.092   5.516   2.015 -0.2868  1.8400 -2.6228
 6134TIP3    H218409   3.120   5.623   2.119  1.1347 -1.7942  1.0078
 6135TIP3   OH218410   2.569   4.003   4.799  0.4086  0.1365  0.0160
 6135TIP3    H118411   2.537   3.914   4.789  1.4976 -0.1265 -1.4541
 6135TIP3    H218412   2.659   3.993   4.828  0.0508  0.8172  1.4655
 6136TIP3   OH218413   3.209   1.290   2.419  0.4307 -0.1437 -0.3406
 6136TIP3    H118414   3.135   1.260   2.366 -0.7038 -0.0579  1.1466
 6136TIP3    H218415   3.227   1.379   2.387 -0.5407  0.0807 -0.2926
 6137TIP3   OH218416   1.798   5.099   1.312  0.0605  1.0109  0.1145
 6137TIP3    H118417   1.812   5.192   1.331 -0.2044  0.5946  2.7782
 6137TIP3    H218418   1.809   5.056   1.397 -0.3054 -1.3455 -0.9664
 6138TIP3   OH218419   4.424   0.094   3.377  0.3997  0.6781  0.2545
 6138TIP3    H118420   4.519   0.090   3.389  0.5932  1.0577 -1.0815
 6138TIP3    H218421   4.411   0.084   3.283 -1.0099 -1.4682  0.5937
 6139TIP3   OH218422   4.942   4.283   1.585  0.1011 -0.3157 -0.2411
 6139TIP3    H118423   4.849   4.300   1.601  0.2451  0.5621 -0.2988
 6139TIP3    H218424   4.984   4.369   1.591  0.8608 -0.6512 -0.5783
 6140TIP3   OH218425   1.607   0.206   0.991  0.4938  0.1005  0.0489
 6140TIP3    H118426   1.661   0.221   0.913  0.1466  1.1827  0.0041
 6140TIP3    H218427   1.549   0.133   0.966  0.8661 -0.0251 -0.4560
 6141TIP3   OH218428   2.208   0.686   0.019 -0.6817  0.4536  0.0020
 6141TIP3    H118429   2.240   0.771  -0.012  0.2705  0.0770 -0.0971
 6141TIP3    H218430   2.144   0.708   0.087  0.2763  1.2404  0.6803
 6142TIP3   OH218431   6.171   2.045   0.054 -0.1495  0.0580 -0.7397
 6142TIP3    H118432   6.152   2.107  -0.016 -0.0076  0.5970 -0.3092
 6142TIP3    H218433   6.087   2.003   0.073  0.1945 -1.6816 -2.6925
 6143TIP3   OH218434   5.075   1.895   4.596 -0.1190 -0.2852  0.4046
 6143TIP3    H118435   5.167   1.868   4.592 -0.3939 -1.1755 -0.2478
 6143TIP3    H218436   5.026   1.812   4.599 -1.0447  0.0171 -2.7856
 6144TIP3   OH218437   3.318   4.854   1.762 -0.1225 -0.0023  0.6535
 6144TIP3    H118438   3.296   4.907   1.839 -1.8803 -0.3015  0.3948
 6144TIP3    H218439   3.244   4.866   1.703  0.5658 -0.8740 -0.4206
 6145TIP3   OH218440   2.483   2.222   1.127 -0.7127 -0.2086  0.0606
 6145TIP3    H118441   2.503   2.129   1.116  1.5419  0.2604 -0.3508
 6145TIP3    H218442   2.566   2.267   1.110 -1.1175  1.7294  2.5843
 6146TIP3   OH218443   5.354   4.053   5.114  0.1083 -0.4389  0.0824
 6146TIP3    H118444   5.435   4.094   5.082 -0.4056  0.7423  0.2280
 6146TIP3    H218445   5.307   4.027   5.035 -0.2434  0.6528 -0.0897
 6147TIP3   OH218446   3.109   4.684   1.179 -0.3230 -0.1282  0.4462
 6147TIP3    H118447   3.167   4.759   1.193 -0.2063 -0.3746  1.3017
 6147TIP3    H218448   3.169   4.610   1.163 -0.4394 -0.0058 -0.6723
 6148TIP3   OH218449   3.688   2.649   4.147 -0.2122  0.1072  0.2406
 6148TIP3    H118450   3.595   2.635   4.163  0.4611 -2.1301  3.2271
 6148TIP3    H218451   3.710   2.728   4.196 -0.2386 -0.4723  1.2216
 6149TIP3   OH218452   2.259   4.325   2.554  0.5517  0.0765 -0.5311
 6149TIP3    H118453   2.227   4.339   2.465 -0.5344 -1.2887 -0.3854
 6149TIP3    H218454   2.194   4.267   2.594  1.1069  0.5390  1.1028
 6150TIP3   OH218455   4.559   2.021   3.948  0.4150  0.4139  0.1493
 6150TIP3    H118456   4.547   2.081   3.874  1.0654 -0.1420 -0.4238
 6150TIP3    H218457   4.533   1.936   3.914  1.3377  0.0415  0.3473
 6151TIP3   OH218458   2.448   3.854   0.305 -0.2898 -0.1989 -0.1289
 6151TIP3    H118459   2.508   3.813   0.243 -0.7381  0.3600 -0.9549
 6151TIP3    H218460   2.493   3.848   0.389  0.8090 -0.0278 -0.6865
 6152TIP3   OH218461   5.256   5.473   2.384  0.1329  0.0034 -0.3896
 6152TIP3    H118462   5.172   5.437   2.354  0.5429 -1.0146 -0.3576
 6152TIP3    H218463   5.311   5.396   2.399  1.3711  0.6828 -1.2571
 6153TIP3   OH218464   3.879   2.702   3.640 -0.5911 -0.0673 -0.1894
 6153TIP3    H118465   3.933   2.628   3.667 -0.0430 -0.1358 -1.4346
 6153TIP3    H218466   3.939   2.777   3.637 -0.5940 -0.0937 -1.3330
 6154TIP3   OH218467   1.212   5.669   2.403  0.1341 -0.1014  0.8688
 6154TIP3    H118468   1.251   5.582   2.391  0.1591 -0.0357  0.4428
 6154TIP3    H218469   1.178   5.691   2.317 -1.4859 -0.4617  1.3918
 6155TIP3   OH218470   5.635   1.239   2.767  0.7842  0.3939 -0.0481
 6155TIP3    H118471   5.580   1.246   2.845 -0.2450 -1.9325 -0.4859
 6155TIP3    H218472   5.696   1.312   2.775 -0.4121  1.2759  2.0140
 6156TIP3   OH218473   0.396   2.858   4.733 -0.0271  0.2272 -0.0772
 6156TIP3    H118474   0.403   2.954   4.737 -0.1799  0.2666 -0.6621
 6156TIP3    H218475   0.388   2.839   4.640 -0.1058 -0.3516  0.0467
 6157TIP3   OH218476   1.719   2.076   2.161 -0.2635 -0.3974  0.8318
 6157TIP3    H118477   1.738   2.027   2.241  0.2586  0.1631  1.0595
 6157TIP3    H218478   1.692   2.163   2.191 -1.3261 -0.5717  0.4375
 6158TIP3   OH218479   1.079   4.649   4.500 -0.1201  0.6685 -0.0939
 6158TIP3    H118480   1.057   4.723   4.443 -1.7875 -0.3006 -0.7726
 6158TIP3    H218481   1.149   4.603   4.452 -1.3887 -0.0421 -1.3382
 6159TIP3   OH218482   4.039   3.658   2.920  0.5129 -0.4677 -0.0293
 6159TIP3    H118483   4.046   3.605   2.840 -0.1015  1.3943 -1.3907
 6159TIP3    H218484   4.115   3.715   2.917  0.5937 -0.5243  0.8475
 6160TIP3   OH218485   2.198   0.302   4.677 -0.2799 -0.1392 -0.2519
 6160TIP3    H118486   2.120   0.356   4.675  0.2187  0.5848 -0.9836
 6160TIP3    H218487   2.190   0.245   4.600 -0.0672 -0.0225 -0.3633
 6161TIP3   OH218488   5.909   4.737   4.540 -0.3510 -0.1754 -0.1067
 6161TIP3    H118489   5.819   4.735   4.574 -0.9902  0.5344 -1.6610
 6161TIP3    H218490   5.946   4.819   4.574 -0.0077 -0.8112  1.1321
 6162TIP3   OH218491   4.230   4.980   3.636 -0.2056  0.3760 -0.1042
 6162TIP3    H118492   4.322   4.963   3.657 -0.9568 -1.4669  2.1700
 6162TIP3    H218493   4.199   5.036   3.708 -0.6872  1.8271 -1.3729
 6163TIP3   OH218494   5.537   2.377   0.593  0.0668 -0.0539 -0.1798
 6163TIP3    H118495   5.602   2.329   0.643  0.4509 -0.2080 -0.8134
 6163TIP3    H218496   5.582   2.401   0.512 -0.2666  0.9506 -0.0896
 6164TIP3   OH218497   2.554   0.585   0.453  0.5928  0.0427 -0.3442
 6164TIP3    H118498   2.471   0.627   0.478  1.3239  1.8843 -0.8717
 6164TIP3    H218499   2.559   0.596   0.358  0.9689 -0.9945 -0.4590
 6165TIP3   OH218500   2.868   4.596   1.906  0.2107  0.3357  0.0563
 6165TIP3    H118501   2.811   4.543   1.849 -1.5143  2.8674 -0.7435
 6165TIP3    H218502   2.928   4.533   1.944 -1.4910 -2.1495 -1.0685
 6166TIP3   OH218503   1.318   0.114   4.504  0.0772 -0.0500  0.2697
 6166TIP3    H118504   1.295   0.114   4.597  0.4431 -4.2970  0.5182
 6166TIP3    H218505   1.396   0.169   4.499 -0.3390  0.8148  2.3146
 6167TIP3   OH218506   4.321   3.617   2.293  0.3318  0.2060 -0.2355
 6167TIP3    H118507   4.336   3.563   2.216  2.1255  1.5169 -0.8833
 6167TIP3    H218508   4.286   3.556   2.358  0.3319 -1.2801 -1.5576
 6168TIP3   OH218509   1.527   0.083   4.007  0.0641  0.5360 -0.4589
 6168TIP3    H118510   1.554   0.027   4.079 -0.2086 -0.2735 -0.9760
 6168TIP3    H218511   1.445   0.122   4.037 -0.2774 -0.1383 -0.5009
 6169TIP3   OH218512   5.138   1.553   3.258 -0.2632 -0.2509 -0.5181
 6169TIP3    H118513   5.107   1.532   3.347 -1.5250 -0.2832 -0.9451
 6169TIP3    H218514   5.065   1.527   3.201  0.4604 -0.0502 -1.5523
 6170TIP3   OH218515   2.937   5.758   4.823 -0.1655  0.3614 -0.7752
 6170TIP3    H118516   2.887   5.684   4.859  1.4518 -0.5064 -0.2374
 6170TIP3    H218517   2.996   5.784   4.894  1.3654  0.2168 -1.9564
 6171TIP3   OH218518   3.034   2.069   2.156  0.2375  0.1526 -0.1800
 6171TIP3    H118519   2.943   2.090   2.178  0.9177  1.6071  1.4875
 6171TIP3    H218520   3.082   2.150   2.174  1.8701 -0.5700 -1.0854
 6172TIP3   OH218521   1.811   3.119   0.617  0.4536 -0.0771  0.2169
 6172TIP3    H118522   1.737   3.179   0.613 -0.4306 -1.2302 -2.6639
 6172TIP3    H218523   1.878   3.161   0.562 -0.3596 -1.8021 -2.2698
 6173TIP3   OH218524   6.090   0.753   4.672 -0.5289  0.3039  0.7002
 6173TIP3    H118525   6.109   0.828   4.615  1.9720 -0.4041  0.4861
 6173TIP3    H218526   6.042   0.791   4.746 -2.0948  1.5677 -0.8726
 6174TIP3   OH218527   4.656   1.339   3.969  0.3637  0.8993  0.3043
 6174TIP3    H118528   4.606   1.302   3.897  1.4927 -1.8074  0.7841
 6174TIP3    H218529   4.676   1.428   3.941 -3.3246  1.6004 -0.5190
 6175TIP3   OH218530   6.268   5.082   3.225  0.1701 -0.2068 -0.4564
 6175TIP3    H118531   6.257   5.016   3.156 -3.0904  0.8091 -1.0906
 6175TIP3    H218532   6.179   5.113   3.243  1.1639  1.2586  2.5989
 6176TIP3   OH218533   3.358   0.063   1.848  0.1821  0.0599  0.4986
 6176TIP3    H118534   3.448   0.034   1.832  0.3066  0.9725 -0.5551
 6176TIP3    H218535   3.355   0.152   1.814 -1.0197  0.1830  0.8860
 6177TIP3   OH218536   1.546   2.271   1.590 -0.4498 -0.2953  0.1353
 6177TIP3    H118537   1.629   2.251   1.632 -0.2661  0.7602  0.3185
 6177TIP3    H218538   1.495   2.316   1.657 -0.6572  0.2277 -0.3557
 6178TIP3   OH218539   3.157   1.589   4.369 -0.4089  0.0114  0.1558
 6178TIP3    H118540   3.133   1.535   4.294  0.3597  0.4881 -0.4426
 6178TIP3    H218541   3.204   1.529   4.428 -0.6174 -0.2527  0.0542
 6179TIP3   OH218542   6.014   4.346   2.257  0.0818 -0.3435 -0.4010
 6179TIP3    H118543   6.047   4.326   2.344 -0.0811  0.7301 -0.0749
 6179TIP3    H218544   5.951   4.277   2.238 -0.3576 -0.2276  0.6111
 6180TIP3   OH218545   1.206   0.804   3.934  0.0814 -0.5004 -0.7692
 6180TIP3    H118546   1.284   0.784   3.882  1.8958 -0.5870  1.7466
 6180TIP3    H218547   1.182   0.720   3.974 -0.0429 -0.1110  0.0031
 6181TIP3   OH218548   0.698   3.664   0.518 -0.4514 -0.4943 -0.4232
 6181TIP3    H118549   0.717   3.652   0.611 -1.5244  1.0925  0.0501
 6181TIP3    H218550   0.772   3.716   0.485 -0.5221 -0.2574 -0.2170
 6182TIP3   OH218551   2.629   4.403   1.216  0.1442  0.2817 -0.3020
 6182TIP3    H118552   2.700   4.464   1.231 -0.1668  0.5893 -0.0587
 6182TIP3    H218553   2.608   4.414   1.123 -2.2378  3.1637  0.4124
 6183TIP3   OH218554   0.466   0.577   0.962 -0.0731  0.3290  0.0026
 6183TIP3    H118555   0.451   0.559   1.055  0.1398 -1.9677 -0.3442
 6183TIP3    H218556   0.379   0.595   0.927 -0.1458  1.3035  0.6503
 6184TIP3   OH218557   4.651   3.815   3.243  0.2838 -0.3120 -0.4267
 6184TIP3    H118558   4.649   3.754   3.316 -0.2926  0.5668  0.3276
 6184TIP3    H218559   4.713   3.882   3.270 -0.6323  0.5157 -0.2982
 6185TIP3   OH218560   2.827   1.430   0.875  0.3338 -0.2731  0.1979
 6185TIP3    H118561   2.857   1.506   0.924  0.7902 -0.0239 -0.4574
 6185TIP3    H218562   2.901   1.404   0.821 -0.9008  1.0699 -2.3345
 6186TIP3   OH218563   1.089   5.346   4.367 -0.2615 -0.3151  0.1170
 6186TIP3    H118564   1.028   5.284   4.329  2.3561 -1.4563 -2.6343
 6186TIP3    H218565   1.156   5.291   4.409 -0.5084  0.8445  2.1611
 6187TIP3   OH218566   3.464   5.470   4.290  0.0875 -0.5157  0.3212
 6187TIP3    H118567   3.395   5.497   4.229  1.1060 -0.5503 -0.8818
 6187TIP3    H218568   3.539   5.450   4.234  1.4506  0.6162  1.6765
 6188TIP3   OH218569   2.721   4.049   0.929  0.6884 -0.1130  0.0198
 6188TIP3    H118570   2.744   3.958   0.948  1.6025  0.2856  0.9113
 6188TIP3    H218571   2.747   4.097   1.007  1.5139  1.1227 -0.9678
 6189TIP3   OH218572   1.498   3.303   5.147  0.0815 -0.3765 -0.3072
 6189TIP3    H118573   1.554   3.317   5.071  0.9160  0.3394  0.4193
 6189TIP3    H218574   1.485   3.208   5.149  1.0116 -0.5251 -0.6753
 6190TIP3   OH218575   4.762   1.812   4.470 -0.4159  0.1051 -0.0789
 6190TIP3    H118576   4.824   1.747   4.438  0.5194  1.7969 -1.9745
 6190TIP3    H218577   4.774   1.813   4.565  1.3181 -0.7528 -0.2565
 6191TIP3   OH218578   4.478   5.353   4.613 -0.1666  0.2032 -0.0387
 6191TIP3    H118579   4.430   5.329   4.534 -0.2459 -1.8284  0.5546
 6191TIP3    H218580   4.422   5.417   4.656 -0.7345  0.3737 -0.9942
 6192TIP3   OH218581   2.667   4.051   4.541  0.3082  0.1146 -0.1050
 6192TIP3    H118582   2.615   4.050   4.621  1.6781  2.7203  0.9660
 6192TIP3    H218583   2.758   4.056   4.572  0.8154  2.8638 -1.7082
 6193TIP3   OH218584   0.364   5.896   4.376  0.1757 -0.0869 -0.5791
 6193TIP3    H118585   0.291   5.879   4.317  1.1606 -1.8486 -1.3662
 6193TIP3    H218586   0.354   5.831   4.446  0.8562 -0.2099 -0.5901
 6194TIP3   OH218587   4.401   5.096   2.827  0.0288  0.4839  0.1997
 6194TIP3    H118588   4.375   5.010   2.861  1.7354  0.0089  0.4154
 6194TIP3    H218589   4.382   5.156   2.899  0.9368 -0.0832  0.9398
 6195TIP3   OH218590   5.448   5.116   4.597 -0.0523 -0.5542  0.3026
 6195TIP3    H118591   5.370   5.117   4.542 -1.1747  1.0323  1.8138
 6195TIP3    H218592   5.424   5.058   4.670 -0.0475  0.3718  1.0512
 6196TIP3   OH218593   6.005   0.438   3.514  0.2767  0.2472  0.0310
 6196TIP3    H118594   5.976   0.411   3.427  0.7724 -0.9026  0.1993
 6196TIP3    H218595   5.932   0.416   3.571  0.2655  0.2576  0.0207
 6197TIP3   OH218596   2.623   5.766   0.945 -0.2058  0.4004 -0.3601
 6197TIP3    H118597   2.649   5.850   0.906  0.6247  0.9330  1.2541
 6197TIP3    H218598   2.608   5.709   0.870  2.9616  0.8672 -1.5264
 6198TIP3   OH218599   5.937   1.986   4.286  0.5922 -0.6268  0.6174
 6198TIP3    H118600   6.021   1.997   4.332  1.2106  2.6309 -0.9688
 6198TIP3    H218601   5.961   1.947   4.202  0.4032 -0.5412  0.5231
 6199TIP3   OH218602   5.590   4.010   2.095 -0.3938 -0.3230 -0.0086
 6199TIP3    H118603   5.606   4.096   2.133  0.0184  0.0082 -0.8987
 6199TIP3    H218604   5.548   3.959   2.165  0.2506  0.2911  0.8285
 6200TIP3   OH218605   3.757   3.724   4.270 -0.3400 -0.5843  0.0448
 6200TIP3    H118606   3.746   3.664   4.196  1.4256  0.6409 -1.2915
 6200TIP3    H218607   3.771   3.810   4.230  0.0198  0.2383  1.8323
 6201TIP3   OH218608   2.456   3.076   3.203  0.1422 -0.3825  0.1512
 6201TIP3    H118609   2.395   3.143   3.234  0.4331  0.2603 -0.6217
 6201TIP3    H218610   2.530   3.081   3.263 -0.0700 -0.3772  0.4139
 6202TIP3   OH218611   2.977   0.619   5.039 -0.3811  0.7539 -0.1612
 6202TIP3    H118612   3.014   0.552   4.981  2.3790  2.2414 -0.2928
 6202TIP3    H218613   2.903   0.576   5.081  1.3018 -2.4481 -0.1366
 6203TIP3   OH218614   3.303   0.352   2.409 -0.0326  0.1997  0.9021
 6203TIP3    H118615   3.332   0.267   2.440  0.4837  0.4515  1.1221
 6203TIP3    H218616   3.329   0.413   2.478 -0.9880  0.4464  1.0511
 6204TIP3   OH218617   1.453   0.446   0.629 -0.7243 -0.1462 -0.0289
 6204TIP3    H118618   1.386   0.387   0.595 -1.5035  1.4432 -1.3643
 6204TIP3    H218619   1.455   0.519   0.567  0.7183  0.8902  1.1665
 6205TIP3   OH218620   1.376   5.387   2.348  0.2521 -0.4584 -0.0252
 6205TIP3    H118621   1.358   5.321   2.281  0.8474 -0.5376 -0.1155
 6205TIP3    H218622   1.393   5.335   2.427  0.9066 -0.4342 -0.1395
 6206TIP3   OH218623   0.257   4.907   1.883  0.6139  0.2324  0.1613
 6206TIP3    H118624   0.208   4.876   1.806  0.9339  1.6671 -0.6609
 6206TIP3    H218625   0.303   4.985   1.852  1.1027  0.5920  1.7097
 6207TIP3   OH218626   5.126   2.746   1.942  0.2852 -0.4383  0.2334
 6207TIP3    H118627   5.112   2.656   1.914  0.5443 -0.1453 -0.8907
 6207TIP3    H218628   5.192   2.739   2.012  0.9308 -1.0599 -0.4164
 6208TIP3   OH218629   2.079   5.303   1.099  0.2167  0.5345  0.0654
 6208TIP3    H118630   2.161   5.330   1.058 -0.4301  0.5443 -1.3046
 6208TIP3    H218631   2.062   5.371   1.165  0.3860  1.5622 -0.9186
 6209TIP3   OH218632   3.267   4.107   1.190 -0.4041 -0.2221  0.0478
 6209TIP3    H118633   3.271   4.192   1.145 -0.0896 -0.0058  0.4760
 6209TIP3    H218634   3.338   4.111   1.254 -0.7245 -0.5999  0.4270
 6210TIP3   OH218635   3.679   3.915   1.793 -0.3495  0.4295 -0.1229
 6210TIP3    H118636   3.764   3.933   1.754 -0.3397  0.7328  0.0411
 6210TIP3    H218637   3.700   3.869   1.874 -0.3756 -0.3669 -0.5550
 6211TIP3   OH218638   1.704   0.593   2.900 -0.1215 -0.2021  0.2521
 6211TIP3    H118639   1.762   0.585   2.824 -0.0815  0.4330  0.2072
 6211TIP3    H218640   1.685   0.687   2.905 -0.0446 -0.2247  1.0805
 6212TIP3   OH218641   5.450   3.288   3.102 -0.3131 -0.6603  0.2665
 6212TIP3    H118642   5.503   3.210   3.091 -1.6849 -1.4745 -1.0342
 6212TIP3    H218643   5.430   3.316   3.012  0.9035  1.7550  0.6645
 6213TIP3   OH218644   6.304   5.727   2.347 -0.2197  0.7733 -0.0122
 6213TIP3    H118645   6.341   5.654   2.396 -0.2463  1.3155  0.8488
 6213TIP3    H218646   6.379   5.768   2.304 -0.2878 -0.1251 -1.0259
 6214TIP3   OH218647   3.720   5.106   1.244 -0.0915 -0.3364  0.0363
 6214TIP3    H118648   3.814   5.092   1.257  0.6284  3.4574  0.1335
 6214TIP3    H218649   3.689   5.138   1.328 -1.1665 -0.2873 -0.3692
 6215TIP3   OH218650   1.095   0.669   5.132  0.9596  0.3472  0.1948
 6215TIP3    H118651   1.040   0.591   5.144 -0.3916  1.3737  0.9591
 6215TIP3    H218652   1.086   0.691   5.040  2.4704 -1.1583 -0.3763
 6216TIP3   OH218653   3.049   5.138   4.789  0.3849  0.2112 -0.1757
 6216TIP3    H118654   3.099   5.218   4.802  0.8553 -0.0824 -0.1453
 6216TIP3    H218655   3.044   5.099   4.876 -0.0453  0.3242 -0.1491
 6217TIP3   OH218656   4.360   0.099   1.589 -0.2589  0.5281 -0.4490
 6217TIP3    H118657   4.293   0.144   1.537 -0.5184 -0.2907 -0.8415
 6217TIP3    H218658   4.322   0.014   1.610  0.1781  0.5202  0.3796
 6218TIP3   OH218659   1.591   3.685   2.462  0.0926  0.2721 -0.3450
 6218TIP3    H118660   1.671   3.738   2.457  0.3340  0.1495  1.5999
 6218TIP3    H218661   1.587   3.655   2.553 -1.5372 -0.7369 -0.7005
 6219TIP3   OH218662   0.688   0.945   3.619 -0.3417 -0.4094 -0.3862
 6219TIP3    H118663   0.714   0.890   3.693 -1.4142  0.5604  0.7638
 6219TIP3    H218664   0.642   1.019   3.659 -0.6133  0.3533 -2.0080
 6220TIP3   OH218665   0.378   0.157   2.102 -0.3992  0.1572 -0.0965
 6220TIP3    H118666   0.313   0.191   2.164 -0.3933 -1.1576  0.6685
 6220TIP3    H218667   0.462   0.188   2.135 -0.3051 -1.2806  1.1267
 6221TIP3   OH218668   1.146   5.197   3.345 -0.0923 -0.0492  0.0020
 6221TIP3    H118669   1.188   5.235   3.422 -1.8432  0.6875  0.6232
 6221TIP3    H218670   1.141   5.270   3.283 -1.1277  0.0718  0.2220
 6222TIP3   OH218671   0.924   2.050   0.361 -0.0334 -0.8150  0.2167
 6222TIP3    H118672   0.829   2.046   0.344 -0.1545  2.0231 -0.2877
 6222TIP3    H218673   0.958   2.105   0.291  1.5200  0.6043  2.0022
 6223TIP3   OH218674   5.482   3.875   1.660  0.4054 -0.5897  0.4039
 6223TIP3    H118675   5.461   3.967   1.675  1.3500 -0.3933  0.5581
 6223TIP3    H218676   5.397   3.831   1.659 -0.0742  0.3240  0.0429
 6224TIP3   OH218677   0.046   5.663   2.040  0.2052 -0.3782  0.0371
 6224TIP3    H118678   0.121   5.603   2.039  0.8078  0.3199 -2.2079
 6224TIP3    H218679  -0.030   5.606   2.026  0.7021 -0.7235 -1.4221
 6225TIP3   OH218680   2.557   5.829   0.548 -0.8687 -0.2300  0.1962
 6225TIP3    H118681   2.578   5.777   0.626  0.6406  1.3830  0.9469
 6225TIP3    H218682   2.638   5.831   0.498 -1.4335 -0.1107 -0.7336
 6226TIP3   OH218683   4.446   2.726   4.819  0.0375 -0.2730 -0.3622
 6226TIP3    H118684   4.485   2.739   4.733  0.2689  0.6311 -0.1252
 6226TIP3    H218685   4.373   2.666   4.802  0.7968 -1.0410 -0.9898
 6227TIP3   OH218686   3.813   1.032   1.912  0.2184  0.6152 -0.6667
 6227TIP3    H118687   3.862   1.078   1.980  0.2216  0.9185 -0.8694
 6227TIP3    H218688   3.861   1.051   1.831 -0.3724  1.1334 -0.9054
 6228TIP3   OH218689   0.643   0.820   2.526  0.0581  0.2260  0.2320
 6228TIP3    H118690   0.686   0.737   2.503  2.6667  0.9359  2.0749
 6228TIP3    H218691   0.665   0.878   2.453 -2.0534 -0.7041 -1.2278
 6229TIP3   OH218692   5.210   3.349   5.106 -0.1617 -0.1086 -0.2248
 6229TIP3    H118693   5.303   3.373   5.112 -0.3437  0.2637  2.6348
 6229TIP3    H218694   5.167   3.427   5.071  0.4623  0.1016 -0.5473
 6230TIP3   OH218695   3.519   5.413   0.044 -0.3020 -0.3326  0.0700
 6230TIP3    H118696   3.537   5.320   0.052 -2.7352 -1.0300 -1.4997
 6230TIP3    H218697   3.571   5.441  -0.031  0.8137 -0.2776  0.8445
 6231TIP3   OH218698   0.090   4.971   2.133  0.1046 -0.1904  0.2348
 6231TIP3    H118699   0.161   4.923   2.090  0.4102  0.0992  0.4096
 6231TIP3    H218700   0.013   4.954   2.079  0.4181 -0.0791 -0.2546
 6232TIP3   OH218701   4.527   4.637   3.947  0.7635  0.1786  0.3417
 6232TIP3    H118702   4.611   4.645   3.903  0.7264 -0.4128  0.1647
 6232TIP3    H218703   4.545   4.584   4.024  0.2875 -1.1496 -0.4368
 6233TIP3   OH218704   1.654   2.803   0.659 -0.5106 -0.6421  0.2899
 6233TIP3    H118705   1.592   2.876   0.656 -1.2862 -1.2866  0.2343
 6233TIP3    H218706   1.727   2.832   0.604 -1.5552 -0.5737 -1.1266
 6234TIP3   OH218707   3.034   4.433   2.946 -0.0666 -0.4611  0.0661
 6234TIP3    H118708   3.075   4.511   2.984  1.0524 -0.1183 -1.7212
 6234TIP3    H218709   2.981   4.467   2.874  1.3256 -1.3857 -1.4683
 6235TIP3   OH218710   3.260   2.498   1.647  0.2110  0.2034  0.3330
 6235TIP3    H118711   3.264   2.515   1.553  0.2952  2.0802  0.6454
 6235TIP3    H218712   3.321   2.425   1.661 -1.3368 -1.5187 -1.3257
 6236TIP3   OH218713   5.808   4.688   5.168  0.4677  0.1986  0.0761
 6236TIP3    H118714   5.839   4.629   5.237  0.0756 -0.2739 -0.1464
 6236TIP3    H218715   5.833   4.645   5.086 -0.5952 -0.0953 -0.1047
 6237TIP3   OH218716   5.791   4.587   1.302  0.5542 -0.5467 -0.4170
 6237TIP3    H118717   5.783   4.492   1.292 -0.1819 -0.8028  2.0500
 6237TIP3    H218718   5.885   4.604   1.293  0.5780 -1.2969 -2.0316
 6238TIP3   OH218719   3.087   4.435   4.358  0.5746 -0.3398  0.8755
 6238TIP3    H118720   3.013   4.406   4.412  1.6385 -0.4597  2.3555
 6238TIP3    H218721   3.059   4.518   4.321 -0.9114 -1.1715  0.0532
 6239TIP3   OH218722   5.904   1.800   3.651 -0.2355  0.1706 -0.4510
 6239TIP3    H118723   5.979   1.742   3.658  0.6259  1.4752  2.7561
 6239TIP3    H218724   5.836   1.758   3.704  0.4094  1.9235  1.9411
 6240TIP3   OH218725   5.645   0.137   3.647  0.0765  0.9006 -0.0238
 6240TIP3    H118726   5.722   0.100   3.690 -0.2974  0.2308  0.0960
 6240TIP3    H218727   5.571   0.104   3.699 -0.3562  0.4286 -0.9226
 6241TIP3   OH218728   0.237   1.992   1.248  0.3000  0.9201 -0.5683
 6241TIP3    H118729   0.170   1.924   1.237  1.1891 -0.2912  0.9970
 6241TIP3    H218730   0.308   1.964   1.190  1.4929 -0.7124  1.5210
 6242TIP3   OH218731   3.381   3.366   2.430 -0.2833 -0.0555 -0.0894
 6242TIP3    H118732   3.476   3.358   2.436 -0.2742  0.5760  0.7248
 6242TIP3    H218733   3.358   3.319   2.350  0.8820  1.0561 -1.1202
 6243TIP3   OH218734   0.374   5.102   2.386  0.0855  0.2243 -0.4575
 6243TIP3    H118735   0.390   5.008   2.378  0.4865  0.2000  0.4701
 6243TIP3    H218736   0.461   5.140   2.402 -0.2085  0.6198  0.2486
 6244TIP3   OH218737   0.788   4.419   2.848 -0.2384  0.0560 -0.1315
 6244TIP3    H118738   0.764   4.333   2.882 -1.6472 -0.0597 -1.3147
 6244TIP3    H218739   0.873   4.405   2.806  0.0922 -0.4756  0.6801
 6245TIP3   OH218740   4.339   2.189   0.114  0.3403  0.1370 -0.1137
 6245TIP3    H118741   4.334   2.245   0.191 -1.9589 -0.4384  0.2375
 6245TIP3    H218742   4.285   2.112   0.136 -0.1935 -0.1506 -2.1814
 6246TIP3   OH218743   3.259   3.345   1.178  0.6839 -0.4665 -0.0434
 6246TIP3    H118744   3.282   3.435   1.202  0.8241 -0.4800 -0.1271
 6246TIP3    H218745   3.168   3.350   1.149  0.2589 -0.5679  1.1900
 6247TIP3   OH218746   1.709   2.152   0.011 -0.0180 -0.5327 -0.1386
 6247TIP3    H118747   1.698   2.064  -0.026 -0.9942 -0.7174  0.5281
 6247TIP3    H218748   1.687   2.141   0.104 -1.5796  0.6577 -0.3185
 6248TIP3   OH218749   5.862   0.358   3.288 -0.3617 -0.5081 -0.2520
 6248TIP3    H118750   5.845   0.301   3.214 -0.1775 -2.1098  0.8855
 6248TIP3    H218751   5.803   0.433   3.275 -1.6010 -1.5871 -1.1012
 6249TIP3   OH218752   4.273   3.914   2.592  0.2870 -0.0960 -0.1952
 6249TIP3    H118753   4.323   3.996   2.593 -0.4884  0.3874  0.7076
 6249TIP3    H218754   4.333   3.850   2.552  1.2281  0.7047 -0.1141
 6250TIP3   OH218755   3.447   1.114   4.989 -0.5053  0.5020  0.3901
 6250TIP3    H118756   3.495   1.064   4.923 -0.9801 -0.6518  0.8815
 6250TIP3    H218757   3.516   1.152   5.044 -0.1195  1.1716 -0.5400
 6251TIP3   OH218758   3.254   4.393   3.195 -0.1350  0.0684 -0.4121
 6251TIP3    H118759   3.242   4.308   3.154 -3.1537  0.1018  0.2166
 6251TIP3    H218760   3.275   4.452   3.123  1.4025 -1.0347 -0.9315
 6252TIP3   OH218761   2.139   2.269   2.070  0.5392 -0.0434  0.4499
 6252TIP3    H118762   2.180   2.247   1.986  0.5746  1.5408  0.0169
 6252TIP3    H218763   2.126   2.364   2.066 -2.3310 -0.3188  0.9422
 6253TIP3   OH218764   1.463   5.429   0.091  0.4484 -0.2222  0.3378
 6253TIP3    H118765   1.429   5.373   0.021  0.8177 -0.2651  0.1929
 6253TIP3    H218766   1.412   5.509   0.085  0.8304 -0.0276 -0.3045
 6254TIP3   OH218767   1.353   3.378   0.240 -0.4262  0.4293  0.0222
 6254TIP3    H118768   1.316   3.396   0.327  1.0797  0.6310  0.6476
 6254TIP3    H218769   1.307   3.300   0.210 -0.3257 -0.1777  1.3949
 6255TIP3   OH218770   3.763   3.904   4.865  0.6482 -0.3766  0.2222
 6255TIP3    H118771   3.830   3.888   4.798  1.0841  1.7019  0.0797
 6255TIP3    H218772   3.754   4.000   4.867 -0.5059 -0.4763  2.0299
 6256TIP3   OH218773   3.257   4.978   0.895  0.4948  0.1983 -0.0933
 6256TIP3    H118774   3.334   4.945   0.849  0.4695 -0.2604  0.1899
 6256TIP3    H218775   3.221   5.046   0.837  0.5372 -0.2789 -0.6884
 6257TIP3   OH218776   1.194   5.016   2.572 -0.4452 -1.0133 -0.3620
 6257TIP3    H118777   1.199   4.934   2.522 -0.5579 -0.8405 -0.6561
 6257TIP3    H218778   1.101   5.026   2.591 -0.2411 -1.9561  1.3499
 6258TIP3   OH218779   2.341   3.154   0.351 -0.3654 -0.2799  0.1604
 6258TIP3    H118780   2.278   3.225   0.364 -0.1966  0.0032 -0.5619
 6258TIP3    H218781   2.372   3.133   0.439 -0.8205  0.1719  0.4307
 6259TIP3   OH218782   0.960   2.398   1.131  0.2822 -0.7289 -0.3577
 6259TIP3    H118783   0.913   2.324   1.092 -0.8940  0.5765 -1.4740
 6259TIP3    H218784   0.913   2.415   1.213  0.4393 -1.0662 -0.1916
 6260TIP3   OH218785   3.939   0.909   2.764 -0.0618 -0.0654 -0.4445
 6260TIP3    H118786   3.954   1.001   2.744 -0.9189 -0.1809 -1.7797
 6260TIP3    H218787   3.846   0.904   2.787  0.0291 -0.5590 -0.1713
 6261TIP3   OH218788   1.345   3.052   2.285  0.0692  0.0053  0.0932
 6261TIP3    H118789   1.418   3.103   2.249 -1.4242  2.0483 -0.2347
 6261TIP3    H218790   1.288   3.117   2.324 -2.5936 -1.2247 -1.4701
 6262TIP3   OH218791   2.250   2.446   1.589  0.1115  0.8791 -0.1393
 6262TIP3    H118792   2.186   2.498   1.541 -0.6050  0.3166  0.1882
 6262TIP3    H218793   2.197   2.386   1.642  0.9116 -0.5537 -0.9062
 6263TIP3   OH218794   5.162   3.353  -0.026  0.5358 -0.2131  0.4667
 6263TIP3    H118795   5.133   3.276   0.023  1.4505  0.3175  1.8998
 6263TIP3    H218796   5.144   3.427   0.032 -0.0497  0.6359 -0.7642
 6264TIP3   OH218797   4.748   2.026   1.567  0.1452  0.0962 -0.0459
 6264TIP3    H118798   4.773   2.107   1.523  1.7856 -0.9611 -1.2136
 6264TIP3    H218799   4.821   2.008   1.627 -0.6276 -0.0729  0.8676
 6265TIP3   OH218800   2.518   3.140   1.594  0.0821  0.0558 -0.1977
 6265TIP3    H118801   2.593   3.099   1.637 -0.4900  1.5773  2.4601
 6265TIP3    H218802   2.442   3.095   1.632 -0.4492  1.5686  0.6155
 6266TIP3   OH218803   0.753   2.370   2.509 -0.4077 -0.2498  0.0223
 6266TIP3    H118804   0.679   2.429   2.497 -0.3866 -0.3958 -0.9712
 6266TIP3    H218805   0.771   2.337   2.421  0.8084 -0.2508  0.2511
 6267TIP3   OH218806   2.062   4.312   3.866 -0.2247  0.4241  0.0086
 6267TIP3    H118807   2.146   4.326   3.823 -0.1877  1.1042  0.2987
 6267TIP3    H218808   2.075   4.234   3.920  0.1141  0.3291 -0.2113
 6268TIP3   OH218809   1.000   4.397   0.769  0.3480  0.3549 -0.1235
 6268TIP3    H118810   1.078   4.448   0.748  0.7045 -0.5025 -0.9542
 6268TIP3    H218811   0.960   4.379   0.684 -0.3912  0.1992  0.2474
 6269TIP3   OH218812   2.659   4.706   0.822 -0.1229 -0.2363 -0.3627
 6269TIP3    H118813   2.608   4.686   0.743  0.4150 -0.5847 -0.6259
 6269TIP3    H218814   2.749   4.714   0.791 -0.0873  0.9353  0.0174
 6270TIP3   OH218815   2.232   4.736   0.128  0.0440  0.0835 -1.1399
 6270TIP3    H118816   2.177   4.702   0.199  1.8482 -1.1099 -0.2208
 6270TIP3    H218817   2.216   4.676   0.055 -1.2820  0.8929 -1.5465
 6271TIP3   OH218818   5.568   4.770   1.322  0.2726  0.0938  0.1564
 6271TIP3    H118819   5.555   4.757   1.416  0.0582  0.5012  0.1843
 6271TIP3    H218820   5.658   4.739   1.307  0.2367 -0.1700  0.4539
 6272TIP3   OH218821   3.099   0.362   0.487 -0.0168  0.0370 -0.4225
 6272TIP3    H118822   3.042   0.432   0.455 -1.1595 -0.8819 -0.4744
 6272TIP3    H218823   3.188   0.392   0.466 -0.4933  1.3303 -0.6939
 6273TIP3   OH218824   2.591   0.165   4.188  0.0452 -0.5030  0.1211
 6273TIP3    H118825   2.678   0.185   4.224 -1.0683  0.0650  2.7588
 6273TIP3    H218826   2.556   0.098   4.246 -1.2191 -0.8862 -1.0376
 6274TIP3   OH218827   4.664   3.111   4.451  0.2578  0.0573 -0.0218
 6274TIP3    H118828   4.689   3.055   4.525  0.3408 -0.4526 -0.4333
 6274TIP3    H218829   4.659   3.199   4.489 -0.7777 -0.3451  0.8309
 6275TIP3   OH218830   2.081   1.652   0.833 -0.2550 -0.1788 -0.0948
 6275TIP3    H118831   2.072   1.624   0.924 -0.1304 -1.7346 -0.5308
 6275TIP3    H218832   1.992   1.671   0.804 -0.1266  2.4982  0.9413
 6276TIP3   OH218833   0.984   5.510   0.962  0.2128 -0.5657  0.1889
 6276TIP3    H118834   1.017   5.542   1.046  0.8411 -0.5094 -0.0741
 6276TIP3    H218835   1.052   5.451   0.930 -0.1344 -0.7799 -0.1666
 6277TIP3   OH218836   3.005   2.066   4.219  0.2743  0.0536 -0.4839
 6277TIP3    H118837   2.974   2.149   4.254 -1.6067 -0.7234 -0.2066
 6277TIP3    H218838   3.043   2.021   4.294 -0.0937  0.0467 -0.2985
 6278TIP3   OH218839   3.095   2.949   2.746  0.1880 -0.3736 -0.3397
 6278TIP3    H118840   3.189   2.967   2.750  0.0620  0.5634 -1.0880
 6278TIP3    H218841   3.059   2.984   2.827  0.4657 -0.6445 -0.0985
 6279TIP3   OH218842   0.174   4.163   2.854 -0.3141  0.5013  0.1654
 6279TIP3    H118843   0.122   4.187   2.777  0.5589 -0.0477 -0.6179
 6279TIP3    H218844   0.110   4.135   2.919 -0.9392 -2.7153 -1.6519
 6280TIP3   OH218845   3.832   3.011   2.385 -0.0609  0.3870 -0.2836
 6280TIP3    H118846   3.800   3.037   2.472  0.1456 -0.2445 -0.0117
 6280TIP3    H218847   3.764   2.953   2.352  1.4365 -2.2844  0.9666
 6281TIP3   OH218848   2.784   3.307   4.005 -0.4950  0.2584  0.7036
 6281TIP3    H118849   2.788   3.246   4.079  0.4289 -0.0016  0.4468
 6281TIP3    H218850   2.848   3.374   4.025 -1.9077  1.5023  1.2609
 6282TIP3   OH218851   2.098   2.933   2.585 -0.2426 -0.6697 -0.3135
 6282TIP3    H118852   2.013   2.902   2.555 -1.6018  0.8732  1.6790
 6282TIP3    H218853   2.084   2.960   2.676  2.1588  0.4650 -0.1750
 6283TIP3   OH218854   4.338   2.451   5.156 -0.3138  0.1002  0.1038
 6283TIP3    H118855   4.326   2.546   5.160  0.3735  0.1993 -0.1711
 6283TIP3    H218856   4.414   2.438   5.100  0.2686 -0.5640  1.0104
 6284TIP3   OH218857   1.623   1.217   0.150  0.0375 -0.2360 -0.3509
 6284TIP3    H118858   1.637   1.148   0.215  1.8113  0.0531 -0.3722
 6284TIP3    H218859   1.528   1.228   0.147 -0.1361 -0.7754  1.6459
 6285TIP3   OH218860   3.424   1.683   2.996  0.0040 -0.7662  0.7263
 6285TIP3    H118861   3.514   1.708   2.975 -0.6238  1.3146  0.2411
 6285TIP3    H218862   3.381   1.673   2.911 -0.8935  1.1177  0.9061
 6286TIP3   OH218863   0.492   5.048   1.916 -0.7524  0.1257 -0.4314
 6286TIP3    H118864   0.548   5.006   1.981  0.4354 -0.0312 -1.5122
 6286TIP3    H218865   0.450   5.120   1.963  0.2132  0.1283  0.4526
 6287TIP3   OH218866   1.540   0.896   3.157  0.0187 -0.4047  0.1436
 6287TIP3    H118867   1.502   0.809   3.169 -1.1275 -0.4517 -2.8304
 6287TIP3    H218868   1.521   0.943   3.238 -1.3525 -2.2337  0.9388
 6288TIP3   OH218869   3.452   1.941   0.803 -0.6733 -0.3725 -0.6632
 6288TIP3    H118870   3.394   1.880   0.848 -0.5366 -0.7871 -1.0435
 6288TIP3    H218871   3.400   2.021   0.794 -0.7838 -0.3682  0.0085
 6289TIP3   OH218872   5.559   3.277   1.017 -0.1980  0.4995  0.3786
 6289TIP3    H118873   5.564   3.311   0.928 -1.4450 -0.5903 -0.1424
 6289TIP3    H218874   5.559   3.182   1.006 -1.7016  0.3496  1.4276
 6290TIP3   OH218875   1.756   5.027   4.674 -0.1437  0.0767  0.0850
 6290TIP3    H118876   1.847   5.016   4.700 -0.4960  0.4018  1.5482
 6290TIP3    H218877   1.752   5.117   4.641  0.1496 -0.0903 -0.4210
 6291TIP3   OH218878   1.490   0.159   1.277  0.8364 -0.0623  0.6483
 6291TIP3    H118879   1.538   0.189   1.200  0.2681  0.4711  0.4881
 6291TIP3    H218880   1.492   0.064   1.271  1.3918 -0.0333  0.3505
 6292TIP3   OH218881   4.889   5.393   0.996 -0.2667  0.2007  0.3144
 6292TIP3    H118882   4.803   5.350   0.991 -1.1511  1.8723  0.3826
 6292TIP3    H218883   4.926   5.364   1.079 -1.0975  0.0305  0.6350
 6293TIP3   OH218884   3.475   1.838   0.039  0.3974 -0.2284 -0.3118
 6293TIP3    H118885   3.556   1.787   0.030  0.5196 -0.4263  1.5147
 6293TIP3    H218886   3.495   1.923  -0.002  0.6105 -1.1570 -2.2432
 6294TIP3   OH218887   0.649   5.563   3.053  0.5227  0.2005  0.2935
 6294TIP3    H118888   0.586   5.499   3.087  0.1119  0.6952  0.4777
 6294TIP3    H218889   0.731   5.514   3.046 -0.1336 -0.7659 -1.0285
 6295TIP3   OH218890   4.715   4.415   1.678 -0.5397 -0.3068 -0.5966
 6295TIP3    H118891   4.665   4.394   1.598  0.0551 -0.0495 -1.0443
 6295TIP3    H218892   4.651   4.456   1.736 -0.4860  1.7511 -1.8743
 6296TIP3   OH218893   4.323   1.025   0.409 -0.3545 -0.1383 -0.8053
 6296TIP3    H118894   4.247   1.082   0.404 -0.9793 -0.9704 -0.9185
 6296TIP3    H218895   4.360   1.026   0.320 -0.6107 -0.2407 -0.9143
 6297TIP3   OH218896   0.295   5.873   0.043 -0.1758 -0.5995  0.0056
 6297TIP3    H118897   0.354   5.874   0.119  1.6787  1.4288 -1.3289
 6297TIP3    H218898   0.351   5.847  -0.030 -0.8023  1.5137 -1.3277
 6298TIP3   OH218899   1.470   2.621   2.550 -0.3725  0.0872 -0.1265
 6298TIP3    H118900   1.478   2.715   2.540 -0.7682 -0.1267 -3.7689
 6298TIP3    H218901   1.445   2.589   2.463 -0.0215 -3.4074  0.8848
 6299TIP3   OH218902   0.211   0.370   3.610  0.0198  0.1414 -0.1145
 6299TIP3    H118903   0.128   0.399   3.648  0.1642 -0.7296  0.9392
 6299TIP3    H218904   0.218   0.417   3.527 -0.3908  2.0420  0.8687
 6300TIP3   OH218905   1.742   5.895   4.129  0.3178  0.3184  0.1021
 6300TIP3    H118906   1.788   5.824   4.085  1.4765  1.3487 -0.4287
 6300TIP3    H218907   1.802   5.923   4.198  0.0314  0.9845  0.0893
 6301TIP3   OH218908   2.556   4.085   3.397  0.6660  0.7916  0.1311
 6301TIP3    H118909   2.582   4.143   3.469 -0.4114  0.7399  0.5708
 6301TIP3    H218910   2.613   4.008   3.407 -0.1806  0.3140  1.5827
 6302TIP3   OH218911   1.327   0.383   1.761 -0.2810 -0.4150 -0.3422
 6302TIP3    H118912   1.358   0.351   1.677  0.0458 -0.7390 -0.1033
 6302TIP3    H218913   1.374   0.330   1.826 -0.8036 -0.4206  0.0386
 6303TIP3   OH218914   0.519   2.581   4.543  0.1094  0.1901  0.1496
 6303TIP3    H118915   0.492   2.652   4.485  0.9158  0.3444 -0.0473
 6303TIP3    H218916   0.437   2.544   4.575 -0.3528  0.1995 -0.9648
 6304TIP3   OH218917   5.357   3.430   2.561 -0.8896 -0.0231 -0.2451
 6304TIP3    H118918   5.374   3.513   2.517 -1.7754  0.3428  0.0776
 6304TIP3    H218919   5.432   3.375   2.539 -0.2952  0.8579 -0.4662
 6305TIP3   OH218920   4.871   5.799   4.908 -0.1550 -0.3204  0.4232
 6305TIP3    H118921   4.831   5.867   4.854  0.9115  1.2027  1.4693
 6305TIP3    H218922   4.824   5.719   4.885 -1.2042  0.6963 -1.1128
 6306TIP3   OH218923   0.101   2.437   0.496  0.0411  0.0553  0.0491
 6306TIP3    H118924   0.124   2.464   0.585 -1.7253 -0.2491  0.6281
 6306TIP3    H218925   0.010   2.407   0.502 -0.4157  0.8347 -2.0271
 6307TIP3   OH218926   0.847   3.219   3.406  0.2541  0.0343 -0.2288
 6307TIP3    H118927   0.816   3.263   3.327  1.3421 -1.7666 -1.7615
 6307TIP3    H218928   0.772   3.219   3.465 -1.1499 -0.0291 -1.9226
 6308TIP3   OH218929   6.096   2.380   3.789  0.0324  0.2428  0.2596
 6308TIP3    H118930   6.170   2.427   3.828 -1.3582  1.9142  1.0001
 6308TIP3    H218931   6.068   2.437   3.717 -0.7662 -0.1711  0.2378
 6309TIP3   OH218932   2.919   4.102   3.529  0.1734 -0.3599  0.4499
 6309TIP3    H118933   2.831   4.136   3.543  0.3598 -0.4252  1.9347
 6309TIP3    H218934   2.975   4.158   3.581  1.1079  0.0032 -0.8891
 6310TIP3   OH218935   0.421   3.978   2.706  0.1395 -0.5685  0.6829
 6310TIP3    H118936   0.403   4.025   2.788  0.8353 -0.2134  0.6436
 6310TIP3    H218937   0.340   3.932   2.686 -0.6743  0.8277  0.6002
 6311TIP3   OH218938   0.254   1.392   2.474  0.5982 -0.2144  0.2089
 6311TIP3    H118939   0.167   1.365   2.445  0.1333  1.6747 -0.2945
 6311TIP3    H218940   0.310   1.317   2.452 -0.7133 -1.0711 -0.3738
 6312TIP3   OH218941   5.627   5.270   0.909  0.1121  0.4561 -0.5310
 6312TIP3    H118942   5.686   5.195   0.907 -1.5362 -0.9084 -1.7693
 6312TIP3    H218943   5.631   5.306   0.820 -0.4865  0.6964 -0.4666
 6313TIP3   OH218944   1.137   1.902   4.230 -0.1708 -0.8253  0.7062
 6313TIP3    H118945   1.066   1.946   4.278 -2.8680 -0.9664 -2.7603
 6313TIP3    H218946   1.104   1.813   4.215  0.9693 -1.0515 -0.5811
 6314TIP3   OH218947   3.241   5.919   3.447 -0.3841 -0.1494 -0.1191
 6314TIP3    H118948   3.305   5.859   3.408  0.0023  0.0129  0.2623
 6314TIP3    H218949   3.205   5.870   3.521  0.9053  0.5588  1.0295
 6315TIP3   OH218950   0.552   0.497   4.938 -0.1707  0.1108 -0.2972
 6315TIP3    H118951   0.516   0.560   4.875 -0.9260 -0.2924 -0.2749
 6315TIP3    H218952   0.477   0.445   4.965  0.5178 -1.0780 -0.6170
 6316TIP3   OH218953   1.526   1.059   1.942  0.6494 -0.7997  0.3380
 6316TIP3    H118954   1.591   1.122   1.973 -0.9276  1.3112 -0.4572
 6316TIP3    H218955   1.571   1.012   1.872  2.5512 -2.1364  2.3177
 6317TIP3   OH218956   5.588   2.018   0.603 -0.3066  0.3553 -0.3134
 6317TIP3    H118957   5.675   2.056   0.591  1.1275 -2.4421  0.4585
 6317TIP3    H218958   5.571   1.972   0.520 -0.6376  0.1124 -0.1129
 6318TIP3   OH218959   5.165   4.819   4.657  0.2052 -0.0609 -0.4933
 6318TIP3    H118960   5.129   4.878   4.723 -0.5759 -0.2960 -0.6885
 6318TIP3    H218961   5.196   4.876   4.587  1.6325  0.2201  0.3466
 6319TIP3   OH218962   5.497   2.414   3.995 -0.2212 -0.5082  0.7369
 6319TIP3    H118963   5.523   2.326   4.022  0.1756 -0.2405  1.2512
 6319TIP3    H218964   5.415   2.402   3.947 -1.1397 -0.9724  2.3502
 6320TIP3   OH218965   5.117   1.511   3.530  0.4881  0.4448 -0.5344
 6320TIP3    H118966   5.200   1.552   3.507  0.4946  1.1591  0.6811
 6320TIP3    H218967   5.078   1.570   3.594 -1.0267  0.1878 -1.1670
 6321TIP3   OH218968   5.786   1.252   3.224 -0.4387  0.0320  0.0209
 6321TIP3    H118969   5.819   1.320   3.166  0.0087 -0.0554  0.1669
 6321TIP3    H218970   5.834   1.173   3.197 -1.5496 -0.4247 -0.7080
 6322TIP3   OH218971   3.300   5.224   1.209  0.1855  0.1145 -0.2483
 6322TIP3    H118972   3.245   5.293   1.172  0.5527  0.9103  0.6551
 6322TIP3    H218973   3.340   5.182   1.133 -0.0354  0.8957 -0.8061
 6323TIP3   OH218974   5.885   4.731   1.877 -0.2171 -0.6155 -0.1339
 6323TIP3    H118975   5.799   4.700   1.907 -0.4688  0.7627  0.6340
 6323TIP3    H218976   5.943   4.718   1.953 -0.3461  0.7893  0.2387
 6324TIP3   OH218977   2.316   0.125   2.789  0.0076 -0.5351 -0.0354
 6324TIP3    H118978   2.299   0.176   2.868  0.0768  1.2273 -1.1061
 6324TIP3    H218979   2.230   0.116   2.748 -0.0199 -1.4101  0.1838
 6325TIP3   OH218980   0.147   5.395   0.260  0.2784 -0.1494  0.2460
 6325TIP3    H118981   0.117   5.399   0.169  0.3324  1.6029  0.2690
 6325TIP3    H218982   0.233   5.437   0.258  0.0897  0.2906  1.1676
 6326TIP3   OH218983   1.794   5.882   1.198  0.5181  0.1028  0.6418
 6326TIP3    H118984   1.723   5.818   1.193  1.0243 -0.4848  0.7735
 6326TIP3    H218985   1.828   5.887   1.108  1.4402 -0.9465  0.9137
 6327TIP3   OH218986   5.905   2.511   2.162  0.0951  0.1553  0.1661
 6327TIP3    H118987   5.967   2.558   2.107 -1.0411  0.3248 -1.0130
 6327TIP3    H218988   5.947   2.508   2.248  2.7276 -1.6224 -1.0331
 6328TIP3   OH218989   4.136   5.937   3.598  0.4180 -0.1126 -0.2407
 6328TIP3    H118990   4.076   6.010   3.616  0.6907  0.1415 -0.3496
 6328TIP3    H218991   4.121   5.916   3.506  0.5172 -0.0271 -0.2769
 6329TIP3   OH218992   1.950   2.684   3.155 -0.1189 -0.0123 -0.1980
 6329TIP3    H118993   1.937   2.764   3.104  0.2409 -0.4293 -0.9718
 6329TIP3    H218994   1.877   2.683   3.217  0.5344  1.5110  0.6481
 6330TIP3   OH218995   2.463   4.803   4.118 -0.3022 -0.7625  0.0333
 6330TIP3    H118996   2.532   4.868   4.105 -1.0216 -0.2543 -1.5431
 6330TIP3    H218997   2.432   4.818   4.208 -0.7674  1.4229 -0.4411
 6331TIP3   OH218998   2.405   0.972   1.765  0.3970  0.4358 -0.5202
 6331TIP3    H118999   2.367   0.884   1.769  0.7655  0.2722 -0.6345
 6331TIP3    H219000   2.343   1.021   1.711 -0.5672  0.6399  0.7214
 6332TIP3   OH219001   5.974   0.893   4.871  0.0423  0.4517  0.1707
 6332TIP3    H119002   6.035   0.939   4.927  1.9427 -2.1438  0.4459
 6332TIP3    H219003   5.901   0.870   4.928 -0.7771  2.7032  0.0968
 6333TIP3   OH219004   0.742   4.160   2.670 -0.0236 -0.1281  0.2688
 6333TIP3    H119005   0.649   4.161   2.650 -0.3474 -2.8837  1.2259
 6333TIP3    H219006   0.746   4.146   2.764  1.4046  1.7132  0.5315
 6334TIP3   OH219007   4.005   5.181   3.037 -0.1466 -0.0219 -0.7259
 6334TIP3    H119008   4.077   5.159   3.095  0.9961 -2.4002 -2.8057
 6334TIP3    H219009   4.016   5.274   3.018  2.2731 -0.2659 -0.7963
 6335TIP3   OH219010   1.623   3.859   4.798 -0.0823 -0.3309 -0.0295
 6335TIP3    H119011   1.633   3.934   4.740 -1.2725  0.7149  1.0499
 6335TIP3    H219012   1.702   3.860   4.853  0.8814 -1.1232 -1.3344
 6336TIP3   OH219013   3.447   5.613   4.517  0.2406 -0.0728 -0.4320
 6336TIP3    H119014   3.362   5.634   4.556 -0.3115  2.1798 -2.5785
 6336TIP3    H219015   3.426   5.552   4.446  0.3763  0.5084 -0.9825
 6337TIP3   OH219016   1.193   1.450   0.731  0.1046 -0.0896 -0.0425
 6337TIP3    H119017   1.165   1.378   0.788  1.2135  0.0373  0.6993
 6337TIP3    H219018   1.121   1.462   0.670 -0.9143 -0.5770  1.0208
 6338TIP3   OH219019   3.825   5.505   1.525  0.1241 -0.2836 -0.0447
 6338TIP3    H119020   3.894   5.479   1.464  0.6341 -0.9629  0.7924
 6338TIP3    H219021   3.831   5.441   1.596 -0.1969  0.7256  0.9049
 6339TIP3   OH219022   3.357   5.799   0.939 -0.2844  0.4911  0.0851
 6339TIP3    H119023   3.271   5.825   0.970  0.0506 -0.6803  2.2660
 6339TIP3    H219024   3.416   5.820   1.012  0.9599 -0.4451 -0.6051
 6340TIP3   OH219025   2.264   2.103   1.616  0.2858 -0.5242  0.4340
 6340TIP3    H119026   2.174   2.121   1.589  0.4400 -0.7536 -0.2643
 6340TIP3    H219027   2.268   2.133   1.707 -0.6640 -1.0793  0.6748
 6341TIP3   OH219028   3.952   3.582   1.818  0.1170 -0.0365 -0.4107
 6341TIP3    H119029   4.007   3.508   1.794  0.4076 -0.9338  2.5577
 6341TIP3    H219030   3.863   3.555   1.794  0.2419 -1.3192  0.4763
 6342TIP3   OH219031   1.331   1.923   0.816 -0.0733  0.3597  0.1712
 6342TIP3    H119032   1.290   1.847   0.857 -0.7733 -1.8402 -4.0381
 6342TIP3    H219033   1.262   1.990   0.814 -1.0424 -0.6300 -0.2384
 6343TIP3   OH219034   5.449   5.272   1.719  0.3401 -0.1883  0.2789
 6343TIP3    H119035   5.377   5.229   1.765  0.7323  0.0970  1.1754
 6343TIP3    H219036   5.409   5.305   1.638 -0.3627 -0.6832  0.4146
 6344TIP3   OH219037   4.187   5.032   3.237 -0.1990 -0.3280 -0.1749
 6344TIP3    H119038   4.134   4.995   3.307  0.1759  0.1566  0.3723
 6344TIP3    H219039   4.262   5.072   3.282 -0.1021  0.2422 -0.8274
 6345TIP3   OH219040   5.021   1.813   2.185 -0.2589 -0.1008 -0.3397
 6345TIP3    H119041   5.114   1.800   2.165  0.3395  0.2856  1.9643
 6345TIP3    H219042   4.985   1.851   2.105  1.7906  0.7315 -0.9360
 6346TIP3   OH219043   1.301   5.098   2.301  0.0735  0.6199 -0.4112
 6346TIP3    H119044   1.307   5.100   2.397 -0.0508  0.0559 -0.3857
 6346TIP3    H219045   1.212   5.071   2.283  0.1570  0.5224 -0.6866
 6347TIP3   OH219046   0.573   1.739   4.905 -0.1102 -0.5818  0.3747
 6347TIP3    H119047   0.603   1.806   4.966 -1.3892  1.3224 -1.0142
 6347TIP3    H219048   0.479   1.733   4.920 -0.3800 -0.3858 -1.0968
 6348TIP3   OH219049   5.649   5.208   4.866  0.2524 -0.4242 -0.2802
 6348TIP3    H119050   5.673   5.199   4.773  1.5510 -0.2107  0.0160
 6348TIP3    H219051   5.580   5.274   4.867 -0.9354 -1.5890 -1.2470
 6349TIP3   OH219052   5.908   0.506   2.059 -0.0731  0.5361 -0.8997
 6349TIP3    H119053   5.985   0.562   2.044 -0.2648  0.6003 -1.6625
 6349TIP3    H219054   5.895   0.460   1.976 -0.0164 -0.5387 -0.3365
 6350TIP3   OH219055   4.292   3.096   4.381  0.3633  0.4367 -0.1322
 6350TIP3    H119056   4.377   3.055   4.365  1.2508  1.8380  0.7754
 6350TIP3    H219057   4.269   3.137   4.298  0.2186 -0.5316 -0.5844
 6351TIP3   OH219058   1.945   4.884   0.868 -0.1756  0.0384 -0.4820
 6351TIP3    H119059   1.919   4.950   0.933 -1.4059  0.1681 -1.0810
 6351TIP3    H219060   2.041   4.880   0.875 -0.2532  0.1942  1.1921
 6352TIP3   OH219061   4.657   1.068   4.512  0.3602  0.2391 -0.3172
 6352TIP3    H119062   4.667   1.060   4.607 -0.4074  0.3764 -0.2191
 6352TIP3    H219063   4.652   0.978   4.480  0.8187  0.1877 -0.2597
 6353TIP3   OH219064   5.123   3.258   4.373 -0.7586  0.2302  0.4154
 6353TIP3    H119065   5.119   3.188   4.307 -1.3905 -0.6540  1.3575
 6353TIP3    H219066   5.216   3.278   4.381 -0.4642 -1.1700  0.7860
 6354TIP3   OH219067   3.051   5.646   3.439 -0.4257 -0.8184  0.8194
 6354TIP3    H119068   2.967   5.689   3.421 -0.5390 -1.8852 -1.5245
 6354TIP3    H219069   3.117   5.712   3.417 -0.5397 -1.9988 -4.3129
 6355TIP3   OH219070   0.281   1.082   2.109 -0.1544  0.3843 -0.4207
 6355TIP3    H119071   0.321   1.114   2.190  0.2759 -1.0357 -0.0501
 6355TIP3    H219072   0.355   1.053   2.056 -0.5170  0.2237 -0.8442
 6356TIP3   OH219073   3.027   2.528   0.307  0.1734 -0.3858  0.0476
 6356TIP3    H119074   2.954   2.513   0.248 -0.1561 -1.9483  0.7990
 6356TIP3    H219075   2.987   2.536   0.394  0.6510  1.8233  0.1446
 6357TIP3   OH219076   4.626   3.568   0.944 -0.2623  0.4376  0.5060
 6357TIP3    H119077   4.708   3.544   0.987  1.6389  0.5862 -2.7154
 6357TIP3    H219078   4.633   3.663   0.929 -0.2728  0.2145 -1.1042
 6358TIP3   OH219079   1.917   5.722   4.512  1.0419 -0.1808  0.2229
 6358TIP3    H119080   1.875   5.804   4.488  0.2322 -0.0895  1.7508
 6358TIP3    H219081   1.915   5.669   4.433 -0.7044  0.3714 -0.1460
 6359TIP3   OH219082   5.082   3.225   3.687 -0.4432 -0.1748 -0.1639
 6359TIP3    H119083   5.002   3.192   3.727 -1.1248  0.4842 -0.9489
 6359TIP3    H219084   5.052   3.283   3.617  0.7204  0.4689 -0.1524
 6360TIP3   OH219085   2.246   1.855   0.073  0.3741 -0.3107  0.3294
 6360TIP3    H119086   2.230   1.808   0.154  0.8856  0.3132  0.8075
 6360TIP3    H219087   2.326   1.905   0.090 -1.0962  2.1714  0.5142
 6361TIP3   OH219088   4.879   2.920   4.233  0.5295  0.5580 -0.0533
 6361TIP3    H119089   4.971   2.903   4.256  0.5839  1.3297  0.3292
 6361TIP3    H219090   4.846   2.974   4.305  0.1952  1.5185 -0.8961
 6362TIP3   OH219091   4.690   3.018   1.673 -0.1263 -0.1545  0.1500
 6362TIP3    H119092   4.696   3.023   1.578 -1.8815 -0.6955 -0.0375
 6362TIP3    H219093   4.727   2.932   1.695 -1.0551 -0.6656 -0.2242
 6363TIP3   OH219094   0.725   4.966   0.426  0.3836  0.6520  0.3459
 6363TIP3    H119095   0.741   5.040   0.367  1.2648  0.2436  0.0508
 6363TIP3    H219096   0.658   4.914   0.382 -0.7631  1.6351  0.8936
 6364TIP3   OH219097   6.146   5.615   5.043  0.3260 -0.1292 -0.0797
 6364TIP3    H119098   6.103   5.697   5.068 -1.3937 -1.3225  1.1453
 6364TIP3    H219099   6.208   5.597   5.114  1.5879  0.6652 -0.9398
 6365TIP3   OH219100   4.306   3.074   3.734 -0.0511 -0.0301  0.2200
 6365TIP3    H119101   4.274   3.150   3.684  0.4900  0.9553  1.3104
 6365TIP3    H219102   4.393   3.100   3.763 -0.5911 -0.3013  2.1949
 6366TIP3   OH219103   4.406   1.598   4.651 -0.0366 -0.1221  0.2700
 6366TIP3    H119104   4.424   1.556   4.567 -2.1244 -0.4359 -0.0661
 6366TIP3    H219105   4.369   1.528   4.706 -1.0672  0.6495  0.5888
 6367TIP3   OH219106   5.210   5.260   2.751 -0.1031 -0.3614  0.3633
 6367TIP3    H119107   5.301   5.244   2.777  0.2566  0.1252 -0.5558
 6367TIP3    H219108   5.200   5.214   2.668 -0.3582  0.5039 -0.0967
 6368TIP3   OH219109   5.771   5.228   4.348  0.0116  0.1682  0.2299
 6368TIP3    H119110   5.678   5.248   4.358  0.1668  0.4989  1.0636
 6368TIP3    H219111   5.791   5.168   4.420  0.2033 -0.7821 -0.5909
 6369TIP3   OH219112   4.503   3.536   3.467  0.2276  0.0760 -0.1926
 6369TIP3    H119113   4.486   3.515   3.559 -0.2174  1.7928  0.1550
 6369TIP3    H219114   4.440   3.605   3.446 -0.1958 -0.7905 -2.0251
 6370TIP3   OH219115   0.357   1.285   3.653  0.2854  0.2481 -0.3727
 6370TIP3    H119116   0.269   1.314   3.676 -0.0001 -0.8079 -0.0581
 6370TIP3    H219117   0.411   1.310   3.727 -0.3321 -1.7321  0.8253
 6371TIP3   OH219118   0.812   4.697   2.240  0.5228  0.0801  0.2094
 6371TIP3    H119119   0.862   4.711   2.160  0.0912 -0.9035 -0.2526
 6371TIP3    H219120   0.840   4.610   2.271 -1.1913 -0.7153 -0.3190
 6372TIP3   OH219121   3.808   2.794   1.040  0.6680  0.3982 -0.4470
 6372TIP3    H119122   3.796   2.703   1.068 -1.0470  0.3418 -1.2200
 6372TIP3    H219123   3.877   2.828   1.096  0.9652 -1.2248  0.2226
 6373TIP3   OH219124   4.021   1.559   0.109 -0.8214 -0.2057  0.2580
 6373TIP3    H119125   4.053   1.552   0.199  0.5626 -1.1516 -0.2553
 6373TIP3    H219126   3.938   1.606   0.115 -0.3680  0.4266  1.9323
 6374TIP3   OH219127   5.437   1.672   0.850 -0.0294 -0.2032 -0.6398
 6374TIP3    H119128   5.504   1.740   0.846 -0.3850  0.1091 -1.4294
 6374TIP3    H219129   5.385   1.684   0.771  1.2431 -2.8412 -1.9763
 6375TIP3   OH219130   6.316   1.533   3.095  0.2622 -0.5289 -0.5537
 6375TIP3    H119131   6.317   1.437   3.100 -0.1633 -0.4536  1.8781
 6375TIP3    H219132   6.289   1.562   3.182  1.9240  1.8616 -0.7499
 6376TIP3   OH219133   4.754   5.364   4.553 -0.6123 -0.0047 -0.0568
 6376TIP3    H119134   4.764   5.317   4.636  1.0414 -1.0704 -0.8050
 6376TIP3    H219135   4.717   5.300   4.493  2.0133 -0.5894 -1.1913
 6377TIP3   OH219136   4.754   4.739   0.996  0.6896 -0.5345 -0.5917
 6377TIP3    H119137   4.832   4.795   1.001  0.0085  0.3515  1.0392
 6377TIP3    H219138   4.789   4.649   0.994  1.7683 -0.1151 -2.0760
 6378TIP3   OH219139   6.308   1.279   4.550 -0.1861  0.1111 -0.2947
 6378TIP3    H119140   6.221   1.241   4.564 -1.5668  3.1862  0.4927
 6378TIP3    H219141   6.367   1.225   4.602 -1.8942 -1.1542  0.4217
 6379TIP3   OH219142   4.418   1.576   1.294  0.3235 -0.3699  0.3485
 6379TIP3    H119143   4.445   1.537   1.211  0.8765 -2.7317  1.5573
 6379TIP3    H219144   4.326   1.550   1.304  0.1396  0.2448  0.3205
 6380TIP3   OH219145   5.995   2.082   3.320  0.4123 -0.3783  0.0700
 6380TIP3    H119146   6.044   2.003   3.343  0.6716  0.1326  1.4081
 6380TIP3    H219147   5.906   2.051   3.304  0.7987 -1.1065 -0.7892
 6381TIP3   OH219148   0.146   3.875   2.209 -0.7375 -0.4869  0.0095
 6381TIP3    H119149   0.202   3.952   2.205 -0.9763 -0.1858  1.5890
 6381TIP3    H219150   0.193   3.814   2.265 -1.7409 -0.3906  1.0148
 6382TIP3   OH219151   2.402   5.464   4.006  0.5438 -0.3512  0.5282
 6382TIP3    H119152   2.329   5.444   3.948 -1.1108  1.4676  1.8655
 6382TIP3    H219153   2.480   5.453   3.951 -0.7556 -1.5015 -1.1885
 6383TIP3   OH219154   2.196   4.084   2.862 -0.6793  0.0212  0.1685
 6383TIP3    H119155   2.122   4.125   2.816 -1.2992  0.6583  1.6762
 6383TIP3    H219156   2.254   4.157   2.883 -0.5089 -0.2336  0.5885
 6384TIP3   OH219157   6.133   2.833   3.401  0.9024  0.0370 -0.2623
 6384TIP3    H119158   6.194   2.904   3.420  0.7131  0.1694 -0.1466
 6384TIP3    H219159   6.057   2.851   3.457  0.5116  0.1949 -0.8437
 6385TIP3   OH219160   1.419   4.537   1.372  0.0989  0.0080  0.3027
 6385TIP3    H119161   1.407   4.619   1.421 -0.7657  0.2553 -0.3177
 6385TIP3    H219162   1.332   4.500   1.365  0.1827  0.0177 -1.1224
 6386TIP3   OH219163   6.017   3.567   1.183  0.7077 -0.2767  0.4388
 6386TIP3    H119164   6.040   3.576   1.090  2.8365  1.3506  1.0431
 6386TIP3    H219165   5.997   3.474   1.194  2.6024 -0.9494 -1.2217
 6387TIP3   OH219166   4.872   4.839   3.436  0.5850  0.1937 -0.5617
 6387TIP3    H119167   4.875   4.765   3.496 -2.3713  1.6959  1.7037
 6387TIP3    H219168   4.819   4.808   3.362  0.7606 -0.4200 -0.4387
 6388TIP3   OH219169   2.598   0.794   4.488 -0.2317 -0.2746  0.0381
 6388TIP3    H119170   2.559   0.767   4.405 -3.0241  1.0415  0.7976
 6388TIP3    H219171   2.595   0.890   4.486  0.9874 -0.1870  1.0903
 6389TIP3   OH219172   1.231   1.354   3.375  0.1736  0.0054 -0.7220
 6389TIP3    H119173   1.224   1.288   3.306 -0.8208  0.1658 -0.7912
 6389TIP3    H219174   1.252   1.435   3.329  0.2954 -0.0423 -0.7516
 6390TIP3   OH219175   3.783   2.572   1.180  0.5522  0.3109 -0.2018
 6390TIP3    H119176   3.810   2.619   1.259 -0.7688  0.4004  0.2286
 6390TIP3    H219177   3.845   2.500   1.172  1.6739  1.2225  0.0053
 6391TIP3   OH219178   0.166   5.009   2.640  0.2864 -0.3585 -0.0535
 6391TIP3    H119179   0.129   4.946   2.578 -0.1738 -0.2922  0.1521
 6391TIP3    H219180   0.104   5.011   2.713  0.1075  0.5854 -0.2185
 6392TIP3   OH219181   5.081   0.678   2.880 -0.2917 -0.6204 -0.0908
 6392TIP3    H119182   5.066   0.585   2.863  1.0779 -1.0478  0.8539
 6392TIP3    H219183   5.095   0.716   2.793 -0.3500 -1.3930 -0.4508
 6393TIP3   OH219184   0.838   1.162   2.182 -0.4003 -0.1755 -0.3169
 6393TIP3    H119185   0.925   1.199   2.190 -1.0657  1.2631  0.7197
 6393TIP3    H219186   0.782   1.236   2.159 -1.7190 -0.5699  1.4212
 6394TIP3   OH219187   2.246   5.190   3.905 -0.3030 -0.0534 -0.3091
 6394TIP3    H119188   2.269   5.114   3.851  0.2913  0.6534 -1.0843
 6394TIP3    H219189   2.324   5.206   3.958  0.9880  2.1003 -2.6489
 6395TIP3   OH219190   0.955   1.281   5.143 -0.8235 -0.0367  0.2626
 6395TIP3    H119191   0.863   1.297   5.121 -1.7161 -0.2644  3.4333
 6395TIP3    H219192   0.974   1.196   5.105 -1.1124  0.9917 -2.4425
 6396TIP3   OH219193   0.774   2.926   4.510  0.7849  0.7671  0.0828
 6396TIP3    H119194   0.851   2.946   4.564  1.5044 -1.8873  0.2127
 6396TIP3    H219195   0.801   2.947   4.421  1.5238  0.3383  0.1916
 6397TIP3   OH219196   4.920   5.764   4.133  0.7717  0.0690 -0.2767
 6397TIP3    H119197   4.893   5.672   4.139 -1.0408  0.6143  1.4629
 6397TIP3    H219198   5.015   5.761   4.129  0.7083 -1.9082 -1.9802
 6398TIP3   OH219199   1.913   3.572   0.480 -0.0797  0.1754 -0.2623
 6398TIP3    H119200   1.844   3.566   0.414 -0.1494  0.4440 -0.2179
 6398TIP3    H219201   1.904   3.661   0.515  1.1740  0.7065 -1.2326
 6399TIP3   OH219202   3.769   0.377   1.169  0.4986 -0.3795 -0.2963
 6399TIP3    H119203   3.859   0.357   1.144  1.2538  0.7049  1.3112
 6399TIP3    H219204   3.773   0.388   1.265 -0.7279  2.4217 -0.4546
 6400TIP3   OH219205   3.813   2.129   4.217  0.3167  0.0260 -0.1034
 6400TIP3    H119206   3.756   2.177   4.278  0.1854  0.3973 -0.5087
 6400TIP3    H219207   3.831   2.046   4.261  1.5785  0.9293  1.1975
 6401TIP3   OH219208   0.072   0.756   1.559  0.3608 -0.4464  0.5069
 6401TIP3    H119209   0.002   0.718   1.507  0.2766 -1.4137  1.3084
 6401TIP3    H219210   0.140   0.689   1.562  0.1268 -0.6587  2.1019
 6402TIP3   OH219211   1.842   0.977   0.051  0.0676 -0.3453  0.0234
 6402TIP3    H119212   1.807   1.015  -0.029 -0.4373  0.2329  0.5066
 6402TIP3    H219213   1.935   1.001   0.051 -0.3877  1.5795  0.6889
 6403TIP3   OH219214   4.349   0.140   0.082  0.0092  0.3184 -0.1207
 6403TIP3    H119215   4.371   0.224   0.042 -0.6357 -0.3493 -2.0297
 6403TIP3    H219216   4.264   0.117   0.043 -0.9054 -0.2134  2.0418
 6404TIP3   OH219217   1.538   4.006   0.614 -0.1842 -0.1175  0.1108
 6404TIP3    H119218   1.570   4.054   0.690 -0.7148 -0.0616  0.3082
 6404TIP3    H219219   1.499   4.073   0.558  0.5752 -0.1027 -0.4149
 6405TIP3   OH219220   3.626   0.586   3.778 -0.3203  0.4969  0.3096
 6405TIP3    H119221   3.655   0.676   3.790  1.6274 -0.2084  1.2542
 6405TIP3    H219222   3.682   0.535   3.835 -3.0110 -1.0977  1.7464
 6406TIP3   OH219223   5.628   1.190   4.995  0.2182  0.4429 -0.5998
 6406TIP3    H119224   5.645   1.249   4.922  1.9014 -0.7652 -1.2508
 6406TIP3    H219225   5.714   1.175   5.035 -0.2328 -1.0857 -0.1135
 6407TIP3   OH219226   0.640   3.740   1.073 -0.7455  0.3952 -0.1553
 6407TIP3    H119227   0.724   3.776   1.101 -1.5585  1.8665  0.5025
 6407TIP3    H219228   0.575   3.800   1.109 -1.9939  0.8322 -2.8543
 6408TIP3   OH219229   0.650   4.040   3.831 -0.9626 -0.0193  0.2042
 6408TIP3    H119230   0.560   4.044   3.799 -1.1520  0.2770  0.7549
 6408TIP3    H219231   0.677   4.132   3.836 -1.1766 -0.0080  1.5344
 6409TIP3   OH219232   5.781   2.611   1.763 -0.2302  0.4047  0.1035
 6409TIP3    H119233   5.858   2.584   1.814  0.6827  0.2290 -1.3082
 6409TIP3    H219234   5.731   2.666   1.823 -1.5403 -3.2543  2.7598
 6410TIP3   OH219235   4.927   2.609   3.843  0.3044  0.4705  0.2820
 6410TIP3    H119236   4.884   2.545   3.899 -1.2631  1.9064  0.8045
 6410TIP3    H219237   4.857   2.666   3.813  1.4845  1.2905 -1.0742
 6411TIP3   OH219238   4.457   2.157   3.487 -0.0306 -0.1544 -0.6245
 6411TIP3    H119239   4.396   2.143   3.415  1.0451  0.0160 -1.5948
 6411TIP3    H219240   4.431   2.242   3.524  0.0254  0.2404 -1.4659
 6412TIP3   OH219241   1.464   2.988   3.657 -0.1748 -0.3090  0.1952
 6412TIP3    H119242   1.448   3.030   3.742  1.4818  1.1212 -0.1524
 6412TIP3    H219243   1.440   3.054   3.592  1.6238 -0.1610 -0.3774
 6413TIP3   OH219244   3.766   2.246   0.570 -0.1708 -0.5982 -0.0788
 6413TIP3    H119245   3.841   2.298   0.601 -0.3062  0.7357 -1.8369
 6413TIP3    H219246   3.760   2.174   0.633  2.1505 -0.3731  0.5136
 6414TIP3   OH219247   4.896   2.155   0.214 -0.6017  0.1024 -0.6131
 6414TIP3    H119248   4.988   2.180   0.200 -0.5560 -0.6527 -1.8287
 6414TIP3    H219249   4.900   2.082   0.275 -0.3066 -0.5421 -1.3863
 6415TIP3   OH219250   4.006   2.240   3.806  0.2960  0.4387  0.1073
 6415TIP3    H119251   4.004   2.148   3.781 -0.4740  0.6203 -0.5360
 6415TIP3    H219252   3.954   2.244   3.887 -0.7040  0.4745 -0.5096
 6416TIP3   OH219253   0.713   5.509   3.468 -0.0386  0.4551 -0.6582
 6416TIP3    H119254   0.773   5.474   3.402  0.1031  0.2547 -0.4276
 6416TIP3    H219255   0.629   5.515   3.423  0.7559  3.7161 -1.9762
 6417TIP3   OH219256   3.860   3.868   2.359  0.1014 -0.0118  0.5045
 6417TIP3    H119257   3.945   3.836   2.389  0.7599  1.1347 -0.0477
 6417TIP3    H219258   3.822   3.794   2.311  1.9105  0.2066 -1.4280
 6418TIP3   OH219259   0.787   0.805   4.597  0.3887  0.1874  0.0562
 6418TIP3    H119260   0.748   0.881   4.556 -0.3302  0.2199  0.7837
 6418TIP3    H219261   0.769   0.815   4.690  0.1168 -0.9558  0.1499
 6419TIP3   OH219262   0.280   0.367   2.512  0.2825  0.7682 -0.7272
 6419TIP3    H119263   0.194   0.378   2.552 -0.1849  1.1749 -1.8059
 6419TIP3    H219264   0.262   0.328   2.426  1.3356 -1.2809 -0.0952
 6420TIP3   OH219265   2.650   2.573   4.610  0.4959 -0.0171  0.2852
 6420TIP3    H119266   2.653   2.657   4.655  1.9452  0.3705 -0.4879
 6420TIP3    H219267   2.734   2.566   4.565 -0.1322 -1.2767 -0.7705
 6421TIP3   OH219268   0.059   2.758   0.304  0.1341 -0.1904  0.5142
 6421TIP3    H119269   0.124   2.705   0.259  0.0093 -0.1794  0.3173
 6421TIP3    H219270   0.109   2.827   0.346  0.0908  1.1992 -1.5419
 6422TIP3   OH219271   2.284   5.331   3.131  0.0514 -0.1648  0.5899
 6422TIP3    H119272   2.268   5.247   3.174 -4.5778  0.3864  0.4892
 6422TIP3    H219273   2.224   5.331   3.056  1.0837  2.6098 -0.3619
 6423TIP3   OH219274   4.140   5.507   0.921  0.1466  0.0082 -0.3658
 6423TIP3    H119275   4.174   5.533   1.006 -0.4860  1.4109 -0.5152
 6423TIP3    H219276   4.207   5.533   0.858 -0.6658  1.7546 -0.5554
 6424TIP3   OH219277   4.806   0.269   4.941 -0.7956  0.4343  0.7964
 6424TIP3    H119278   4.803   0.345   4.999 -1.6033  1.6582 -0.7918
 6424TIP3    H219279   4.789   0.304   4.854  2.0614 -1.0849 -0.5123
 6425TIP3   OH219280   0.757   2.103   3.157 -0.8047  0.0234 -0.1293
 6425TIP3    H119281   0.679   2.063   3.196  0.1809 -1.1909  0.6801
 6425TIP3    H219282   0.725   2.143   3.076 -2.4630  0.5118  0.7088
 6426TIP3   OH219283   0.128   1.658   0.918  0.8569  0.0970 -1.0409
 6426TIP3    H119284   0.210   1.689   0.957 -0.7079  0.3565  2.3761
 6426TIP3    H219285   0.100   1.587   0.976 -1.0582 -0.3870 -2.4892
 6427TIP3   OH219286   5.877   5.305   2.764  0.0626  0.0738 -0.0856
 6427TIP3    H119287   5.838   5.220   2.743 -0.0836  0.2222 -0.4053
 6427TIP3    H219288   5.864   5.358   2.686 -0.8724  0.7660  0.5238
 6428TIP3   OH219289   2.412   1.115   3.354  0.2726 -0.3073  0.0052
 6428TIP3    H119290   2.384   1.064   3.278  1.0500 -0.1507 -0.3924
 6428TIP3    H219291   2.506   1.098   3.362  0.6994  1.5525 -0.5242
 6429TIP3   OH219292   5.595   4.768   3.848  0.3579  0.5748 -0.2123
 6429TIP3    H119293   5.561   4.808   3.768 -0.3034 -0.6404 -0.5666
 6429TIP3    H219294   5.642   4.691   3.818  0.3071  0.2392  0.5489
 6430TIP3   OH219295   3.160   2.734   1.883  0.6660  0.4173  0.0205
 6430TIP3    H119296   3.209   2.712   1.804 -0.8638  0.1351 -0.8920
 6430TIP3    H219297   3.097   2.800   1.854 -0.1342  0.0720  0.9239
 6431TIP3   OH219298   3.069   5.702   2.568 -0.7577  0.0684 -0.1180
 6431TIP3    H119299   3.023   5.755   2.634  0.5049 -0.7818  1.5227
 6431TIP3    H219300   3.161   5.717   2.587 -0.3708 -2.0082 -0.1731
 6432TIP3   OH219301   5.060   0.469   2.673 -0.2999  0.3119 -0.0592
 6432TIP3    H119302   5.025   0.513   2.596 -1.4874 -1.6032 -0.6982
 6432TIP3    H219303   4.983   0.430   2.715  0.3698  1.0626  1.9446
 6433TIP3   OH219304   4.859   0.977   1.652  0.0061 -0.0941 -0.3576
 6433TIP3    H119305   4.864   0.882   1.656 -2.3141 -0.2553 -0.0517
 6433TIP3    H219306   4.773   0.995   1.613 -0.6609  1.8652  1.8031
 6434TIP3   OH219307   5.293   0.441   0.273 -0.0514 -0.1737 -0.2142
 6434TIP3    H119308   5.241   0.518   0.251 -1.9024 -1.5921 -1.1851
 6434TIP3    H219309   5.310   0.449   0.366 -4.0703 -0.6563  0.7591
 6435TIP3   OH219310   3.662   2.656   1.498 -0.0849  0.5695 -0.3850
 6435TIP3    H119311   3.733   2.713   1.469  0.0963  2.1546  2.7941
 6435TIP3    H219312   3.583   2.695   1.460  0.2616  1.6487 -0.0210
 6436TIP3   OH219313   2.160   0.535   2.044  0.1675  0.3909 -0.0133
 6436TIP3    H119314   2.147   0.584   1.963 -0.3756 -0.0370 -0.1934
 6436TIP3    H219315   2.202   0.454   2.016 -0.4487  0.0376  0.0646
 6437TIP3   OH219316   1.870   5.549   4.293 -0.4899 -0.3935 -0.4970
 6437TIP3    H119317   1.901   5.459   4.300 -0.5313 -0.3467  0.3794
 6437TIP3    H219318   1.786   5.550   4.339 -0.3689  0.1424 -0.2718
 6438TIP3   OH219319   5.043   2.233   3.671  0.0633 -0.6068  0.2317
 6438TIP3    H119320   4.977   2.232   3.740  0.3801 -0.7048  0.5397
 6438TIP3    H219321   5.074   2.324   3.669  1.1922 -0.9349  1.3370
 6439TIP3   OH219322   1.316   1.331   4.734  0.2748  0.1717  0.0138
 6439TIP3    H119323   1.317   1.371   4.821 -0.2552  1.7084 -0.6503
 6439TIP3    H219324   1.399   1.359   4.694  1.1287 -1.5841  0.4318
 6440TIP3   OH219325   3.537   3.770   4.457  0.3374  0.1208 -0.6672
 6440TIP3    H119326   3.585   3.721   4.391  1.0879 -0.7230  0.4659
 6440TIP3    H219327   3.598   3.838   4.485 -0.4139  1.2513 -1.6672
 6441TIP3   OH219328   1.806   3.314   4.245  0.1453  0.2243 -0.0264
 6441TIP3    H119329   1.857   3.393   4.261  1.0135 -0.1225 -0.9357
 6441TIP3    H219330   1.865   3.242   4.268 -0.8328 -0.1658  1.3367
 6442TIP3   OH219331   4.913   2.428   2.932 -0.2599 -0.1095 -0.1812
 6442TIP3    H119332   4.896   2.413   3.025 -1.4152 -0.8485 -0.4918
 6442TIP3    H219333   4.941   2.343   2.898 -0.1644  0.0732 -0.5764
 6443TIP3   OH219334   5.036   2.057   3.461 -0.2061  0.3723  0.1160
 6443TIP3    H119335   4.959   2.075   3.408 -0.7667  1.0313  1.1252
 6443TIP3    H219336   5.037   2.127   3.527  1.7475  0.9041 -0.4081
 6444TIP3   OH219337   1.274   3.989   2.857 -0.2350 -0.1885 -0.0234
 6444TIP3    H119338   1.282   3.900   2.822  0.1429 -0.5635  1.0000
 6444TIP3    H219339   1.356   4.032   2.832 -1.4231  0.7631 -2.8334
 6445TIP3   OH219340   2.318   1.367   0.140 -0.8253 -0.1989 -0.0330
 6445TIP3    H119341   2.332   1.416   0.059 -1.2989 -0.6605 -0.3981
 6445TIP3    H219342   2.401   1.373   0.186 -1.1344  1.7719  0.3806
 6446TIP3   OH219343   4.038   5.335   1.292 -0.0610  0.5395 -0.2762
 6446TIP3    H119344   3.997   5.248   1.298  0.3772  0.3773  0.5057
 6446TIP3    H219345   4.041   5.353   1.198  0.9239 -0.8253 -0.5508
 6447TIP3   OH219346   4.511   1.172   1.797  0.3377 -0.3344  0.0996
 6447TIP3    H119347   4.587   1.128   1.835 -0.8545 -0.5620  2.3773
 6447TIP3    H219348   4.520   1.263   1.823  0.7464  0.0213 -1.2145
 6448TIP3   OH219349   0.677   4.110   0.898 -0.2039 -0.5653  0.3829
 6448TIP3    H119350   0.666   4.031   0.844  0.4551  0.6204 -1.6139
 6448TIP3    H219351   0.748   4.089   0.958  0.5905 -1.2313 -0.7379
 6449TIP3   OH219352   1.722   2.355   2.565 -0.3286  0.0902 -0.3850
 6449TIP3    H119353   1.715   2.265   2.596 -1.4336 -0.0850 -1.0556
 6449TIP3    H219354   1.683   2.408   2.635  2.8013  0.4042  1.2841
 6450TIP3   OH219355   0.791   1.978   2.270  0.1831 -0.4785  0.0926
 6450TIP3    H119356   0.815   2.068   2.251  0.6846 -0.4156  1.0009
 6450TIP3    H219357   0.696   1.977   2.266 -0.0260  0.7321  2.7437
 6451TIP3   OH219358   3.789   5.687   4.931 -0.4365 -0.1726  0.2113
 6451TIP3    H119359   3.734   5.624   4.977  1.5195 -0.5373  2.2173
 6451TIP3    H219360   3.798   5.760   4.992 -1.6151  1.5260 -1.5656
 6452TIP3   OH219361   4.987   1.149   0.127  0.6327 -0.0402 -0.0415
 6452TIP3    H119362   4.968   1.141   0.034 -0.8858 -0.6736  0.3075
 6452TIP3    H219363   4.990   1.059   0.160 -2.5334  0.1548  1.1789
 6453TIP3   OH219364   1.944   1.552   1.074  0.1870  0.9302  0.1072
 6453TIP3    H119365   1.861   1.520   1.038  0.4267 -0.9150  1.0836
 6453TIP3    H219366   1.923   1.575   1.165  0.6103  1.0098  0.1869
 6454TIP3   OH219367   0.670   2.986   3.588 -0.5640  0.1047 -0.1771
 6454TIP3    H119368   0.627   2.957   3.668 -0.9036  1.2651  0.0692
 6454TIP3    H219369   0.671   3.081   3.594 -0.3895  0.1959 -1.4516
 6455TIP3   OH219370   0.871   4.090   2.148  0.3147  0.0110  0.0202
 6455TIP3    H119371   0.903   4.168   2.193  1.1226  0.4029 -1.1692
 6455TIP3    H219372   0.868   4.116   2.056  0.1294 -1.2176 -0.3372
 6456TIP3   OH219373   1.006   5.947   1.931 -0.0892 -0.8075 -0.1221
 6456TIP3    H119374   1.082   5.991   1.893  0.8020 -1.7447  0.5158
 6456TIP3    H219375   0.994   5.991   2.015 -0.7322 -0.1609 -0.5429
 6457TIP3   OH219376   0.589   0.356   0.847  0.1826 -0.1396  0.1902
 6457TIP3    H119377   0.518   0.407   0.886  0.9129  1.6475 -0.6564
 6457TIP3    H219378   0.578   0.268   0.882 -0.9434  0.6725  2.0450
 6458TIP3   OH219379   3.356   0.186   3.441 -1.0876  0.0533  0.1889
 6458TIP3    H119380   3.307   0.243   3.501  1.2100  1.5662  0.7392
 6458TIP3    H219381   3.311   0.196   3.357 -2.2476  0.6910  0.8583
 6459TIP3   OH219382   2.903   3.474   4.760 -0.3743  0.4577  0.6461
 6459TIP3    H119383   2.930   3.564   4.779  0.2088  0.4061  0.1032
 6459TIP3    H219384   2.818   3.465   4.802  0.2423  0.7822  2.0312
 6460TIP3   OH219385   0.305   2.996   4.013 -0.0424  0.1201 -0.1255
 6460TIP3    H119386   0.259   3.011   4.095 -1.0690 -2.1592 -0.2119
 6460TIP3    H219387   0.251   3.038   3.946 -0.0795  0.5349  0.1649
 6461TIP3   OH219388   1.868   2.557   4.465  0.0814 -0.4028 -0.1072
 6461TIP3    H119389   1.946   2.548   4.409 -0.8809 -1.4061 -1.3571
 6461TIP3    H219390   1.833   2.468   4.470 -1.3247  0.1311 -0.0775
 6462TIP3   OH219391   0.509   4.992   4.600  0.0593 -0.1726  0.2023
 6462TIP3    H119392   0.476   5.070   4.643 -2.8926 -0.2614 -1.6318
 6462TIP3    H219393   0.442   4.925   4.616 -0.3079 -0.6966 -2.8441
 6463TIP3   OH219394   0.049   5.705   0.591 -0.0054 -0.0785  0.3690
 6463TIP3    H119395  -0.024   5.750   0.633 -0.6997  0.2117 -1.0771
 6463TIP3    H219396   0.077   5.765   0.522 -1.2510 -1.9619 -1.9166
 6464TIP3   OH219397   0.677   1.514   3.136 -0.3497 -0.2680  0.0982
 6464TIP3    H119398   0.629   1.436   3.165  1.1164 -0.8765  1.0341
 6464TIP3    H219399   0.667   1.515   3.041  0.0590 -1.9374  0.0066
 6465TIP3   OH219400   1.548   2.102   0.923 -0.1406  0.3220  0.5369
 6465TIP3    H119401   1.589   2.031   0.972 -0.7166  0.1567  0.7864
 6465TIP3    H219402   1.460   2.070   0.904 -0.3199  0.8682  0.4283
 6466TIP3   OH219403   2.744   1.674   2.867 -0.4412 -0.3393 -0.1859
 6466TIP3    H119404   2.719   1.597   2.817 -0.0803 -0.1542 -0.6630
 6466TIP3    H219405   2.667   1.731   2.863 -1.0008 -0.9957  0.8383
 6467TIP3   OH219406   4.984   4.533   3.568 -0.0372 -0.1114 -0.4372
 6467TIP3    H119407   5.067   4.494   3.593  0.2351  0.2314 -0.7964
 6467TIP3    H219408   4.919   4.491   3.625  0.5156  0.3982  0.5793
 6468TIP3   OH219409   0.326   1.635   5.004  0.1445 -0.7813 -0.0989
 6468TIP3    H119410   0.376   1.583   5.066  0.3961  1.2896  1.5606
 6468TIP3    H219411   0.238   1.598   5.007  0.0268 -0.4609  1.9063
 6469TIP3   OH219412   5.216   2.474   2.743  0.1064  0.1941 -0.5870
 6469TIP3    H119413   5.250   2.420   2.814  1.1966  1.2772 -0.2468
 6469TIP3    H219414   5.130   2.436   2.722  0.3448 -0.9365  0.4051
 6470TIP3   OH219415   4.816   5.957   2.791  0.6206 -0.3097  0.2680
 6470TIP3    H119416   4.737   5.909   2.767 -0.2789  1.4154 -0.3787
 6470TIP3    H219417   4.884   5.922   2.734  0.2349 -1.4811  0.4968
 6471TIP3   OH219418   1.766   1.261   1.075 -0.4619  0.7146 -0.2855
 6471TIP3    H119419   1.740   1.351   1.055  0.9690  1.8631  2.5623
 6471TIP3    H219420   1.702   1.231   1.139 -0.8359 -0.3073 -1.0974
 6472TIP3   OH219421   2.677   5.098   5.079 -0.1844  0.4725  0.3299
 6472TIP3    H119422   2.671   5.068   5.169 -0.4193 -0.1568  0.1109
 6472TIP3    H219423   2.619   5.174   5.075  0.6544  1.1673  0.9658
 6473TIP3   OH219424   5.741   4.215   0.615  0.4728 -0.1646  0.2103
 6473TIP3    H119425   5.794   4.294   0.609  0.8646 -0.4207  0.2758
 6473TIP3    H219426   5.710   4.201   0.525  0.0129  0.3218  0.2856
 6474TIP3   OH219427   4.996   0.478   4.507 -0.0579 -0.2343 -0.8126
 6474TIP3    H119428   5.021   0.409   4.568  2.1947 -0.7156 -2.1674
 6474TIP3    H219429   5.075   0.531   4.496 -1.0606  1.1826 -1.5987
 6475TIP3   OH219430   2.545   5.466   3.035 -0.4945  0.1846 -0.1768
 6475TIP3    H119431   2.614   5.399   3.037  1.5708  2.1518 -0.5846
 6475TIP3    H219432   2.491   5.448   3.111  1.1858 -0.7625  0.8539
 6476TIP3   OH219433   1.314   4.360   0.152  0.9356  0.1144  0.2735
 6476TIP3    H119434   1.290   4.391   0.240 -1.1144  0.1608 -0.2393
 6476TIP3    H219435   1.293   4.433   0.094 -1.2461 -1.0962 -0.6219
 6477TIP3   OH219436   1.768   1.566   0.171 -0.3348 -0.4386  0.2564
 6477TIP3    H119437   1.761   1.639   0.231  1.4943 -0.1407  0.1674
 6477TIP3    H219438   1.854   1.576   0.131 -1.5494 -0.4833 -2.6246
 6478TIP3   OH219439   4.148   2.836   4.985  0.1355 -0.4345 -0.1293
 6478TIP3    H119440   4.199   2.889   4.923 -0.5824  1.0445  0.4859
 6478TIP3    H219441   4.101   2.773   4.931  1.5829 -0.9732 -0.8240
 6479TIP3   OH219442   0.614   1.147   3.777  0.1574 -0.3929 -0.2567
 6479TIP3    H119443   0.674   1.101   3.836 -1.5601 -3.5914 -0.8036
 6479TIP3    H219444   0.548   1.185   3.834  0.0255 -1.0900  0.0626
 6480TIP3   OH219445   4.877   2.049   1.985  0.3907  0.0075 -0.4844
 6480TIP3    H119446   4.803   2.072   1.928 -0.2546 -0.7234  0.0307
 6480TIP3    H219447   4.922   2.132   2.001 -1.4202  0.8186  0.7237
 6481TIP3   OH219448   5.127   3.363   2.337 -0.6244 -0.1385 -0.2960
 6481TIP3    H119449   5.043   3.379   2.380 -0.8585 -2.4217  0.1995
 6481TIP3    H219450   5.191   3.359   2.408  0.1481  2.4786 -0.7290
 6482TIP3   OH219451   2.363   1.243   1.169  0.4374 -0.2643 -0.1455
 6482TIP3    H119452   2.350   1.304   1.242 -0.2073 -1.7560  1.0294
 6482TIP3    H219453   2.435   1.281   1.119  0.2129  1.3327  0.6699
 6483TIP3   OH219454   5.011   4.023   1.245  0.1403  0.1442  0.2215
 6483TIP3    H119455   4.938   4.036   1.183 -0.3214 -0.8158  0.5444
 6483TIP3    H219456   4.974   3.966   1.313  0.9192  0.4388  0.8956
 6484TIP3   OH219457   3.319   3.958   4.504  0.1541 -0.3254 -0.1251
 6484TIP3    H119458   3.381   4.026   4.477  2.1010 -2.1779 -0.6000
 6484TIP3    H219459   3.373   3.879   4.513 -1.8408 -1.6134  1.3316
 6485TIP3   OH219460   4.045   5.410   3.313  0.1074 -0.1330 -0.0950
 6485TIP3    H119461   4.138   5.389   3.311  0.2836  0.6103 -1.7825
 6485TIP3    H219462   4.040   5.490   3.366  0.7939  1.1749 -1.8985
 6486TIP3   OH219463   4.439   4.724   3.531 -0.0401  0.8052  0.3860
 6486TIP3    H119464   4.467   4.812   3.554  1.0602  0.5911 -0.0836
 6486TIP3    H219465   4.358   4.711   3.580 -0.4574  2.2382  0.0919
 6487TIP3   OH219466   0.539   4.380   0.855 -0.2874  0.2327  1.2671
 6487TIP3    H119467   0.579   4.296   0.877  0.7105  0.3140 -0.0895
 6487TIP3    H219468   0.611   4.433   0.822 -1.0050  1.4396  1.5713
 6488TIP3   OH219469   1.181   5.135   1.267  0.3320 -0.0776  0.1173
 6488TIP3    H119470   1.250   5.177   1.216  0.4734 -1.7167 -1.1412
 6488TIP3    H219471   1.102   5.143   1.214  0.7365 -2.9085 -1.1335
 6489TIP3   OH219472   5.563   0.781   3.248  0.3119  0.0631  0.0209
 6489TIP3    H119473   5.652   0.815   3.258  0.6301 -0.5817 -0.5045
 6489TIP3    H219474   5.564   0.697   3.293  0.1103 -0.1654 -0.3869
 6490TIP3   OH219475   5.395   4.959   1.683  0.4089 -0.4149 -0.1551
 6490TIP3    H119476   5.301   4.973   1.695  0.1657 -1.1119 -1.1673
 6490TIP3    H219477   5.427   4.943   1.772 -0.2558  0.7608  0.3222
 6491TIP3   OH219478   0.055   0.366   1.747 -0.6214  0.1412 -0.0446
 6491TIP3    H119479  -0.029   0.332   1.778 -0.7321  1.4980  1.2884
 6491TIP3    H219480   0.036   0.400   1.660 -0.8884 -1.6020 -0.7084
 6492TIP3   OH219481   2.984   1.773   2.595 -0.2650  0.1040  0.1426
 6492TIP3    H119482   3.031   1.843   2.552 -1.2551  1.1356  0.6723
 6492TIP3    H219483   3.016   1.774   2.685  0.1858 -0.5640 -0.0035
 6493TIP3   OH219484   3.621   2.307   4.359 -0.6057 -0.1513  0.2988
 6493TIP3    H119485   3.531   2.277   4.349 -0.6465 -0.3195  1.1316
 6493TIP3    H219486   3.627   2.335   4.450  0.7482 -2.0720  0.8627
 6494TIP3   OH219487   0.992   2.551   5.141 -0.0411  0.3848  0.3481
 6494TIP3    H119488   1.057   2.495   5.098  2.1977  1.6070  1.9507
 6494TIP3    H219489   0.908   2.515   5.113  1.2402 -0.6131 -2.7450
 6495TIP3   OH219490   2.462   2.160   4.807  0.0062  0.1644  0.5849
 6495TIP3    H119491   2.425   2.190   4.890 -1.5920 -0.8411  0.2831
 6495TIP3    H219492   2.468   2.239   4.753 -1.5580  0.4070  0.7208
 6496TIP3   OH219493   5.163   4.555   3.136 -0.0123  0.1352 -0.0507
 6496TIP3    H119494   5.140   4.525   3.048 -1.3541 -0.7256  0.5548
 6496TIP3    H219495   5.083   4.542   3.187  0.4050  1.6154  1.0588
 6497TIP3   OH219496   1.216   0.576   3.444  0.1380 -0.7107 -0.0295
 6497TIP3    H119497   1.149   0.507   3.442  0.7343 -1.3115  0.3403
 6497TIP3    H219498   1.176   0.650   3.398 -0.2370 -1.5505 -1.0967
 6498TIP3   OH219499   0.903   4.282   3.879  0.0783 -0.1686  0.8187
 6498TIP3    H119500   0.808   4.269   3.881  0.3018 -2.4197 -0.0467
 6498TIP3    H219501   0.915   4.366   3.836 -1.5299  0.4635  1.5252
 6499TIP3   OH219502   3.935   1.782   4.782 -0.4362  0.2392 -0.5333
 6499TIP3    H119503   4.021   1.782   4.741  1.0350 -1.1785  2.2176
 6499TIP3    H219504   3.902   1.870   4.770  2.5272  1.6217  0.3503
 6500TIP3   OH219505   6.083   1.424   1.748  0.0237  0.4329  0.3461
 6500TIP3    H119506   6.042   1.388   1.670  2.8542 -0.8024 -0.6831
 6500TIP3    H219507   6.136   1.497   1.717  1.2454 -0.1180  1.0598
 6501TIP3   OH219508   0.390   2.219   3.786  0.1130 -0.3735  0.2385
 6501TIP3    H119509   0.374   2.247   3.877  0.7264 -0.1178  0.2711
 6501TIP3    H219510   0.352   2.289   3.733  0.2409 -0.2554  0.3029
 6502TIP3   OH219511   3.954   2.525   2.416 -0.1519 -0.1807 -0.0977
 6502TIP3    H119512   4.023   2.501   2.354 -1.7452 -0.1909 -1.9528
 6502TIP3    H219513   3.967   2.619   2.431 -0.2738  0.0239 -1.1849
 6503TIP3   OH219514   4.874   5.952   0.410  0.1944  0.1021  0.7851
 6503TIP3    H119515   4.918   5.903   0.480 -0.4687 -0.3163  0.9128
 6503TIP3    H219516   4.782   5.930   0.419  0.0804  0.1477 -0.1412
 6504TIP3   OH219517   0.563   5.812   1.493 -0.0922 -0.2296  1.1660
 6504TIP3    H119518   0.541   5.719   1.500 -1.9800  0.1515  0.8505
 6504TIP3    H219519   0.568   5.842   1.583  2.2218 -0.9590  1.3324
 6505TIP3   OH219520   0.715   5.037   4.781 -0.4881 -0.0377  0.0034
 6505TIP3    H119521   0.777   4.973   4.746 -2.3478 -3.0416  1.7825
 6505TIP3    H219522   0.633   5.018   4.737 -0.8079  2.1265 -0.4188
 6506TIP3   OH219523   1.297   5.055   0.809  0.2534  0.0221  0.5336
 6506TIP3    H119524   1.374   5.063   0.865  0.0016  3.1376  0.5773
 6506TIP3    H219525   1.315   5.112   0.734 -0.8124 -1.4869 -0.9444
 6507TIP3   OH219526   3.996   5.286   0.976 -0.1540  0.0725  1.1077
 6507TIP3    H119527   3.915   5.269   0.928  1.5701 -4.1443 -0.8777
 6507TIP3    H219528   4.035   5.361   0.931 -0.8843 -0.7247 -0.9792
 6508TIP3   OH219529   5.729   4.516   3.828 -0.0385  0.3855  0.2377
 6508TIP3    H119530   5.766   4.478   3.907 -0.7847  0.6235  0.7066
 6508TIP3    H219531   5.806   4.535   3.773  0.6269  1.6755  1.5426
 6509TIP3   OH219532   0.213   0.586   4.302  0.2972 -0.3532  0.5510
 6509TIP3    H119533   0.244   0.501   4.270 -0.2911 -0.4009  0.0985
 6509TIP3    H219534   0.119   0.575   4.313  0.4265 -0.2383  2.0106
 6510TIP3   OH219535   4.275   2.819   1.994 -0.2845  0.0485 -0.1302
 6510TIP3    H119536   4.195   2.781   1.959  0.0613 -1.3757  0.5287
 6510TIP3    H219537   4.315   2.865   1.920 -1.3777  0.2246 -0.6236
 6511TIP3   OH219538   1.370   2.096   0.298  0.5423  0.4729  0.6928
 6511TIP3    H119539   1.460   2.130   0.296  0.8257 -0.2891  0.0138
 6511TIP3    H219540   1.318   2.169   0.329  1.2026  1.3969 -0.2993
 6512TIP3   OH219541   1.183   2.048   1.561 -0.0242  0.0335 -0.9806
 6512TIP3    H119542   1.101   2.005   1.587 -0.5387  1.7064  0.3642
 6512TIP3    H219543   1.162   2.141   1.561  1.8060  0.4840 -0.9264
 6513TIP3   OH219544   1.654   1.677   3.441  0.1097 -0.4362 -0.1521
 6513TIP3    H119545   1.688   1.708   3.524  0.2350  1.9188 -1.0305
 6513TIP3    H219546   1.729   1.675   3.382  0.0532 -2.2260 -0.2351
 6514TIP3   OH219547   1.781   1.106   4.436  0.4387 -0.5161 -0.1547
 6514TIP3    H119548   1.685   1.097   4.439  0.3704  0.2528  2.5260
 6514TIP3    H219549   1.807   1.115   4.527  3.0359 -0.0210 -0.8660
 6515TIP3   OH219550   0.408   4.839   2.345 -0.7549  0.2081 -0.1608
 6515TIP3    H119551   0.316   4.833   2.370 -1.5824 -0.7896 -2.9665
 6515TIP3    H219552   0.445   4.755   2.373 -0.6084  0.6980  1.1722
 6516TIP3   OH219553   0.517   2.865   5.156 -0.0993 -0.1599  0.1500
 6516TIP3    H119554   0.591   2.809   5.132  0.2752 -0.4026  1.7470
 6516TIP3    H219555   0.535   2.948   5.113 -0.6803 -1.2267 -2.2937
 6517TIP3   OH219556   5.128   4.802   0.160 -0.1975 -0.1837  0.3554
 6517TIP3    H119557   5.140   4.768   0.071  2.3857 -1.1326  0.9764
 6517TIP3    H219558   5.053   4.861   0.153  0.0783 -0.0161 -2.4959
 6518TIP3   OH219559   1.490   3.061   1.394 -0.3327 -0.2132 -0.0707
 6518TIP3    H119560   1.573   3.099   1.424 -0.4711  0.0091  0.0405
 6518TIP3    H219561   1.439   3.049   1.475 -0.3880 -0.3949 -0.1330
 6519TIP3   OH219562   3.315   3.231   1.698 -0.4156 -0.3279  0.4191
 6519TIP3    H119563   3.343   3.198   1.613  1.4682 -0.0556  0.8757
 6519TIP3    H219564   3.374   3.304   1.716 -0.9275 -0.2202  1.8428
 6520TIP3   OH219565   5.586   4.219   1.712  0.6160 -0.0676  0.2457
 6520TIP3    H119566   5.644   4.286   1.675 -0.5339  0.7723 -0.1090
 6520TIP3    H219567   5.597   4.228   1.807  1.0899  0.0592  0.1818
 6521TIP3   OH219568   1.562   3.252   0.066 -0.2583  0.2050  0.1124
 6521TIP3    H119569   1.501   3.314   0.025 -3.0503 -3.7447 -2.3886
 6521TIP3    H219570   1.507   3.190   0.113  2.1869 -1.3498  1.1733
 6522TIP3   OH219571   4.905   1.792   3.483  0.3686  0.7806  0.0717
 6522TIP3    H119572   4.972   1.859   3.500 -2.1669  3.5413 -0.0339
 6522TIP3    H219573   4.903   1.784   3.388  1.3702 -0.2800  0.1195
 6523TIP3   OH219574   4.207   1.842   1.574  0.4362 -0.0579 -0.1817
 6523TIP3    H119575   4.120   1.805   1.557  0.4316 -0.1424  0.0164
 6523TIP3    H219576   4.208   1.924   1.525 -0.6143  1.0965  1.5859
 6524TIP3   OH219577   3.888   3.473   0.856  0.9217 -0.4491  0.2790
 6524TIP3    H119578   3.885   3.406   0.787  2.4498  1.4981 -1.8063
 6524TIP3    H219579   3.811   3.528   0.840  0.6338 -0.6489  0.9079
 6525TIP3   OH219580   0.631   5.865   2.014 -0.0130  0.7512 -0.0162
 6525TIP3    H119581   0.567   5.831   2.077 -0.9376  1.0974 -0.7540
 6525TIP3    H219582   0.579   5.912   1.949  0.8739  0.0512 -1.2832
 6526TIP3   OH219583   0.988   4.130   0.727 -0.5944 -0.0753 -0.4867
 6526TIP3    H119584   0.929   4.189   0.773  1.5183 -0.1801  2.6966
 6526TIP3    H219585   1.005   4.172   0.643 -1.3386  2.4310  0.5440
 6527TIP3   OH219586   0.914   0.610   0.239  0.0245 -0.3601  0.0800
 6527TIP3    H119587   0.992   0.558   0.257  0.2687  0.4073  1.3623
 6527TIP3    H219588   0.927   0.643   0.150  1.2649 -0.1046  0.3314
 6528TIP3   OH219589   4.382   4.448   1.239  0.2020 -0.0508 -0.3220
 6528TIP3    H119590   4.294   4.453   1.278  0.8746 -2.3132  1.7863
 6528TIP3    H219591   4.439   4.489   1.304  0.8156  0.6281 -1.2737
 6529TIP3   OH219592   0.507   3.378   3.967  0.3866 -0.4456 -0.4659
 6529TIP3    H119593   0.554   3.298   3.944  1.3029  0.2699 -1.1609
 6529TIP3    H219594   0.545   3.404   4.051 -1.2493 -1.7394  0.7306
 6530TIP3   OH219595   5.622   3.447   4.702 -0.3412 -0.5743 -0.1314
 6530TIP3    H119596   5.692   3.428   4.765  0.6854 -0.8233 -1.3039
 6530TIP3    H219597   5.550   3.390   4.727 -0.0017 -0.5819  0.8783
 6531TIP3   OH219598   4.196   2.831   2.263  0.2243  0.7876  0.0598
 6531TIP3    H119599   4.127   2.892   2.238 -0.4168 -0.2631 -0.8719
 6531TIP3    H219600   4.257   2.832   2.190 -0.1699 -0.1898 -0.3076
 6532TIP3   OH219601   2.360   5.774   0.858  0.4008  0.1453 -0.4076
 6532TIP3    H119602   2.411   5.705   0.814 -0.2684 -1.1056  0.6949
 6532TIP3    H219603   2.366   5.752   0.951 -1.7872  0.1631 -0.2058
 6533TIP3   OH219604   2.337   3.426   1.069 -0.5577 -0.6177  0.1878
 6533TIP3    H119605   2.273   3.364   1.105 -0.6918 -0.9818 -0.6273
 6533TIP3    H219606   2.415   3.415   1.123 -1.0426 -0.5032  0.9095
 6534TIP3   OH219607   5.328   3.362   0.411 -0.5875  0.1351 -0.3605
 6534TIP3    H119608   5.338   3.411   0.329  0.5686 -0.5685 -0.6575
 6534TIP3    H219609   5.372   3.279   0.395 -2.3671 -0.9706  0.1992
 6535TIP3   OH219610   2.283   1.786   4.286  0.6327 -0.3368  0.1071
 6535TIP3    H119611   2.345   1.857   4.303 -0.1533  0.4131 -0.1218
 6535TIP3    H219612   2.258   1.796   4.194  0.1098 -0.5741  0.2172
 6536TIP3   OH219613   6.050   1.298   2.377 -0.2429 -0.3243 -0.0824
 6536TIP3    H119614   6.045   1.244   2.298 -1.5929  0.0338 -0.2520
 6536TIP3    H219615   6.034   1.236   2.449  1.8725 -0.8291  0.0274
 6537TIP3   OH219616   4.467   3.128   4.084 -0.0734 -0.0567 -0.4460
 6537TIP3    H119617   4.434   3.166   4.002  1.9211  0.5963 -1.0008
 6537TIP3    H219618   4.499   3.202   4.134 -2.2822 -0.2949  1.5278
 6538TIP3   OH219619   0.447   4.961   3.501  0.0075  0.2757  0.1044
 6538TIP3    H119620   0.505   5.018   3.451  1.7724  0.9166  2.6542
 6538TIP3    H219621   0.506   4.905   3.551 -1.6624 -1.1917  0.5376
 6539TIP3   OH219622   1.478   1.060   2.243  0.1196  0.0234 -0.2190
 6539TIP3    H119623   1.471   1.053   2.148 -0.9254 -0.7193 -0.1094
 6539TIP3    H219624   1.491   1.153   2.260  0.1042  0.1870 -1.0772
 6540TIP3   OH219625   4.260   5.117   0.028 -0.7632 -0.1722  0.0775
 6540TIP3    H119626   4.223   5.096  -0.057 -1.6263  0.1371  0.3624
 6540TIP3    H219627   4.336   5.060   0.036 -0.2578  0.2794 -1.1897
 6541TIP3   OH219628   2.502   2.187   0.783 -0.3199 -0.2606 -0.1333
 6541TIP3    H119629   2.549   2.260   0.742  0.6203 -1.0563 -0.5093
 6541TIP3    H219630   2.512   2.114   0.721 -0.2529 -1.0291  0.7638
 6542TIP3   OH219631   2.771   3.358   1.387  0.3093  0.0040 -0.3431
 6542TIP3    H119632   2.863   3.374   1.404  0.2480 -1.6251  2.0275
 6542TIP3    H219633   2.762   3.263   1.388 -1.4709  0.1308  0.1067
 6543TIP3   OH219634   0.203   2.984   1.821  0.6965  0.4038  0.0243
 6543TIP3    H119635   0.180   2.895   1.847  0.1265  0.8384  1.0755
 6543TIP3    H219636   0.135   3.039   1.861 -0.0372  1.1694 -2.1163
 6544TIP3   OH219637   4.130   1.367   1.830  0.3415  0.2925 -0.0442
 6544TIP3    H119638   4.159   1.297   1.888  2.1235 -0.5897 -1.8638
 6544TIP3    H219639   4.168   1.447   1.868  0.4047 -0.0775  0.6779
 6545TIP3   OH219640   4.044   4.497   1.792  0.1278  0.0631  0.7060
 6545TIP3    H119641   4.077   4.408   1.808  0.5063 -0.4549 -2.3979
 6545TIP3    H219642   3.952   4.484   1.769  0.3635  0.3715 -0.4552
 6546TIP3   OH219643   4.411   1.818   0.345  0.3842  0.2033 -0.0766
 6546TIP3    H119644   4.322   1.844   0.322  0.4294  0.6039  0.1965
 6546TIP3    H219645   4.414   1.826   0.440  0.2335 -1.3107  0.0821
 6547TIP3   OH219646   5.707   5.565   4.818 -0.5403 -0.6362  0.4243
 6547TIP3    H119647   5.791   5.524   4.797 -0.3855 -0.0380 -0.1546
 6547TIP3    H219648   5.680   5.523   4.900  1.4991  0.8506  1.9617
 6548TIP3   OH219649   3.790   0.714   1.992 -0.1884 -0.5276 -0.2095
 6548TIP3    H119650   3.786   0.799   2.036 -1.2680 -0.4364 -0.4456
 6548TIP3    H219651   3.776   0.650   2.062  2.4956 -0.6549  0.2957
 6549TIP3   OH219652   0.585   2.286   2.806  0.1728  0.1076  0.2156
 6549TIP3    H119653   0.522   2.303   2.876 -1.2220  0.6664 -1.1208
 6549TIP3    H219654   0.638   2.366   2.802 -1.9332  1.5191 -1.5295
 6550TIP3   OH219655   3.033   4.252   3.743 -0.0119  0.3826 -0.0073
 6550TIP3    H119656   3.061   4.176   3.794 -1.3120 -0.6730 -0.8035
 6550TIP3    H219657   2.997   4.312   3.808 -1.9231 -1.0665  0.3482
 6551TIP3   OH219658   4.377   3.826   4.294  0.2068  0.0700 -0.0319
 6551TIP3    H119659   4.300   3.883   4.290  0.7050  0.8045  0.6745
 6551TIP3    H219660   4.404   3.828   4.386  2.0429  1.1189 -0.5448
 6552TIP3   OH219661   4.841   4.980   4.216 -0.6110  0.4749  0.1290
 6552TIP3    H119662   4.831   4.958   4.309  0.4982 -0.4539  0.0517
 6552TIP3    H219663   4.884   5.065   4.216  1.1953 -0.3870  0.5235
 6553TIP3   OH219664   4.876   4.091   3.584  0.1709 -0.1073  0.0601
 6553TIP3    H119665   4.946   4.038   3.545 -0.8931 -0.6073 -1.2354
 6553TIP3    H219666   4.853   4.155   3.516 -0.6673  0.0243  0.4508
 6554TIP3   OH219667   3.032   1.530   4.856  0.1392  0.0284  0.0825
 6554TIP3    H119668   3.037   1.535   4.761  1.1073  0.0894  0.1317
 6554TIP3    H219669   3.014   1.438   4.875 -1.1387  0.2033 -0.1900
 6555TIP3   OH219670   2.282   0.448   1.605 -0.6297  0.0379  0.0482
 6555TIP3    H119671   2.221   0.375   1.600 -1.3935  0.7066 -0.7637
 6555TIP3    H219672   2.227   0.526   1.603  0.2258  0.6574 -0.3056
 6556TIP3   OH219673   6.075   0.753   0.478 -0.3124 -0.5156  0.2035
 6556TIP3    H119674   6.118   0.670   0.498 -0.2413 -0.4352  0.3893
 6556TIP3    H219675   5.990   0.748   0.521 -0.2487 -0.4316  0.3387
 6557TIP3   OH219676   0.077   3.620   3.886  0.3918 -0.6296  0.0720
 6557TIP3    H119677   0.145   3.555   3.905 -0.2958 -1.2292  0.5341
 6557TIP3    H219678   0.075   3.625   3.791 -0.9130 -2.8137 -0.0875
 6558TIP3   OH219679   2.044   3.237   4.521  0.1083 -0.0106 -0.4296
 6558TIP3    H119680   2.118   3.294   4.498 -0.8198  1.8363  0.9269
 6558TIP3    H219681   2.044   3.237   4.617 -0.2458 -1.9187 -0.4111
 6559TIP3   OH219682   1.079   2.234   0.092  0.0520  0.1538 -0.1502
 6559TIP3    H119683   1.126   2.249   0.174 -1.2746 -1.5931  1.0026
 6559TIP3    H219684   1.146   2.199   0.033  1.2319  2.3073 -0.1916
 6560TIP3   OH219685   0.098   1.668   2.176 -0.9694 -0.4284  0.8150
 6560TIP3    H119686   0.170   1.701   2.231 -1.5588  0.7307  0.9116
 6560TIP3    H219687   0.102   1.722   2.097 -0.8610 -1.3169  0.1889
 6561TIP3   OH219688   0.777   5.519   3.735  0.0160  0.1898 -0.4333
 6561TIP3    H119689   0.768   5.503   3.641  1.0168 -2.0340 -0.1965
 6561TIP3    H219690   0.687   5.530   3.766 -0.4785 -1.1236 -1.3315
 6562TIP3   OH219691   3.521   5.800   1.487  0.1394  0.8183  0.2970
 6562TIP3    H119692   3.581   5.762   1.422  1.7541  0.5942  1.8408
 6562TIP3    H219693   3.479   5.724   1.528  2.0297  0.6920  2.1406
 6563TIP3   OH219694   5.118   4.377   2.364 -0.2978  0.3547  0.5085
 6563TIP3    H119695   5.179   4.363   2.437  1.1887 -0.9451 -0.8867
 6563TIP3    H219696   5.108   4.472   2.358  0.5537  0.5339  1.5990
 6564TIP3   OH219697   3.814   3.460   4.839 -0.7719 -0.0379  0.0805
 6564TIP3    H119698   3.804   3.481   4.746 -1.8299 -0.5457  0.0638
 6564TIP3    H219699   3.908   3.468   4.855 -0.6101  0.3442 -0.9611
 6565TIP3   OH219700   5.800   0.525   2.901  0.3516 -0.3065  0.0523
 6565TIP3    H119701   5.796   0.439   2.945  0.1651 -0.4153 -0.1788
 6565TIP3    H219702   5.892   0.535   2.878  0.8594  0.6046  2.1603
 6566TIP3   OH219703   2.334   0.222   0.446 -0.0093  0.2146 -0.0846
 6566TIP3    H119704   2.350   0.306   0.487 -0.4969 -0.3778  1.3863
 6566TIP3    H219705   2.419   0.177   0.450  0.0241  0.2824 -0.0288
 6567TIP3   OH219706   2.564   5.321   2.323  0.2999 -0.3649  0.2027
 6567TIP3    H119707   2.609   5.326   2.407  0.1929 -0.8845  0.2955
 6567TIP3    H219708   2.585   5.234   2.290  2.3696  0.6861 -1.4722
 6568TIP3   OH219709   3.656   2.352   3.750 -0.1136 -0.1129  0.0344
 6568TIP3    H119710   3.701   2.293   3.810  0.6727  0.3839 -0.0507
 6568TIP3    H219711   3.566   2.353   3.781  0.2906  0.2114  1.2876
 6569TIP3   OH219712   1.076   3.907   2.096  0.7683 -0.4175  0.5249
 6569TIP3    H119713   1.004   3.970   2.100 -0.0642 -1.3051 -0.0597
 6569TIP3    H219714   1.080   3.868   2.183  0.4254 -0.4808  0.5125
 6570TIP3   OH219715   4.121   0.956   1.420  0.3815 -0.0764 -0.3697
 6570TIP3    H119716   4.105   0.998   1.505  1.4688  1.1727 -0.7560
 6570TIP3    H219717   4.084   0.868   1.430  1.0393 -0.1740  1.6087
 6571TIP3   OH219718   6.113   5.032   2.141  0.2941  0.4728  0.5255
 6571TIP3    H119719   6.126   5.125   2.121  0.5896  0.2701 -0.2540
 6571TIP3    H219720   6.149   4.986   2.065  0.1600 -0.2811  0.9127
 6572TIP3   OH219721   3.577   0.406   0.666 -0.3794  0.1138  0.2829
 6572TIP3    H119722   3.659   0.376   0.628 -1.2882 -2.8614  0.4646
 6572TIP3    H219723   3.596   0.417   0.759  0.1449  0.9363  0.0957
 6573TIP3   OH219724   4.664   0.007   1.542  0.3203 -0.6732  0.0927
 6573TIP3    H119725   4.742  -0.032   1.580  0.4881 -0.6871 -0.2584
 6573TIP3    H219726   4.635   0.072   1.606  1.3967  0.2798 -0.3617
 6574TIP3   OH219727   5.938   0.783   0.237 -0.1490  0.8025  0.1982
 6574TIP3    H119728   5.864   0.758   0.293 -1.4067  1.3085 -1.1725
 6574TIP3    H219729   6.010   0.798   0.298 -1.8654  2.8598  1.8550
 6575TIP3   OH219730   2.210   0.992   2.367  0.0861 -0.0718 -0.3039
 6575TIP3    H119731   2.125   0.953   2.387  0.6689 -2.1358 -1.5431
 6575TIP3    H219732   2.235   1.038   2.447 -1.5576 -0.6160  0.5666
 6576TIP3   OH219733   6.107   2.702   0.733  0.0067  0.3915 -0.1772
 6576TIP3    H119734   6.126   2.732   0.822  0.4600 -0.5840  0.0616
 6576TIP3    H219735   6.112   2.781   0.679  0.4869  0.8586  0.5425
 6577TIP3   OH219736   3.825   0.352   0.500 -0.2530  0.0655 -0.1804
 6577TIP3    H119737   3.868   0.270   0.473  0.6576  0.2766  0.5612
 6577TIP3    H219738   3.824   0.405   0.421  2.1297  0.5700  0.0618
 6578TIP3   OH219739   3.423   4.793   2.432 -0.3499  0.0627 -0.0424
 6578TIP3    H119740   3.453   4.752   2.513 -0.5469 -0.9997 -0.4921
 6578TIP3    H219741   3.377   4.872   2.461  0.3508  0.1695  0.8194
 6579TIP3   OH219742   6.309   3.362   3.520 -0.2523  0.7379 -0.2513
 6579TIP3    H119743   6.349   3.448   3.528  1.4556  0.0197 -0.5399
 6579TIP3    H219744   6.322   3.338   3.428  0.6354 -0.4136  0.1425
 6580TIP3   OH219745   2.682   3.439   1.643  0.0962 -0.1040  0.4094
 6580TIP3    H119746   2.596   3.442   1.603  0.0106 -1.5073  0.4522
 6580TIP3    H219747   2.743   3.447   1.570 -0.0582  0.0834  0.2994
 6581TIP3   OH219748   6.042   1.870   2.049  0.0656  0.2808  0.0911
 6581TIP3    H119749   6.093   1.821   2.114  1.8161 -0.9534 -2.0430
 6581TIP3    H219750   6.103   1.936   2.016 -1.4676  2.3063  1.0999
 6582TIP3   OH219751   5.162   2.186   4.487 -0.3387  0.3044  0.1281
 6582TIP3    H119752   5.121   2.121   4.543 -0.0255 -0.0907 -0.0967
 6582TIP3    H219753   5.168   2.264   4.542 -1.2527  0.3285  0.2062
 6583TIP3   OH219754   4.695   0.093   3.758  0.4029 -0.5687 -0.1406
 6583TIP3    H119755   4.674   0.160   3.693  1.1810 -0.1756 -0.0053
 6583TIP3    H219756   4.625   0.100   3.823  0.9479  0.7772  0.3574
 6584TIP3   OH219757   5.362   2.166   0.504  0.2849  0.4893 -0.1237
 6584TIP3    H119758   5.383   2.253   0.538  2.2754  0.2804 -0.6945
 6584TIP3    H219759   5.427   2.108   0.545 -0.0408 -0.4647 -0.9290
 6585TIP3   OH219760   4.606   2.446   1.441 -0.0373 -0.0602  0.1060
 6585TIP3    H119761   4.660   2.475   1.367 -0.2882 -0.1866 -0.1303
 6585TIP3    H219762   4.551   2.377   1.404  1.8517 -2.2097  1.1085
 6586TIP3   OH219763   5.483   1.360   4.583  0.2803  0.1135  0.0479
 6586TIP3    H119764   5.469   1.383   4.491 -2.5963 -0.0535  0.3343
 6586TIP3    H219765   5.433   1.279   4.596 -0.4670  0.8085  2.0055
 6587TIP3   OH219766   1.039   4.204   0.433 -0.0203  0.2685  0.2172
 6587TIP3    H119767   1.129   4.217   0.403  1.3761 -0.4885  3.6679
 6587TIP3    H219768   1.002   4.292   0.435  1.2412  0.8149  0.4299
 6588TIP3   OH219769   3.042   0.312   2.346  0.2479  0.1337  0.0710
 6588TIP3    H119770   3.021   0.249   2.415  1.0640  1.7314  1.9008
 6588TIP3    H219771   3.135   0.331   2.359  0.3479  0.6722 -1.3152
 6589TIP3   OH219772   3.602   2.658   0.257  0.1888 -0.1919  0.0126
 6589TIP3    H119773   3.576   2.599   0.328  0.8398  0.0576  0.4667
 6589TIP3    H219774   3.668   2.715   0.296 -0.7690  1.1625 -0.2863
 6590TIP3   OH219775   3.292   0.755   2.961  0.1184 -0.1694 -0.3869
 6590TIP3    H119776   3.295   0.845   2.931 -1.5706 -0.2831 -1.0272
 6590TIP3    H219777   3.294   0.761   3.057 -0.8697  0.6292 -0.3925
 6591TIP3   OH219778   2.818   0.942   4.804 -0.0304  0.5885  0.5326
 6591TIP3    H119779   2.825   0.936   4.900  1.5438  1.6036  0.5223
 6591TIP3    H219780   2.740   0.996   4.789 -0.3284  0.3656  1.2428
 6592TIP3   OH219781   5.356   1.141   2.437 -0.1922  0.3216 -0.4982
 6592TIP3    H119782   5.357   1.235   2.418 -1.2158  0.9833  2.3054
 6592TIP3    H219783   5.279   1.108   2.391 -0.0569  0.9310 -1.1773
 6593TIP3   OH219784   4.372   0.670   3.093  0.2276 -0.4033 -0.1286
 6593TIP3    H119785   4.322   0.672   3.012  0.5993 -0.1034 -0.3559
 6593TIP3    H219786   4.448   0.726   3.076 -0.1460  0.3847  0.7253
 6594TIP3   OH219787   4.187   5.320   4.199  0.0411 -0.3291 -0.5224
 6594TIP3    H119788   4.109   5.271   4.174 -1.2194  1.8775 -1.1989
 6594TIP3    H219789   4.207   5.374   4.123 -1.0518  3.0815  1.3981
 6595TIP3   OH219790   3.963   3.213   4.989 -0.4351 -0.3824  0.5352
 6595TIP3    H119791   3.905   3.289   4.988 -1.3195 -0.9376  3.1645
 6595TIP3    H219792   3.988   3.203   5.081  0.3178 -2.7728  0.1313
 6596TIP3   OH219793   1.409   2.251   4.345  0.1723 -0.1517  0.3484
 6596TIP3    H119794   1.410   2.242   4.250  1.1149 -1.9119  0.4872
 6596TIP3    H219795   1.457   2.332   4.362  0.3073 -0.0110 -0.6571
 6597TIP3   OH219796   5.408   1.157   4.148  0.2646 -0.3601  0.2146
 6597TIP3    H119797   5.335   1.144   4.088  0.3060 -0.1755  0.1216
 6597TIP3    H219798   5.483   1.175   4.091  0.7007 -1.9672  0.2566
 6598TIP3   OH219799   5.757   0.832   2.916  0.2498  0.3372  0.2552
 6598TIP3    H119800   5.743   0.738   2.930  1.0659  0.4635  2.1505
 6598TIP3    H219801   5.684   0.859   2.860  0.5383 -1.5960 -1.1558
 6599TIP3   OH219802   2.112   3.800   2.919  0.2204  0.6838  0.0542
 6599TIP3    H119803   2.164   3.878   2.900 -0.7702  1.0987 -1.0611
 6599TIP3    H219804   2.117   3.749   2.838 -0.0267  0.0923  0.4070
 6600TIP3   OH219805   2.324   5.284   4.715 -0.4069 -0.1412  0.8963
 6600TIP3    H119806   2.303   5.331   4.634 -0.4320 -0.0100  0.9787
 6600TIP3    H219807   2.354   5.352   4.775  1.4713 -0.4472  0.3881
 6601TIP3   OH219808   3.960   3.111   4.364 -0.0019  0.1565 -0.0013
 6601TIP3    H119809   3.976   3.125   4.457 -0.7338  0.6860  0.0568
 6601TIP3    H219810   4.011   3.178   4.320  0.1651  0.0498  0.0296
 6602TIP3   OH219811   6.118   1.527   4.766 -0.0812 -0.2401 -0.5471
 6602TIP3    H119812   6.060   1.537   4.841 -0.9564 -0.9339 -1.1182
 6602TIP3    H219813   6.151   1.437   4.772 -0.8195 -0.5868 -1.4424
 6603TIP3   OH219814   2.639   5.109   2.172 -0.7771  0.3945 -0.0082
 6603TIP3    H119815   2.632   5.128   2.079 -0.0889 -0.3971 -0.2362
 6603TIP3    H219816   2.723   5.146   2.198 -1.5740  1.8351  0.6279
 6604TIP3   OH219817   4.887   4.785   2.881  0.5970  0.1943  0.2224
 6604TIP3    H119818   4.843   4.868   2.860  1.1366  0.4114 -0.0904
 6604TIP3    H219819   4.969   4.812   2.923  0.6594 -0.1887  0.3443
 6605TIP3   OH219820   1.760   5.966   0.103  0.5214  0.1343 -0.0818
 6605TIP3    H119821   1.785   5.874   0.099 -0.8416 -0.3150  0.9469
 6605TIP3    H219822   1.664   5.966   0.099  0.4955  1.4990 -0.0637
 6606TIP3   OH219823   3.870   3.836   0.288 -0.2102  0.1507  0.4549
 6606TIP3    H119824   3.779   3.849   0.315 -0.2120 -1.2574  1.2577
 6606TIP3    H219825   3.864   3.783   0.208 -0.0981 -0.1065  0.6161
 6607TIP3   OH219826   5.304   1.789   4.136 -0.4804  0.2700 -0.2708
 6607TIP3    H119827   5.262   1.854   4.193  3.0655  2.0297  0.6296
 6607TIP3    H219828   5.309   1.832   4.051  0.0988  0.3984 -0.1783
 6608TIP3   OH219829   2.907   1.379   1.714  0.0705 -0.1754 -0.2533
 6608TIP3    H119830   2.936   1.468   1.732 -0.0353  0.3106 -2.2255
 6608TIP3    H219831   2.986   1.334   1.684 -0.0373 -0.5274 -0.0189
 6609TIP3   OH219832   4.956   4.100   2.713 -0.2550 -0.2451  0.0412
 6609TIP3    H119833   4.960   4.033   2.782  0.9154 -0.2303  0.0192
 6609TIP3    H219834   4.964   4.183   2.760  2.6412 -0.2848 -0.1687
 6610TIP3   OH219835   1.349   1.567   3.240 -0.0914 -0.2669  0.3384
 6610TIP3    H119836   1.366   1.661   3.240 -0.8495 -0.1066 -0.7328
 6610TIP3    H219837   1.342   1.544   3.147 -1.7937 -1.0079  0.6117
 6611TIP3   OH219838   1.691   3.624   1.930  0.3086  0.0565 -0.0258
 6611TIP3    H119839   1.773   3.618   1.979  0.6859  0.7382 -0.5572
 6611TIP3    H219840   1.716   3.610   1.839  0.1402  1.9720 -0.4200
 6612TIP3   OH219841   5.320   5.438   3.362  0.2544  0.1594 -0.3926
 6612TIP3    H119842   5.374   5.372   3.321  0.8586  1.5381 -1.9262
 6612TIP3    H219843   5.378   5.480   3.426 -1.2714 -3.4622  3.9036
 6613TIP3   OH219844   6.012   0.673   3.948 -0.4027 -0.4974  0.2616
 6613TIP3    H119845   6.074   0.607   3.979 -0.1450 -0.4510 -0.1574
 6613TIP3    H219846   6.001   0.732   4.023  0.0458 -0.5133  0.3407
 6614TIP3   OH219847   1.370   4.256   3.099 -0.0687 -0.4994  0.6816
 6614TIP3    H119848   1.280   4.265   3.129 -0.4298 -1.4377 -0.0586
 6614TIP3    H219849   1.410   4.342   3.116 -1.9574  1.0040 -1.8236
 6615TIP3   OH219850   6.132   1.651   3.628 -0.5565 -0.3079 -0.1223
 6615TIP3    H119851   6.218   1.621   3.601  0.2680  1.3221  0.5891
 6615TIP3    H219852   6.077   1.572   3.623  1.4004 -1.8688  1.3407
 6616TIP3   OH219853   2.473   2.177   3.205 -0.1239 -0.1318  0.0103
 6616TIP3    H119854   2.440   2.158   3.118  0.4542  0.6503 -0.3950
 6616TIP3    H219855   2.410   2.238   3.243 -0.9642 -1.3239  0.5783
 6617TIP3   OH219856   5.019   5.530   0.525 -0.0953 -0.1375 -0.0882
 6617TIP3    H119857   5.108   5.540   0.492 -0.7131 -2.1415 -2.7052
 6617TIP3    H219858   5.023   5.454   0.584 -0.1143 -0.3290 -0.3354
 6618TIP3   OH219859   1.039   2.184   3.211  0.4224  0.0327  0.2444
 6618TIP3    H119860   0.974   2.156   3.146  1.5890 -0.2862 -0.8263
 6618TIP3    H219861   1.009   2.271   3.239 -1.6214 -0.9743  1.3894
 6619TIP3   OH219862   0.685   1.336   2.001 -0.1168 -0.3525  0.5744
 6619TIP3    H119863   0.729   1.283   1.934  0.3173  0.4411  0.2083
 6619TIP3    H219864   0.674   1.422   1.960 -0.7010 -0.1217  1.1937
 6620TIP3   OH219865   2.774   0.952   0.942  0.5869 -0.3558  0.4122
 6620TIP3    H119866   2.856   0.966   0.895  0.8134  0.5400  1.0417
 6620TIP3    H219867   2.797   0.888   1.011  0.4578 -1.0171 -0.1480
 6621TIP3   OH219868   0.883   0.086   4.637 -0.3483 -0.7093 -0.3078
 6621TIP3    H119869   0.836   0.007   4.610  1.5286 -1.6028 -1.1923
 6621TIP3    H219870   0.921   0.119   4.555 -1.4941  1.4234 -0.0339
 6622TIP3   OH219871   2.484   0.833   3.500 -0.0930  0.1729  0.1736
 6622TIP3    H119872   2.511   0.766   3.438  0.5420  0.3203  0.2883
 6622TIP3    H219873   2.388   0.835   3.492 -0.0699 -0.2808 -0.3031
 6623TIP3   OH219874   0.417   1.200   3.949  0.3449  0.1836 -0.2327
 6623TIP3    H119875   0.436   1.232   4.037  0.8431 -1.3573  0.2601
 6623TIP3    H219876   0.349   1.134   3.962  1.0650 -0.7096 -0.8683
 6624TIP3   OH219877   1.290   5.902   0.900  0.3633 -0.0447 -0.1158
 6624TIP3    H119878   1.334   5.948   0.829  0.9759 -2.1331 -1.1738
 6624TIP3    H219879   1.200   5.891   0.870  0.1544  0.6227  0.2410
 6625TIP3   OH219880   3.039   2.267   2.738  0.4006  0.0875  0.7384
 6625TIP3    H119881   3.061   2.175   2.752 -1.8301 -0.2762  2.4788
 6625TIP3    H219882   2.964   2.282   2.795  1.3636  3.2981  1.3310
 6626TIP3   OH219883   5.087   2.584   0.379  0.1904  0.1237  0.2193
 6626TIP3    H119884   5.108   2.538   0.461  1.7561 -0.8259 -0.6662
 6626TIP3    H219885   5.154   2.652   0.373  0.5481 -0.2893 -0.6152
 6627TIP3   OH219886   5.855   0.333   1.166  0.1657 -0.1801 -0.2565
 6627TIP3    H119887   5.770   0.356   1.205  0.6858  1.3247  0.0225
 6627TIP3    H219888   5.834   0.315   1.074 -0.1997  2.1836 -0.6989
 6628TIP3   OH219889   1.498   1.084   4.488  0.2677  0.0400 -0.1920
 6628TIP3    H119890   1.436   1.093   4.416 -0.4158  1.0326  0.4779
 6628TIP3    H219891   1.452   1.031   4.553  0.8585 -0.8066 -0.4609
 6629TIP3   OH219892   1.885   2.310   3.458  0.0737 -0.3041  0.0431
 6629TIP3    H119893   1.926   2.333   3.542  1.2303 -0.2350 -0.5296
 6629TIP3    H219894   1.904   2.217   3.447 -0.0899 -0.3166 -0.1382
 6630TIP3   OH219895   2.995   5.561   0.463 -0.3293 -0.1877  0.1290
 6630TIP3    H119896   3.018   5.519   0.380  0.6101  0.1460  0.2138
 6630TIP3    H219897   2.993   5.654   0.443 -1.1807 -0.1746  0.2359
 6631TIP3   OH219898   4.169   5.717   1.392 -0.1993  0.2234  0.2963
 6631TIP3    H119899   4.135   5.806   1.393  0.0193  0.3121  1.0210
 6631TIP3    H219900   4.158   5.686   1.482 -0.5796 -0.6061 -0.0219
 6632TIP3   OH219901   5.351   5.870   0.723  0.0259 -0.0961  0.3895
 6632TIP3    H119902   5.294   5.793   0.730  1.3564 -1.0983  0.6634
 6632TIP3    H219903   5.310   5.924   0.656 -0.6311 -1.3267 -0.2401
 6633TIP3   OH219904   4.914   0.186   0.282 -0.0982 -0.3501 -0.2710
 6633TIP3    H119905   4.839   0.128   0.269  0.5297 -1.2291 -0.0789
 6633TIP3    H219906   4.878   0.274   0.271 -0.6063 -0.8016 -3.0947
 6634TIP3   OH219907   3.802   0.442   2.072 -0.0425 -0.0682 -0.0663
 6634TIP3    H119908   3.878   0.435   2.130  0.8851  0.4253 -1.1612
 6634TIP3    H219909   3.733   0.393   2.116  0.7143  0.0275  1.2802
 6635TIP3   OH219910   5.384   1.632   3.507 -0.2144 -0.4311  0.0186
 6635TIP3    H119911   5.356   1.723   3.495 -1.2468 -0.6341  0.6974
 6635TIP3    H219912   5.474   1.629   3.474 -0.1268  0.8649  0.1078
 6636TIP3   OH219913   5.089   4.476   1.898 -0.0771  0.1941 -0.0141
 6636TIP3    H119914   5.060   4.402   1.951 -0.4864  0.5638  0.2920
 6636TIP3    H219915   5.048   4.552   1.939 -0.1739  0.5217 -0.6939
 6637TIP3   OH219916   2.274   2.769   3.835 -0.0641 -0.4584 -0.1207
 6637TIP3    H119917   2.214   2.842   3.821 -1.8206 -1.3004  2.3162
 6637TIP3    H219918   2.251   2.706   3.766  0.0287  0.3865 -0.9501
 6638TIP3   OH219919   4.887   2.491   3.465 -0.0918  0.2558 -0.0489
 6638TIP3    H119920   4.881   2.557   3.396 -0.8445 -0.2848 -0.5233
 6638TIP3    H219921   4.957   2.522   3.522 -0.8706  1.8043  0.1079
 6639TIP3   OH219922   4.849   4.191   4.598  0.4024  0.0028 -0.1635
 6639TIP3    H119923   4.825   4.107   4.638  3.8608 -1.7347 -1.2963
 6639TIP3    H219924   4.831   4.179   4.504  0.1722  0.8658 -0.2386
 6640TIP3   OH219925   3.252   4.239   3.590  0.0160 -0.0990 -0.1588
 6640TIP3    H119926   3.273   4.146   3.591  1.8542  0.2698 -0.3826
 6640TIP3    H219927   3.167   4.246   3.633  0.4755 -1.7285  1.0747
 6641TIP3   OH219928   2.504   1.633   3.229 -0.1076  0.0458 -0.1556
 6641TIP3    H119929   2.519   1.650   3.322  1.1247  0.7174 -0.4598
 6641TIP3    H219930   2.590   1.610   3.195 -1.0544 -3.7191 -0.4516
 6642TIP3   OH219931   2.828   5.434   3.494  0.0370  0.2133 -0.0486
 6642TIP3    H119932   2.843   5.384   3.574  1.6293 -1.8714 -1.5227
 6642TIP3    H219933   2.916   5.458   3.464 -0.5797  1.7947 -0.6899
 6643TIP3   OH219934   1.216   2.701   4.102 -0.2939 -0.7537  0.0515
 6643TIP3    H119935   1.200   2.609   4.125  0.0488 -1.1426 -1.1744
 6643TIP3    H219936   1.214   2.747   4.185 -1.8221 -1.6629  0.5518
 6644TIP3   OH219937   4.146   4.581   3.593  0.8437  0.0046 -0.3580
 6644TIP3    H119938   4.217   4.526   3.628 -0.1472 -0.8496  0.3707
 6644TIP3    H219939   4.076   4.574   3.658  0.4643  1.6846 -0.5432
 6645TIP3   OH219940   1.286   0.600   3.745 -0.3459 -0.2413 -0.0794
 6645TIP3    H119941   1.229   0.537   3.700 -1.1576 -0.7013  1.5056
 6645TIP3    H219942   1.337   0.547   3.806  2.8375 -0.0269 -2.3221
   6.34837   5.98530   5.18342   0.00000   0.00000  -2.11613   0.00000  -2.11613  -2.99265
