Title t= 208.00000 step= 104000
29212
    1ASP      N    1   2.450   1.449   2.640
    1ASP    HT1    2   2.432   1.482   2.737
    1ASP    HT2    3   2.416   1.525   2.578
    1ASP    HT3    4   2.550   1.427   2.626
    1ASP     CA    5   2.377   1.314   2.608
    1ASP     HA    6   2.372   1.294   2.502
    1ASP     CB    7   2.452   1.204   2.679
    1ASP    HB1    8   2.402   1.104   2.676
    1ASP    HB2    9   2.451   1.226   2.788
    1ASP     CG   10   2.591   1.178   2.627
    1ASP    OD1   11   2.635   1.240   2.532
    1ASP    OD2   12   2.671   1.103   2.685
    1ASP      C   13   2.238   1.327   2.661
    1ASP      O   14   2.192   1.432   2.698
    2GLY      N   15   2.160   1.213   2.671
    2GLY     HN   16   2.199   1.122   2.659
    2GLY     CA   17   2.017   1.204   2.705
    2GLY    HA1   18   2.009   1.268   2.792
    2GLY    HA2   19   1.980   1.104   2.724
    2GLY      C   20   1.928   1.265   2.597
    2GLY      O   21   1.977   1.306   2.486
    3ASP      N   22   1.793   1.270   2.615
    3ASP     HN   23   1.745   1.241   2.697
    3ASP     CA   24   1.711   1.343   2.519
    3ASP     HA   25   1.739   1.315   2.418
    3ASP     CB   26   1.561   1.315   2.529
    3ASP    HB1   27   1.500   1.376   2.459
    3ASP    HB2   28   1.527   1.339   2.632
    3ASP     CG   29   1.518   1.168   2.516
    3ASP    OD1   30   1.419   1.121   2.570
    3ASP    OD2   31   1.590   1.092   2.444
    3ASP      C   32   1.732   1.495   2.524
    3ASP      O   33   1.764   1.552   2.631
    4GLY      N   34   1.715   1.557   2.407
    4GLY     HN   35   1.692   1.497   2.331
    4GLY     CA   36   1.746   1.698   2.375
    4GLY    HA1   37   1.768   1.712   2.270
    4GLY    HA2   38   1.833   1.722   2.434
    4GLY      C   39   1.636   1.798   2.396
    4GLY      O   40   1.540   1.761   2.458
    5PRO      N   41   1.651   1.926   2.363
    5PRO     CD   42   1.784   1.981   2.326
    5PRO    HD1   43   1.806   1.935   2.227
    5PRO    HD2   44   1.866   1.942   2.391
    5PRO     CA   45   1.558   2.030   2.380
    5PRO     HA   46   1.567   2.053   2.485
    5PRO     CB   47   1.618   2.139   2.295
    5PRO    HB1   48   1.586   2.240   2.329
    5PRO    HB2   49   1.601   2.120   2.186
    5PRO     CG   50   1.765   2.137   2.323
    5PRO    HG1   51   1.817   2.180   2.235
    5PRO    HG2   52   1.795   2.177   2.422
    5PRO      C   53   1.411   1.996   2.357
    5PRO      O   54   1.378   1.933   2.256
    6GLY      N   55   1.319   2.036   2.450
    6GLY     HN   56   1.347   2.084   2.533
    6GLY     CA   57   1.172   2.025   2.444
    6GLY    HA1   58   1.140   1.927   2.476
    6GLY    HA2   59   1.136   2.045   2.344
    6GLY      C   60   1.106   2.123   2.545
    6GLY      O   61   1.180   2.214   2.589
    7ASP      N   62   0.974   2.112   2.571
    7ASP     HN   63   0.921   2.040   2.525
    7ASP     CA   64   0.906   2.188   2.680
    7ASP     HA   65   0.936   2.290   2.663
    7ASP     CB   66   0.755   2.161   2.676
    7ASP    HB1   67   0.713   2.210   2.767
    7ASP    HB2   68   0.736   2.053   2.660
    7ASP     CG   69   0.686   2.233   2.562
    7ASP    OD1   70   0.569   2.202   2.535
    7ASP    OD2   71   0.749   2.319   2.496
    7ASP      C   72   0.978   2.162   2.821
    7ASP      O   73   1.020   2.049   2.844
    8PRO      N   74   0.993   2.258   2.914
    8PRO     CD   75   0.927   2.387   2.909
    8PRO    HD1   76   0.817   2.375   2.909
    8PRO    HD2   77   0.952   2.439   2.814
    8PRO     CA   78   1.038   2.232   3.053
    8PRO     HA   79   1.146   2.230   3.042
    8PRO     CB   80   0.994   2.357   3.129
    8PRO    HB1   81   1.054   2.397   3.214
    8PRO    HB2   82   0.894   2.337   3.174
    8PRO     CG   83   0.986   2.469   3.020
    8PRO    HG1   84   0.911   2.546   3.051
    8PRO    HG2   85   1.078   2.511   2.976
    8PRO      C   86   1.015   2.100   3.128
    8PRO      O   87   0.898   2.051   3.129
    9GLY      N   88   1.119   2.047   3.187
    9GLY     HN   89   1.208   2.090   3.171
    9GLY     CA   90   1.117   1.932   3.283
    9GLY    HA1   91   1.218   1.913   3.319
    9GLY    HA2   92   1.085   1.847   3.226
    9GLY      C   93   1.039   1.939   3.406
    9GLY      O   94   0.987   2.041   3.448
   10ASP      N   95   1.035   1.821   3.472
   10ASP     HN   96   1.090   1.745   3.439
   10ASP     CA   97   0.960   1.793   3.596
   10ASP     HA   98   0.857   1.820   3.580
   10ASP     CB   99   0.975   1.645   3.634
   10ASP    HB1  100   0.925   1.623   3.730
   10ASP    HB2  101   1.082   1.623   3.658
   10ASP     CG  102   0.928   1.552   3.530
   10ASP    OD1  103   0.848   1.588   3.436
   10ASP    OD2  104   0.967   1.428   3.529
   10ASP      C  105   1.011   1.866   3.723
   10ASP      O  106   1.104   1.821   3.792
   11GLY      N  107   0.946   1.983   3.753
   11GLY     HN  108   0.876   2.023   3.694
   11GLY     CA  109   0.975   2.074   3.862
   11GLY    HA1  110   0.997   2.002   3.939
   11GLY    HA2  111   0.888   2.134   3.884
   11GLY      C  112   1.101   2.155   3.844
   11GLY    OT1  113   1.117   2.222   3.739
   11GLY    OT2  114   1.181   2.168   3.935
   12LIT    LIT  115   7.061   1.202   1.330
   13LIT    LIT  116   5.078   6.431   0.921
   14LIT    LIT  117   5.083   1.956   5.503
   15LIT    LIT  118   0.178   5.883   2.570
   16LIT    LIT  119   1.244   2.334   3.831
   17LIT    LIT  120   4.533   6.776   2.978
   18LIT    LIT  121   3.325   3.411   3.982
   19LIT    LIT  122   1.635   4.205   0.543
   20LIT    LIT  123   0.079   1.989   5.204
   21LIT    LIT  124   7.212   6.302   3.923
   22LIT    LIT  125   5.301   1.577   4.295
   23LIT    LIT  126   6.380   0.454   1.230
   24LIT    LIT  127   5.899   4.661   5.564
   25LIT    LIT  128   0.090   2.336   2.635
   26LIT    LIT  129   0.854   1.394   3.388
   27LIT    LIT  130   2.707   1.116   3.338
   28LIT    LIT  131   2.030   5.374   5.153
   29LIT    LIT  132   5.426   3.126   3.683
   30LIT    LIT  133   6.624   1.567   1.948
   31LIT    LIT  134   4.645   1.253   1.992
   32LIT    LIT  135   5.009   2.997   0.227
   33LIT    LIT  136   3.801   4.263   2.580
   34LIT    LIT  137   5.419   0.953   4.204
   35LIT    LIT  138   1.184   1.567   2.385
   36LIT    LIT  139   6.190   5.902   2.916
   37LIT    LIT  140   0.944   2.913   0.341
   38LIT    LIT  141   7.083   0.339   0.694
   39LIT    LIT  142   2.782   1.116   2.532
   40LIT    LIT  143   1.889   4.827   1.739
   41LIT    LIT  144   2.070   1.887   4.846
   42LIT    LIT  145   1.468   0.947   2.489
   43CLA    CLA  146   1.904   5.035   1.837
   44CLA    CLA  147   3.534   0.945   4.485
   45CLA    CLA  148   2.239   3.634   3.334
   46CLA    CLA  149   5.535   3.725   0.532
   47CLA    CLA  150   0.697   1.627   2.307
   48CLA    CLA  151   3.841   6.561   1.809
   49CLA    CLA  152   1.931   4.464   3.233
   50CLA    CLA  153   0.562   2.829   1.571
   51CLA    CLA  154   6.660   2.026   2.598
   52CLA    CLA  155   3.614   4.614   3.104
   53CLA    CLA  156   2.293   2.019   3.822
   54CLA    CLA  157   3.377   1.500   1.175
   55CLA    CLA  158   5.710   1.452   4.875
   56CLA    CLA  159   0.084   1.350   4.598
   57CLA    CLA  160   4.704   3.013   4.760
   58CLA    CLA  161   3.620   4.236   2.437
   59CLA    CLA  162   4.578   0.848   2.825
   60CLA    CLA  163   2.343   0.018   3.193
   61CLA    CLA  164   1.244   0.306   1.370
   62CLA    CLA  165   1.716   0.579   2.719
   63CLA    CLA  166   2.165   5.091   4.584
   64CLA    CLA  167   3.416   3.789   0.239
   65CLA    CLA  168   6.668   4.005   4.721
   66CLA    CLA  169   0.807   5.010   2.986
   67CLA    CLA  170   5.881   1.281   1.138
   68CLA    CLA  171   3.846   5.399   5.523
   69CLA    CLA  172   3.219   5.277   3.517
   70TIP3   OH2  173   3.899   4.369  -0.023
   70TIP3    H1  174   3.965   4.420   0.023
   70TIP3    H2  175   3.852   4.322   0.046
   71TIP3   OH2  176   3.789   1.146   2.681
   71TIP3    H1  177   3.844   1.079   2.722
   71TIP3    H2  178   3.727   1.096   2.627
   72TIP3   OH2  179   1.052   5.137   3.119
   72TIP3    H1  180   0.972   5.110   3.073
   72TIP3    H2  181   1.095   5.055   3.143
   73TIP3   OH2  182   5.570   4.479   5.487
   73TIP3    H1  183   5.562   4.569   5.455
   73TIP3    H2  184   5.552   4.484   5.580
   74TIP3   OH2  185   2.579   5.636   5.014
   74TIP3    H1  186   2.556   5.664   4.925
   74TIP3    H2  187   2.539   5.701   5.071
   75TIP3   OH2  188   5.415   4.070   1.359
   75TIP3    H1  189   5.408   3.975   1.366
   75TIP3    H2  190   5.500   4.091   1.399
   76TIP3   OH2  191   2.316   5.757   5.430
   76TIP3    H1  192   2.354   5.726   5.348
   76TIP3    H2  193   2.290   5.677   5.476
   77TIP3   OH2  194   4.437   2.724   0.794
   77TIP3    H1  195   4.430   2.686   0.882
   77TIP3    H2  196   4.357   2.696   0.749
   78TIP3   OH2  197   2.764   5.105   2.323
   78TIP3    H1  198   2.669   5.116   2.332
   78TIP3    H2  199   2.774   5.014   2.295
   79TIP3   OH2  200   7.136   5.456   5.173
   79TIP3    H1  201   7.079   5.402   5.117
   79TIP3    H2  202   7.093   5.541   5.176
   80TIP3   OH2  203   5.186   2.515   1.292
   80TIP3    H1  204   5.105   2.466   1.305
   80TIP3    H2  205   5.248   2.451   1.258
   81TIP3   OH2  206   0.228   4.155   2.828
   81TIP3    H1  207   0.309   4.108   2.844
   81TIP3    H2  208   0.245   4.207   2.749
   82TIP3   OH2  209   3.190   5.033   5.442
   82TIP3    H1  210   3.167   4.943   5.467
   82TIP3    H2  211   3.160   5.087   5.516
   83TIP3   OH2  212   2.539   5.562   4.547
   83TIP3    H1  213   2.472   5.496   4.561
   83TIP3    H2  214   2.608   5.517   4.499
   84TIP3   OH2  215   4.170   2.790   4.505
   84TIP3    H1  216   4.220   2.849   4.449
   84TIP3    H2  217   4.236   2.744   4.557
   85TIP3   OH2  218   0.240   0.595   3.314
   85TIP3    H1  219   0.266   0.508   3.342
   85TIP3    H2  220   0.269   0.653   3.385
   86TIP3   OH2  221   1.579   0.161   0.681
   86TIP3    H1  222   1.635   0.226   0.640
   86TIP3    H2  223   1.526   0.210   0.744
   87TIP3   OH2  224   4.642   5.640   1.240
   87TIP3    H1  225   4.553   5.642   1.273
   87TIP3    H2  226   4.692   5.696   1.300
   88TIP3   OH2  227   1.713   5.064   3.656
   88TIP3    H1  228   1.793   5.102   3.618
   88TIP3    H2  229   1.729   4.970   3.657
   89TIP3   OH2  230   1.756   0.095   1.730
   89TIP3    H1  231   1.669   0.115   1.764
   89TIP3    H2  232   1.744   0.014   1.680
   90TIP3   OH2  233   4.232   2.944   1.667
   90TIP3    H1  234   4.241   2.867   1.722
   90TIP3    H2  235   4.139   2.950   1.648
   91TIP3   OH2  236   4.388   3.804   5.309
   91TIP3    H1  237   4.394   3.709   5.315
   91TIP3    H2  238   4.413   3.835   5.397
   92TIP3   OH2  239   1.538   6.531   0.550
   92TIP3    H1  240   1.622   6.503   0.514
   92TIP3    H2  241   1.545   6.512   0.643
   93TIP3   OH2  242   0.288   6.748   4.148
   93TIP3    H1  243   0.283   6.677   4.085
   93TIP3    H2  244   0.339   6.816   4.104
   94TIP3   OH2  245   2.267   4.681   0.287
   94TIP3    H1  246   2.285   4.769   0.317
   94TIP3    H2  247   2.329   4.625   0.335
   95TIP3   OH2  248   1.741   3.742   5.608
   95TIP3    H1  249   1.756   3.653   5.637
   95TIP3    H2  250   1.676   3.734   5.538
   96TIP3   OH2  251   0.169   6.214   2.964
   96TIP3    H1  252   0.206   6.296   2.997
   96TIP3    H2  253   0.088   6.203   3.015
   97TIP3   OH2  254   1.757   5.262   3.897
   97TIP3    H1  255   1.765   5.196   3.829
   97TIP3    H2  256   1.833   5.247   3.954
   98TIP3   OH2  257   0.436   3.250   1.821
   98TIP3    H1  258   0.505   3.202   1.776
   98TIP3    H2  259   0.446   3.340   1.791
   99TIP3   OH2  260   2.284   4.356   3.477
   99TIP3    H1  261   2.205   4.323   3.521
   99TIP3    H2  262   2.353   4.294   3.501
  100TIP3   OH2  263   3.674   5.605   5.355
  100TIP3    H1  264   3.718   5.566   5.431
  100TIP3    H2  265   3.653   5.531   5.299
  101TIP3   OH2  266   6.255   3.252   2.912
  101TIP3    H1  267   6.262   3.270   2.819
  101TIP3    H2  268   6.345   3.238   2.941
  102TIP3   OH2  269   1.023   5.704   5.753
  102TIP3    H1  270   0.947   5.652   5.725
  102TIP3    H2  271   1.076   5.642   5.804
  103TIP3   OH2  272   0.097   0.745   0.725
  103TIP3    H1  273   0.162   0.685   0.689
  103TIP3    H2  274   0.097   0.819   0.664
  104TIP3   OH2  275   6.171   3.241   4.578
  104TIP3    H1  276   6.114   3.181   4.530
  104TIP3    H2  277   6.188   3.198   4.661
  105TIP3   OH2  278   5.556   1.682   2.485
  105TIP3    H1  279   5.585   1.601   2.525
  105TIP3    H2  280   5.479   1.708   2.536
  106TIP3   OH2  281   4.753   6.023   4.116
  106TIP3    H1  282   4.724   6.061   4.198
  106TIP3    H2  283   4.817   5.957   4.141
  107TIP3   OH2  284   3.178   0.036   5.070
  107TIP3    H1  285   3.212   0.122   5.091
  107TIP3    H2  286   3.119   0.014   5.142
  108TIP3   OH2  287   3.694   5.985   1.236
  108TIP3    H1  288   3.745   5.925   1.290
  108TIP3    H2  289   3.740   5.988   1.152
  109TIP3   OH2  290   6.858   4.215   4.862
  109TIP3    H1  291   6.946   4.186   4.836
  109TIP3    H2  292   6.799   4.152   4.820
  110TIP3   OH2  293   6.099   6.339   4.293
  110TIP3    H1  294   6.016   6.303   4.326
  110TIP3    H2  295   6.159   6.334   4.367
  111TIP3   OH2  296   0.066   2.937   0.699
  111TIP3    H1  297  -0.002   3.005   0.692
  111TIP3    H2  298   0.017   2.855   0.700
  112TIP3   OH2  299   2.576   5.801   0.768
  112TIP3    H1  300   2.593   5.778   0.860
  112TIP3    H2  301   2.637   5.872   0.750
  113TIP3   OH2  302   0.941   5.037   1.707
  113TIP3    H1  303   0.897   5.017   1.789
  113TIP3    H2  304   0.931   5.132   1.696
  114TIP3   OH2  305   1.713   1.874   5.401
  114TIP3    H1  306   1.711   1.794   5.454
  114TIP3    H2  307   1.796   1.915   5.424
  115TIP3   OH2  308   1.900   6.752   3.274
  115TIP3    H1  309   1.859   6.742   3.188
  115TIP3    H2  310   1.841   6.706   3.334
  116TIP3   OH2  311   6.059   6.736   4.757
  116TIP3    H1  312   6.149   6.708   4.775
  116TIP3    H2  313   6.064   6.832   4.755
  117TIP3   OH2  314   6.641   0.121   1.970
  117TIP3    H1  315   6.584   0.065   1.917
  117TIP3    H2  316   6.686   0.177   1.906
  118TIP3   OH2  317   6.064   2.154   0.334
  118TIP3    H1  318   6.124   2.224   0.310
  118TIP3    H2  319   5.993   2.160   0.269
  119TIP3   OH2  320   2.632   1.752   2.932
  119TIP3    H1  321   2.577   1.675   2.924
  119TIP3    H2  322   2.598   1.799   3.008
  120TIP3   OH2  323   2.189   4.416   1.900
  120TIP3    H1  324   2.173   4.473   1.975
  120TIP3    H2  325   2.268   4.451   1.860
  121TIP3   OH2  326   2.012   6.577   0.225
  121TIP3    H1  327   2.006   6.578   0.130
  121TIP3    H2  328   1.923   6.597   0.255
  122TIP3   OH2  329   4.806   4.571   2.492
  122TIP3    H1  330   4.777   4.494   2.539
  122TIP3    H2  331   4.763   4.645   2.536
  123TIP3   OH2  332   4.152   0.467   5.261
  123TIP3    H1  333   4.181   0.376   5.267
  123TIP3    H2  334   4.196   0.501   5.183
  124TIP3   OH2  335   1.534   4.304   5.543
  124TIP3    H1  336   1.480   4.304   5.464
  124TIP3    H2  337   1.566   4.214   5.550
  125TIP3   OH2  338   4.803   0.637   4.022
  125TIP3    H1  339   4.883   0.683   3.998
  125TIP3    H2  340   4.803   0.635   4.117
  126TIP3   OH2  341   7.073   5.006   2.132
  126TIP3    H1  342   7.096   5.093   2.101
  126TIP3    H2  343   7.089   4.949   2.057
  127TIP3   OH2  344   0.480   2.153   4.268
  127TIP3    H1  345   0.501   2.091   4.198
  127TIP3    H2  346   0.388   2.174   4.254
  128TIP3   OH2  347   1.205   1.531   5.162
  128TIP3    H1  348   1.111   1.543   5.172
  128TIP3    H2  349   1.218   1.519   5.068
  129TIP3   OH2  350   1.236   0.963   0.971
  129TIP3    H1  351   1.219   1.031   0.906
  129TIP3    H2  352   1.163   0.902   0.961
  130TIP3   OH2  353   4.899   6.570   2.822
  130TIP3    H1  354   4.909   6.487   2.869
  130TIP3    H2  355   4.963   6.565   2.751
  131TIP3   OH2  356   0.042   1.922   5.024
  131TIP3    H1  357  -0.048   1.891   5.012
  131TIP3    H2  358   0.093   1.870   4.962
  132TIP3   OH2  359   5.361   2.079   2.394
  132TIP3    H1  360   5.444   2.050   2.432
  132TIP3    H2  361   5.356   2.172   2.415
  133TIP3   OH2  362   1.346   2.958   3.625
  133TIP3    H1  363   1.314   3.036   3.579
  133TIP3    H2  364   1.342   2.889   3.559
  134TIP3   OH2  365   4.528   4.512   5.807
  134TIP3    H1  366   4.439   4.512   5.771
  134TIP3    H2  367   4.582   4.546   5.736
  135TIP3   OH2  368   0.408   5.851   4.574
  135TIP3    H1  369   0.370   5.811   4.652
  135TIP3    H2  370   0.409   5.781   4.509
  136TIP3   OH2  371   2.553   3.532   2.925
  136TIP3    H1  372   2.494   3.472   2.970
  136TIP3    H2  373   2.508   3.617   2.929
  137TIP3   OH2  374   3.227   6.078   3.746
  137TIP3    H1  375   3.145   6.051   3.786
  137TIP3    H2  376   3.229   6.173   3.757
  138TIP3   OH2  377   5.554   1.607   1.882
  138TIP3    H1  378   5.487   1.539   1.891
  138TIP3    H2  379   5.637   1.559   1.880
  139TIP3   OH2  380   6.459   2.340   5.165
  139TIP3    H1  381   6.494   2.275   5.225
  139TIP3    H2  382   6.402   2.395   5.219
  140TIP3   OH2  383   2.313   5.141   2.896
  140TIP3    H1  384   2.217   5.146   2.889
  140TIP3    H2  385   2.345   5.205   2.833
  141TIP3   OH2  386   5.206   2.216   0.626
  141TIP3    H1  387   5.294   2.213   0.590
  141TIP3    H2  388   5.197   2.304   0.662
  142TIP3   OH2  389   0.517   6.284   3.257
  142TIP3    H1  390   0.524   6.325   3.343
  142TIP3    H2  391   0.451   6.216   3.268
  143TIP3   OH2  392   0.185   5.368   2.492
  143TIP3    H1  393   0.187   5.286   2.443
  143TIP3    H2  394   0.185   5.341   2.584
  144TIP3   OH2  395   1.165   3.010   3.831
  144TIP3    H1  396   1.149   3.104   3.834
  144TIP3    H2  397   1.225   2.998   3.757
  145TIP3   OH2  398   5.473   4.497   3.836
  145TIP3    H1  399   5.496   4.463   3.922
  145TIP3    H2  400   5.377   4.500   3.836
  146TIP3   OH2  401   4.498   3.419   4.581
  146TIP3    H1  402   4.577   3.447   4.534
  146TIP3    H2  403   4.499   3.324   4.574
  147TIP3   OH2  404   3.911   4.562   0.832
  147TIP3    H1  405   3.982   4.625   0.846
  147TIP3    H2  406   3.851   4.577   0.904
  148TIP3   OH2  407   4.326   0.536   2.490
  148TIP3    H1  408   4.273   0.590   2.432
  148TIP3    H2  409   4.391   0.496   2.433
  149TIP3   OH2  410   6.820   1.797   4.743
  149TIP3    H1  411   6.912   1.822   4.749
  149TIP3    H2  412   6.821   1.702   4.742
  150TIP3   OH2  413   0.665   4.200   2.916
  150TIP3    H1  414   0.740   4.248   2.882
  150TIP3    H2  415   0.607   4.268   2.950
  151TIP3   OH2  416   1.197   1.684   4.457
  151TIP3    H1  417   1.186   1.779   4.463
  151TIP3    H2  418   1.284   1.672   4.419
  152TIP3   OH2  419   4.173   0.023   5.199
  152TIP3    H1  420   4.177   0.081   5.275
  152TIP3    H2  421   4.082   0.028   5.169
  153TIP3   OH2  422   1.144   3.307   4.763
  153TIP3    H1  423   1.189   3.312   4.679
  153TIP3    H2  424   1.106   3.220   4.765
  154TIP3   OH2  425   0.793   4.776   4.509
  154TIP3    H1  426   0.729   4.747   4.444
  154TIP3    H2  427   0.876   4.739   4.479
  155TIP3   OH2  428   3.564   4.383   4.511
  155TIP3    H1  429   3.571   4.335   4.594
  155TIP3    H2  430   3.643   4.437   4.508
  156TIP3   OH2  431   1.217   4.280   4.807
  156TIP3    H1  432   1.192   4.215   4.741
  156TIP3    H2  433   1.212   4.364   4.760
  157TIP3   OH2  434   0.190   6.416   1.162
  157TIP3    H1  435   0.144   6.333   1.168
  157TIP3    H2  436   0.274   6.400   1.205
  158TIP3   OH2  437   1.530   5.668   1.566
  158TIP3    H1  438   1.562   5.661   1.656
  158TIP3    H2  439   1.505   5.760   1.557
  159TIP3   OH2  440   4.767   0.425   1.061
  159TIP3    H1  441   4.718   0.345   1.038
  159TIP3    H2  442   4.700   0.485   1.093
  160TIP3   OH2  443   0.699   3.235   0.248
  160TIP3    H1  444   0.776   3.287   0.272
  160TIP3    H2  445   0.624   3.289   0.274
  161TIP3   OH2  446   6.214   1.928   1.557
  161TIP3    H1  447   6.144   1.878   1.515
  161TIP3    H2  448   6.272   1.954   1.486
  162TIP3   OH2  449   2.173   6.599   4.109
  162TIP3    H1  450   2.170   6.503   4.099
  162TIP3    H2  451   2.263   6.617   4.135
  163TIP3   OH2  452   1.253   5.638   3.793
  163TIP3    H1  453   1.244   5.718   3.740
  163TIP3    H2  454   1.304   5.579   3.738
  164TIP3   OH2  455   4.488   5.031   2.632
  164TIP3    H1  456   4.553   4.969   2.599
  164TIP3    H2  457   4.514   5.048   2.722
  165TIP3   OH2  458   2.682   6.606   0.367
  165TIP3    H1  459   2.633   6.674   0.322
  165TIP3    H2  460   2.711   6.647   0.449
  166TIP3   OH2  461   4.823   6.308   5.044
  166TIP3    H1  462   4.845   6.389   5.090
  166TIP3    H2  463   4.884   6.305   4.970
  167TIP3   OH2  464   5.922   3.606   2.355
  167TIP3    H1  465   5.959   3.677   2.302
  167TIP3    H2  466   5.836   3.590   2.315
  168TIP3   OH2  467   4.766   5.032   3.390
  168TIP3    H1  468   4.776   5.053   3.297
  168TIP3    H2  469   4.721   5.108   3.428
  169TIP3   OH2  470   3.739   1.976   0.218
  169TIP3    H1  471   3.779   2.029   0.287
  169TIP3    H2  472   3.654   2.018   0.202
  170TIP3   OH2  473   6.039   0.433   1.563
  170TIP3    H1  474   6.073   0.513   1.522
  170TIP3    H2  475   5.957   0.460   1.604
  171TIP3   OH2  476   2.928   2.486   5.368
  171TIP3    H1  477   2.968   2.400   5.374
  171TIP3    H2  478   2.835   2.469   5.350
  172TIP3   OH2  479   4.600   1.999   5.089
  172TIP3    H1  480   4.517   1.952   5.098
  172TIP3    H2  481   4.582   2.069   5.026
  173TIP3   OH2  482   4.131   6.052   4.676
  173TIP3    H1  483   4.102   6.141   4.695
  173TIP3    H2  484   4.054   6.010   4.637
  174TIP3   OH2  485   6.245   5.203   1.333
  174TIP3    H1  486   6.297   5.127   1.308
  174TIP3    H2  487   6.155   5.172   1.329
  175TIP3   OH2  488   0.148   0.521   0.564
  175TIP3    H1  489   0.218   0.456   0.554
  175TIP3    H2  490   0.153   0.572   0.483
  176TIP3   OH2  491   5.372   5.979   0.151
  176TIP3    H1  492   5.400   6.063   0.116
  176TIP3    H2  493   5.388   5.917   0.079
  177TIP3   OH2  494   2.037   5.370   3.099
  177TIP3    H1  495   2.007   5.298   3.044
  177TIP3    H2  496   2.126   5.345   3.126
  178TIP3   OH2  497   3.143   5.363   3.809
  178TIP3    H1  498   3.217   5.335   3.862
  178TIP3    H2  499   3.170   5.346   3.719
  179TIP3   OH2  500   6.683   2.509   0.155
  179TIP3    H1  501   6.595   2.516   0.118
  179TIP3    H2  502   6.674   2.443   0.224
  180TIP3   OH2  503   2.059   1.474   1.907
  180TIP3    H1  504   2.125   1.425   1.956
  180TIP3    H2  505   2.049   1.556   1.954
  181TIP3   OH2  506   5.834   6.084   5.406
  181TIP3    H1  507   5.923   6.049   5.414
  181TIP3    H2  508   5.814   6.079   5.313
  182TIP3   OH2  509   1.374   0.587   1.330
  182TIP3    H1  510   1.353   0.494   1.329
  182TIP3    H2  511   1.300   0.628   1.376
  183TIP3   OH2  512   4.030   0.366   2.441
  183TIP3    H1  513   3.991   0.387   2.526
  183TIP3    H2  514   4.102   0.429   2.432
  184TIP3   OH2  515   0.175   4.498   2.287
  184TIP3    H1  516   0.203   4.513   2.378
  184TIP3    H2  517   0.106   4.562   2.273
  185TIP3   OH2  518   3.908   3.327   2.911
  185TIP3    H1  519   3.987   3.348   2.861
  185TIP3    H2  520   3.848   3.290   2.846
  186TIP3   OH2  521   3.130   1.671   2.733
  186TIP3    H1  522   3.156   1.683   2.824
  186TIP3    H2  523   3.050   1.722   2.723
  187TIP3   OH2  524   6.814   4.447   4.401
  187TIP3    H1  525   6.763   4.462   4.481
  187TIP3    H2  526   6.867   4.526   4.392
  188TIP3   OH2  527   2.483   1.786   5.524
  188TIP3    H1  528   2.397   1.809   5.488
  188TIP3    H2  529   2.539   1.775   5.447
  189TIP3   OH2  530   2.310   6.413   0.300
  189TIP3    H1  531   2.295   6.487   0.360
  189TIP3    H2  532   2.243   6.349   0.325
  190TIP3   OH2  533   2.511   0.596   5.602
  190TIP3    H1  534   2.590   0.625   5.558
  190TIP3    H2  535   2.457   0.559   5.531
  191TIP3   OH2  536   2.351   2.125   1.338
  191TIP3    H1  537   2.377   2.217   1.332
  191TIP3    H2  538   2.406   2.080   1.273
  192TIP3   OH2  539   1.915   0.544   0.472
  192TIP3    H1  540   1.975   0.549   0.547
  192TIP3    H2  541   1.889   0.635   0.457
  193TIP3   OH2  542   4.667   1.264   4.186
  193TIP3    H1  543   4.677   1.243   4.093
  193TIP3    H2  544   4.574   1.248   4.203
  194TIP3   OH2  545   0.435   3.394   5.595
  194TIP3    H1  546   0.519   3.434   5.574
  194TIP3    H2  547   0.378   3.420   5.523
  195TIP3   OH2  548   2.243   1.601   1.394
  195TIP3    H1  549   2.224   1.529   1.454
  195TIP3    H2  550   2.327   1.577   1.354
  196TIP3   OH2  551   6.868   0.549   5.797
  196TIP3    H1  552   6.878   0.629   5.849
  196TIP3    H2  553   6.957   0.526   5.772
  197TIP3   OH2  554   6.878   3.575   3.593
  197TIP3    H1  555   6.854   3.639   3.526
  197TIP3    H2  556   6.844   3.492   3.561
  198TIP3   OH2  557   0.910   4.958   4.046
  198TIP3    H1  558   1.002   4.953   4.019
  198TIP3    H2  559   0.900   5.048   4.079
  199TIP3   OH2  560   6.257   2.003   2.261
  199TIP3    H1  561   6.196   1.932   2.275
  199TIP3    H2  562   6.308   2.008   2.342
  200TIP3   OH2  563   4.371   1.312   4.474
  200TIP3    H1  564   4.354   1.218   4.486
  200TIP3    H2  565   4.394   1.321   4.382
  201TIP3   OH2  566   6.067   6.676   0.106
  201TIP3    H1  567   6.139   6.736   0.129
  201TIP3    H2  568   6.003   6.687   0.177
  202TIP3   OH2  569   6.002   3.019   5.767
  202TIP3    H1  570   6.029   3.001   5.677
  202TIP3    H2  571   6.036   3.107   5.784
  203TIP3   OH2  572   0.735   3.672   1.264
  203TIP3    H1  573   0.690   3.589   1.273
  203TIP3    H2  574   0.732   3.710   1.352
  204TIP3   OH2  575   2.228   0.987   1.845
  204TIP3    H1  576   2.280   1.010   1.768
  204TIP3    H2  577   2.287   0.933   1.898
  205TIP3   OH2  578   3.532   1.747   3.504
  205TIP3    H1  579   3.481   1.776   3.580
  205TIP3    H2  580   3.496   1.661   3.483
  206TIP3   OH2  581   7.221   4.636   3.556
  206TIP3    H1  582   7.164   4.596   3.621
  206TIP3    H2  583   7.188   4.604   3.472
  207TIP3   OH2  584   2.356   0.208   4.889
  207TIP3    H1  585   2.414   0.180   4.960
  207TIP3    H2  586   2.280   0.150   4.896
  208TIP3   OH2  587   2.566   3.379   0.590
  208TIP3    H1  588   2.639   3.322   0.565
  208TIP3    H2  589   2.581   3.460   0.542
  209TIP3   OH2  590   0.619   4.251   0.848
  209TIP3    H1  591   0.569   4.178   0.814
  209TIP3    H2  592   0.577   4.329   0.811
  210TIP3   OH2  593   1.697   4.018   3.807
  210TIP3    H1  594   1.706   3.940   3.861
  210TIP3    H2  595   1.745   4.086   3.855
  211TIP3   OH2  596   5.352   2.973   1.560
  211TIP3    H1  597   5.333   2.901   1.501
  211TIP3    H2  598   5.422   3.022   1.517
  212TIP3   OH2  599   0.514   5.598   3.625
  212TIP3    H1  600   0.512   5.505   3.649
  212TIP3    H2  601   0.603   5.626   3.645
  213TIP3   OH2  602   1.908   2.959   3.299
  213TIP3    H1  603   1.882   3.003   3.218
  213TIP3    H2  604   1.998   2.931   3.283
  214TIP3   OH2  605   1.885   1.528   1.687
  214TIP3    H1  606   1.970   1.501   1.722
  214TIP3    H2  607   1.901   1.547   1.595
  215TIP3   OH2  608   7.167   2.157   5.222
  215TIP3    H1  609   7.175   2.236   5.275
  215TIP3    H2  610   7.079   2.125   5.239
  216TIP3   OH2  611   5.642   0.671   3.009
  216TIP3    H1  612   5.636   0.601   3.074
  216TIP3    H2  613   5.643   0.625   2.925
  217TIP3   OH2  614   4.368   4.612   4.915
  217TIP3    H1  615   4.333   4.536   4.868
  217TIP3    H2  616   4.317   4.616   4.996
  218TIP3   OH2  617   2.961   3.940   0.319
  218TIP3    H1  618   3.010   4.021   0.330
  218TIP3    H2  619   3.027   3.874   0.299
  219TIP3   OH2  620   4.479   1.329   2.071
  219TIP3    H1  621   4.438   1.386   2.006
  219TIP3    H2  622   4.439   1.355   2.154
  220TIP3   OH2  623   3.820   3.916   5.314
  220TIP3    H1  624   3.777   3.864   5.381
  220TIP3    H2  625   3.908   3.878   5.307
  221TIP3   OH2  626   2.113   4.769   5.206
  221TIP3    H1  627   2.188   4.769   5.265
  221TIP3    H2  628   2.102   4.677   5.181
  222TIP3   OH2  629   2.010   2.775   1.489
  222TIP3    H1  630   2.053   2.740   1.411
  222TIP3    H2  631   2.071   2.758   1.561
  223TIP3   OH2  632   4.065   3.194   4.738
  223TIP3    H1  633   4.112   3.273   4.765
  223TIP3    H2  634   4.040   3.151   4.819
  224TIP3   OH2  635   3.006   5.174   1.130
  224TIP3    H1  636   3.032   5.122   1.206
  224TIP3    H2  637   3.011   5.265   1.160
  225TIP3   OH2  638   4.740   1.762   4.959
  225TIP3    H1  639   4.740   1.855   4.981
  225TIP3    H2  640   4.699   1.719   5.034
  226TIP3   OH2  641   2.452   2.267   0.420
  226TIP3    H1  642   2.535   2.268   0.371
  226TIP3    H2  643   2.393   2.322   0.369
  227TIP3   OH2  644   2.723   0.131   2.076
  227TIP3    H1  645   2.759   0.151   1.990
  227TIP3    H2  646   2.794   0.152   2.137
  228TIP3   OH2  647   5.368   4.878   2.591
  228TIP3    H1  648   5.328   4.839   2.669
  228TIP3    H2  649   5.307   4.855   2.520
  229TIP3   OH2  650   1.248   4.024   0.887
  229TIP3    H1  651   1.158   4.039   0.916
  229TIP3    H2  652   1.294   4.105   0.909
  230TIP3   OH2  653   2.242   0.946   2.397
  230TIP3    H1  654   2.172   0.997   2.357
  230TIP3    H2  655   2.253   0.871   2.339
  231TIP3   OH2  656   4.593   4.302   2.024
  231TIP3    H1  657   4.610   4.250   1.945
  231TIP3    H2  658   4.645   4.381   2.012
  232TIP3   OH2  659   6.237   4.180   4.069
  232TIP3    H1  660   6.187   4.164   4.148
  232TIP3    H2  661   6.242   4.095   4.025
  233TIP3   OH2  662   7.192   4.325   0.406
  233TIP3    H1  663   7.209   4.409   0.363
  233TIP3    H2  664   7.161   4.268   0.335
  234TIP3   OH2  665   2.663   2.147   2.086
  234TIP3    H1  666   2.739   2.160   2.142
  234TIP3    H2  667   2.650   2.232   2.043
  235TIP3   OH2  668   0.790   5.063   5.537
  235TIP3    H1  669   0.756   5.048   5.449
  235TIP3    H2  670   0.718   5.107   5.583
  236TIP3   OH2  671   2.087   2.468   3.785
  236TIP3    H1  672   2.006   2.518   3.780
  236TIP3    H2  673   2.100   2.435   3.696
  237TIP3   OH2  674   4.706   3.766   5.027
  237TIP3    H1  675   4.690   3.671   5.024
  237TIP3    H2  676   4.721   3.790   4.935
  238TIP3   OH2  677   6.056   2.162   4.514
  238TIP3    H1  678   6.122   2.097   4.489
  238TIP3    H2  679   5.973   2.116   4.507
  239TIP3   OH2  680   2.176   0.854   0.374
  239TIP3    H1  681   2.176   0.784   0.308
  239TIP3    H2  682   2.233   0.821   0.443
  240TIP3   OH2  683   5.272   3.678   1.590
  240TIP3    H1  684   5.349   3.637   1.628
  240TIP3    H2  685   5.287   3.772   1.600
  241TIP3   OH2  686   0.330   6.673   2.241
  241TIP3    H1  687   0.338   6.768   2.236
  241TIP3    H2  688   0.404   6.645   2.295
  242TIP3   OH2  689   2.187   4.127   4.588
  242TIP3    H1  690   2.163   4.134   4.495
  242TIP3    H2  691   2.193   4.218   4.617
  243TIP3   OH2  692   2.411   2.406   1.329
  243TIP3    H1  693   2.392   2.474   1.264
  243TIP3    H2  694   2.474   2.446   1.388
  244TIP3   OH2  695   1.466   0.488   1.836
  244TIP3    H1  696   1.420   0.415   1.795
  244TIP3    H2  697   1.493   0.543   1.762
  245TIP3   OH2  698   0.701   4.293   3.289
  245TIP3    H1  699   0.669   4.342   3.364
  245TIP3    H2  700   0.783   4.336   3.266
  246TIP3   OH2  701   5.877   6.623   1.003
  246TIP3    H1  702   5.901   6.688   0.937
  246TIP3    H2  703   5.783   6.636   1.016
  247TIP3   OH2  704   5.080   3.154   5.047
  247TIP3    H1  705   5.053   3.066   5.022
  247TIP3    H2  706   5.013   3.183   5.110
  248TIP3   OH2  707   0.159   6.126   0.742
  248TIP3    H1  708   0.157   6.030   0.738
  248TIP3    H2  709   0.163   6.153   0.651
  249TIP3   OH2  710   1.530   4.464   2.272
  249TIP3    H1  711   1.459   4.402   2.291
  249TIP3    H2  712   1.486   4.548   2.261
  250TIP3   OH2  713   0.928   6.474   0.241
  250TIP3    H1  714   0.842   6.484   0.200
  250TIP3    H2  715   0.932   6.545   0.305
  251TIP3   OH2  716   5.802   6.276   2.586
  251TIP3    H1  717   5.818   6.346   2.523
  251TIP3    H2  718   5.712   6.290   2.615
  252TIP3   OH2  719   0.496   5.516   4.865
  252TIP3    H1  720   0.589   5.530   4.845
  252TIP3    H2  721   0.472   5.440   4.812
  253TIP3   OH2  722   4.187   3.505   2.746
  253TIP3    H1  723   4.248   3.564   2.703
  253TIP3    H2  724   4.209   3.418   2.712
  254TIP3   OH2  725   4.180   4.598   5.458
  254TIP3    H1  726   4.092   4.634   5.466
  254TIP3    H2  727   4.167   4.503   5.450
  255TIP3   OH2  728   4.334   4.900   1.750
  255TIP3    H1  729   4.312   4.869   1.662
  255TIP3    H2  730   4.260   4.873   1.804
  256TIP3   OH2  731   2.545   1.256   3.076
  256TIP3    H1  732   2.564   1.338   3.123
  256TIP3    H2  733   2.451   1.261   3.058
  257TIP3   OH2  734   3.158   6.310   1.227
  257TIP3    H1  735   3.153   6.229   1.175
  257TIP3    H2  736   3.214   6.287   1.301
  258TIP3   OH2  737   5.334   6.099   4.035
  258TIP3    H1  738   5.374   6.124   4.119
  258TIP3    H2  739   5.240   6.105   4.050
  259TIP3   OH2  740   3.344   2.815   5.397
  259TIP3    H1  741   3.385   2.900   5.412
  259TIP3    H2  742   3.258   2.822   5.438
  260TIP3   OH2  743   5.345   3.495   4.452
  260TIP3    H1  744   5.317   3.409   4.418
  260TIP3    H2  745   5.290   3.510   4.529
  261TIP3   OH2  746   2.485   2.584   5.263
  261TIP3    H1  747   2.491   2.519   5.333
  261TIP3    H2  748   2.412   2.640   5.288
  262TIP3   OH2  749   2.888   0.796   2.241
  262TIP3    H1  750   2.926   0.866   2.189
  262TIP3    H2  751   2.962   0.753   2.282
  263TIP3   OH2  752   7.217   1.686   3.113
  263TIP3    H1  753   7.204   1.724   3.026
  263TIP3    H2  754   7.217   1.761   3.172
  264TIP3   OH2  755   4.043   1.484   4.158
  264TIP3    H1  756   4.068   1.396   4.129
  264TIP3    H2  757   4.030   1.475   4.252
  265TIP3   OH2  758   4.714   1.147   1.448
  265TIP3    H1  759   4.729   1.088   1.522
  265TIP3    H2  760   4.619   1.143   1.434
  266TIP3   OH2  761   2.078   1.507   2.378
  266TIP3    H1  762   2.010   1.445   2.404
  266TIP3    H2  763   2.149   1.453   2.343
  267TIP3   OH2  764   2.940   1.493   5.685
  267TIP3    H1  765   2.972   1.459   5.602
  267TIP3    H2  766   2.989   1.573   5.700
  268TIP3   OH2  767   5.719   3.910   2.588
  268TIP3    H1  768   5.811   3.896   2.610
  268TIP3    H2  769   5.720   3.961   2.508
  269TIP3   OH2  770   6.654   4.481   0.916
  269TIP3    H1  771   6.714   4.494   0.842
  269TIP3    H2  772   6.659   4.563   0.965
  270TIP3   OH2  773   5.391   2.083   3.682
  270TIP3    H1  774   5.340   2.140   3.739
  270TIP3    H2  775   5.456   2.043   3.739
  271TIP3   OH2  776   1.924   1.635   5.850
  271TIP3    H1  777   1.985   1.581   5.799
  271TIP3    H2  778   1.837   1.600   5.828
  272TIP3   OH2  779   4.760   5.407   1.211
  272TIP3    H1  780   4.714   5.490   1.219
  272TIP3    H2  781   4.692   5.344   1.186
  273TIP3   OH2  782   3.230   4.100   1.917
  273TIP3    H1  783   3.311   4.053   1.937
  273TIP3    H2  784   3.224   4.167   1.985
  274TIP3   OH2  785   1.884   1.886   4.939
  274TIP3    H1  786   1.793   1.898   4.912
  274TIP3    H2  787   1.878   1.834   5.019
  275TIP3   OH2  788   3.253   4.283   1.594
  275TIP3    H1  789   3.178   4.231   1.624
  275TIP3    H2  790   3.248   4.279   1.499
  276TIP3   OH2  791   4.008   2.646   5.820
  276TIP3    H1  792   3.961   2.673   5.899
  276TIP3    H2  793   3.942   2.647   5.751
  277TIP3   OH2  794   2.464   2.734   1.689
  277TIP3    H1  795   2.484   2.689   1.606
  277TIP3    H2  796   2.369   2.725   1.699
  278TIP3   OH2  797   6.305   3.807   2.683
  278TIP3    H1  798   6.333   3.892   2.718
  278TIP3    H2  799   6.348   3.802   2.597
  279TIP3   OH2  800   4.427   2.675   4.485
  279TIP3    H1  801   4.452   2.678   4.577
  279TIP3    H2  802   4.499   2.718   4.439
  280TIP3   OH2  803   2.929   5.370   2.794
  280TIP3    H1  804   2.880   5.357   2.875
  280TIP3    H2  805   2.913   5.291   2.744
  281TIP3   OH2  806   0.277   6.442   2.397
  281TIP3    H1  807   0.281   6.518   2.340
  281TIP3    H2  808   0.347   6.384   2.366
  282TIP3   OH2  809   5.818   2.058   4.502
  282TIP3    H1  810   5.836   1.993   4.434
  282TIP3    H2  811   5.744   2.108   4.468
  283TIP3   OH2  812   2.785   2.289   3.897
  283TIP3    H1  813   2.691   2.297   3.879
  283TIP3    H2  814   2.806   2.367   3.949
  284TIP3   OH2  815   3.824   2.152   5.297
  284TIP3    H1  816   3.742   2.103   5.293
  284TIP3    H2  817   3.813   2.222   5.233
  285TIP3   OH2  818   4.924   0.582   2.227
  285TIP3    H1  819   4.856   0.577   2.296
  285TIP3    H2  820   4.895   0.653   2.171
  286TIP3   OH2  821   6.824   1.534   3.464
  286TIP3    H1  822   6.827   1.450   3.420
  286TIP3    H2  823   6.854   1.597   3.398
  287TIP3   OH2  824   5.060   5.308   1.956
  287TIP3    H1  825   5.095   5.378   1.901
  287TIP3    H2  826   4.996   5.351   2.012
  288TIP3   OH2  827   5.422   2.611   1.563
  288TIP3    H1  828   5.367   2.533   1.570
  288TIP3    H2  829   5.392   2.655   1.484
  289TIP3   OH2  830   5.275   6.290   3.268
  289TIP3    H1  831   5.359   6.324   3.298
  289TIP3    H2  832   5.297   6.211   3.218
  290TIP3   OH2  833   5.329   1.524   1.024
  290TIP3    H1  834   5.324   1.506   1.118
  290TIP3    H2  835   5.350   1.439   0.985
  291TIP3   OH2  836  -0.002   5.984   0.102
  291TIP3    H1  837  -0.037   5.960   0.188
  291TIP3    H2  838   0.066   6.048   0.121
  292TIP3   OH2  839   4.857   0.221   3.723
  292TIP3    H1  840   4.818   0.297   3.767
  292TIP3    H2  841   4.787   0.186   3.668
  293TIP3   OH2  842   3.934   3.614   0.952
  293TIP3    H1  843   4.019   3.646   0.922
  293TIP3    H2  844   3.914   3.669   1.028
  294TIP3   OH2  845   6.391   2.948   5.603
  294TIP3    H1  846   6.423   3.020   5.656
  294TIP3    H2  847   6.430   2.870   5.643
  295TIP3   OH2  848   6.274   4.708   2.799
  295TIP3    H1  849   6.259   4.633   2.742
  295TIP3    H2  850   6.256   4.676   2.887
  296TIP3   OH2  851   5.307   5.857   1.344
  296TIP3    H1  852   5.237   5.808   1.301
  296TIP3    H2  853   5.379   5.793   1.352
  297TIP3   OH2  854   4.589   4.063   1.380
  297TIP3    H1  855   4.614   4.147   1.342
  297TIP3    H2  856   4.521   4.085   1.444
  298TIP3   OH2  857   6.252   3.991   1.314
  298TIP3    H1  858   6.256   4.073   1.265
  298TIP3    H2  859   6.309   3.931   1.266
  299TIP3   OH2  860   0.899   0.192   2.582
  299TIP3    H1  861   0.971   0.238   2.623
  299TIP3    H2  862   0.830   0.258   2.572
  300TIP3   OH2  863   0.722   5.124   4.227
  300TIP3    H1  864   0.665   5.047   4.232
  300TIP3    H2  865   0.683   5.187   4.287
  301TIP3   OH2  866   1.913   6.173   5.209
  301TIP3    H1  867   1.838   6.138   5.160
  301TIP3    H2  868   1.945   6.245   5.154
  302TIP3   OH2  869   3.355   5.502   2.088
  302TIP3    H1  870   3.296   5.555   2.035
  302TIP3    H2  871   3.298   5.459   2.151
  303TIP3   OH2  872   2.951   1.114   4.778
  303TIP3    H1  873   3.024   1.177   4.771
  303TIP3    H2  874   2.940   1.080   4.689
  304TIP3   OH2  875   6.076   0.453   5.701
  304TIP3    H1  876   6.013   0.388   5.671
  304TIP3    H2  877   6.161   0.418   5.675
  305TIP3   OH2  878   6.040   5.082   0.153
  305TIP3    H1  879   5.996   5.065   0.069
  305TIP3    H2  880   6.073   5.172   0.146
  306TIP3   OH2  881   0.540   5.924   1.552
  306TIP3    H1  882   0.497   5.923   1.637
  306TIP3    H2  883   0.521   6.011   1.517
  307TIP3   OH2  884   5.588   4.172   3.211
  307TIP3    H1  885   5.606   4.123   3.131
  307TIP3    H2  886   5.647   4.132   3.276
  308TIP3   OH2  887   6.842   4.444   0.698
  308TIP3    H1  888   6.789   4.434   0.619
  308TIP3    H2  889   6.892   4.362   0.703
  309TIP3   OH2  890   6.521   1.130   2.386
  309TIP3    H1  891   6.506   1.092   2.473
  309TIP3    H2  892   6.574   1.065   2.340
  310TIP3   OH2  893   7.095   6.529   2.783
  310TIP3    H1  894   7.082   6.624   2.783
  310TIP3    H2  895   7.190   6.517   2.777
  311TIP3   OH2  896   4.821   0.178   2.770
  311TIP3    H1  897   4.731   0.195   2.742
  311TIP3    H2  898   4.853   0.111   2.710
  312TIP3   OH2  899   5.542   4.760   2.795
  312TIP3    H1  900   5.501   4.837   2.835
  312TIP3    H2  901   5.487   4.687   2.822
  313TIP3   OH2  902   1.061   3.775   4.166
  313TIP3    H1  903   1.149   3.811   4.155
  313TIP3    H2  904   1.042   3.788   4.259
  314TIP3   OH2  905   6.477   6.185   4.952
  314TIP3    H1  906   6.441   6.171   5.039
  314TIP3    H2  907   6.569   6.158   4.958
  315TIP3   OH2  908   1.927   3.624   3.246
  315TIP3    H1  909   2.014   3.640   3.282
  315TIP3    H2  910   1.903   3.537   3.278
  316TIP3   OH2  911   1.910   6.393   0.877
  316TIP3    H1  912   1.918   6.454   0.950
  316TIP3    H2  913   1.918   6.447   0.798
  317TIP3   OH2  914   4.631   0.710   5.596
  317TIP3    H1  915   4.716   0.728   5.635
  317TIP3    H2  916   4.607   0.792   5.553
  318TIP3   OH2  917   3.746   0.832   5.020
  318TIP3    H1  918   3.695   0.752   5.031
  318TIP3    H2  919   3.729   0.859   4.929
  319TIP3   OH2  920   1.500   0.492   0.178
  319TIP3    H1  921   1.559   0.499   0.103
  319TIP3    H2  922   1.558   0.487   0.253
  320TIP3   OH2  923   2.779   6.021   5.122
  320TIP3    H1  924   2.861   5.999   5.165
  320TIP3    H2  925   2.716   5.957   5.156
  321TIP3   OH2  926   3.300   1.620   1.712
  321TIP3    H1  927   3.236   1.597   1.645
  321TIP3    H2  928   3.251   1.675   1.773
  322TIP3   OH2  929   4.612   6.480   0.448
  322TIP3    H1  930   4.547   6.547   0.432
  322TIP3    H2  931   4.627   6.440   0.362
  323TIP3   OH2  932   7.065   2.989   5.750
  323TIP3    H1  933   7.129   2.988   5.821
  323TIP3    H2  934   6.984   2.957   5.790
  324TIP3   OH2  935   6.227   6.712   5.123
  324TIP3    H1  936   6.156   6.777   5.125
  324TIP3    H2  937   6.285   6.742   5.054
  325TIP3   OH2  938   2.052   4.070   1.573
  325TIP3    H1  939   2.097   4.111   1.647
  325TIP3    H2  940   2.093   3.984   1.565
  326TIP3   OH2  941   3.917   2.340   3.120
  326TIP3    H1  942   3.918   2.402   3.193
  326TIP3    H2  943   3.875   2.388   3.048
  327TIP3   OH2  944   7.029   6.463   2.014
  327TIP3    H1  945   7.012   6.520   1.939
  327TIP3    H2  946   6.991   6.509   2.089
  328TIP3   OH2  947   3.670   3.734   4.933
  328TIP3    H1  948   3.674   3.767   4.843
  328TIP3    H2  949   3.578   3.710   4.946
  329TIP3   OH2  950   3.130   3.573   0.463
  329TIP3    H1  951   3.093   3.608   0.382
  329TIP3    H2  952   3.214   3.619   0.472
  330TIP3   OH2  953   4.427   3.578   1.102
  330TIP3    H1  954   4.424   3.589   1.007
  330TIP3    H2  955   4.336   3.571   1.128
  331TIP3   OH2  956   1.818   0.545   3.874
  331TIP3    H1  957   1.885   0.491   3.832
  331TIP3    H2  958   1.858   0.631   3.881
  332TIP3   OH2  959   3.657   2.734   4.940
  332TIP3    H1  960   3.646   2.646   4.904
  332TIP3    H2  961   3.576   2.751   4.988
  333TIP3   OH2  962   6.849   6.392   2.295
  333TIP3    H1  963   6.893   6.476   2.309
  333TIP3    H2  964   6.867   6.342   2.375
  334TIP3   OH2  965   0.371   5.810   2.541
  334TIP3    H1  966   0.448   5.798   2.484
  334TIP3    H2  967   0.399   5.776   2.626
  335TIP3   OH2  968   4.962   4.658   3.827
  335TIP3    H1  969   4.873   4.624   3.836
  335TIP3    H2  970   4.952   4.753   3.827
  336TIP3   OH2  971   5.396   6.588   0.257
  336TIP3    H1  972   5.345   6.533   0.196
  336TIP3    H2  973   5.348   6.670   0.261
  337TIP3   OH2  974   1.124   0.765   2.298
  337TIP3    H1  975   1.115   0.670   2.291
  337TIP3    H2  976   1.036   0.796   2.316
  338TIP3   OH2  977   0.195   3.153   1.874
  338TIP3    H1  978   0.141   3.231   1.869
  338TIP3    H2  979   0.276   3.177   1.830
  339TIP3   OH2  980   3.793   0.303   1.620
  339TIP3    H1  981   3.870   0.327   1.671
  339TIP3    H2  982   3.738   0.252   1.680
  340TIP3   OH2  983   2.136   3.929   5.083
  340TIP3    H1  984   2.214   3.893   5.042
  340TIP3    H2  985   2.157   4.022   5.098
  341TIP3   OH2  986   0.775   2.784   1.797
  341TIP3    H1  987   0.742   2.807   1.884
  341TIP3    H2  988   0.698   2.789   1.741
  342TIP3   OH2  989   4.246   3.121   5.104
  342TIP3    H1  990   4.322   3.115   5.045
  342TIP3    H2  991   4.237   3.032   5.138
  343TIP3   OH2  992   6.192   0.433   1.287
  343TIP3    H1  993   6.119   0.372   1.281
  343TIP3    H2  994   6.152   0.516   1.312
  344TIP3   OH2  995   6.999   1.713   2.319
  344TIP3    H1  996   7.007   1.728   2.413
  344TIP3    H2  997   6.981   1.800   2.282
  345TIP3   OH2  998   2.086   1.541   0.059
  345TIP3    H1  999   2.084   1.609  -0.009
  345TIP3    H2 1000   2.010   1.487   0.041
  346TIP3   OH2 1001   0.520   1.090   3.466
  346TIP3    H1 1002   0.535   1.095   3.372
  346TIP3    H2 1003   0.605   1.108   3.506
  347TIP3   OH2 1004   1.146   4.634   4.108
  347TIP3    H1 1005   1.162   4.693   4.181
  347TIP3    H2 1006   1.050   4.623   4.106
  348TIP3   OH2 1007   5.815   4.097   5.581
  348TIP3    H1 1008   5.735   4.050   5.605
  348TIP3    H2 1009   5.874   4.081   5.655
  349TIP3   OH2 1010   0.592   6.297   1.727
  349TIP3    H1 1011   0.657   6.301   1.797
  349TIP3    H2 1012   0.635   6.249   1.656
  350TIP3   OH2 1013   1.200   0.326   0.065
  350TIP3    H1 1014   1.281   0.303   0.110
  350TIP3    H2 1015   1.143   0.250   0.079
  351TIP3   OH2 1016   5.807   0.502   5.332
  351TIP3    H1 1017   5.822   0.414   5.368
  351TIP3    H2 1018   5.883   0.518   5.277
  352TIP3   OH2 1019   3.178   4.391   1.066
  352TIP3    H1 1020   3.187   4.433   1.152
  352TIP3    H2 1021   3.158   4.462   1.006
  353TIP3   OH2 1022   5.332   1.037   0.148
  353TIP3    H1 1023   5.387   1.103   0.190
  353TIP3    H2 1024   5.276   1.003   0.218
  354TIP3   OH2 1025   3.579   6.391   4.832
  354TIP3    H1 1026   3.491   6.371   4.865
  354TIP3    H2 1027   3.610   6.308   4.796
  355TIP3   OH2 1028   0.719   2.513   5.060
  355TIP3    H1 1029   0.695   2.586   5.002
  355TIP3    H2 1030   0.660   2.522   5.134
  356TIP3   OH2 1031   3.112   2.846   4.414
  356TIP3    H1 1032   3.174   2.835   4.486
  356TIP3    H2 1033   3.124   2.937   4.387
  357TIP3   OH2 1034   2.954   1.892   4.324
  357TIP3    H1 1035   2.919   1.804   4.307
  357TIP3    H2 1036   2.877   1.947   4.331
  358TIP3   OH2 1037   5.655   1.316   4.462
  358TIP3    H1 1038   5.607   1.243   4.501
  358TIP3    H2 1039   5.642   1.306   4.367
  359TIP3   OH2 1040   1.023   6.012   0.005
  359TIP3    H1 1041   1.119   6.006  -0.002
  359TIP3    H2 1042   1.008   6.096   0.049
  360TIP3   OH2 1043   2.031   0.592   1.823
  360TIP3    H1 1044   2.002   0.682   1.837
  360TIP3    H2 1045   1.951   0.541   1.817
  361TIP3   OH2 1046   0.325   0.852   4.927
  361TIP3    H1 1047   0.394   0.912   4.955
  361TIP3    H2 1048   0.253   0.910   4.901
  362TIP3   OH2 1049   0.393   5.933   3.181
  362TIP3    H1 1050   0.367   5.842   3.197
  362TIP3    H2 1051   0.469   5.946   3.238
  363TIP3   OH2 1052   2.862   3.153   5.324
  363TIP3    H1 1053   2.813   3.088   5.275
  363TIP3    H2 1054   2.879   3.223   5.261
  364TIP3   OH2 1055   2.482   3.685   4.758
  364TIP3    H1 1056   2.531   3.705   4.678
  364TIP3    H2 1057   2.398   3.652   4.727
  365TIP3   OH2 1058   1.163   4.059   1.917
  365TIP3    H1 1059   1.076   4.020   1.913
  365TIP3    H2 1060   1.200   4.029   2.000
  366TIP3   OH2 1061   4.564   2.237   3.229
  366TIP3    H1 1062   4.556   2.318   3.179
  366TIP3    H2 1063   4.477   2.197   3.224
  367TIP3   OH2 1064   5.297   5.497   3.084
  367TIP3    H1 1065   5.259   5.534   3.004
  367TIP3    H2 1066   5.390   5.490   3.066
  368TIP3   OH2 1067   6.486   6.418   4.228
  368TIP3    H1 1068   6.481   6.330   4.265
  368TIP3    H2 1069   6.479   6.405   4.133
  369TIP3   OH2 1070   5.785   0.971   0.751
  369TIP3    H1 1071   5.740   0.888   0.764
  369TIP3    H2 1072   5.872   0.947   0.720
  370TIP3   OH2 1073  -0.015   0.677   2.151
  370TIP3    H1 1074  -0.003   0.770   2.168
  370TIP3    H2 1075   0.071   0.647   2.121
  371TIP3   OH2 1076   3.769   5.643   4.335
  371TIP3    H1 1077   3.706   5.691   4.389
  371TIP3    H2 1078   3.728   5.558   4.319
  372TIP3   OH2 1079   7.035   4.988   2.513
  372TIP3    H1 1080   7.025   4.940   2.596
  372TIP3    H2 1081   6.973   4.946   2.454
  373TIP3   OH2 1082   3.567   0.394   5.203
  373TIP3    H1 1083   3.614   0.469   5.240
  373TIP3    H2 1084   3.629   0.354   5.142
  374TIP3   OH2 1085   1.524   4.559   5.324
  374TIP3    H1 1086   1.596   4.496   5.320
  374TIP3    H2 1087   1.567   4.644   5.336
  375TIP3   OH2 1088   2.610   2.819   0.431
  375TIP3    H1 1089   2.651   2.750   0.378
  375TIP3    H2 1090   2.535   2.776   0.472
  376TIP3   OH2 1091   1.108   5.694   4.066
  376TIP3    H1 1092   1.185   5.640   4.049
  376TIP3    H2 1093   1.098   5.747   3.987
  377TIP3   OH2 1094   6.695   1.749   5.115
  377TIP3    H1 1095   6.687   1.715   5.026
  377TIP3    H2 1096   6.749   1.685   5.161
  378TIP3   OH2 1097   0.878   3.499   3.405
  378TIP3    H1 1098   0.826   3.454   3.339
  378TIP3    H2 1099   0.903   3.430   3.467
  379TIP3   OH2 1100   6.887   4.891   4.531
  379TIP3    H1 1101   6.928   4.805   4.523
  379TIP3    H2 1102   6.808   4.875   4.582
  380TIP3   OH2 1103   5.986   4.562   0.315
  380TIP3    H1 1104   5.929   4.638   0.303
  380TIP3    H2 1105   6.073   4.594   0.291
  381TIP3   OH2 1106   5.346   3.827   0.945
  381TIP3    H1 1107   5.302   3.901   0.902
  381TIP3    H2 1108   5.291   3.752   0.925
  382TIP3   OH2 1109   2.401   1.135   2.234
  382TIP3    H1 1110   2.371   1.085   2.309
  382TIP3    H2 1111   2.451   1.073   2.181
  383TIP3   OH2 1112   1.338   6.105   5.034
  383TIP3    H1 1113   1.283   6.122   5.110
  383TIP3    H2 1114   1.386   6.187   5.019
  384TIP3   OH2 1115   3.225   6.510   0.468
  384TIP3    H1 1116   3.136   6.496   0.501
  384TIP3    H2 1117   3.213   6.538   0.377
  385TIP3   OH2 1118   7.196   6.661   0.038
  385TIP3    H1 1119   7.129   6.727   0.019
  385TIP3    H2 1120   7.148   6.578   0.040
  386TIP3   OH2 1121   3.018   2.331   0.120
  386TIP3    H1 1122   3.097   2.293   0.081
  386TIP3    H2 1123   2.955   2.336   0.047
  387TIP3   OH2 1124   6.730   4.116   3.458
  387TIP3    H1 1125   6.791   4.090   3.527
  387TIP3    H2 1126   6.669   4.043   3.450
  388TIP3   OH2 1127   3.505   4.496   1.398
  388TIP3    H1 1128   3.435   4.463   1.455
  388TIP3    H2 1129   3.557   4.419   1.377
  389TIP3   OH2 1130   2.261   1.880   2.722
  389TIP3    H1 1131   2.249   1.956   2.666
  389TIP3    H2 1132   2.195   1.817   2.694
  390TIP3   OH2 1133   0.801   1.018   3.631
  390TIP3    H1 1134   0.867   1.038   3.697
  390TIP3    H2 1135   0.746   0.951   3.672
  391TIP3   OH2 1136   0.296   2.070   0.753
  391TIP3    H1 1137   0.343   2.112   0.824
  391TIP3    H2 1138   0.233   2.012   0.797
  392TIP3   OH2 1139   1.609   5.490   4.920
  392TIP3    H1 1140   1.574   5.568   4.878
  392TIP3    H2 1141   1.615   5.425   4.850
  393TIP3   OH2 1142   2.351   3.374   5.503
  393TIP3    H1 1143   2.440   3.404   5.486
  393TIP3    H2 1144   2.295   3.437   5.458
  394TIP3   OH2 1145   0.937   4.950   0.526
  394TIP3    H1 1146   0.927   4.859   0.498
  394TIP3    H2 1147   0.892   5.001   0.459
  395TIP3   OH2 1148   5.195   4.449   3.532
  395TIP3    H1 1149   5.177   4.365   3.575
  395TIP3    H2 1150   5.171   4.434   3.441
  396TIP3   OH2 1151   1.324   4.936   4.952
  396TIP3    H1 1152   1.360   4.920   5.039
  396TIP3    H2 1153   1.390   4.901   4.892
  397TIP3   OH2 1154   0.422   2.071   2.767
  397TIP3    H1 1155   0.469   2.143   2.725
  397TIP3    H2 1156   0.373   2.031   2.696
  398TIP3   OH2 1157   0.270   1.928   4.848
  398TIP3    H1 1158   0.298   1.840   4.822
  398TIP3    H2 1159   0.352   1.974   4.869
  399TIP3   OH2 1160   2.780   5.308   5.783
  399TIP3    H1 1161   2.831   5.260   5.848
  399TIP3    H2 1162   2.773   5.396   5.818
  400TIP3   OH2 1163   1.164   0.533   1.029
  400TIP3    H1 1164   1.119   0.618   1.019
  400TIP3    H2 1165   1.256   0.557   1.042
  401TIP3   OH2 1166   0.650   1.534   3.691
  401TIP3    H1 1167   0.738   1.541   3.728
  401TIP3    H2 1168   0.627   1.442   3.703
  402TIP3   OH2 1169   3.802   1.592   2.500
  402TIP3    H1 1170   3.778   1.505   2.468
  402TIP3    H2 1171   3.796   1.585   2.595
  403TIP3   OH2 1172   1.722   3.838   0.356
  403TIP3    H1 1173   1.685   3.753   0.380
  403TIP3    H2 1174   1.723   3.837   0.260
  404TIP3   OH2 1175   0.159   3.549   2.699
  404TIP3    H1 1176   0.146   3.495   2.621
  404TIP3    H2 1177   0.250   3.530   2.726
  405TIP3   OH2 1178   0.356   3.015   1.473
  405TIP3    H1 1179   0.409   2.940   1.500
  405TIP3    H2 1180   0.275   3.007   1.523
  406TIP3   OH2 1181   6.922   1.964   0.946
  406TIP3    H1 1182   6.862   2.004   1.010
  406TIP3    H2 1183   6.920   1.871   0.967
  407TIP3   OH2 1184   5.290   1.965   2.152
  407TIP3    H1 1185   5.234   2.030   2.110
  407TIP3    H2 1186   5.308   2.002   2.239
  408TIP3   OH2 1187   0.658   4.235   3.595
  408TIP3    H1 1188   0.654   4.330   3.590
  408TIP3    H2 1189   0.691   4.216   3.682
  409TIP3   OH2 1190   1.011   4.159   0.981
  409TIP3    H1 1191   0.981   4.150   1.071
  409TIP3    H2 1192   1.067   4.237   0.982
  410TIP3   OH2 1193   3.142   3.536   1.033
  410TIP3    H1 1194   3.081   3.468   1.058
  410TIP3    H2 1195   3.134   3.542   0.937
  411TIP3   OH2 1196   4.687   4.173   0.274
  411TIP3    H1 1197   4.723   4.132   0.195
  411TIP3    H2 1198   4.764   4.198   0.325
  412TIP3   OH2 1199   2.508   0.126   4.219
  412TIP3    H1 1200   2.578   0.181   4.254
  412TIP3    H2 1201   2.552   0.047   4.189
  413TIP3   OH2 1202   5.342   3.745   3.089
  413TIP3    H1 1203   5.363   3.826   3.042
  413TIP3    H2 1204   5.405   3.741   3.161
  414TIP3   OH2 1205   3.426   1.243   0.066
  414TIP3    H1 1206   3.465   1.275  -0.015
  414TIP3    H2 1207   3.420   1.321   0.122
  415TIP3   OH2 1208   5.206   1.537   3.384
  415TIP3    H1 1209   5.265   1.585   3.326
  415TIP3    H2 1210   5.210   1.584   3.467
  416TIP3   OH2 1211   6.102   4.674   1.949
  416TIP3    H1 1212   6.050   4.735   1.898
  416TIP3    H2 1213   6.143   4.727   2.017
  417TIP3   OH2 1214   5.874   0.315   5.587
  417TIP3    H1 1215   5.841   0.251   5.523
  417TIP3    H2 1216   5.810   0.311   5.659
  418TIP3   OH2 1217   6.759   5.253   3.323
  418TIP3    H1 1218   6.825   5.200   3.367
  418TIP3    H2 1219   6.706   5.290   3.393
  419TIP3   OH2 1220   3.738   1.134   1.823
  419TIP3    H1 1221   3.690   1.094   1.750
  419TIP3    H2 1222   3.686   1.111   1.901
  420TIP3   OH2 1223   5.816   4.687   2.310
  420TIP3    H1 1224   5.906   4.654   2.312
  420TIP3    H2 1225   5.811   4.747   2.385
  421TIP3   OH2 1226   6.683   4.460   4.638
  421TIP3    H1 1227   6.714   4.370   4.643
  421TIP3    H2 1228   6.711   4.500   4.720
  422TIP3   OH2 1229   2.568   6.605   0.939
  422TIP3    H1 1230   2.629   6.544   0.897
  422TIP3    H2 1231   2.483   6.585   0.900
  423TIP3   OH2 1232   5.777   1.215   2.432
  423TIP3    H1 1233   5.845   1.238   2.496
  423TIP3    H2 1234   5.695   1.218   2.481
  424TIP3   OH2 1235   4.767   4.259   2.539
  424TIP3    H1 1236   4.755   4.180   2.486
  424TIP3    H2 1237   4.770   4.227   2.630
  425TIP3   OH2 1238   1.459   4.214   1.988
  425TIP3    H1 1239   1.453   4.172   1.902
  425TIP3    H2 1240   1.437   4.145   2.051
  426TIP3   OH2 1241   4.291   0.294   4.223
  426TIP3    H1 1242   4.200   0.313   4.199
  426TIP3    H2 1243   4.342   0.332   4.151
  427TIP3   OH2 1244   0.034   5.705   1.331
  427TIP3    H1 1245   0.056   5.704   1.238
  427TIP3    H2 1246   0.118   5.720   1.375
  428TIP3   OH2 1247   0.605   5.526   3.317
  428TIP3    H1 1248   0.533   5.565   3.367
  428TIP3    H2 1249   0.586   5.432   3.317
  429TIP3   OH2 1250   0.634   0.500   4.331
  429TIP3    H1 1251   0.684   0.493   4.250
  429TIP3    H2 1252   0.618   0.594   4.340
  430TIP3   OH2 1253   0.221   5.527   5.760
  430TIP3    H1 1254   0.248   5.510   5.669
  430TIP3    H2 1255   0.126   5.536   5.755
  431TIP3   OH2 1256   6.761   3.051   0.162
  431TIP3    H1 1257   6.790   3.135   0.197
  431TIP3    H2 1258   6.667   3.061   0.147
  432TIP3   OH2 1259   3.392   5.713   5.587
  432TIP3    H1 1260   3.475   5.757   5.567
  432TIP3    H2 1261   3.394   5.634   5.534
  433TIP3   OH2 1262   5.370   4.336   5.345
  433TIP3    H1 1263   5.451   4.369   5.384
  433TIP3    H2 1264   5.387   4.337   5.250
  434TIP3   OH2 1265   3.924   2.311   5.019
  434TIP3    H1 1266   3.998   2.362   5.052
  434TIP3    H2 1267   3.875   2.373   4.965
  435TIP3   OH2 1268   7.224   5.093   0.101
  435TIP3    H1 1269   7.261   5.177   0.075
  435TIP3    H2 1270   7.159   5.115   0.168
  436TIP3   OH2 1271   6.871   3.650   0.123
  436TIP3    H1 1272   6.830   3.652   0.209
  436TIP3    H2 1273   6.801   3.625   0.063
  437TIP3   OH2 1274   4.123   2.015   1.486
  437TIP3    H1 1275   4.028   2.010   1.492
  437TIP3    H2 1276   4.142   2.109   1.478
  438TIP3   OH2 1277   4.103   1.154   0.286
  438TIP3    H1 1278   4.087   1.246   0.307
  438TIP3    H2 1279   4.094   1.108   0.369
  439TIP3   OH2 1280   4.236   1.990   0.040
  439TIP3    H1 1281   4.328   1.965   0.041
  439TIP3    H2 1282   4.207   1.978   0.131
  440TIP3   OH2 1283   7.021   3.585   2.781
  440TIP3    H1 1284   7.098   3.609   2.832
  440TIP3    H2 1285   7.055   3.564   2.694
  441TIP3   OH2 1286   3.199   2.410   5.150
  441TIP3    H1 1287   3.137   2.352   5.194
  441TIP3    H2 1288   3.175   2.498   5.180
  442TIP3   OH2 1289   6.682   1.990   1.103
  442TIP3    H1 1290   6.741   1.960   1.172
  442TIP3    H2 1291   6.617   1.921   1.095
  443TIP3   OH2 1292   4.692   5.601   2.622
  443TIP3    H1 1293   4.646   5.584   2.540
  443TIP3    H2 1294   4.780   5.565   2.608
  444TIP3   OH2 1295   6.606   2.370   1.851
  444TIP3    H1 1296   6.537   2.340   1.910
  444TIP3    H2 1297   6.650   2.440   1.899
  445TIP3   OH2 1298   3.330   4.671   3.289
  445TIP3    H1 1299   3.249   4.647   3.244
  445TIP3    H2 1300   3.397   4.664   3.222
  446TIP3   OH2 1301   4.672   0.057   3.128
  446TIP3    H1 1302   4.706   0.032   3.042
  446TIP3    H2 1303   4.747   0.050   3.187
  447TIP3   OH2 1304   5.773   4.276   4.489
  447TIP3    H1 1305   5.827   4.349   4.459
  447TIP3    H2 1306   5.699   4.275   4.428
  448TIP3   OH2 1307   6.702   5.491   2.272
  448TIP3    H1 1308   6.613   5.521   2.253
  448TIP3    H2 1309   6.746   5.490   2.187
  449TIP3   OH2 1310   1.607   2.219   5.604
  449TIP3    H1 1311   1.531   2.270   5.635
  449TIP3    H2 1312   1.573   2.169   5.530
  450TIP3   OH2 1313   6.045   3.241   1.846
  450TIP3    H1 1314   6.088   3.281   1.770
  450TIP3    H2 1315   5.962   3.287   1.854
  451TIP3   OH2 1316   3.385   0.247   1.578
  451TIP3    H1 1317   3.343   0.256   1.493
  451TIP3    H2 1318   3.319   0.278   1.641
  452TIP3   OH2 1319   4.219   0.879   3.734
  452TIP3    H1 1320   4.285   0.888   3.665
  452TIP3    H2 1321   4.255   0.813   3.793
  453TIP3   OH2 1322   7.077   1.386   3.818
  453TIP3    H1 1323   6.993   1.354   3.849
  453TIP3    H2 1324   7.128   1.307   3.799
  454TIP3   OH2 1325   1.523   2.088   1.620
  454TIP3    H1 1326   1.564   2.174   1.617
  454TIP3    H2 1327   1.430   2.107   1.635
  455TIP3   OH2 1328   4.667   5.249   3.517
  455TIP3    H1 1329   4.680   5.318   3.582
  455TIP3    H2 1330   4.591   5.277   3.467
  456TIP3   OH2 1331   5.999   0.246   5.254
  456TIP3    H1 1332   6.078   0.205   5.290
  456TIP3    H2 1333   6.023   0.337   5.241
  457TIP3   OH2 1334   2.892   2.005   0.668
  457TIP3    H1 1335   2.923   1.914   0.667
  457TIP3    H2 1336   2.964   2.054   0.709
  458TIP3   OH2 1337   3.075   2.296   1.658
  458TIP3    H1 1338   3.163   2.263   1.643
  458TIP3    H2 1339   3.086   2.390   1.670
  459TIP3   OH2 1340   1.287   0.600   3.911
  459TIP3    H1 1341   1.358   0.662   3.927
  459TIP3    H2 1342   1.324   0.514   3.929
  460TIP3   OH2 1343   5.430   3.524   3.538
  460TIP3    H1 1344   5.399   3.588   3.602
  460TIP3    H2 1345   5.361   3.521   3.472
  461TIP3   OH2 1346   3.341   1.223   1.708
  461TIP3    H1 1347   3.348   1.163   1.781
  461TIP3    H2 1348   3.247   1.240   1.700
  462TIP3   OH2 1349   4.760   1.885   5.291
  462TIP3    H1 1350   4.728   1.919   5.207
  462TIP3    H2 1351   4.732   1.794   5.292
  463TIP3   OH2 1352   3.779   1.850   4.423
  463TIP3    H1 1353   3.799   1.943   4.432
  463TIP3    H2 1354   3.857   1.805   4.453
  464TIP3   OH2 1355   1.660   4.674   2.703
  464TIP3    H1 1356   1.658   4.584   2.673
  464TIP3    H2 1357   1.752   4.690   2.725
  465TIP3   OH2 1358   7.014   3.159   5.314
  465TIP3    H1 1359   7.096   3.112   5.330
  465TIP3    H2 1360   7.041   3.242   5.275
  466TIP3   OH2 1361   5.498   0.618   2.613
  466TIP3    H1 1362   5.545   0.606   2.696
  466TIP3    H2 1363   5.541   0.558   2.552
  467TIP3   OH2 1364   6.916   2.014   2.004
  467TIP3    H1 1365   6.840   2.018   1.947
  467TIP3    H2 1366   6.982   2.068   1.961
  468TIP3   OH2 1367   4.080   3.933   0.422
  468TIP3    H1 1368   4.172   3.930   0.446
  468TIP3    H2 1369   4.051   4.020   0.448
  469TIP3   OH2 1370   3.970   6.509   5.738
  469TIP3    H1 1371   4.021   6.428   5.743
  469TIP3    H2 1372   3.880   6.482   5.757
  470TIP3   OH2 1373   3.749   0.556   3.883
  470TIP3    H1 1374   3.710   0.531   3.800
  470TIP3    H2 1375   3.843   0.563   3.864
  471TIP3   OH2 1376   5.075   6.469   3.169
  471TIP3    H1 1377   5.140   6.411   3.208
  471TIP3    H2 1378   5.062   6.436   3.080
  472TIP3   OH2 1379   5.945   5.676   3.919
  472TIP3    H1 1380   5.917   5.634   3.838
  472TIP3    H2 1381   5.942   5.770   3.900
  473TIP3   OH2 1382   2.781   5.264   0.759
  473TIP3    H1 1383   2.766   5.344   0.707
  473TIP3    H2 1384   2.865   5.278   0.802
  474TIP3   OH2 1385   6.419   4.474   3.572
  474TIP3    H1 1386   6.444   4.423   3.494
  474TIP3    H2 1387   6.494   4.466   3.631
  475TIP3   OH2 1388   4.787   2.842   2.015
  475TIP3    H1 1389   4.803   2.884   1.930
  475TIP3    H2 1390   4.854   2.775   2.022
  476TIP3   OH2 1391   6.413   1.214   1.385
  476TIP3    H1 1392   6.395   1.215   1.479
  476TIP3    H2 1393   6.380   1.130   1.355
  477TIP3   OH2 1394   4.864   4.862   4.104
  477TIP3    H1 1395   4.959   4.854   4.097
  477TIP3    H2 1396   4.850   4.915   4.183
  478TIP3   OH2 1397   3.967   0.157   3.414
  478TIP3    H1 1398   3.960   0.130   3.322
  478TIP3    H2 1399   3.879   0.143   3.449
  479TIP3   OH2 1400   1.246   4.275   3.331
  479TIP3    H1 1401   1.231   4.354   3.279
  479TIP3    H2 1402   1.202   4.206   3.280
  480TIP3   OH2 1403   7.108   0.385   3.721
  480TIP3    H1 1404   7.033   0.394   3.779
  480TIP3    H2 1405   7.139   0.295   3.736
  481TIP3   OH2 1406   3.309   1.234   0.552
  481TIP3    H1 1407   3.251   1.199   0.485
  481TIP3    H2 1408   3.377   1.166   0.562
  482TIP3   OH2 1409   0.122   0.848   2.561
  482TIP3    H1 1410   0.095   0.906   2.632
  482TIP3    H2 1411   0.053   0.857   2.495
  483TIP3   OH2 1412   4.833   5.408   3.705
  483TIP3    H1 1413   4.870   5.327   3.740
  483TIP3    H2 1414   4.874   5.418   3.620
  484TIP3   OH2 1415   2.303   5.311   1.193
  484TIP3    H1 1416   2.338   5.399   1.180
  484TIP3    H2 1417   2.337   5.261   1.119
  485TIP3   OH2 1418   5.771   1.845   0.069
  485TIP3    H1 1419   5.792   1.766   0.019
  485TIP3    H2 1420   5.677   1.855   0.060
  486TIP3   OH2 1421   4.435   4.671   0.459
  486TIP3    H1 1422   4.366   4.719   0.505
  486TIP3    H2 1423   4.395   4.586   0.440
  487TIP3   OH2 1424   0.728   5.026   2.023
  487TIP3    H1 1425   0.730   4.937   2.058
  487TIP3    H2 1426   0.679   5.076   2.088
  488TIP3   OH2 1427   1.326   2.122   2.928
  488TIP3    H1 1428   1.245   2.159   2.893
  488TIP3    H2 1429   1.318   2.028   2.911
  489TIP3   OH2 1430   4.335   1.260   0.191
  489TIP3    H1 1431   4.297   1.329   0.138
  489TIP3    H2 1432   4.263   1.200   0.210
  490TIP3   OH2 1433   7.077   1.538   1.448
  490TIP3    H1 1434   7.077   1.498   1.535
  490TIP3    H2 1435   6.991   1.516   1.412
  491TIP3   OH2 1436   6.228   5.349   4.584
  491TIP3    H1 1437   6.230   5.262   4.623
  491TIP3    H2 1438   6.257   5.408   4.654
  492TIP3   OH2 1439   2.356   5.218   0.038
  492TIP3    H1 1440   2.374   5.311   0.055
  492TIP3    H2 1441   2.324   5.184   0.121
  493TIP3   OH2 1442   2.747   1.143   0.840
  493TIP3    H1 1443   2.694   1.219   0.815
  493TIP3    H2 1444   2.693   1.068   0.817
  494TIP3   OH2 1445   1.738   0.164   2.839
  494TIP3    H1 1446   1.794   0.168   2.917
  494TIP3    H2 1447   1.783   0.217   2.774
  495TIP3   OH2 1448   5.044   6.222   3.434
  495TIP3    H1 1449   5.062   6.129   3.451
  495TIP3    H2 1450   5.130   6.261   3.418
  496TIP3   OH2 1451   7.219   5.042   2.805
  496TIP3    H1 1452   7.135   5.073   2.839
  496TIP3    H2 1453   7.203   4.950   2.782
  497TIP3   OH2 1454   4.121   0.785   5.285
  497TIP3    H1 1455   4.201   0.834   5.301
  497TIP3    H2 1456   4.146   0.694   5.297
  498TIP3   OH2 1457   2.651   6.140   2.510
  498TIP3    H1 1458   2.629   6.048   2.499
  498TIP3    H2 1459   2.702   6.163   2.432
  499TIP3   OH2 1460   0.998   4.406   3.587
  499TIP3    H1 1461   1.022   4.471   3.522
  499TIP3    H2 1462   1.001   4.322   3.540
  500TIP3   OH2 1463   4.752   3.467   1.525
  500TIP3    H1 1464   4.699   3.501   1.453
  500TIP3    H2 1465   4.782   3.545   1.572
  501TIP3   OH2 1466   2.664   1.781   5.792
  501TIP3    H1 1467   2.576   1.769   5.756
  501TIP3    H2 1468   2.689   1.695   5.823
  502TIP3   OH2 1469   2.861   0.574   4.841
  502TIP3    H1 1470   2.776   0.585   4.799
  502TIP3    H2 1471   2.912   0.523   4.779
  503TIP3   OH2 1472   3.930   2.915   4.793
  503TIP3    H1 1473   3.868   2.847   4.766
  503TIP3    H2 1474   3.882   2.997   4.781
  504TIP3   OH2 1475   2.419   6.316   4.266
  504TIP3    H1 1476   2.339   6.314   4.319
  504TIP3    H2 1477   2.389   6.338   4.178
  505TIP3   OH2 1478   0.299  -0.019   2.704
  505TIP3    H1 1479   0.301  -0.003   2.798
  505TIP3    H2 1480   0.248   0.053   2.668
  506TIP3   OH2 1481   1.328   6.673   3.837
  506TIP3    H1 1482   1.390   6.647   3.904
  506TIP3    H2 1483   1.368   6.749   3.794
  507TIP3   OH2 1484   3.684   0.610   5.311
  507TIP3    H1 1485   3.753   0.545   5.326
  507TIP3    H2 1486   3.704   0.680   5.372
  508TIP3   OH2 1487   6.206   2.908   2.594
  508TIP3    H1 1488   6.151   2.926   2.670
  508TIP3    H2 1489   6.255   2.830   2.618
  509TIP3   OH2 1490   3.041   6.233   2.262
  509TIP3    H1 1491   3.043   6.172   2.335
  509TIP3    H2 1492   3.133   6.254   2.246
  510TIP3   OH2 1493   5.036   0.124   4.568
  510TIP3    H1 1494   5.032   0.076   4.651
  510TIP3    H2 1495   5.036   0.216   4.594
  511TIP3   OH2 1496   6.172   4.060   2.922
  511TIP3    H1 1497   6.228   4.061   2.845
  511TIP3    H2 1498   6.187   4.144   2.965
  512TIP3   OH2 1499   4.081   5.618   4.941
  512TIP3    H1 1500   4.033   5.536   4.927
  512TIP3    H2 1501   4.163   5.591   4.982
  513TIP3   OH2 1502   1.835   0.640   3.018
  513TIP3    H1 1503   1.763   0.589   3.055
  513TIP3    H2 1504   1.816   0.644   2.924
  514TIP3   OH2 1505   1.488   3.350   5.734
  514TIP3    H1 1506   1.475   3.303   5.652
  514TIP3    H2 1507   1.401   3.384   5.755
  515TIP3   OH2 1508   0.446   2.491   2.041
  515TIP3    H1 1509   0.494   2.408   2.036
  515TIP3    H2 1510   0.435   2.517   1.950
  516TIP3   OH2 1511   0.594   5.929   3.360
  516TIP3    H1 1512   0.574   5.942   3.453
  516TIP3    H2 1513   0.668   5.868   3.359
  517TIP3   OH2 1514   3.073   2.825   1.395
  517TIP3    H1 1515   3.100   2.762   1.328
  517TIP3    H2 1516   3.145   2.887   1.401
  518TIP3   OH2 1517   1.076   5.200   2.365
  518TIP3    H1 1518   1.060   5.200   2.460
  518TIP3    H2 1519   1.169   5.220   2.356
  519TIP3   OH2 1520   3.711   3.275   5.664
  519TIP3    H1 1521   3.684   3.183   5.662
  519TIP3    H2 1522   3.715   3.296   5.758
  520TIP3   OH2 1523   4.019   5.275   3.827
  520TIP3    H1 1524   4.069   5.354   3.848
  520TIP3    H2 1525   3.931   5.307   3.804
  521TIP3   OH2 1526   2.215   1.447   1.621
  521TIP3    H1 1527   2.277   1.421   1.690
  521TIP3    H2 1528   2.139   1.390   1.635
  522TIP3   OH2 1529   0.337   1.083   3.826
  522TIP3    H1 1530   0.356   0.994   3.797
  522TIP3    H2 1531   0.388   1.093   3.907
  523TIP3   OH2 1532   2.554   2.761   4.310
  523TIP3    H1 1533   2.638   2.743   4.354
  523TIP3    H2 1534   2.579   2.793   4.224
  524TIP3   OH2 1535   1.764   5.990   1.273
  524TIP3    H1 1536   1.746   6.016   1.183
  524TIP3    H2 1537   1.859   5.980   1.277
  525TIP3   OH2 1538   2.393   3.053   5.027
  525TIP3    H1 1539   2.302   3.050   4.996
  525TIP3    H2 1540   2.446   3.037   4.949
  526TIP3   OH2 1541   2.866   2.342   5.099
  526TIP3    H1 1542   2.849   2.270   5.039
  526TIP3    H2 1543   2.799   2.332   5.167
  527TIP3   OH2 1544   0.658   4.156   1.114
  527TIP3    H1 1545   0.610   4.074   1.126
  527TIP3    H2 1546   0.608   4.202   1.046
  528TIP3   OH2 1547   2.895   2.586   2.898
  528TIP3    H1 1548   2.897   2.584   2.802
  528TIP3    H2 1549   2.923   2.498   2.924
  529TIP3   OH2 1550   4.445   3.583   5.483
  529TIP3    H1 1551   4.531   3.617   5.508
  529TIP3    H2 1552   4.389   3.600   5.559
  530TIP3   OH2 1553   5.439   5.315   3.417
  530TIP3    H1 1554   5.523   5.314   3.372
  530TIP3    H2 1555   5.392   5.240   3.383
  531TIP3   OH2 1556   5.028   5.159   5.553
  531TIP3    H1 1557   4.978   5.230   5.512
  531TIP3    H2 1558   5.069   5.200   5.629
  532TIP3   OH2 1559   2.020   3.728   4.754
  532TIP3    H1 1560   2.087   3.793   4.734
  532TIP3    H2 1561   2.057   3.677   4.827
  533TIP3   OH2 1562   2.796   0.126   2.864
  533TIP3    H1 1563   2.732   0.150   2.930
  533TIP3    H2 1564   2.793   0.030   2.861
  534TIP3   OH2 1565   6.249   1.962   4.501
  534TIP3    H1 1566   6.238   1.933   4.591
  534TIP3    H2 1567   6.341   1.985   4.493
  535TIP3   OH2 1568   0.102   5.522   0.544
  535TIP3    H1 1569   0.045   5.457   0.584
  535TIP3    H2 1570   0.190   5.495   0.569
  536TIP3   OH2 1571   3.812   0.956   0.349
  536TIP3    H1 1572   3.846   0.994   0.429
  536TIP3    H2 1573   3.817   1.026   0.284
  537TIP3   OH2 1574   7.070   0.379   0.252
  537TIP3    H1 1575   7.058   0.364   0.158
  537TIP3    H2 1576   6.986   0.415   0.280
  538TIP3   OH2 1577   4.802   1.221   1.151
  538TIP3    H1 1578   4.791   1.216   1.246
  538TIP3    H2 1579   4.769   1.138   1.118
  539TIP3   OH2 1580   0.243   4.472   4.593
  539TIP3    H1 1581   0.313   4.535   4.574
  539TIP3    H2 1582   0.230   4.480   4.688
  540TIP3   OH2 1583   0.294   5.024   1.082
  540TIP3    H1 1584   0.218   5.023   1.025
  540TIP3    H2 1585   0.356   5.084   1.040
  541TIP3   OH2 1586   0.057   0.188   2.203
  541TIP3    H1 1587   0.083   0.150   2.286
  541TIP3    H2 1588  -0.009   0.254   2.225
  542TIP3   OH2 1589   3.351   3.970   1.155
  542TIP3    H1 1590   3.440   3.956   1.187
  542TIP3    H2 1591   3.312   3.883   1.155
  543TIP3   OH2 1592   0.923   2.027   1.525
  543TIP3    H1 1593   0.964   1.949   1.563
  543TIP3    H2 1594   0.829   2.011   1.534
  544TIP3   OH2 1595   3.875   5.814   1.363
  544TIP3    H1 1596   3.898   5.788   1.452
  544TIP3    H2 1597   3.913   5.746   1.307
  545TIP3   OH2 1598   3.797   6.357   0.655
  545TIP3    H1 1599   3.856   6.288   0.624
  545TIP3    H2 1600   3.720   6.349   0.598
  546TIP3   OH2 1601   5.080   5.946   2.291
  546TIP3    H1 1602   5.111   5.932   2.201
  546TIP3    H2 1603   5.000   5.997   2.281
  547TIP3   OH2 1604   2.637   5.074   2.837
  547TIP3    H1 1605   2.697   5.109   2.903
  547TIP3    H2 1606   2.585   5.150   2.809
  548TIP3   OH2 1607   3.499   4.811   4.330
  548TIP3    H1 1608   3.457   4.776   4.409
  548TIP3    H2 1609   3.427   4.831   4.271
  549TIP3   OH2 1610   4.998   0.737   0.117
  549TIP3    H1 1611   4.969   0.802   0.182
  549TIP3    H2 1612   5.011   0.787   0.037
  550TIP3   OH2 1613   3.304   1.188   2.013
  550TIP3    H1 1614   3.257   1.187   2.096
  550TIP3    H2 1615   3.237   1.174   1.946
  551TIP3   OH2 1616   5.587   2.421   0.063
  551TIP3    H1 1617   5.520   2.374   0.015
  551TIP3    H2 1618   5.591   2.377   0.148
  552TIP3   OH2 1619   2.599   0.671   4.136
  552TIP3    H1 1620   2.516   0.715   4.150
  552TIP3    H2 1621   2.575   0.586   4.098
  553TIP3   OH2 1622   6.838   4.590   5.383
  553TIP3    H1 1623   6.864   4.535   5.309
  553TIP3    H2 1624   6.778   4.535   5.434
  554TIP3   OH2 1625   1.310   3.910   4.216
  554TIP3    H1 1626   1.325   3.916   4.122
  554TIP3    H2 1627   1.372   3.971   4.255
  555TIP3   OH2 1628   4.628   6.406   2.628
  555TIP3    H1 1629   4.655   6.360   2.548
  555TIP3    H2 1630   4.613   6.496   2.599
  556TIP3   OH2 1631   1.221   4.702   0.553
  556TIP3    H1 1632   1.222   4.788   0.510
  556TIP3    H2 1633   1.129   4.681   0.563
  557TIP3   OH2 1634   5.180   3.604   0.886
  557TIP3    H1 1635   5.097   3.650   0.901
  557TIP3    H2 1636   5.160   3.512   0.903
  558TIP3   OH2 1637   2.593   6.622   1.882
  558TIP3    H1 1638   2.608   6.531   1.857
  558TIP3    H2 1639   2.599   6.671   1.800
  559TIP3   OH2 1640   5.314   0.685   1.550
  559TIP3    H1 1641   5.286   0.650   1.465
  559TIP3    H2 1642   5.410   0.685   1.546
  560TIP3   OH2 1643   3.631   3.925   1.164
  560TIP3    H1 1644   3.698   3.961   1.105
  560TIP3    H2 1645   3.594   3.852   1.116
  561TIP3   OH2 1646   2.793   2.832   3.295
  561TIP3    H1 1647   2.881   2.869   3.299
  561TIP3    H2 1648   2.737   2.907   3.275
  562TIP3   OH2 1649   5.487   4.309   3.624
  562TIP3    H1 1650   5.503   4.385   3.568
  562TIP3    H2 1651   5.459   4.347   3.708
  563TIP3   OH2 1652   2.494   4.411   2.504
  563TIP3    H1 1653   2.468   4.358   2.579
  563TIP3    H2 1654   2.481   4.502   2.534
  564TIP3   OH2 1655   0.978   4.982   5.274
  564TIP3    H1 1656   1.058   5.021   5.237
  564TIP3    H2 1657   0.908   5.041   5.246
  565TIP3   OH2 1658   3.703   5.892   0.773
  565TIP3    H1 1659   3.670   5.843   0.848
  565TIP3    H2 1660   3.691   5.833   0.699
  566TIP3   OH2 1661   4.536   0.525   2.796
  566TIP3    H1 1662   4.537   0.620   2.795
  566TIP3    H2 1663   4.575   0.501   2.880
  567TIP3   OH2 1664   5.288   0.622   0.427
  567TIP3    H1 1665   5.378   0.590   0.434
  567TIP3    H2 1666   5.258   0.630   0.517
  568TIP3   OH2 1667   4.287   0.567   1.251
  568TIP3    H1 1668   4.332   0.484   1.263
  568TIP3    H2 1669   4.239   0.581   1.333
  569TIP3   OH2 1670   2.449   5.641   1.591
  569TIP3    H1 1671   2.392   5.571   1.623
  569TIP3    H2 1672   2.498   5.669   1.668
  570TIP3   OH2 1673   6.455   0.004   2.633
  570TIP3    H1 1674   6.372   0.050   2.631
  570TIP3    H2 1675   6.454  -0.051   2.555
  571TIP3   OH2 1676   2.536   5.777   4.772
  571TIP3    H1 1677   2.538   5.768   4.677
  571TIP3    H2 1678   2.604   5.841   4.792
  572TIP3   OH2 1679   2.883   4.896   4.345
  572TIP3    H1 1680   2.834   4.815   4.358
  572TIP3    H2 1681   2.956   4.889   4.407
  573TIP3   OH2 1682   1.332   2.330   5.515
  573TIP3    H1 1683   1.341   2.408   5.460
  573TIP3    H2 1684   1.239   2.307   5.510
  574TIP3   OH2 1685   2.642   2.591   4.562
  574TIP3    H1 1686   2.701   2.621   4.492
  574TIP3    H2 1687   2.686   2.514   4.598
  575TIP3   OH2 1688   1.060   0.753   4.686
  575TIP3    H1 1689   1.129   0.725   4.626
  575TIP3    H2 1690   0.992   0.686   4.676
  576TIP3   OH2 1691   2.725   1.195   1.455
  576TIP3    H1 1692   2.685   1.173   1.371
  576TIP3    H2 1693   2.652   1.189   1.518
  577TIP3   OH2 1694   5.536   5.086   3.600
  577TIP3    H1 1695   5.632   5.097   3.601
  577TIP3    H2 1696   5.502   5.175   3.608
  578TIP3   OH2 1697   6.819   4.328   3.725
  578TIP3    H1 1698   6.857   4.243   3.705
  578TIP3    H2 1699   6.726   4.310   3.740
  579TIP3   OH2 1700   3.196   3.000   1.855
  579TIP3    H1 1701   3.288   3.025   1.862
  579TIP3    H2 1702   3.196   2.905   1.862
  580TIP3   OH2 1703   6.076   4.292   5.007
  580TIP3    H1 1704   6.062   4.365   5.067
  580TIP3    H2 1705   6.024   4.220   5.044
  581TIP3   OH2 1706   4.194   5.405   1.979
  581TIP3    H1 1707   4.185   5.379   1.887
  581TIP3    H2 1708   4.110   5.382   2.019
  582TIP3   OH2 1709   2.832   1.625   0.845
  582TIP3    H1 1710   2.843   1.616   0.751
  582TIP3    H2 1711   2.810   1.537   0.875
  583TIP3   OH2 1712   0.128   4.948   0.298
  583TIP3    H1 1713   0.063   4.879   0.288
  583TIP3    H2 1714   0.126   4.996   0.215
  584TIP3   OH2 1715   0.627   5.581   2.616
  584TIP3    H1 1716   0.595   5.637   2.545
  584TIP3    H2 1717   0.698   5.632   2.656
  585TIP3   OH2 1718   4.311   3.926   0.869
  585TIP3    H1 1719   4.347   3.918   0.957
  585TIP3    H2 1720   4.381   3.894   0.811
  586TIP3   OH2 1721   2.352   4.170   5.601
  586TIP3    H1 1722   2.434   4.165   5.651
  586TIP3    H2 1723   2.356   4.254   5.556
  587TIP3   OH2 1724   1.329   6.014   2.774
  587TIP3    H1 1725   1.245   5.969   2.771
  587TIP3    H2 1726   1.308   6.103   2.803
  588TIP3   OH2 1727   6.283   5.844   0.842
  588TIP3    H1 1728   6.284   5.907   0.914
  588TIP3    H2 1729   6.258   5.761   0.882
  589TIP3   OH2 1730   2.768   1.746   1.512
  589TIP3    H1 1731   2.788   1.763   1.604
  589TIP3    H2 1732   2.785   1.652   1.501
  590TIP3   OH2 1733   6.774   3.663   0.372
  590TIP3    H1 1734   6.844   3.618   0.421
  590TIP3    H2 1735   6.707   3.596   0.361
  591TIP3   OH2 1736   5.572   1.998   1.125
  591TIP3    H1 1737   5.492   1.949   1.102
  591TIP3    H2 1738   5.643   1.936   1.112
  592TIP3   OH2 1739   7.009   6.228   5.051
  592TIP3    H1 1740   7.053   6.215   4.968
  592TIP3    H2 1741   7.062   6.179   5.114
  593TIP3   OH2 1742   1.713   2.803   2.025
  593TIP3    H1 1743   1.635   2.796   1.970
  593TIP3    H2 1744   1.735   2.896   2.024
  594TIP3   OH2 1745   0.570   3.497   1.758
  594TIP3    H1 1746   0.620   3.551   1.819
  594TIP3    H2 1747   0.633   3.474   1.689
  595TIP3   OH2 1748   2.888   5.813   5.717
  595TIP3    H1 1749   2.795   5.795   5.708
  595TIP3    H2 1750   2.919   5.821   5.626
  596TIP3   OH2 1751   0.609   5.948   4.402
  596TIP3    H1 1752   0.539   5.933   4.466
  596TIP3    H2 1753   0.626   5.862   4.364
  597TIP3   OH2 1754   2.567   0.881   0.473
  597TIP3    H1 1755   2.636   0.917   0.417
  597TIP3    H2 1756   2.490   0.877   0.416
  598TIP3   OH2 1757   1.362   3.528   3.723
  598TIP3    H1 1758   1.425   3.553   3.790
  598TIP3    H2 1759   1.303   3.603   3.716
  599TIP3   OH2 1760   0.878   3.306   5.163
  599TIP3    H1 1761   0.960   3.312   5.114
  599TIP3    H2 1762   0.810   3.306   5.096
  600TIP3   OH2 1763   2.296   2.056   0.338
  600TIP3    H1 1764   2.361   2.122   0.361
  600TIP3    H2 1765   2.347   1.980   0.310
  601TIP3   OH2 1766   6.490   2.262   2.712
  601TIP3    H1 1767   6.551   2.189   2.702
  601TIP3    H2 1768   6.539   2.327   2.763
  602TIP3   OH2 1769   3.380   0.226   2.008
  602TIP3    H1 1770   3.305   0.179   2.046
  602TIP3    H2 1771   3.444   0.229   2.079
  603TIP3   OH2 1772   3.311   3.573   4.490
  603TIP3    H1 1773   3.371   3.623   4.545
  603TIP3    H2 1774   3.267   3.513   4.551
  604TIP3   OH2 1775   6.512   3.657   3.601
  604TIP3    H1 1776   6.527   3.730   3.540
  604TIP3    H2 1777   6.448   3.691   3.663
  605TIP3   OH2 1778   2.447   6.428   0.034
  605TIP3    H1 1779   2.536   6.415   0.067
  605TIP3    H2 1780   2.391   6.405   0.108
  606TIP3   OH2 1781   5.717   2.624   5.356
  606TIP3    H1 1782   5.735   2.601   5.447
  606TIP3    H2 1783   5.729   2.543   5.308
  607TIP3   OH2 1784   0.536   2.101   3.991
  607TIP3    H1 1785   0.604   2.155   4.032
  607TIP3    H2 1786   0.534   2.131   3.900
  608TIP3   OH2 1787   5.931   4.440   3.972
  608TIP3    H1 1788   5.935   4.365   3.912
  608TIP3    H2 1789   5.958   4.515   3.919
  609TIP3   OH2 1790   6.495   3.902   0.387
  609TIP3    H1 1791   6.470   3.845   0.314
  609TIP3    H2 1792   6.439   3.874   0.459
  610TIP3   OH2 1793   3.822   2.303   1.546
  610TIP3    H1 1794   3.731   2.316   1.575
  610TIP3    H2 1795   3.828   2.209   1.528
  611TIP3   OH2 1796   0.296   4.606   4.863
  611TIP3    H1 1797   0.386   4.579   4.881
  611TIP3    H2 1798   0.305   4.694   4.826
  612TIP3   OH2 1799   2.680   5.745   0.183
  612TIP3    H1 1800   2.683   5.754   0.088
  612TIP3    H2 1801   2.675   5.650   0.198
  613TIP3   OH2 1802   4.206   0.514   3.756
  613TIP3    H1 1803   4.156   0.512   3.675
  613TIP3    H2 1804   4.166   0.584   3.808
  614TIP3   OH2 1805   3.883   0.152   2.216
  614TIP3    H1 1806   3.928   0.071   2.239
  614TIP3    H2 1807   3.944   0.200   2.160
  615TIP3   OH2 1808   5.416   5.054   1.968
  615TIP3    H1 1809   5.366   5.116   2.021
  615TIP3    H2 1810   5.491   5.105   1.937
  616TIP3   OH2 1811   5.679   3.449   1.103
  616TIP3    H1 1812   5.652   3.393   1.030
  616TIP3    H2 1813   5.740   3.512   1.064
  617TIP3   OH2 1814   2.442   6.679   2.647
  617TIP3    H1 1815   2.520   6.694   2.595
  617TIP3    H2 1816   2.375   6.652   2.584
  618TIP3   OH2 1817   0.149   5.470   2.830
  618TIP3    H1 1818   0.054   5.465   2.825
  618TIP3    H2 1819   0.179   5.382   2.805
  619TIP3   OH2 1820   3.398   2.958   3.739
  619TIP3    H1 1821   3.379   3.035   3.687
  619TIP3    H2 1822   3.486   2.974   3.775
  620TIP3   OH2 1823   2.416   2.492   4.269
  620TIP3    H1 1824   2.337   2.518   4.316
  620TIP3    H2 1825   2.479   2.562   4.289
  621TIP3   OH2 1826   1.742   1.869   5.727
  621TIP3    H1 1827   1.653   1.884   5.759
  621TIP3    H2 1828   1.749   1.774   5.716
  622TIP3   OH2 1829   5.329   1.309   1.240
  622TIP3    H1 1830   5.257   1.250   1.219
  622TIP3    H2 1831   5.406   1.252   1.247
  623TIP3   OH2 1832   4.760   0.425   2.556
  623TIP3    H1 1833   4.787   0.333   2.550
  623TIP3    H2 1834   4.754   0.441   2.650
  624TIP3   OH2 1835   3.962   5.128   0.615
  624TIP3    H1 1836   4.050   5.089   0.608
  624TIP3    H2 1837   3.904   5.061   0.579
  625TIP3   OH2 1838   4.993   3.574   2.237
  625TIP3    H1 1839   4.967   3.583   2.329
  625TIP3    H2 1840   5.015   3.482   2.227
  626TIP3   OH2 1841   6.040   0.741   4.071
  626TIP3    H1 1842   5.980   0.811   4.042
  626TIP3    H2 1843   6.068   0.699   3.990
  627TIP3   OH2 1844   4.453   6.207   1.363
  627TIP3    H1 1845   4.453   6.112   1.355
  627TIP3    H2 1846   4.543   6.233   1.346
  628TIP3   OH2 1847   4.199   2.716   0.279
  628TIP3    H1 1848   4.237   2.634   0.310
  628TIP3    H2 1849   4.257   2.744   0.208
  629TIP3   OH2 1850   0.546   5.131   3.641
  629TIP3    H1 1851   0.502   5.047   3.651
  629TIP3    H2 1852   0.639   5.109   3.635
  630TIP3   OH2 1853   0.836   1.854   1.810
  630TIP3    H1 1854   0.841   1.942   1.848
  630TIP3    H2 1855   0.757   1.816   1.850
  631TIP3   OH2 1856   4.913   2.651   1.158
  631TIP3    H1 1857   4.927   2.611   1.244
  631TIP3    H2 1858   4.843   2.714   1.173
  632TIP3   OH2 1859   6.455   0.166   4.219
  632TIP3    H1 1860   6.500   0.115   4.287
  632TIP3    H2 1861   6.394   0.104   4.179
  633TIP3   OH2 1862   5.583   0.940   5.022
  633TIP3    H1 1863   5.637   1.011   4.987
  633TIP3    H2 1864   5.637   0.862   5.011
  634TIP3   OH2 1865   2.359   2.736   5.507
  634TIP3    H1 1866   2.306   2.811   5.534
  634TIP3    H2 1867   2.305   2.660   5.526
  635TIP3   OH2 1868   5.414   2.606   3.544
  635TIP3    H1 1869   5.402   2.554   3.623
  635TIP3    H2 1870   5.337   2.663   3.540
  636TIP3   OH2 1871   3.460   3.648   5.256
  636TIP3    H1 1872   3.531   3.615   5.201
  636TIP3    H2 1873   3.489   3.631   5.346
  637TIP3   OH2 1874   4.508   6.299   4.840
  637TIP3    H1 1875   4.462   6.286   4.756
  637TIP3    H2 1876   4.573   6.367   4.822
  638TIP3   OH2 1877   0.402   3.186   5.415
  638TIP3    H1 1878   0.439   3.211   5.500
  638TIP3    H2 1879   0.479   3.172   5.359
  639TIP3   OH2 1880   5.188   3.879   4.677
  639TIP3    H1 1881   5.138   3.882   4.595
  639TIP3    H2 1882   5.199   3.786   4.695
  640TIP3   OH2 1883   4.727   0.682   2.472
  640TIP3    H1 1884   4.644   0.699   2.430
  640TIP3    H2 1885   4.714   0.600   2.520
  641TIP3   OH2 1886   5.706   1.185   1.505
  641TIP3    H1 1887   5.708   1.128   1.582
  641TIP3    H2 1888   5.628   1.239   1.517
  642TIP3   OH2 1889   6.682   3.365   2.280
  642TIP3    H1 1890   6.587   3.367   2.266
  642TIP3    H2 1891   6.704   3.272   2.280
  643TIP3   OH2 1892   1.702   2.791   0.615
  643TIP3    H1 1893   1.730   2.878   0.643
  643TIP3    H2 1894   1.777   2.735   0.634
  644TIP3   OH2 1895   1.794   4.702   5.007
  644TIP3    H1 1896   1.846   4.674   4.932
  644TIP3    H2 1897   1.726   4.634   5.016
  645TIP3   OH2 1898   6.332   0.275   1.681
  645TIP3    H1 1899   6.312   0.200   1.626
  645TIP3    H2 1900   6.340   0.239   1.769
  646TIP3   OH2 1901   6.385   4.107   5.896
  646TIP3    H1 1902   6.377   4.183   5.954
  646TIP3    H2 1903   6.406   4.144   5.810
  647TIP3   OH2 1904   5.638   5.083   0.028
  647TIP3    H1 1905   5.589   5.112  -0.049
  647TIP3    H2 1906   5.650   5.162   0.080
  648TIP3   OH2 1907   0.328   3.969   2.275
  648TIP3    H1 1908   0.353   4.057   2.305
  648TIP3    H2 1909   0.261   3.941   2.338
  649TIP3   OH2 1910   0.060   5.653   4.625
  649TIP3    H1 1911   0.036   5.594   4.696
  649TIP3    H2 1912   0.053   5.741   4.662
  650TIP3   OH2 1913   5.624   6.444   5.243
  650TIP3    H1 1914   5.560   6.500   5.201
  650TIP3    H2 1915   5.686   6.421   5.174
  651TIP3   OH2 1916   2.778   0.867   4.295
  651TIP3    H1 1917   2.740   0.951   4.271
  651TIP3    H2 1918   2.711   0.803   4.272
  652TIP3   OH2 1919   3.492   1.772   1.329
  652TIP3    H1 1920   3.566   1.740   1.382
  652TIP3    H2 1921   3.464   1.696   1.278
  653TIP3   OH2 1922   5.980   4.659   4.814
  653TIP3    H1 1923   6.073   4.636   4.815
  653TIP3    H2 1924   5.955   4.655   4.722
  654TIP3   OH2 1925   1.541   2.438   4.414
  654TIP3    H1 1926   1.486   2.468   4.487
  654TIP3    H2 1927   1.504   2.482   4.337
  655TIP3   OH2 1928   5.466   3.705   5.826
  655TIP3    H1 1929   5.372   3.694   5.835
  655TIP3    H2 1930   5.476   3.784   5.773
  656TIP3   OH2 1931   2.734   6.410   1.800
  656TIP3    H1 1932   2.772   6.369   1.723
  656TIP3    H2 1933   2.806   6.412   1.864
  657TIP3   OH2 1934   5.318   4.173   5.564
  657TIP3    H1 1935   5.289   4.089   5.528
  657TIP3    H2 1936   5.337   4.227   5.487
  658TIP3   OH2 1937   3.364   4.910   3.426
  658TIP3    H1 1938   3.328   4.824   3.402
  658TIP3    H2 1939   3.445   4.917   3.376
  659TIP3   OH2 1940   5.242   5.406   5.610
  659TIP3    H1 1941   5.290   5.430   5.531
  659TIP3    H2 1942   5.180   5.478   5.622
  660TIP3   OH2 1943   1.499   2.955   2.747
  660TIP3    H1 1944   1.517   2.982   2.657
  660TIP3    H2 1945   1.444   2.877   2.738
  661TIP3   OH2 1946   5.891   2.288   5.005
  661TIP3    H1 1947   5.986   2.284   5.015
  661TIP3    H2 1948   5.857   2.243   5.082
  662TIP3   OH2 1949   0.851   2.879   0.534
  662TIP3    H1 1950   0.764   2.917   0.540
  662TIP3    H2 1951   0.874   2.857   0.625
  663TIP3   OH2 1952   1.482   0.232   3.558
  663TIP3    H1 1953   1.424   0.223   3.634
  663TIP3    H2 1954   1.456   0.315   3.518
  664TIP3   OH2 1955   6.002   0.783   4.352
  664TIP3    H1 1956   6.015   0.728   4.274
  664TIP3    H2 1957   6.015   0.724   4.425
  665TIP3   OH2 1958   4.106   2.181   4.829
  665TIP3    H1 1959   4.095   2.176   4.924
  665TIP3    H2 1960   4.191   2.140   4.813
  666TIP3   OH2 1961   2.977   0.770   2.664
  666TIP3    H1 1962   3.046   0.835   2.684
  666TIP3    H2 1963   3.015   0.686   2.690
  667TIP3   OH2 1964   1.116   5.887   1.422
  667TIP3    H1 1965   1.022   5.876   1.432
  667TIP3    H2 1966   1.155   5.814   1.469
  668TIP3   OH2 1967   5.065   0.575   1.410
  668TIP3    H1 1968   4.986   0.537   1.449
  668TIP3    H2 1969   5.078   0.657   1.457
  669TIP3   OH2 1970   3.234   3.732   1.401
  669TIP3    H1 1971   3.271   3.809   1.443
  669TIP3    H2 1972   3.280   3.726   1.317
  670TIP3   OH2 1973   6.299   4.688   3.060
  670TIP3    H1 1974   6.336   4.624   3.120
  670TIP3    H2 1975   6.204   4.676   3.068
  671TIP3   OH2 1976   3.112   4.602   2.749
  671TIP3    H1 1977   3.197   4.640   2.725
  671TIP3    H2 1978   3.084   4.652   2.825
  672TIP3   OH2 1979   3.210   5.381   0.443
  672TIP3    H1 1980   3.256   5.413   0.520
  672TIP3    H2 1981   3.188   5.460   0.394
  673TIP3   OH2 1982   0.895   0.861   1.540
  673TIP3    H1 1983   0.840   0.937   1.557
  673TIP3    H2 1984   0.950   0.853   1.617
  674TIP3   OH2 1985   5.899   5.196   3.934
  674TIP3    H1 1986   5.880   5.264   3.999
  674TIP3    H2 1987   5.971   5.146   3.972
  675TIP3   OH2 1988   0.087   5.620   1.088
  675TIP3    H1 1989   0.168   5.589   1.048
  675TIP3    H2 1990   0.049   5.680   1.023
  676TIP3   OH2 1991   4.220   5.194   3.242
  676TIP3    H1 1992   4.206   5.231   3.155
  676TIP3    H2 1993   4.136   5.152   3.264
  677TIP3   OH2 1994   1.346   0.036   3.966
  677TIP3    H1 1995   1.406   0.103   4.000
  677TIP3    H2 1996   1.347  -0.033   4.032
  678TIP3   OH2 1997   3.794   2.842   4.128
  678TIP3    H1 1998   3.861   2.774   4.138
  678TIP3    H2 1999   3.839   2.913   4.081
  679TIP3   OH2 2000   1.043   5.374   5.208
  679TIP3    H1 2001   0.976   5.340   5.267
  679TIP3    H2 2002   0.996   5.434   5.151
  680TIP3   OH2 2003   0.505   5.283   1.133
  680TIP3    H1 2004   0.478   5.253   1.046
  680TIP3    H2 2005   0.568   5.217   1.162
  681TIP3   OH2 2006   6.707   4.020   1.820
  681TIP3    H1 2007   6.714   4.115   1.830
  681TIP3    H2 2008   6.786   3.986   1.861
  682TIP3   OH2 2009   2.755   3.075   3.600
  682TIP3    H1 2010   2.714   3.008   3.545
  682TIP3    H2 2011   2.729   3.158   3.560
  683TIP3   OH2 2012   6.598   5.617   0.340
  683TIP3    H1 2013   6.600   5.661   0.255
  683TIP3    H2 2014   6.647   5.675   0.399
  684TIP3   OH2 2015   4.917   0.557   4.750
  684TIP3    H1 2016   4.877   0.558   4.837
  684TIP3    H2 2017   4.866   0.618   4.699
  685TIP3   OH2 2018   0.183   1.981   5.616
  685TIP3    H1 2019   0.220   1.977   5.528
  685TIP3    H2 2020   0.088   1.978   5.603
  686TIP3   OH2 2021   0.422   4.242   1.341
  686TIP3    H1 2022   0.416   4.196   1.257
  686TIP3    H2 2023   0.494   4.198   1.387
  687TIP3   OH2 2024   2.834   3.165   3.915
  687TIP3    H1 2025   2.753   3.202   3.881
  687TIP3    H2 2026   2.870   3.113   3.843
  688TIP3   OH2 2027   1.938   5.265   2.645
  688TIP3    H1 2028   1.945   5.189   2.587
  688TIP3    H2 2029   2.020   5.313   2.630
  689TIP3   OH2 2030   2.730   0.923   0.205
  689TIP3    H1 2031   2.783   0.993   0.168
  689TIP3    H2 2032   2.647   0.929   0.158
  690TIP3   OH2 2033   3.860   0.656   3.620
  690TIP3    H1 2034   3.864   0.752   3.618
  690TIP3    H2 2035   3.766   0.636   3.623
  691TIP3   OH2 2036   2.696   3.336   1.607
  691TIP3    H1 2037   2.685   3.387   1.527
  691TIP3    H2 2038   2.754   3.264   1.582
  692TIP3   OH2 2039   1.109   0.062   4.510
  692TIP3    H1 2040   1.075   0.082   4.597
  692TIP3    H2 2041   1.077  -0.026   4.491
  693TIP3   OH2 2042   3.998   0.428   0.592
  693TIP3    H1 2043   3.978   0.522   0.598
  693TIP3    H2 2044   3.950   0.389   0.666
  694TIP3   OH2 2045   0.237   2.080   5.277
  694TIP3    H1 2046   0.244   2.175   5.290
  694TIP3    H2 2047   0.327   2.050   5.267
  695TIP3   OH2 2048   5.839   0.073   3.787
  695TIP3    H1 2049   5.815   0.026   3.867
  695TIP3    H2 2050   5.825   0.009   3.717
  696TIP3   OH2 2051   5.667   3.929   0.760
  696TIP3    H1 2052   5.671   3.851   0.704
  696TIP3    H2 2053   5.574   3.952   0.761
  697TIP3   OH2 2054   5.920   3.623   5.304
  697TIP3    H1 2055   5.866   3.599   5.380
  697TIP3    H2 2056   5.988   3.680   5.340
  698TIP3   OH2 2057   2.678   5.857   4.523
  698TIP3    H1 2058   2.713   5.891   4.441
  698TIP3    H2 2059   2.690   5.762   4.517
  699TIP3   OH2 2060   0.312   4.247   2.334
  699TIP3    H1 2061   0.312   4.245   2.430
  699TIP3    H2 2062   0.269   4.330   2.312
  700TIP3   OH2 2063   5.948   5.067   2.683
  700TIP3    H1 2064   5.938   5.128   2.756
  700TIP3    H2 2065   5.875   5.087   2.624
  701TIP3   OH2 2066   6.795   0.228   3.268
  701TIP3    H1 2067   6.881   0.253   3.232
  701TIP3    H2 2068   6.781   0.287   3.341
  702TIP3   OH2 2069   6.668   0.738   0.302
  702TIP3    H1 2070   6.719   0.708   0.227
  702TIP3    H2 2071   6.587   0.771   0.263
  703TIP3   OH2 2072   4.604   1.091   2.095
  703TIP3    H1 2073   4.571   1.110   2.183
  703TIP3    H2 2074   4.634   1.000   2.100
  704TIP3   OH2 2075   3.648   5.713   4.956
  704TIP3    H1 2076   3.585   5.646   4.931
  704TIP3    H2 2077   3.620   5.740   5.044
  705TIP3   OH2 2078   1.831   6.462   3.306
  705TIP3    H1 2079   1.767   6.441   3.375
  705TIP3    H2 2080   1.785   6.442   3.225
  706TIP3   OH2 2081   1.733   4.288   2.349
  706TIP3    H1 2082   1.704   4.219   2.410
  706TIP3    H2 2083   1.659   4.299   2.289
  707TIP3   OH2 2084   2.561   6.736   3.001
  707TIP3    H1 2085   2.628   6.682   2.958
  707TIP3    H2 2086   2.478   6.694   2.978
  708TIP3   OH2 2087   7.019   2.561   4.444
  708TIP3    H1 2088   7.108   2.533   4.422
  708TIP3    H2 2089   6.962   2.499   4.398
  709TIP3   OH2 2090   3.865   4.767   4.269
  709TIP3    H1 2091   3.833   4.805   4.351
  709TIP3    H2 2092   3.822   4.818   4.200
  710TIP3   OH2 2093   2.709   6.464   3.840
  710TIP3    H1 2094   2.716   6.413   3.921
  710TIP3    H2 2095   2.771   6.536   3.852
  711TIP3   OH2 2096   3.244   6.239   2.686
  711TIP3    H1 2097   3.303   6.230   2.761
  711TIP3    H2 2098   3.159   6.257   2.725
  712TIP3   OH2 2099   0.860   1.522   2.061
  712TIP3    H1 2100   0.815   1.553   2.140
  712TIP3    H2 2101   0.949   1.557   2.069
  713TIP3   OH2 2102   0.117   3.406   4.894
  713TIP3    H1 2103   0.071   3.322   4.888
  713TIP3    H2 2104   0.101   3.435   4.984
  714TIP3   OH2 2105   0.439   5.109   1.773
  714TIP3    H1 2106   0.346   5.101   1.752
  714TIP3    H2 2107   0.440   5.126   1.867
  715TIP3   OH2 2108   5.602   2.642   2.370
  715TIP3    H1 2109   5.526   2.651   2.428
  715TIP3    H2 2110   5.600   2.550   2.342
  716TIP3   OH2 2111   1.936   2.919   3.591
  716TIP3    H1 2112   1.853   2.882   3.622
  716TIP3    H2 2113   1.929   2.919   3.496
  717TIP3   OH2 2114   4.070   0.460   4.965
  717TIP3    H1 2115   4.025   0.428   4.887
  717TIP3    H2 2116   4.005   0.512   5.012
  718TIP3   OH2 2117   3.929   0.960   2.846
  718TIP3    H1 2118   4.016   0.946   2.883
  718TIP3    H2 2119   3.887   0.874   2.847
  719TIP3   OH2 2120   5.126   4.551   1.056
  719TIP3    H1 2121   5.132   4.639   1.093
  719TIP3    H2 2122   5.079   4.563   0.973
  720TIP3   OH2 2123   5.191   6.177   0.564
  720TIP3    H1 2124   5.150   6.196   0.480
  720TIP3    H2 2125   5.157   6.243   0.624
  721TIP3   OH2 2126   5.509   4.764   2.109
  721TIP3    H1 2127   5.419   4.795   2.108
  721TIP3    H2 2128   5.503   4.672   2.135
  722TIP3   OH2 2129   7.187   3.509   2.474
  722TIP3    H1 2130   7.182   3.415   2.491
  722TIP3    H2 2131   7.098   3.533   2.447
  723TIP3   OH2 2132   4.255   5.110   4.222
  723TIP3    H1 2133   4.319   5.148   4.162
  723TIP3    H2 2134   4.241   5.177   4.289
  724TIP3   OH2 2135   6.081   5.101   1.003
  724TIP3    H1 2136   6.015   5.163   0.971
  724TIP3    H2 2137   6.032   5.021   1.022
  725TIP3   OH2 2138   4.322   3.237   1.109
  725TIP3    H1 2139   4.379   3.232   1.033
  725TIP3    H2 2140   4.267   3.313   1.093
  726TIP3   OH2 2141   6.792   3.145   3.215
  726TIP3    H1 2142   6.873   3.096   3.201
  726TIP3    H2 2143   6.809   3.231   3.178
  727TIP3   OH2 2144   4.139   1.292   3.984
  727TIP3    H1 2145   4.063   1.235   3.980
  727TIP3    H2 2146   4.213   1.233   3.998
  728TIP3   OH2 2147   1.843   1.634   5.499
  728TIP3    H1 2148   1.841   1.588   5.415
  728TIP3    H2 2149   1.880   1.571   5.560
  729TIP3   OH2 2150   4.000   6.032   5.717
  729TIP3    H1 2151   3.959   6.043   5.631
  729TIP3    H2 2152   4.080   5.981   5.699
  730TIP3   OH2 2153   5.254   5.227   3.041
  730TIP3    H1 2154   5.256   5.234   2.946
  730TIP3    H2 2155   5.282   5.313   3.072
  731TIP3   OH2 2156   3.394   6.702   3.563
  731TIP3    H1 2157   3.302   6.721   3.548
  731TIP3    H2 2158   3.396   6.607   3.577
  732TIP3   OH2 2159   2.104   2.436   2.810
  732TIP3    H1 2160   2.025   2.491   2.812
  732TIP3    H2 2161   2.078   2.359   2.760
  733TIP3   OH2 2162   5.654   5.017   3.031
  733TIP3    H1 2163   5.593   5.043   2.961
  733TIP3    H2 2164   5.721   5.086   3.031
  734TIP3   OH2 2165   6.417   0.477   4.789
  734TIP3    H1 2166   6.322   0.469   4.783
  734TIP3    H2 2167   6.441   0.421   4.863
  735TIP3   OH2 2168   2.705   2.462   1.321
  735TIP3    H1 2169   2.706   2.434   1.230
  735TIP3    H2 2170   2.752   2.393   1.368
  736TIP3   OH2 2171   5.445   0.086   5.833
  736TIP3    H1 2172   5.397   0.034   5.769
  736TIP3    H2 2173   5.537   0.071   5.813
  737TIP3   OH2 2174   4.159   5.452   2.276
  737TIP3    H1 2175   4.111   5.524   2.235
  737TIP3    H2 2176   4.248   5.486   2.290
  738TIP3   OH2 2177   1.342   3.431   2.691
  738TIP3    H1 2178   1.258   3.450   2.649
  738TIP3    H2 2179   1.319   3.407   2.781
  739TIP3   OH2 2180   4.691   3.193   4.335
  739TIP3    H1 2181   4.618   3.160   4.386
  739TIP3    H2 2182   4.764   3.197   4.397
  740TIP3   OH2 2183   1.015   2.774   0.242
  740TIP3    H1 2184   0.985   2.693   0.200
  740TIP3    H2 2185   1.106   2.757   0.265
  741TIP3   OH2 2186   6.657   3.416   3.640
  741TIP3    H1 2187   6.711   3.420   3.719
  741TIP3    H2 2188   6.632   3.507   3.624
  742TIP3   OH2 2189   0.587   4.227   4.761
  742TIP3    H1 2190   0.628   4.313   4.757
  742TIP3    H2 2191   0.653   4.167   4.726
  743TIP3   OH2 2192   0.642   1.353   1.702
  743TIP3    H1 2193   0.574   1.414   1.675
  743TIP3    H2 2194   0.724   1.403   1.694
  744TIP3   OH2 2195   2.468   0.871   0.191
  744TIP3    H1 2196   2.424   0.805   0.245
  744TIP3    H2 2197   2.415   0.876   0.111
  745TIP3   OH2 2198   0.912   3.151   1.725
  745TIP3    H1 2199   0.963   3.104   1.791
  745TIP3    H2 2200   0.971   3.160   1.650
  746TIP3   OH2 2201   5.521   3.488   3.834
  746TIP3    H1 2202   5.483   3.400   3.837
  746TIP3    H2 2203   5.525   3.515   3.926
  747TIP3   OH2 2204   0.392   6.750   5.341
  747TIP3    H1 2205   0.404   6.833   5.294
  747TIP3    H2 2206   0.361   6.689   5.275
  748TIP3   OH2 2207   4.937   6.675   1.805
  748TIP3    H1 2208   5.015   6.634   1.843
  748TIP3    H2 2209   4.871   6.670   1.874
  749TIP3   OH2 2210   0.035   1.889  -0.023
  749TIP3    H1 2211   0.068   1.976  -0.044
  749TIP3    H2 2212   0.032   1.886   0.073
  750TIP3   OH2 2213   3.863   5.900   3.902
  750TIP3    H1 2214   3.849   5.971   3.965
  750TIP3    H2 2215   3.776   5.863   3.889
  751TIP3   OH2 2216   4.758   5.783   1.439
  751TIP3    H1 2217   4.755   5.829   1.523
  751TIP3    H2 2218   4.851   5.774   1.420
  752TIP3   OH2 2219   5.772   1.442   3.477
  752TIP3    H1 2220   5.847   1.491   3.511
  752TIP3    H2 2221   5.741   1.494   3.403
  753TIP3   OH2 2222   5.362   5.702   1.703
  753TIP3    H1 2223   5.318   5.781   1.737
  753TIP3    H2 2224   5.440   5.735   1.660
  754TIP3   OH2 2225   2.483   4.970   3.048
  754TIP3    H1 2226   2.397   5.004   3.024
  754TIP3    H2 2227   2.538   4.984   2.971
  755TIP3   OH2 2228   1.134   3.054   4.637
  755TIP3    H1 2229   1.049   3.013   4.621
  755TIP3    H2 2230   1.193   3.013   4.574
  756TIP3   OH2 2231   2.135   6.214   1.292
  756TIP3    H1 2232   2.173   6.227   1.205
  756TIP3    H2 2233   2.186   6.142   1.329
  757TIP3   OH2 2234   2.156   2.489   0.608
  757TIP3    H1 2235   2.172   2.572   0.654
  757TIP3    H2 2236   2.202   2.498   0.524
  758TIP3   OH2 2237   5.093   0.106   0.364
  758TIP3    H1 2238   5.115   0.188   0.320
  758TIP3    H2 2239   5.048   0.054   0.297
  759TIP3   OH2 2240   5.525   1.062   4.593
  759TIP3    H1 2241   5.437   1.099   4.601
  759TIP3    H2 2242   5.512   0.968   4.598
  760TIP3   OH2 2243   5.168   0.626   4.961
  760TIP3    H1 2244   5.222   0.693   4.919
  760TIP3    H2 2245   5.079   0.662   4.956
  761TIP3   OH2 2246   1.276   3.180   0.503
  761TIP3    H1 2247   1.294   3.154   0.593
  761TIP3    H2 2248   1.232   3.265   0.511
  762TIP3   OH2 2249   4.914   4.217   0.428
  762TIP3    H1 2250   4.919   4.308   0.458
  762TIP3    H2 2251   4.984   4.210   0.362
  763TIP3   OH2 2252   1.154   4.502   3.165
  763TIP3    H1 2253   1.151   4.546   3.081
  763TIP3    H2 2254   1.220   4.549   3.215
  764TIP3   OH2 2255   0.369   0.304   1.857
  764TIP3    H1 2256   0.461   0.330   1.865
  764TIP3    H2 2257   0.373   0.213   1.828
  765TIP3   OH2 2258   5.666   1.368   2.988
  765TIP3    H1 2259   5.574   1.383   2.967
  765TIP3    H2 2260   5.665   1.300   3.056
  766TIP3   OH2 2261   0.349   3.372   1.580
  766TIP3    H1 2262   0.393   3.311   1.520
  766TIP3    H2 2263   0.417   3.435   1.605
  767TIP3   OH2 2264   1.565   1.942   0.221
  767TIP3    H1 2265   1.560   1.938   0.125
  767TIP3    H2 2266   1.590   1.853   0.247
  768TIP3   OH2 2267   2.163   2.029   0.656
  768TIP3    H1 2268   2.231   2.048   0.721
  768TIP3    H2 2269   2.192   2.076   0.578
  769TIP3   OH2 2270   4.187   3.143   0.743
  769TIP3    H1 2271   4.199   3.237   0.731
  769TIP3    H2 2272   4.275   3.108   0.755
  770TIP3   OH2 2273   6.484   0.036   5.396
  770TIP3    H1 2274   6.566   0.056   5.442
  770TIP3    H2 2275   6.510   0.021   5.305
  771TIP3   OH2 2276   1.741   0.252   5.834
  771TIP3    H1 2277   1.732   0.278   5.925
  771TIP3    H2 2278   1.799   0.317   5.796
  772TIP3   OH2 2279   6.168   3.227   4.085
  772TIP3    H1 2280   6.075   3.208   4.094
  772TIP3    H2 2281   6.189   3.207   3.994
  773TIP3   OH2 2282   3.800   4.208   3.052
  773TIP3    H1 2283   3.790   4.133   3.111
  773TIP3    H2 2284   3.713   4.248   3.050
  774TIP3   OH2 2285   2.887   6.653   3.130
  774TIP3    H1 2286   2.870   6.745   3.148
  774TIP3    H2 2287   2.836   6.634   3.051
  775TIP3   OH2 2288   3.738   2.438   4.838
  775TIP3    H1 2289   3.648   2.439   4.869
  775TIP3    H2 2290   3.730   2.432   4.743
  776TIP3   OH2 2291   5.634   0.906   0.176
  776TIP3    H1 2292   5.597   0.973   0.119
  776TIP3    H2 2293   5.724   0.895   0.145
  777TIP3   OH2 2294   3.613   5.888   3.660
  777TIP3    H1 2295   3.617   5.795   3.681
  777TIP3    H2 2296   3.668   5.898   3.583
  778TIP3   OH2 2297   0.744   6.515   5.265
  778TIP3    H1 2298   0.799   6.541   5.191
  778TIP3    H2 2299   0.710   6.429   5.241
  779TIP3   OH2 2300   6.121   1.689   3.273
  779TIP3    H1 2301   6.088   1.682   3.183
  779TIP3    H2 2302   6.202   1.637   3.272
  780TIP3   OH2 2303   6.655   4.375   1.251
  780TIP3    H1 2304   6.644   4.299   1.308
  780TIP3    H2 2305   6.731   4.354   1.196
  781TIP3   OH2 2306   2.626   5.486   4.083
  781TIP3    H1 2307   2.690   5.478   4.154
  781TIP3    H2 2308   2.659   5.430   4.014
  782TIP3   OH2 2309   7.128   6.106   1.854
  782TIP3    H1 2310   7.105   6.050   1.780
  782TIP3    H2 2311   7.107   6.053   1.931
  783TIP3   OH2 2312   5.484   6.576   4.515
  783TIP3    H1 2313   5.532   6.529   4.583
  783TIP3    H2 2314   5.392   6.564   4.539
  784TIP3   OH2 2315   1.436   4.479   2.910
  784TIP3    H1 2316   1.440   4.554   2.969
  784TIP3    H2 2317   1.518   4.484   2.860
  785TIP3   OH2 2318   0.728   2.349   2.010
  785TIP3    H1 2319   0.660   2.293   2.048
  785TIP3    H2 2320   0.810   2.302   2.026
  786TIP3   OH2 2321   2.816   3.629   2.391
  786TIP3    H1 2322   2.749   3.562   2.374
  786TIP3    H2 2323   2.769   3.712   2.384
  787TIP3   OH2 2324   4.789   3.497   4.789
  787TIP3    H1 2325   4.786   3.584   4.750
  787TIP3    H2 2326   4.728   3.445   4.736
  788TIP3   OH2 2327   5.228   0.689   5.835
  788TIP3    H1 2328   5.203   0.725   5.750
  788TIP3    H2 2329   5.145   0.666   5.876
  789TIP3   OH2 2330   3.854   4.752   1.309
  789TIP3    H1 2331   3.774   4.786   1.270
  789TIP3    H2 2332   3.851   4.658   1.292
  790TIP3   OH2 2333   0.542   1.498   5.514
  790TIP3    H1 2334   0.474   1.554   5.551
  790TIP3    H2 2335   0.621   1.551   5.518
  791TIP3   OH2 2336   4.441   6.320   0.624
  791TIP3    H1 2337   4.487   6.245   0.661
  791TIP3    H2 2338   4.493   6.345   0.547
  792TIP3   OH2 2339   2.601   6.500   4.939
  792TIP3    H1 2340   2.691   6.506   4.970
  792TIP3    H2 2341   2.592   6.410   4.908
  793TIP3   OH2 2342   5.687   3.200   1.665
  793TIP3    H1 2343   5.660   3.120   1.619
  793TIP3    H2 2344   5.637   3.198   1.747
  794TIP3   OH2 2345   1.354   0.969   0.403
  794TIP3    H1 2346   1.332   0.891   0.352
  794TIP3    H2 2347   1.289   0.972   0.473
  795TIP3   OH2 2348   6.050   1.796   1.388
  795TIP3    H1 2349   6.055   1.705   1.359
  795TIP3    H2 2350   6.061   1.847   1.308
  796TIP3   OH2 2351   2.509   0.242   2.482
  796TIP3    H1 2352   2.537   0.276   2.567
  796TIP3    H2 2353   2.455   0.166   2.504
  797TIP3   OH2 2354   6.704   1.786   3.181
  797TIP3    H1 2355   6.753   1.856   3.139
  797TIP3    H2 2356   6.770   1.733   3.227
  798TIP3   OH2 2357   0.361   1.884   5.798
  798TIP3    H1 2358   0.286   1.929   5.761
  798TIP3    H2 2359   0.325   1.833   5.870
  799TIP3   OH2 2360   5.305   3.361   0.033
  799TIP3    H1 2361   5.233   3.387  -0.025
  799TIP3    H2 2362   5.320   3.269   0.014
  800TIP3   OH2 2363   1.303   4.676   2.707
  800TIP3    H1 2364   1.336   4.764   2.690
  800TIP3    H2 2365   1.366   4.638   2.768
  801TIP3   OH2 2366   0.040   4.761   4.638
  801TIP3    H1 2367   0.088   4.741   4.558
  801TIP3    H2 2368   0.101   4.815   4.689
  802TIP3   OH2 2369   7.077   1.055   0.798
  802TIP3    H1 2370   7.169   1.043   0.825
  802TIP3    H2 2371   7.072   1.148   0.773
  803TIP3   OH2 2372   2.030   0.075   4.718
  803TIP3    H1 2373   2.041   0.138   4.647
  803TIP3    H2 2374   1.957   0.110   4.770
  804TIP3   OH2 2375   5.561   1.190   0.155
  804TIP3    H1 2376   5.546   1.257   0.089
  804TIP3    H2 2377   5.656   1.191   0.169
  805TIP3   OH2 2378   4.445   6.179   3.119
  805TIP3    H1 2379   4.467   6.230   3.041
  805TIP3    H2 2380   4.528   6.139   3.146
  806TIP3   OH2 2381   2.968   3.170   2.882
  806TIP3    H1 2382   2.911   3.208   2.815
  806TIP3    H2 2383   3.011   3.246   2.923
  807TIP3   OH2 2384   4.782   2.496   4.116
  807TIP3    H1 2385   4.694   2.459   4.106
  807TIP3    H2 2386   4.790   2.557   4.043
  808TIP3   OH2 2387   5.976   6.243   5.163
  808TIP3    H1 2388   5.944   6.154   5.150
  808TIP3    H2 2389   5.922   6.296   5.104
  809TIP3   OH2 2390   1.335   0.314   2.255
  809TIP3    H1 2391   1.328   0.281   2.344
  809TIP3    H2 2392   1.353   0.408   2.265
  810TIP3   OH2 2393   2.560   4.082   0.194
  810TIP3    H1 2394   2.605   3.998   0.191
  810TIP3    H2 2395   2.609   4.134   0.259
  811TIP3   OH2 2396   1.887   4.406   5.104
  811TIP3    H1 2397   1.852   4.406   5.193
  811TIP3    H2 2398   1.836   4.339   5.057
  812TIP3   OH2 2399   6.101   1.442   0.379
  812TIP3    H1 2400   6.100   1.382   0.304
  812TIP3    H2 2401   6.063   1.391   0.450
  813TIP3   OH2 2402   0.875   5.203   4.932
  813TIP3    H1 2403   0.853   5.194   5.024
  813TIP3    H2 2404   0.951   5.146   4.920
  814TIP3   OH2 2405   6.071   0.818   3.081
  814TIP3    H1 2406   5.979   0.824   3.107
  814TIP3    H2 2407   6.103   0.739   3.124
  815TIP3   OH2 2408   3.424   2.216   0.337
  815TIP3    H1 2409   3.366   2.159   0.287
  815TIP3    H2 2410   3.468   2.270   0.270
  816TIP3   OH2 2411   0.492   2.379   2.371
  816TIP3    H1 2412   0.563   2.442   2.366
  816TIP3    H2 2413   0.528   2.305   2.420
  817TIP3   OH2 2414   5.406   0.522   2.926
  817TIP3    H1 2415   5.347   0.503   2.999
  817TIP3    H2 2416   5.372   0.470   2.853
  818TIP3   OH2 2417   2.570   4.711   5.507
  818TIP3    H1 2418   2.583   4.805   5.505
  818TIP3    H2 2419   2.594   4.685   5.596
  819TIP3   OH2 2420   5.546   4.751   5.307
  819TIP3    H1 2421   5.536   4.702   5.225
  819TIP3    H2 2422   5.518   4.840   5.285
  820TIP3   OH2 2423   6.331   0.966   3.385
  820TIP3    H1 2424   6.355   1.058   3.376
  820TIP3    H2 2425   6.348   0.928   3.299
  821TIP3   OH2 2426   7.117   4.128   4.763
  821TIP3    H1 2427   7.100   4.050   4.815
  821TIP3    H2 2428   7.179   4.099   4.696
  822TIP3   OH2 2429   1.073   3.213   1.036
  822TIP3    H1 2430   1.006   3.274   1.067
  822TIP3    H2 2431   1.031   3.127   1.043
  823TIP3   OH2 2432   1.148   5.635   4.655
  823TIP3    H1 2433   1.134   5.616   4.748
  823TIP3    H2 2434   1.110   5.722   4.643
  824TIP3   OH2 2435   6.577   5.297   2.476
  824TIP3    H1 2436   6.619   5.252   2.549
  824TIP3    H2 2437   6.645   5.302   2.408
  825TIP3   OH2 2438   1.746   0.662   4.288
  825TIP3    H1 2439   1.711   0.579   4.254
  825TIP3    H2 2440   1.813   0.636   4.351
  826TIP3   OH2 2441   4.102   5.811   3.770
  826TIP3    H1 2442   4.011   5.807   3.799
  826TIP3    H2 2443   4.107   5.747   3.698
  827TIP3   OH2 2444   4.342   3.591   0.296
  827TIP3    H1 2445   4.383   3.558   0.216
  827TIP3    H2 2446   4.267   3.642   0.266
  828TIP3   OH2 2447   5.431   2.332   1.418
  828TIP3    H1 2448   5.400   2.344   1.328
  828TIP3    H2 2449   5.523   2.361   1.415
  829TIP3   OH2 2450   3.433   0.965   4.973
  829TIP3    H1 2451   3.352   1.006   5.005
  829TIP3    H2 2452   3.407   0.923   4.891
  830TIP3   OH2 2453   3.035   4.368   4.974
  830TIP3    H1 2454   2.994   4.417   5.046
  830TIP3    H2 2455   3.107   4.320   5.016
  831TIP3   OH2 2456   3.928   5.057   5.813
  831TIP3    H1 2457   3.897   5.024   5.729
  831TIP3    H2 2458   3.932   5.152   5.802
  832TIP3   OH2 2459   6.227   1.048   5.605
  832TIP3    H1 2460   6.233   1.063   5.510
  832TIP3    H2 2461   6.134   1.033   5.621
  833TIP3   OH2 2462   6.271   5.982   5.710
  833TIP3    H1 2463   6.309   6.064   5.677
  833TIP3    H2 2464   6.310   5.970   5.796
  834TIP3   OH2 2465   7.130   3.198   2.270
  834TIP3    H1 2466   7.053   3.201   2.327
  834TIP3    H2 2467   7.095   3.172   2.184
  835TIP3   OH2 2468   6.739   6.263   4.414
  835TIP3    H1 2469   6.672   6.199   4.440
  835TIP3    H2 2470   6.813   6.209   4.384
  836TIP3   OH2 2471   2.931   0.407   2.474
  836TIP3    H1 2472   2.952   0.371   2.560
  836TIP3    H2 2473   2.886   0.336   2.429
  837TIP3   OH2 2474   5.357   6.461   2.508
  837TIP3    H1 2475   5.355   6.545   2.554
  837TIP3    H2 2476   5.308   6.477   2.428
  838TIP3   OH2 2477   2.129   6.416   1.513
  838TIP3    H1 2478   2.126   6.321   1.501
  838TIP3    H2 2479   2.057   6.450   1.459
  839TIP3   OH2 2480   4.699   2.444   2.448
  839TIP3    H1 2481   4.763   2.465   2.380
  839TIP3    H2 2482   4.716   2.508   2.518
  840TIP3   OH2 2483   4.615   5.132   3.178
  840TIP3    H1 2484   4.543   5.083   3.218
  840TIP3    H2 2485   4.602   5.222   3.208
  841TIP3   OH2 2486   5.485   1.617   4.264
  841TIP3    H1 2487   5.529   1.700   4.244
  841TIP3    H2 2488   5.554   1.552   4.261
  842TIP3   OH2 2489   0.811   6.463   4.081
  842TIP3    H1 2490   0.733   6.475   4.135
  842TIP3    H2 2491   0.884   6.485   4.139
  843TIP3   OH2 2492   2.605   0.355   2.258
  843TIP3    H1 2493   2.648   0.286   2.208
  843TIP3    H2 2494   2.577   0.313   2.339
  844TIP3   OH2 2495   1.807   6.501   0.473
  844TIP3    H1 2496   1.840   6.546   0.550
  844TIP3    H2 2497   1.872   6.433   0.454
  845TIP3   OH2 2498   4.184   3.464   1.078
  845TIP3    H1 2499   4.198   3.513   0.996
  845TIP3    H2 2500   4.092   3.477   1.098
  846TIP3   OH2 2501   6.566   6.618   3.055
  846TIP3    H1 2502   6.614   6.627   3.138
  846TIP3    H2 2503   6.523   6.702   3.044
  847TIP3   OH2 2504   3.742   4.218   3.583
  847TIP3    H1 2505   3.829   4.179   3.591
  847TIP3    H2 2506   3.710   4.186   3.498
  848TIP3   OH2 2507   5.721   6.072   3.137
  848TIP3    H1 2508   5.771   6.069   3.219
  848TIP3    H2 2509   5.772   6.018   3.076
  849TIP3   OH2 2510   2.747   1.817   4.537
  849TIP3    H1 2511   2.838   1.825   4.507
  849TIP3    H2 2512   2.701   1.889   4.495
  850TIP3   OH2 2513   5.337   0.809   2.193
  850TIP3    H1 2514   5.310   0.723   2.162
  850TIP3    H2 2515   5.402   0.791   2.261
  851TIP3   OH2 2516   1.779   4.892   0.606
  851TIP3    H1 2517   1.728   4.852   0.676
  851TIP3    H2 2518   1.714   4.920   0.541
  852TIP3   OH2 2519   4.987   0.441   1.847
  852TIP3    H1 2520   4.963   0.519   1.897
  852TIP3    H2 2521   4.955   0.459   1.758
  853TIP3   OH2 2522   6.523   5.372   0.808
  853TIP3    H1 2523   6.444   5.425   0.793
  853TIP3    H2 2524   6.490   5.282   0.816
  854TIP3   OH2 2525   0.075   3.294   2.805
  854TIP3    H1 2526   0.100   3.307   2.714
  854TIP3    H2 2527   0.115   3.210   2.829
  855TIP3   OH2 2528   2.233   0.007   2.794
  855TIP3    H1 2529   2.303   0.071   2.809
  855TIP3    H2 2530   2.182   0.044   2.722
  856TIP3   OH2 2531   6.745   0.818   0.853
  856TIP3    H1 2532   6.712   0.855   0.935
  856TIP3    H2 2533   6.785   0.735   0.878
  857TIP3   OH2 2534   5.833   6.538   2.435
  857TIP3    H1 2535   5.922   6.509   2.452
  857TIP3    H2 2536   5.839   6.634   2.432
  858TIP3   OH2 2537   5.813   0.782   3.665
  858TIP3    H1 2538   5.805   0.781   3.761
  858TIP3    H2 2539   5.906   0.773   3.649
  859TIP3   OH2 2540   3.148   4.447   0.768
  859TIP3    H1 2541   3.217   4.391   0.730
  859TIP3    H2 2542   3.138   4.518   0.704
  860TIP3   OH2 2543   5.252   2.736   4.559
  860TIP3    H1 2544   5.201   2.664   4.594
  860TIP3    H2 2545   5.260   2.798   4.632
  861TIP3   OH2 2546   1.863   3.441   2.532
  861TIP3    H1 2547   1.938   3.396   2.494
  861TIP3    H2 2548   1.885   3.534   2.527
  862TIP3   OH2 2549   5.553   3.019   2.622
  862TIP3    H1 2550   5.640   2.980   2.632
  862TIP3    H2 2551   5.539   3.068   2.703
  863TIP3   OH2 2552   4.808   4.726   4.419
  863TIP3    H1 2553   4.825   4.734   4.513
  863TIP3    H2 2554   4.773   4.812   4.394
  864TIP3   OH2 2555   1.108   1.155   0.760
  864TIP3    H1 2556   1.086   1.240   0.724
  864TIP3    H2 2557   1.096   1.165   0.855
  865TIP3   OH2 2558   1.233   0.643   4.213
  865TIP3    H1 2559   1.250   0.598   4.130
  865TIP3    H2 2560   1.215   0.734   4.188
  866TIP3   OH2 2561   2.189   4.029   1.041
  866TIP3    H1 2562   2.190   4.016   0.946
  866TIP3    H2 2563   2.277   4.004   1.069
  867TIP3   OH2 2564   4.401   5.639   1.616
  867TIP3    H1 2565   4.326   5.693   1.639
  867TIP3    H2 2566   4.477   5.689   1.645
  868TIP3   OH2 2567   3.109   5.494   2.250
  868TIP3    H1 2568   3.086   5.405   2.280
  868TIP3    H2 2569   3.126   5.543   2.331
  869TIP3   OH2 2570   6.666   1.646   1.783
  869TIP3    H1 2571   6.758   1.670   1.775
  869TIP3    H2 2572   6.619   1.714   1.735
  870TIP3   OH2 2573   6.779   0.057   1.100
  870TIP3    H1 2574   6.735   0.091   1.023
  870TIP3    H2 2575   6.872   0.074   1.084
  871TIP3   OH2 2576   2.084   6.543   2.938
  871TIP3    H1 2577   2.042   6.625   2.912
  871TIP3    H2 2578   2.038   6.475   2.888
  872TIP3   OH2 2579   3.303   5.922   2.011
  872TIP3    H1 2580   3.301   5.863   2.087
  872TIP3    H2 2581   3.355   5.876   1.946
  873TIP3   OH2 2582   2.655   0.321   1.142
  873TIP3    H1 2583   2.693   0.325   1.054
  873TIP3    H2 2584   2.685   0.401   1.185
  874TIP3   OH2 2585   4.329   2.600   1.974
  874TIP3    H1 2586   4.407   2.644   1.939
  874TIP3    H2 2587   4.353   2.577   2.064
  875TIP3   OH2 2588   5.684   3.253   4.023
  875TIP3    H1 2589   5.775   3.260   3.996
  875TIP3    H2 2590   5.680   3.172   4.075
  876TIP3   OH2 2591   6.560   0.476   2.387
  876TIP3    H1 2592   6.603   0.392   2.402
  876TIP3    H2 2593   6.563   0.488   2.292
  877TIP3   OH2 2594   1.545   2.750   2.254
  877TIP3    H1 2595   1.547   2.763   2.348
  877TIP3    H2 2596   1.626   2.790   2.221
  878TIP3   OH2 2597   5.015   1.268   4.011
  878TIP3    H1 2598   4.954   1.233   3.946
  878TIP3    H2 2599   4.959   1.315   4.073
  879TIP3   OH2 2600   5.321   4.381   0.944
  879TIP3    H1 2601   5.262   4.438   0.993
  879TIP3    H2 2602   5.378   4.342   1.011
  880TIP3   OH2 2603   4.007   1.663   5.551
  880TIP3    H1 2604   4.030   1.578   5.589
  880TIP3    H2 2605   3.922   1.650   5.511
  881TIP3   OH2 2606   5.276   3.344   2.828
  881TIP3    H1 2607   5.289   3.384   2.742
  881TIP3    H2 2608   5.188   3.371   2.854
  882TIP3   OH2 2609   3.433   4.675   2.233
  882TIP3    H1 2610   3.432   4.603   2.170
  882TIP3    H2 2611   3.446   4.754   2.180
  883TIP3   OH2 2612   6.681   0.207   4.816
  883TIP3    H1 2613   6.631   0.253   4.884
  883TIP3    H2 2614   6.757   0.172   4.862
  884TIP3   OH2 2615   5.465   4.116   0.049
  884TIP3    H1 2616   5.545   4.127   0.099
  884TIP3    H2 2617   5.416   4.198   0.063
  885TIP3   OH2 2618   0.090   0.447   4.326
  885TIP3    H1 2619   0.181   0.420   4.343
  885TIP3    H2 2620   0.044   0.365   4.308
  886TIP3   OH2 2621   2.607   3.461   2.266
  886TIP3    H1 2622   2.581   3.428   2.180
  886TIP3    H2 2623   2.529   3.503   2.301
  887TIP3   OH2 2624   3.299   2.192   2.994
  887TIP3    H1 2625   3.300   2.282   2.962
  887TIP3    H2 2626   3.379   2.185   3.047
  888TIP3   OH2 2627   0.363   3.772   0.396
  888TIP3    H1 2628   0.442   3.724   0.421
  888TIP3    H2 2629   0.292   3.710   0.412
  889TIP3   OH2 2630   2.693   2.353   0.288
  889TIP3    H1 2631   2.712   2.284   0.351
  889TIP3    H2 2632   2.718   2.434   0.331
  890TIP3   OH2 2633   1.337   3.881   0.072
  890TIP3    H1 2634   1.364   3.790   0.067
  890TIP3    H2 2635   1.308   3.903  -0.017
  891TIP3   OH2 2636   4.858   6.820   2.440
  891TIP3    H1 2637   4.763   6.833   2.432
  891TIP3    H2 2638   4.868   6.730   2.470
  892TIP3   OH2 2639   6.969   5.049   0.873
  892TIP3    H1 2640   6.973   4.979   0.938
  892TIP3    H2 2641   6.964   5.129   0.925
  893TIP3   OH2 2642   0.158   3.285   2.542
  893TIP3    H1 2643   0.198   3.328   2.466
  893TIP3    H2 2644   0.144   3.195   2.514
  894TIP3   OH2 2645   1.489   3.822   3.327
  894TIP3    H1 2646   1.446   3.907   3.339
  894TIP3    H2 2647   1.504   3.791   3.416
  895TIP3   OH2 2648   0.315   1.569   1.943
  895TIP3    H1 2649   0.240   1.510   1.953
  895TIP3    H2 2650   0.331   1.603   2.031
  896TIP3   OH2 2651   0.573   4.243   2.272
  896TIP3    H1 2652   0.482   4.243   2.304
  896TIP3    H2 2653   0.582   4.327   2.227
  897TIP3   OH2 2654   6.576   2.378   4.075
  897TIP3    H1 2655   6.499   2.433   4.057
  897TIP3    H2 2656   6.563   2.349   4.165
  898TIP3   OH2 2657   6.935   1.388   1.105
  898TIP3    H1 2658   6.917   1.479   1.130
  898TIP3    H2 2659   7.017   1.393   1.055
  899TIP3   OH2 2660   6.339   6.352   5.873
  899TIP3    H1 2661   6.278   6.324   5.805
  899TIP3    H2 2662   6.382   6.271   5.902
  900TIP3   OH2 2663   0.838   1.940   0.494
  900TIP3    H1 2664   0.764   1.973   0.546
  900TIP3    H2 2665   0.907   2.005   0.507
  901TIP3   OH2 2666   5.503   0.892   3.352
  901TIP3    H1 2667   5.541   0.845   3.426
  901TIP3    H2 2668   5.576   0.940   3.314
  902TIP3   OH2 2669   0.961   0.413   5.717
  902TIP3    H1 2670   1.024   0.380   5.781
  902TIP3    H2 2671   0.994   0.500   5.694
  903TIP3   OH2 2672   4.088   5.575   5.334
  903TIP3    H1 2673   4.069   5.665   5.306
  903TIP3    H2 2674   4.002   5.535   5.347
  904TIP3   OH2 2675   3.066   1.401   0.740
  904TIP3    H1 2676   2.979   1.415   0.701
  904TIP3    H2 2677   3.125   1.392   0.665
  905TIP3   OH2 2678   3.133   5.583   0.850
  905TIP3    H1 2679   3.080   5.504   0.835
  905TIP3    H2 2680   3.101   5.646   0.786
  906TIP3   OH2 2681   1.948   2.149   5.044
  906TIP3    H1 2682   1.950   2.114   4.955
  906TIP3    H2 2683   1.882   2.095   5.089
  907TIP3   OH2 2684   3.996   2.286   0.825
  907TIP3    H1 2685   4.027   2.195   0.821
  907TIP3    H2 2686   4.066   2.333   0.870
  908TIP3   OH2 2687   5.389   4.117   3.423
  908TIP3    H1 2688   5.389   4.186   3.489
  908TIP3    H2 2689   5.458   4.141   3.362
  909TIP3   OH2 2690   5.420   2.905   2.962
  909TIP3    H1 2691   5.386   2.985   2.922
  909TIP3    H2 2692   5.492   2.878   2.905
  910TIP3   OH2 2693   4.487   3.130   3.928
  910TIP3    H1 2694   4.503   3.209   3.876
  910TIP3    H2 2695   4.446   3.068   3.867
  911TIP3   OH2 2696   0.590   4.220   1.865
  911TIP3    H1 2697   0.642   4.270   1.928
  911TIP3    H2 2698   0.570   4.138   1.908
  912TIP3   OH2 2699   1.936   0.240   4.355
  912TIP3    H1 2700   1.946   0.160   4.407
  912TIP3    H2 2701   1.993   0.303   4.398
  913TIP3   OH2 2702   5.275   2.186   3.932
  913TIP3    H1 2703   5.273   2.164   4.025
  913TIP3    H2 2704   5.191   2.154   3.898
  914TIP3   OH2 2705   4.457   2.259   1.516
  914TIP3    H1 2706   4.506   2.230   1.593
  914TIP3    H2 2707   4.410   2.180   1.487
  915TIP3   OH2 2708   0.261   1.683   3.443
  915TIP3    H1 2709   0.304   1.768   3.439
  915TIP3    H2 2710   0.332   1.621   3.463
  916TIP3   OH2 2711   3.419   1.119   0.905
  916TIP3    H1 2712   3.359   1.101   0.832
  916TIP3    H2 2713   3.446   1.210   0.893
  917TIP3   OH2 2714   4.004   2.204   4.218
  917TIP3    H1 2715   3.924   2.235   4.259
  917TIP3    H2 2716   3.975   2.135   4.159
  918TIP3   OH2 2717   4.710   3.587   5.558
  918TIP3    H1 2718   4.761   3.507   5.565
  918TIP3    H2 2719   4.737   3.626   5.475
  919TIP3   OH2 2720   2.900   4.219   2.990
  919TIP3    H1 2721   2.908   4.177   2.905
  919TIP3    H2 2722   2.808   4.242   2.998
  920TIP3   OH2 2723   1.880   3.839   5.066
  920TIP3    H1 2724   1.973   3.851   5.084
  920TIP3    H2 2725   1.867   3.876   4.979
  921TIP3   OH2 2726   6.823   6.009   3.105
  921TIP3    H1 2727   6.895   5.951   3.126
  921TIP3    H2 2728   6.829   6.021   3.010
  922TIP3   OH2 2729   2.793   3.987   0.694
  922TIP3    H1 2730   2.881   4.021   0.679
  922TIP3    H2 2731   2.798   3.943   0.778
  923TIP3   OH2 2732   2.010   4.816   3.518
  923TIP3    H1 2733   2.066   4.894   3.517
  923TIP3    H2 2734   2.060   4.750   3.469
  924TIP3   OH2 2735   5.881   0.947   1.132
  924TIP3    H1 2736   5.884   1.039   1.105
  924TIP3    H2 2737   5.790   0.921   1.117
  925TIP3   OH2 2738   1.396   4.549   4.741
  925TIP3    H1 2739   1.409   4.551   4.646
  925TIP3    H2 2740   1.324   4.610   4.756
  926TIP3   OH2 2741   1.118   1.556   4.844
  926TIP3    H1 2742   1.102   1.519   4.757
  926TIP3    H2 2743   1.213   1.564   4.849
  927TIP3   OH2 2744   0.871   1.619   0.515
  927TIP3    H1 2745   0.866   1.682   0.587
  927TIP3    H2 2746   0.930   1.660   0.452
  928TIP3   OH2 2747   2.298   1.831   2.209
  928TIP3    H1 2748   2.369   1.842   2.272
  928TIP3    H2 2749   2.247   1.911   2.216
  929TIP3   OH2 2750   5.287   2.085   4.199
  929TIP3    H1 2751   5.265   2.035   4.278
  929TIP3    H2 2752   5.332   2.163   4.230
  930TIP3   OH2 2753   6.192   4.977   2.377
  930TIP3    H1 2754   6.196   4.996   2.471
  930TIP3    H2 2755   6.109   5.014   2.349
  931TIP3   OH2 2756   6.055   1.908   4.046
  931TIP3    H1 2757   6.021   1.951   3.967
  931TIP3    H2 2758   6.148   1.929   4.046
  932TIP3   OH2 2759   4.192   1.882   2.636
  932TIP3    H1 2760   4.254   1.811   2.653
  932TIP3    H2 2761   4.186   1.929   2.719
  933TIP3   OH2 2762   4.179   6.415   2.653
  933TIP3    H1 2763   4.087   6.406   2.680
  933TIP3    H2 2764   4.178   6.485   2.588
  934TIP3   OH2 2765   0.283   1.268   1.781
  934TIP3    H1 2766   0.311   1.179   1.800
  934TIP3    H2 2767   0.233   1.295   1.858
  935TIP3   OH2 2768   1.333   1.331   0.522
  935TIP3    H1 2769   1.239   1.329   0.504
  935TIP3    H2 2770   1.347   1.414   0.567
  936TIP3   OH2 2771   6.435   4.426   4.496
  936TIP3    H1 2772   6.464   4.387   4.578
  936TIP3    H2 2773   6.342   4.403   4.490
  937TIP3   OH2 2774   3.765   4.618   1.922
  937TIP3    H1 2775   3.794   4.709   1.931
  937TIP3    H2 2776   3.826   4.569   1.978
  938TIP3   OH2 2777   1.668   2.304   4.792
  938TIP3    H1 2778   1.746   2.327   4.742
  938TIP3    H2 2779   1.680   2.347   4.876
  939TIP3   OH2 2780   1.458   2.720   1.143
  939TIP3    H1 2781   1.470   2.776   1.220
  939TIP3    H2 2782   1.522   2.649   1.155
  940TIP3   OH2 2783   6.618   1.204   0.639
  940TIP3    H1 2784   6.622   1.190   0.733
  940TIP3    H2 2785   6.645   1.295   0.627
  941TIP3   OH2 2786   4.719   0.361   4.678
  941TIP3    H1 2787   4.663   0.325   4.747
  941TIP3    H2 2788   4.805   0.370   4.719
  942TIP3   OH2 2789   6.530   4.687   0.036
  942TIP3    H1 2790   6.487   4.759  -0.010
  942TIP3    H2 2791   6.490   4.686   0.123
  943TIP3   OH2 2792   1.270   2.005   3.615
  943TIP3    H1 2793   1.221   2.083   3.639
  943TIP3    H2 2794   1.244   1.940   3.682
  944TIP3   OH2 2795   6.025   5.878   3.747
  944TIP3    H1 2796   6.033   5.816   3.675
  944TIP3    H2 2797   6.026   5.964   3.706
  945TIP3   OH2 2798   2.826   2.287   5.771
  945TIP3    H1 2799   2.790   2.200   5.752
  945TIP3    H2 2800   2.896   2.270   5.834
  946TIP3   OH2 2801   5.829   1.535   1.756
  946TIP3    H1 2802   5.782   1.565   1.678
  946TIP3    H2 2803   5.879   1.459   1.726
  947TIP3   OH2 2804   4.555   0.153   5.354
  947TIP3    H1 2805   4.599   0.075   5.319
  947TIP3    H2 2806   4.620   0.222   5.345
  948TIP3   OH2 2807   4.997   1.402   4.478
  948TIP3    H1 2808   5.088   1.381   4.457
  948TIP3    H2 2809   4.981   1.358   4.561
  949TIP3   OH2 2810   1.108   0.450   2.485
  949TIP3    H1 2811   1.078   0.427   2.573
  949TIP3    H2 2812   1.198   0.419   2.481
  950TIP3   OH2 2813   1.662   6.545   4.344
  950TIP3    H1 2814   1.692   6.618   4.290
  950TIP3    H2 2815   1.692   6.467   4.296
  951TIP3   OH2 2816   2.532   3.414   4.356
  951TIP3    H1 2817   2.568   3.502   4.349
  951TIP3    H2 2818   2.522   3.384   4.266
  952TIP3   OH2 2819   4.335   5.104   5.546
  952TIP3    H1 2820   4.313   5.012   5.561
  952TIP3    H2 2821   4.251   5.150   5.545
  953TIP3   OH2 2822   5.559   2.460   4.047
  953TIP3    H1 2823   5.470   2.497   4.044
  953TIP3    H2 2824   5.596   2.494   4.129
  954TIP3   OH2 2825   3.420   4.987   5.640
  954TIP3    H1 2826   3.358   5.058   5.656
  954TIP3    H2 2827   3.472   5.016   5.565
  955TIP3   OH2 2828   3.891   1.056   3.921
  955TIP3    H1 2829   3.919   0.993   3.854
  955TIP3    H2 2830   3.876   1.137   3.872
  956TIP3   OH2 2831   5.516   2.628   1.179
  956TIP3    H1 2832   5.475   2.543   1.167
  956TIP3    H2 2833   5.447   2.691   1.153
  957TIP3   OH2 2834   0.327   1.306   0.411
  957TIP3    H1 2835   0.350   1.392   0.375
  957TIP3    H2 2836   0.280   1.262   0.340
  958TIP3   OH2 2837   5.567   3.769   3.856
  958TIP3    H1 2838   5.497   3.801   3.912
  958TIP3    H2 2839   5.542   3.679   3.835
  959TIP3   OH2 2840   1.942   5.229   4.802
  959TIP3    H1 2841   1.985   5.173   4.738
  959TIP3    H2 2842   2.014   5.268   4.852
  960TIP3   OH2 2843   3.005   4.813   4.635
  960TIP3    H1 2844   2.933   4.864   4.673
  960TIP3    H2 2845   3.001   4.729   4.680
  961TIP3   OH2 2846   6.048   1.069   4.295
  961TIP3    H1 2847   6.051   0.976   4.316
  961TIP3    H2 2848   5.996   1.108   4.365
  962TIP3   OH2 2849   3.063   0.923   0.148
  962TIP3    H1 2850   3.023   0.837   0.153
  962TIP3    H2 2851   3.157   0.907   0.158
  963TIP3   OH2 2852   6.925   1.898   0.237
  963TIP3    H1 2853   6.934   1.953   0.159
  963TIP3    H2 2854   6.860   1.943   0.290
  964TIP3   OH2 2855   5.018   3.262   4.765
  964TIP3    H1 2856   5.024   3.179   4.813
  964TIP3    H2 2857   4.932   3.297   4.789
  965TIP3   OH2 2858   5.529   4.129   5.727
  965TIP3    H1 2859   5.461   4.150   5.662
  965TIP3    H2 2860   5.560   4.042   5.702
  966TIP3   OH2 2861   6.352   5.536   4.409
  966TIP3    H1 2862   6.315   5.606   4.462
  966TIP3    H2 2863   6.318   5.456   4.449
  967TIP3   OH2 2864   2.212   4.598   3.138
  967TIP3    H1 2865   2.133   4.544   3.137
  967TIP3    H2 2866   2.281   4.539   3.168
  968TIP3   OH2 2867   3.371   3.714   3.358
  968TIP3    H1 2868   3.433   3.703   3.430
  968TIP3    H2 2869   3.295   3.662   3.384
  969TIP3   OH2 2870   6.677   2.466   5.028
  969TIP3    H1 2871   6.589   2.444   5.057
  969TIP3    H2 2872   6.718   2.507   5.104
  970TIP3   OH2 2873   5.717   4.644   3.960
  970TIP3    H1 2874   5.785   4.585   3.992
  970TIP3    H2 2875   5.760   4.698   3.894
  971TIP3   OH2 2876   6.215   2.017   5.100
  971TIP3    H1 2877   6.309   2.027   5.091
  971TIP3    H2 2878   6.182   2.107   5.105
  972TIP3   OH2 2879   3.815   1.239   4.295
  972TIP3    H1 2880   3.763   1.159   4.305
  972TIP3    H2 2881   3.791   1.273   4.209
  973TIP3   OH2 2882   5.445   2.209   2.708
  973TIP3    H1 2883   5.489   2.248   2.633
  973TIP3    H2 2884   5.516   2.185   2.768
  974TIP3   OH2 2885   5.829   5.551   1.590
  974TIP3    H1 2886   5.922   5.567   1.577
  974TIP3    H2 2887   5.820   5.456   1.579
  975TIP3   OH2 2888   6.820   2.301   1.356
  975TIP3    H1 2889   6.822   2.228   1.419
  975TIP3    H2 2890   6.867   2.371   1.401
  976TIP3   OH2 2891   4.107   2.236   2.660
  976TIP3    H1 2892   4.036   2.274   2.609
  976TIP3    H2 2893   4.169   2.205   2.594
  977TIP3   OH2 2894   5.473   2.891   0.198
  977TIP3    H1 2895   5.438   2.802   0.191
  977TIP3    H2 2896   5.413   2.935   0.259
  978TIP3   OH2 2897   5.205   4.727   2.086
  978TIP3    H1 2898   5.161   4.791   2.141
  978TIP3    H2 2899   5.173   4.745   1.998
  979TIP3   OH2 2900   2.076   5.906   3.477
  979TIP3    H1 2901   2.159   5.861   3.459
  979TIP3    H2 2902   2.079   5.925   3.571
  980TIP3   OH2 2903   0.667   6.639   3.078
  980TIP3    H1 2904   0.622   6.717   3.111
  980TIP3    H2 2905   0.736   6.622   3.142
  981TIP3   OH2 2906   3.444   0.880   5.494
  981TIP3    H1 2907   3.368   0.832   5.462
  981TIP3    H2 2908   3.421   0.902   5.585
  982TIP3   OH2 2909   6.956   0.020   5.342
  982TIP3    H1 2910   7.022  -0.008   5.279
  982TIP3    H2 2911   6.876   0.031   5.291
  983TIP3   OH2 2912   4.445   4.567   2.102
  983TIP3    H1 2913   4.494   4.645   2.076
  983TIP3    H2 2914   4.390   4.548   2.026
  984TIP3   OH2 2915   5.717   0.362   5.818
  984TIP3    H1 2916   5.648   0.428   5.807
  984TIP3    H2 2917   5.766   0.391   5.895
  985TIP3   OH2 2918   3.722   3.474   0.059
  985TIP3    H1 2919   3.687   3.495   0.146
  985TIP3    H2 2920   3.755   3.385   0.068
  986TIP3   OH2 2921   6.411   3.108   0.007
  986TIP3    H1 2922   6.325   3.076  -0.022
  986TIP3    H2 2923   6.453   3.031   0.046
  987TIP3   OH2 2924   0.459   6.651   1.722
  987TIP3    H1 2925   0.378   6.696   1.747
  987TIP3    H2 2926   0.508   6.643   1.804
  988TIP3   OH2 2927   6.035   5.717   5.745
  988TIP3    H1 2928   5.956   5.703   5.693
  988TIP3    H2 2929   6.107   5.696   5.685
  989TIP3   OH2 2930   5.756   2.392   3.294
  989TIP3    H1 2931   5.815   2.388   3.370
  989TIP3    H2 2932   5.670   2.412   3.331
  990TIP3   OH2 2933   1.540   6.682   1.453
  990TIP3    H1 2934   1.618   6.694   1.508
  990TIP3    H2 2935   1.484   6.623   1.504
  991TIP3   OH2 2936   4.200   5.049   1.250
  991TIP3    H1 2937   4.256   4.974   1.269
  991TIP3    H2 2938   4.111   5.017   1.260
  992TIP3   OH2 2939   5.952   6.699   5.689
  992TIP3    H1 2940   5.970   6.613   5.727
  992TIP3    H2 2941   6.039   6.737   5.672
  993TIP3   OH2 2942   2.267   3.300   3.937
  993TIP3    H1 2943   2.233   3.313   3.849
  993TIP3    H2 2944   2.210   3.234   3.976
  994TIP3   OH2 2945   0.641   6.321   4.709
  994TIP3    H1 2946   0.642   6.232   4.673
  994TIP3    H2 2947   0.731   6.352   4.699
  995TIP3   OH2 2948   2.349   1.547   3.158
  995TIP3    H1 2949   2.401   1.567   3.236
  995TIP3    H2 2950   2.263   1.521   3.192
  996TIP3   OH2 2951   7.107   4.709   2.988
  996TIP3    H1 2952   7.180   4.647   2.982
  996TIP3    H2 2953   7.129   4.764   3.064
  997TIP3   OH2 2954   4.043   4.927   0.235
  997TIP3    H1 2955   4.123   4.972   0.262
  997TIP3    H2 2956   3.976   4.995   0.238
  998TIP3   OH2 2957   4.578   5.472   2.384
  998TIP3    H1 2958   4.654   5.415   2.370
  998TIP3    H2 2959   4.504   5.411   2.389
  999TIP3   OH2 2960   5.991   0.200   1.434
  999TIP3    H1 2961   5.962   0.145   1.507
  999TIP3    H2 2962   6.016   0.283   1.475
 1000TIP3   OH2 2963   1.605   3.093   1.482
 1000TIP3    H1 2964   1.618   3.154   1.554
 1000TIP3    H2 2965   1.689   3.089   1.438
 1001TIP3   OH2 2966   4.331   0.445   4.842
 1001TIP3    H1 2967   4.378   0.498   4.907
 1001TIP3    H2 2968   4.244   0.435   4.879
 1002TIP3   OH2 2969   1.588   0.049   4.695
 1002TIP3    H1 2970   1.585  -0.046   4.707
 1002TIP3    H2 2971   1.554   0.063   4.607
 1003TIP3   OH2 2972   3.826   4.212   0.191
 1003TIP3    H1 2973   3.778   4.235   0.270
 1003TIP3    H2 2974   3.779   4.137   0.155
 1004TIP3   OH2 2975   4.752   4.722   0.994
 1004TIP3    H1 2976   4.756   4.796   0.933
 1004TIP3    H2 2977   4.829   4.734   1.049
 1005TIP3   OH2 2978   0.467   2.499   0.880
 1005TIP3    H1 2979   0.558   2.493   0.849
 1005TIP3    H2 2980   0.475   2.503   0.976
 1006TIP3   OH2 2981   3.470   4.727   4.850
 1006TIP3    H1 2982   3.509   4.640   4.836
 1006TIP3    H2 2983   3.376   4.710   4.856
 1007TIP3   OH2 2984   0.375   0.393   0.539
 1007TIP3    H1 2985   0.414   0.424   0.621
 1007TIP3    H2 2986   0.450   0.375   0.482
 1008TIP3   OH2 2987   3.508   0.351   2.926
 1008TIP3    H1 2988   3.542   0.281   2.981
 1008TIP3    H2 2989   3.419   0.322   2.903
 1009TIP3   OH2 2990   5.568   4.605   4.498
 1009TIP3    H1 2991   5.655   4.587   4.533
 1009TIP3    H2 2992   5.509   4.548   4.547
 1010TIP3   OH2 2993   2.559   0.081   3.578
 1010TIP3    H1 2994   2.467   0.086   3.552
 1010TIP3    H2 2995   2.606   0.127   3.508
 1011TIP3   OH2 2996   2.468   0.662   5.850
 1011TIP3    H1 2997   2.508   0.747   5.834
 1011TIP3    H2 2998   2.485   0.612   5.770
 1012TIP3   OH2 2999   4.039   4.238   3.604
 1012TIP3    H1 3000   4.030   4.238   3.699
 1012TIP3    H2 3001   4.114   4.181   3.587
 1013TIP3   OH2 3002   6.956   3.643   5.661
 1013TIP3    H1 3003   6.923   3.718   5.711
 1013TIP3    H2 3004   7.027   3.608   5.714
 1014TIP3   OH2 3005   5.780   0.138   5.381
 1014TIP3    H1 3006   5.800   0.045   5.396
 1014TIP3    H2 3007   5.846   0.166   5.318
 1015TIP3   OH2 3008   6.425   5.918   1.283
 1015TIP3    H1 3009   6.482   5.871   1.222
 1015TIP3    H2 3010   6.480   5.988   1.318
 1016TIP3   OH2 3011   4.463   0.812   1.842
 1016TIP3    H1 3012   4.445   0.778   1.755
 1016TIP3    H2 3013   4.413   0.894   1.846
 1017TIP3   OH2 3014   2.452   4.105   1.660
 1017TIP3    H1 3015   2.527   4.080   1.714
 1017TIP3    H2 3016   2.418   4.022   1.627
 1018TIP3   OH2 3017   1.627   5.793   2.042
 1018TIP3    H1 3018   1.652   5.718   2.094
 1018TIP3    H2 3019   1.690   5.795   1.970
 1019TIP3   OH2 3020   6.988   4.227   2.526
 1019TIP3    H1 3021   6.984   4.320   2.502
 1019TIP3    H2 3022   6.989   4.181   2.442
 1020TIP3   OH2 3023   5.575   3.815   1.298
 1020TIP3    H1 3024   5.601   3.820   1.206
 1020TIP3    H2 3025   5.483   3.787   1.295
 1021TIP3   OH2 3026   4.277   4.088   1.465
 1021TIP3    H1 3027   4.323   4.168   1.492
 1021TIP3    H2 3028   4.296   4.025   1.534
 1022TIP3   OH2 3029   5.299   0.148   2.734
 1022TIP3    H1 3030   5.257   0.203   2.667
 1022TIP3    H2 3031   5.244   0.159   2.811
 1023TIP3   OH2 3032   2.256   6.357   4.010
 1023TIP3    H1 3033   2.188   6.347   3.943
 1023TIP3    H2 3034   2.338   6.346   3.962
 1024TIP3   OH2 3035   3.280   0.612   5.578
 1024TIP3    H1 3036   3.368   0.590   5.608
 1024TIP3    H2 3037   3.226   0.611   5.657
 1025TIP3   OH2 3038   5.320   0.937   1.003
 1025TIP3    H1 3039   5.278   0.941   0.917
 1025TIP3    H2 3040   5.251   0.962   1.064
 1026TIP3   OH2 3041   6.638   5.777   4.086
 1026TIP3    H1 3042   6.576   5.818   4.147
 1026TIP3    H2 3043   6.679   5.706   4.136
 1027TIP3   OH2 3044   1.339   3.896   0.344
 1027TIP3    H1 3045   1.322   3.877   0.252
 1027TIP3    H2 3046   1.259   3.937   0.375
 1028TIP3   OH2 3047   1.878   2.850   4.983
 1028TIP3    H1 3048   1.954   2.837   5.039
 1028TIP3    H2 3049   1.806   2.810   5.032
 1029TIP3   OH2 3050   6.132   5.039   5.558
 1029TIP3    H1 3051   6.062   5.057   5.496
 1029TIP3    H2 3052   6.180   4.966   5.520
 1030TIP3   OH2 3053   0.349   3.729   0.834
 1030TIP3    H1 3054   0.290   3.660   0.865
 1030TIP3    H2 3055   0.408   3.745   0.907
 1031TIP3   OH2 3056   3.463   1.405   4.490
 1031TIP3    H1 3057   3.521   1.471   4.450
 1031TIP3    H2 3058   3.522   1.350   4.542
 1032TIP3   OH2 3059   3.617   4.323   1.971
 1032TIP3    H1 3060   3.620   4.391   1.903
 1032TIP3    H2 3061   3.601   4.242   1.922
 1033TIP3   OH2 3062   0.933   4.984   2.293
 1033TIP3    H1 3063   0.975   4.951   2.214
 1033TIP3    H2 3064   0.982   5.063   2.315
 1034TIP3   OH2 3065   2.746   2.033   5.791
 1034TIP3    H1 3066   2.688   1.958   5.804
 1034TIP3    H2 3067   2.830   1.994   5.766
 1035TIP3   OH2 3068   4.835   0.675   1.919
 1035TIP3    H1 3069   4.791   0.740   1.972
 1035TIP3    H2 3070   4.856   0.720   1.837
 1036TIP3   OH2 3071   0.936   1.970   4.251
 1036TIP3    H1 3072   1.025   1.934   4.259
 1036TIP3    H2 3073   0.917   2.005   4.338
 1037TIP3   OH2 3074   2.435   5.167   4.251
 1037TIP3    H1 3075   2.401   5.223   4.320
 1037TIP3    H2 3076   2.390   5.197   4.172
 1038TIP3   OH2 3077   0.075   5.156   4.532
 1038TIP3    H1 3078   0.118   5.078   4.496
 1038TIP3    H2 3079  -0.006   5.163   4.482
 1039TIP3   OH2 3080   3.572   3.053   0.662
 1039TIP3    H1 3081   3.593   3.107   0.586
 1039TIP3    H2 3082   3.657   3.026   0.697
 1040TIP3   OH2 3083   4.466   0.530   0.578
 1040TIP3    H1 3084   4.421   0.569   0.503
 1040TIP3    H2 3085   4.435   0.440   0.580
 1041TIP3   OH2 3086   2.241   5.226   2.530
 1041TIP3    H1 3087   2.251   5.280   2.607
 1041TIP3    H2 3088   2.231   5.288   2.457
 1042TIP3   OH2 3089   5.738   2.783   1.506
 1042TIP3    H1 3090   5.808   2.826   1.555
 1042TIP3    H2 3091   5.753   2.809   1.415
 1043TIP3   OH2 3092   0.367   6.502   2.646
 1043TIP3    H1 3093   0.329   6.495   2.559
 1043TIP3    H2 3094   0.429   6.428   2.651
 1044TIP3   OH2 3095   5.868   0.055   4.163
 1044TIP3    H1 3096   5.807   0.035   4.234
 1044TIP3    H2 3097   5.952   0.020   4.192
 1045TIP3   OH2 3098   0.226   2.493   3.092
 1045TIP3    H1 3099   0.130   2.491   3.090
 1045TIP3    H2 3100   0.253   2.437   3.020
 1046TIP3   OH2 3101   2.645   5.835   5.606
 1046TIP3    H1 3102   2.669   5.916   5.560
 1046TIP3    H2 3103   2.580   5.863   5.671
 1047TIP3   OH2 3104   1.165   3.301   1.928
 1047TIP3    H1 3105   1.080   3.341   1.945
 1047TIP3    H2 3106   1.145   3.210   1.905
 1048TIP3   OH2 3107   6.144   2.826   3.106
 1048TIP3    H1 3108   6.076   2.883   3.141
 1048TIP3    H2 3109   6.106   2.790   3.025
 1049TIP3   OH2 3110   3.313   5.743   2.243
 1049TIP3    H1 3111   3.337   5.656   2.213
 1049TIP3    H2 3112   3.361   5.755   2.325
 1050TIP3   OH2 3113   2.655   1.551   1.821
 1050TIP3    H1 3114   2.749   1.532   1.820
 1050TIP3    H2 3115   2.650   1.646   1.822
 1051TIP3   OH2 3116   3.804   4.714   1.577
 1051TIP3    H1 3117   3.850   4.741   1.497
 1051TIP3    H2 3118   3.794   4.795   1.627
 1052TIP3   OH2 3119   5.023   5.294   3.185
 1052TIP3    H1 3120   4.985   5.353   3.120
 1052TIP3    H2 3121   5.099   5.256   3.142
 1053TIP3   OH2 3122   5.985   1.437   4.307
 1053TIP3    H1 3123   6.066   1.467   4.268
 1053TIP3    H2 3124   6.008   1.354   4.350
 1054TIP3   OH2 3125   3.701   4.595   1.016
 1054TIP3    H1 3126   3.612   4.610   1.048
 1054TIP3    H2 3127   3.727   4.512   1.056
 1055TIP3   OH2 3128   2.433   2.307   5.135
 1055TIP3    H1 3129   2.400   2.390   5.167
 1055TIP3    H2 3130   2.487   2.330   5.059
 1056TIP3   OH2 3131   3.194   1.719   3.654
 1056TIP3    H1 3132   3.257   1.768   3.706
 1056TIP3    H2 3133   3.231   1.718   3.566
 1057TIP3   OH2 3134   3.471   4.274   3.322
 1057TIP3    H1 3135   3.389   4.280   3.272
 1057TIP3    H2 3136   3.504   4.363   3.324
 1058TIP3   OH2 3137   5.633   5.652   0.274
 1058TIP3    H1 3138   5.663   5.741   0.296
 1058TIP3    H2 3139   5.552   5.642   0.324
 1059TIP3   OH2 3140   6.282   5.764   4.560
 1059TIP3    H1 3141   6.212   5.755   4.624
 1059TIP3    H2 3142   6.263   5.846   4.515
 1060TIP3   OH2 3143   2.263   5.596   1.249
 1060TIP3    H1 3144   2.170   5.583   1.232
 1060TIP3    H2 3145   2.267   5.637   1.335
 1061TIP3   OH2 3146   3.619   6.774   1.958
 1061TIP3    H1 3147   3.599   6.748   2.048
 1061TIP3    H2 3148   3.676   6.706   1.925
 1062TIP3   OH2 3149   3.045   5.422   1.765
 1062TIP3    H1 3150   3.006   5.396   1.849
 1062TIP3    H2 3151   3.036   5.345   1.710
 1063TIP3   OH2 3152   2.700   5.541   0.689
 1063TIP3    H1 3153   2.776   5.560   0.634
 1063TIP3    H2 3154   2.653   5.624   0.695
 1064TIP3   OH2 3155   3.267   0.793   1.234
 1064TIP3    H1 3156   3.231   0.805   1.147
 1064TIP3    H2 3157   3.216   0.720   1.271
 1065TIP3   OH2 3158   1.174   2.926   4.216
 1065TIP3    H1 3159   1.099   2.878   4.179
 1065TIP3    H2 3160   1.243   2.915   4.151
 1066TIP3   OH2 3161   1.881   3.403   2.196
 1066TIP3    H1 3162   1.890   3.379   2.104
 1066TIP3    H2 3163   1.885   3.499   2.197
 1067TIP3   OH2 3164   5.898   2.292   4.207
 1067TIP3    H1 3165   5.856   2.376   4.191
 1067TIP3    H2 3166   5.900   2.283   4.302
 1068TIP3   OH2 3167   6.141   4.078   3.679
 1068TIP3    H1 3168   6.102   4.106   3.762
 1068TIP3    H2 3169   6.235   4.087   3.692
 1069TIP3   OH2 3170   7.114   4.881   3.845
 1069TIP3    H1 3171   7.092   4.970   3.873
 1069TIP3    H2 3172   7.044   4.855   3.786
 1070TIP3   OH2 3173   3.974   1.394   3.269
 1070TIP3    H1 3174   3.909   1.350   3.214
 1070TIP3    H2 3175   4.058   1.372   3.228
 1071TIP3   OH2 3176   3.647   4.742   5.813
 1071TIP3    H1 3177   3.711   4.673   5.795
 1071TIP3    H2 3178   3.690   4.798   5.878
 1072TIP3   OH2 3179   4.707   4.899   1.644
 1072TIP3    H1 3180   4.640   4.833   1.626
 1072TIP3    H2 3181   4.785   4.849   1.666
 1073TIP3   OH2 3182   6.711   2.083   0.045
 1073TIP3    H1 3183   6.758   2.146   0.100
 1073TIP3    H2 3184   6.647   2.136  -0.003
 1074TIP3   OH2 3185   5.622   6.292   0.408
 1074TIP3    H1 3186   5.597   6.282   0.316
 1074TIP3    H2 3187   5.718   6.290   0.407
 1075TIP3   OH2 3188   0.731   3.584   5.268
 1075TIP3    H1 3189   0.691   3.563   5.184
 1075TIP3    H2 3190   0.679   3.656   5.303
 1076TIP3   OH2 3191   5.713   2.520   5.072
 1076TIP3    H1 3192   5.796   2.566   5.060
 1076TIP3    H2 3193   5.727   2.435   5.030
 1077TIP3   OH2 3194   4.934   2.037   3.532
 1077TIP3    H1 3195   4.942   1.995   3.446
 1077TIP3    H2 3196   4.926   2.130   3.512
 1078TIP3   OH2 3197   2.992   3.801   4.532
 1078TIP3    H1 3198   2.938   3.747   4.473
 1078TIP3    H2 3199   3.066   3.745   4.555
 1079TIP3   OH2 3200   3.379   1.212   5.237
 1079TIP3    H1 3201   3.473   1.206   5.221
 1079TIP3    H2 3202   3.365   1.167   5.320
 1080TIP3   OH2 3203   3.694   1.333   2.875
 1080TIP3    H1 3204   3.728   1.413   2.833
 1080TIP3    H2 3205   3.748   1.263   2.839
 1081TIP3   OH2 3206   6.915   5.753   2.847
 1081TIP3    H1 3207   7.002   5.765   2.885
 1081TIP3    H2 3208   6.932   5.733   2.755
 1082TIP3   OH2 3209   7.125   5.004   5.173
 1082TIP3    H1 3210   7.184   4.943   5.217
 1082TIP3    H2 3211   7.179   5.048   5.108
 1083TIP3   OH2 3212   2.908   1.209   2.357
 1083TIP3    H1 3213   2.885   1.301   2.368
 1083TIP3    H2 3214   2.864   1.183   2.276
 1084TIP3   OH2 3215   3.014   4.602   0.931
 1084TIP3    H1 3216   3.075   4.564   0.868
 1084TIP3    H2 3217   2.933   4.552   0.920
 1085TIP3   OH2 3218   2.407   0.901   5.337
 1085TIP3    H1 3219   2.448   0.908   5.423
 1085TIP3    H2 3220   2.455   0.963   5.282
 1086TIP3   OH2 3221   4.464   5.837   1.976
 1086TIP3    H1 3222   4.389   5.896   1.963
 1086TIP3    H2 3223   4.512   5.841   1.893
 1087TIP3   OH2 3224   0.865   0.621   2.477
 1087TIP3    H1 3225   0.823   0.566   2.410
 1087TIP3    H2 3226   0.948   0.577   2.495
 1088TIP3   OH2 3227   2.210   6.293   1.813
 1088TIP3    H1 3228   2.283   6.296   1.751
 1088TIP3    H2 3229   2.146   6.235   1.772
 1089TIP3   OH2 3230   1.393   4.261   0.886
 1089TIP3    H1 3231   1.476   4.225   0.917
 1089TIP3    H2 3232   1.400   4.355   0.905
 1090TIP3   OH2 3233   6.138   5.397   5.102
 1090TIP3    H1 3234   6.105   5.366   5.017
 1090TIP3    H2 3235   6.123   5.324   5.162
 1091TIP3   OH2 3236   6.667   2.430   2.821
 1091TIP3    H1 3237   6.653   2.494   2.890
 1091TIP3    H2 3238   6.762   2.418   2.818
 1092TIP3   OH2 3239   2.297   2.786   5.830
 1092TIP3    H1 3240   2.231   2.845   5.791
 1092TIP3    H2 3241   2.248   2.736   5.895
 1093TIP3   OH2 3242   4.709   3.366   3.101
 1093TIP3    H1 3243   4.653   3.441   3.082
 1093TIP3    H2 3244   4.749   3.387   3.186
 1094TIP3   OH2 3245   2.830   4.169   3.485
 1094TIP3    H1 3246   2.775   4.190   3.410
 1094TIP3    H2 3247   2.853   4.077   3.473
 1095TIP3   OH2 3248   0.121   3.913   5.713
 1095TIP3    H1 3249   0.054   3.948   5.654
 1095TIP3    H2 3250   0.118   3.969   5.790
 1096TIP3   OH2 3251   2.463   0.163   5.464
 1096TIP3    H1 3252   2.449   0.073   5.433
 1096TIP3    H2 3253   2.375   0.198   5.479
 1097TIP3   OH2 3254   0.650   1.278   3.789
 1097TIP3    H1 3255   0.719   1.217   3.763
 1097TIP3    H2 3256   0.608   1.237   3.865
 1098TIP3   OH2 3257   5.640   6.594   3.506
 1098TIP3    H1 3258   5.686   6.510   3.499
 1098TIP3    H2 3259   5.671   6.632   3.588
 1099TIP3   OH2 3260   4.081   0.168   3.056
 1099TIP3    H1 3261   4.066   0.227   2.982
 1099TIP3    H2 3262   4.131   0.095   3.019
 1100TIP3   OH2 3263   6.672   6.555   1.357
 1100TIP3    H1 3264   6.720   6.603   1.289
 1100TIP3    H2 3265   6.622   6.489   1.308
 1101TIP3   OH2 3266   5.094   2.542   3.973
 1101TIP3    H1 3267   5.017   2.591   3.944
 1101TIP3    H2 3268   5.091   2.460   3.922
 1102TIP3   OH2 3269   6.866   6.543   3.956
 1102TIP3    H1 3270   6.856   6.529   4.050
 1102TIP3    H2 3271   6.777   6.540   3.921
 1103TIP3   OH2 3272   2.442   3.489   1.344
 1103TIP3    H1 3273   2.439   3.397   1.366
 1103TIP3    H2 3274   2.387   3.497   1.266
 1104TIP3   OH2 3275   5.382   1.307   0.862
 1104TIP3    H1 3276   5.451   1.281   0.801
 1104TIP3    H2 3277   5.333   1.227   0.880
 1105TIP3   OH2 3278   3.460   5.323   3.334
 1105TIP3    H1 3279   3.431   5.363   3.252
 1105TIP3    H2 3280   3.379   5.302   3.381
 1106TIP3   OH2 3281   1.079   1.372   4.177
 1106TIP3    H1 3282   1.046   1.423   4.104
 1106TIP3    H2 3283   1.173   1.389   4.179
 1107TIP3   OH2 3284   7.110   4.068   1.336
 1107TIP3    H1 3285   7.194   4.108   1.358
 1107TIP3    H2 3286   7.121   4.036   1.247
 1108TIP3   OH2 3287   3.293   1.882   1.534
 1108TIP3    H1 3288   3.386   1.862   1.518
 1108TIP3    H2 3289   3.277   1.850   1.623
 1109TIP3   OH2 3290   4.335   3.492   5.893
 1109TIP3    H1 3291   4.278   3.506   5.818
 1109TIP3    H2 3292   4.308   3.558   5.957
 1110TIP3   OH2 3293   0.490   6.149   5.810
 1110TIP3    H1 3294   0.560   6.213   5.806
 1110TIP3    H2 3295   0.467   6.143   5.902
 1111TIP3   OH2 3296   3.832   0.503   2.309
 1111TIP3    H1 3297   3.900   0.490   2.375
 1111TIP3    H2 3298   3.750   0.488   2.356
 1112TIP3   OH2 3299   4.675   4.782   3.919
 1112TIP3    H1 3300   4.743   4.804   3.983
 1112TIP3    H2 3301   4.630   4.864   3.902
 1113TIP3   OH2 3302   1.720   1.757   4.672
 1113TIP3    H1 3303   1.653   1.692   4.651
 1113TIP3    H2 3304   1.683   1.806   4.746
 1114TIP3   OH2 3305   2.169   5.044   1.521
 1114TIP3    H1 3306   2.244   4.988   1.543
 1114TIP3    H2 3307   2.197   5.132   1.547
 1115TIP3   OH2 3308   3.499   4.656   1.844
 1115TIP3    H1 3309   3.501   4.699   1.758
 1115TIP3    H2 3310   3.591   4.644   1.867
 1116TIP3   OH2 3311   5.346   2.210   5.378
 1116TIP3    H1 3312   5.378   2.179   5.463
 1116TIP3    H2 3313   5.377   2.144   5.315
 1117TIP3   OH2 3314   1.806   6.496   0.016
 1117TIP3    H1 3315   1.793   6.577  -0.033
 1117TIP3    H2 3316   1.744   6.503   0.090
 1118TIP3   OH2 3317   5.764   1.141   4.948
 1118TIP3    H1 3318   5.767   1.098   4.862
 1118TIP3    H2 3319   5.751   1.233   4.928
 1119TIP3   OH2 3320   7.084   3.978   1.596
 1119TIP3    H1 3321   7.142   3.902   1.591
 1119TIP3    H2 3322   7.100   4.026   1.514
 1120TIP3   OH2 3323   5.737   0.823   4.412
 1120TIP3    H1 3324   5.712   0.835   4.503
 1120TIP3    H2 3325   5.833   0.821   4.413
 1121TIP3   OH2 3326   5.818   3.500   4.537
 1121TIP3    H1 3327   5.827   3.529   4.628
 1121TIP3    H2 3328   5.906   3.504   4.502
 1122TIP3   OH2 3329   6.830   3.436   5.551
 1122TIP3    H1 3330   6.904   3.375   5.560
 1122TIP3    H2 3331   6.860   3.515   5.596
 1123TIP3   OH2 3332   3.055   6.363   1.554
 1123TIP3    H1 3333   3.123   6.296   1.557
 1123TIP3    H2 3334   3.062   6.407   1.639
 1124TIP3   OH2 3335   0.199   6.075   5.735
 1124TIP3    H1 3336   0.165   6.161   5.708
 1124TIP3    H2 3337   0.292   6.090   5.751
 1125TIP3   OH2 3338   3.389   2.648   1.363
 1125TIP3    H1 3339   3.426   2.654   1.275
 1125TIP3    H2 3340   3.406   2.734   1.403
 1126TIP3   OH2 3341   6.452   5.383   0.283
 1126TIP3    H1 3342   6.437   5.342   0.368
 1126TIP3    H2 3343   6.488   5.469   0.305
 1127TIP3   OH2 3344   5.382   4.144   2.761
 1127TIP3    H1 3345   5.400   4.075   2.698
 1127TIP3    H2 3346   5.441   4.215   2.737
 1128TIP3   OH2 3347   4.828   2.715   1.462
 1128TIP3    H1 3348   4.778   2.719   1.381
 1128TIP3    H2 3349   4.763   2.699   1.530
 1129TIP3   OH2 3350   3.798   4.878   0.965
 1129TIP3    H1 3351   3.810   4.788   0.996
 1129TIP3    H2 3352   3.873   4.925   1.002
 1130TIP3   OH2 3353   6.461   1.112   2.051
 1130TIP3    H1 3354   6.386   1.054   2.043
 1130TIP3    H2 3355   6.431   1.182   2.109
 1131TIP3   OH2 3356   3.603   0.572   3.633
 1131TIP3    H1 3357   3.593   0.503   3.567
 1131TIP3    H2 3358   3.514   0.603   3.649
 1132TIP3   OH2 3359   2.290   6.702   0.170
 1132TIP3    H1 3360   2.242   6.690   0.088
 1132TIP3    H2 3361   2.238   6.655   0.236
 1133TIP3   OH2 3362   3.072   3.232   5.645
 1133TIP3    H1 3363   3.003   3.171   5.673
 1133TIP3    H2 3364   3.033   3.281   5.573
 1134TIP3   OH2 3365   0.059   1.176   5.708
 1134TIP3    H1 3366   0.112   1.177   5.628
 1134TIP3    H2 3367   0.110   1.125   5.770
 1135TIP3   OH2 3368   6.100   0.038   3.005
 1135TIP3    H1 3369   6.044   0.095   3.057
 1135TIP3    H2 3370   6.156  -0.005   3.069
 1136TIP3   OH2 3371   7.021   3.130   0.900
 1136TIP3    H1 3372   6.957   3.119   0.970
 1136TIP3    H2 3373   7.005   3.056   0.842
 1137TIP3   OH2 3374   0.749   4.618   0.177
 1137TIP3    H1 3375   0.687   4.671   0.128
 1137TIP3    H2 3376   0.754   4.535   0.129
 1138TIP3   OH2 3377   0.306   0.877   4.034
 1138TIP3    H1 3378   0.282   0.906   3.946
 1138TIP3    H2 3379   0.276   0.786   4.038
 1139TIP3   OH2 3380  -0.019   3.058   1.126
 1139TIP3    H1 3381   0.064   3.050   1.173
 1139TIP3    H2 3382   0.004   3.101   1.044
 1140TIP3   OH2 3383   0.068   1.483   2.501
 1140TIP3    H1 3384   0.078   1.402   2.451
 1140TIP3    H2 3385  -0.011   1.469   2.554
 1141TIP3   OH2 3386   6.310   6.074   5.162
 1141TIP3    H1 3387   6.243   6.046   5.225
 1141TIP3    H2 3388   6.280   6.038   5.079
 1142TIP3   OH2 3389   3.600   5.098   3.363
 1142TIP3    H1 3390   3.556   5.047   3.295
 1142TIP3    H2 3391   3.548   5.178   3.370
 1143TIP3   OH2 3392   6.726   3.565   4.329
 1143TIP3    H1 3393   6.779   3.589   4.252
 1143TIP3    H2 3394   6.703   3.473   4.315
 1144TIP3   OH2 3395   2.249   3.213   2.294
 1144TIP3    H1 3396   2.159   3.188   2.311
 1144TIP3    H2 3397   2.283   3.142   2.239
 1145TIP3   OH2 3398   1.979   6.131   4.426
 1145TIP3    H1 3399   1.983   6.100   4.336
 1145TIP3    H2 3400   2.064   6.173   4.441
 1146TIP3   OH2 3401   0.488   4.801   1.603
 1146TIP3    H1 3402   0.559   4.738   1.605
 1146TIP3    H2 3403   0.525   4.878   1.559
 1147TIP3   OH2 3404   0.238   2.172   2.987
 1147TIP3    H1 3405   0.142   2.162   2.990
 1147TIP3    H2 3406   0.263   2.136   2.902
 1148TIP3   OH2 3407   2.428   5.297   3.444
 1148TIP3    H1 3408   2.506   5.352   3.447
 1148TIP3    H2 3409   2.418   5.264   3.534
 1149TIP3   OH2 3410   3.966   5.593   1.214
 1149TIP3    H1 3411   4.022   5.515   1.219
 1149TIP3    H2 3412   3.877   5.560   1.223
 1150TIP3   OH2 3413   4.221   2.278   3.545
 1150TIP3    H1 3414   4.305   2.323   3.545
 1150TIP3    H2 3415   4.156   2.348   3.535
 1151TIP3   OH2 3416   3.592   0.717   1.080
 1151TIP3    H1 3417   3.641   0.650   1.128
 1151TIP3    H2 3418   3.579   0.788   1.143
 1152TIP3   OH2 3419   2.646   5.466   3.426
 1152TIP3    H1 3420   2.703   5.449   3.501
 1152TIP3    H2 3421   2.655   5.560   3.409
 1153TIP3   OH2 3422   6.036   1.035   1.990
 1153TIP3    H1 3423   6.072   0.946   1.997
 1153TIP3    H2 3424   6.046   1.072   2.077
 1154TIP3   OH2 3425   1.316   1.482   4.086
 1154TIP3    H1 3426   1.305   1.527   4.003
 1154TIP3    H2 3427   1.405   1.504   4.114
 1155TIP3   OH2 3428   1.415   1.608   0.566
 1155TIP3    H1 3429   1.325   1.626   0.538
 1155TIP3    H2 3430   1.437   1.683   0.622
 1156TIP3   OH2 3431   3.555   0.522   4.066
 1156TIP3    H1 3432   3.548   0.433   4.031
 1156TIP3    H2 3433   3.623   0.563   4.013
 1157TIP3   OH2 3434   1.709   2.272   2.694
 1157TIP3    H1 3435   1.623   2.305   2.669
 1157TIP3    H2 3436   1.733   2.323   2.771
 1158TIP3   OH2 3437   1.542   6.311   3.829
 1158TIP3    H1 3438   1.540   6.221   3.860
 1158TIP3    H2 3439   1.600   6.356   3.890
 1159TIP3   OH2 3440   6.417   5.214   4.257
 1159TIP3    H1 3441   6.426   5.201   4.163
 1159TIP3    H2 3442   6.505   5.238   4.286
 1160TIP3   OH2 3443   3.842   6.774   3.239
 1160TIP3    H1 3444   3.850   6.681   3.220
 1160TIP3    H2 3445   3.808   6.778   3.329
 1161TIP3   OH2 3446   0.459   6.289   5.383
 1161TIP3    H1 3447   0.467   6.256   5.293
 1161TIP3    H2 3448   0.474   6.212   5.438
 1162TIP3   OH2 3449   3.889   2.222   5.861
 1162TIP3    H1 3450   3.863   2.158   5.794
 1162TIP3    H2 3451   3.960   2.179   5.909
 1163TIP3   OH2 3452   0.703   2.292   0.332
 1163TIP3    H1 3453   0.612   2.261   0.340
 1163TIP3    H2 3454   0.707   2.332   0.245
 1164TIP3   OH2 3455   2.556   3.622   5.734
 1164TIP3    H1 3456   2.572   3.707   5.776
 1164TIP3    H2 3457   2.548   3.642   5.641
 1165TIP3   OH2 3458   0.161   2.121   0.232
 1165TIP3    H1 3459   0.175   2.122   0.327
 1165TIP3    H2 3460   0.141   2.029   0.212
 1166TIP3   OH2 3461   2.139   4.514   5.104
 1166TIP3    H1 3462   2.047   4.489   5.090
 1166TIP3    H2 3463   2.176   4.440   5.153
 1167TIP3   OH2 3464   7.030   4.795   3.324
 1167TIP3    H1 3465   7.059   4.705   3.305
 1167TIP3    H2 3466   6.951   4.783   3.376
 1168TIP3   OH2 3467   3.429   0.165   5.819
 1168TIP3    H1 3468   3.367   0.106   5.862
 1168TIP3    H2 3469   3.396   0.253   5.837
 1169TIP3   OH2 3470   1.361   4.519   0.383
 1169TIP3    H1 3471   1.307   4.567   0.446
 1169TIP3    H2 3472   1.298   4.480   0.323
 1170TIP3   OH2 3473   2.784   6.193   2.273
 1170TIP3    H1 3474   2.872   6.227   2.264
 1170TIP3    H2 3475   2.730   6.249   2.217
 1171TIP3   OH2 3476   2.094   1.265   1.154
 1171TIP3    H1 3477   2.032   1.238   1.086
 1171TIP3    H2 3478   2.053   1.238   1.236
 1172TIP3   OH2 3479   3.377   6.748   1.822
 1172TIP3    H1 3480   3.352   6.657   1.839
 1172TIP3    H2 3481   3.469   6.754   1.848
 1173TIP3   OH2 3482   7.172   6.668   5.800
 1173TIP3    H1 3483   7.112   6.658   5.726
 1173TIP3    H2 3484   7.235   6.597   5.790
 1174TIP3   OH2 3485   6.271   5.948   3.895
 1174TIP3    H1 3486   6.187   5.905   3.879
 1174TIP3    H2 3487   6.333   5.904   3.837
 1175TIP3   OH2 3488   4.577   5.373   5.277
 1175TIP3    H1 3489   4.543   5.285   5.267
 1175TIP3    H2 3490   4.641   5.382   5.206
 1176TIP3   OH2 3491   6.349   2.224   0.214
 1176TIP3    H1 3492   6.321   2.143   0.170
 1176TIP3    H2 3493   6.383   2.195   0.298
 1177TIP3   OH2 3494   3.803   6.444   5.458
 1177TIP3    H1 3495   3.772   6.446   5.548
 1177TIP3    H2 3496   3.889   6.486   5.460
 1178TIP3   OH2 3497   4.628   4.274   5.533
 1178TIP3    H1 3498   4.663   4.354   5.572
 1178TIP3    H2 3499   4.673   4.266   5.448
 1179TIP3   OH2 3500   4.027   2.863   2.826
 1179TIP3    H1 3501   3.934   2.852   2.850
 1179TIP3    H2 3502   4.056   2.939   2.876
 1180TIP3   OH2 3503   0.543   5.908   3.931
 1180TIP3    H1 3504   0.620   5.946   3.974
 1180TIP3    H2 3505   0.562   5.815   3.925
 1181TIP3   OH2 3506   5.820   3.814   4.204
 1181TIP3    H1 3507   5.771   3.890   4.236
 1181TIP3    H2 3508   5.856   3.774   4.283
 1182TIP3   OH2 3509   1.043   5.098   5.611
 1182TIP3    H1 3510   0.954   5.070   5.590
 1182TIP3    H2 3511   1.083   5.118   5.526
 1183TIP3   OH2 3512   1.655   2.930   3.325
 1183TIP3    H1 3513   1.627   2.867   3.392
 1183TIP3    H2 3514   1.750   2.929   3.330
 1184TIP3   OH2 3515   5.197   4.222   4.086
 1184TIP3    H1 3516   5.250   4.285   4.037
 1184TIP3    H2 3517   5.107   4.254   4.077
 1185TIP3   OH2 3518   1.189   0.903   1.614
 1185TIP3    H1 3519   1.148   0.915   1.700
 1185TIP3    H2 3520   1.271   0.952   1.620
 1186TIP3   OH2 3521   6.843   2.600   0.880
 1186TIP3    H1 3522   6.934   2.613   0.908
 1186TIP3    H2 3523   6.793   2.607   0.961
 1187TIP3   OH2 3524   4.191   2.588   0.915
 1187TIP3    H1 3525   4.197   2.558   0.824
 1187TIP3    H2 3526   4.116   2.648   0.915
 1188TIP3   OH2 3527   5.108   2.419   5.840
 1188TIP3    H1 3528   5.171   2.438   5.771
 1188TIP3    H2 3529   5.024   2.451   5.805
 1189TIP3   OH2 3530   1.768   0.789   1.667
 1189TIP3    H1 3531   1.689   0.760   1.622
 1189TIP3    H2 3532   1.820   0.709   1.679
 1190TIP3   OH2 3533   0.460   5.733   2.810
 1190TIP3    H1 3534   0.512   5.679   2.751
 1190TIP3    H2 3535   0.524   5.772   2.870
 1191TIP3   OH2 3536   0.838   3.860   3.380
 1191TIP3    H1 3537   0.767   3.848   3.443
 1191TIP3    H2 3538   0.845   3.955   3.370
 1192TIP3   OH2 3539   4.471   1.284   3.398
 1192TIP3    H1 3540   4.522   1.262   3.319
 1192TIP3    H2 3541   4.443   1.374   3.385
 1193TIP3   OH2 3542   2.991   5.565   5.076
 1193TIP3    H1 3543   3.049   5.637   5.099
 1193TIP3    H2 3544   3.050   5.495   5.047
 1194TIP3   OH2 3545   4.818   0.367   1.332
 1194TIP3    H1 3546   4.792   0.277   1.315
 1194TIP3    H2 3547   4.823   0.408   1.245
 1195TIP3   OH2 3548   6.206   1.266   1.873
 1195TIP3    H1 3549   6.141   1.204   1.906
 1195TIP3    H2 3550   6.158   1.349   1.864
 1196TIP3   OH2 3551   2.079   5.623   5.619
 1196TIP3    H1 3552   2.068   5.676   5.697
 1196TIP3    H2 3553   1.990   5.597   5.594
 1197TIP3   OH2 3554   2.696   2.363   1.066
 1197TIP3    H1 3555   2.732   2.287   1.020
 1197TIP3    H2 3556   2.642   2.407   1.001
 1198TIP3   OH2 3557   2.699   4.913   5.641
 1198TIP3    H1 3558   2.771   4.960   5.683
 1198TIP3    H2 3559   2.621   4.960   5.667
 1199TIP3   OH2 3560   1.611   3.257   2.039
 1199TIP3    H1 3561   1.561   3.309   1.976
 1199TIP3    H2 3562   1.617   3.313   2.117
 1200TIP3   OH2 3563   4.028   0.265   5.726
 1200TIP3    H1 3564   3.938   0.296   5.721
 1200TIP3    H2 3565   4.080   0.334   5.685
 1201TIP3   OH2 3566   5.733   1.089   5.581
 1201TIP3    H1 3567   5.769   1.119   5.664
 1201TIP3    H2 3568   5.641   1.069   5.601
 1202TIP3   OH2 3569   4.308   3.688   1.657
 1202TIP3    H1 3570   4.341   3.774   1.682
 1202TIP3    H2 3571   4.293   3.694   1.562
 1203TIP3   OH2 3572   3.854   0.043   3.148
 1203TIP3    H1 3573   3.920   0.100   3.108
 1203TIP3    H2 3574   3.876  -0.045   3.116
 1204TIP3   OH2 3575   2.184   1.013   3.560
 1204TIP3    H1 3576   2.267   1.045   3.596
 1204TIP3    H2 3577   2.151   0.953   3.626
 1205TIP3   OH2 3578   6.158   1.350   0.131
 1205TIP3    H1 3579   6.242   1.389   0.157
 1205TIP3    H2 3580   6.165   1.338   0.037
 1206TIP3   OH2 3581   0.779   6.456   2.567
 1206TIP3    H1 3582   0.761   6.444   2.660
 1206TIP3    H2 3583   0.736   6.382   2.524
 1207TIP3   OH2 3584   1.267   2.753   2.764
 1207TIP3    H1 3585   1.174   2.736   2.769
 1207TIP3    H2 3586   1.299   2.694   2.696
 1208TIP3   OH2 3587   5.792   3.689   1.652
 1208TIP3    H1 3588   5.726   3.697   1.721
 1208TIP3    H2 3589   5.788   3.773   1.606
 1209TIP3   OH2 3590   4.883   6.038   3.244
 1209TIP3    H1 3591   4.817   6.010   3.308
 1209TIP3    H2 3592   4.927   6.112   3.285
 1210TIP3   OH2 3593   2.272   2.297   2.155
 1210TIP3    H1 3594   2.307   2.215   2.120
 1210TIP3    H2 3595   2.314   2.307   2.240
 1211TIP3   OH2 3596   6.734   6.575   0.893
 1211TIP3    H1 3597   6.716   6.501   0.836
 1211TIP3    H2 3598   6.679   6.646   0.859
 1212TIP3   OH2 3599   5.355   5.841   3.847
 1212TIP3    H1 3600   5.300   5.787   3.790
 1212TIP3    H2 3601   5.293   5.880   3.910
 1213TIP3   OH2 3602   4.574   6.364   2.914
 1213TIP3    H1 3603   4.628   6.398   2.843
 1213TIP3    H2 3604   4.637   6.328   2.977
 1214TIP3   OH2 3605   5.431   6.638   5.208
 1214TIP3    H1 3606   5.403   6.640   5.300
 1214TIP3    H2 3607   5.397   6.719   5.171
 1215TIP3   OH2 3608   5.616   0.394   0.696
 1215TIP3    H1 3609   5.651   0.305   0.695
 1215TIP3    H2 3610   5.685   0.446   0.736
 1216TIP3   OH2 3611   1.633   4.184   0.960
 1216TIP3    H1 3612   1.728   4.193   0.948
 1216TIP3    H2 3613   1.620   4.196   1.054
 1217TIP3   OH2 3614   2.147   1.199   1.988
 1217TIP3    H1 3615   2.110   1.143   2.056
 1217TIP3    H2 3616   2.170   1.138   1.917
 1218TIP3   OH2 3617   2.570   3.908   2.942
 1218TIP3    H1 3618   2.510   3.952   3.002
 1218TIP3    H2 3619   2.519   3.836   2.905
 1219TIP3   OH2 3620   3.793   0.447   3.238
 1219TIP3    H1 3621   3.884   0.448   3.266
 1219TIP3    H2 3622   3.797   0.431   3.143
 1220TIP3   OH2 3623   4.532   5.353   4.731
 1220TIP3    H1 3624   4.560   5.264   4.711
 1220TIP3    H2 3625   4.486   5.382   4.652
 1221TIP3   OH2 3626   5.610   1.868   4.258
 1221TIP3    H1 3627   5.577   1.941   4.310
 1221TIP3    H2 3628   5.704   1.885   4.248
 1222TIP3   OH2 3629   4.677   2.691   1.689
 1222TIP3    H1 3630   4.617   2.704   1.763
 1222TIP3    H2 3631   4.714   2.604   1.704
 1223TIP3   OH2 3632   4.764   0.531   5.285
 1223TIP3    H1 3633   4.852   0.493   5.285
 1223TIP3    H2 3634   4.720   0.488   5.359
 1224TIP3   OH2 3635   2.525   5.863   2.773
 1224TIP3    H1 3636   2.613   5.839   2.802
 1224TIP3    H2 3637   2.476   5.874   2.855
 1225TIP3   OH2 3638   4.763   3.268   2.283
 1225TIP3    H1 3639   4.726   3.180   2.277
 1225TIP3    H2 3640   4.707   3.321   2.227
 1226TIP3   OH2 3641   5.934   1.866   2.472
 1226TIP3    H1 3642   5.950   1.854   2.379
 1226TIP3    H2 3643   5.961   1.784   2.513
 1227TIP3   OH2 3644   1.826   0.976   5.511
 1227TIP3    H1 3645   1.910   1.017   5.490
 1227TIP3    H2 3646   1.849   0.886   5.533
 1228TIP3   OH2 3647   6.990   6.718   4.527
 1228TIP3    H1 3648   6.910   6.671   4.502
 1228TIP3    H2 3649   7.057   6.650   4.529
 1229TIP3   OH2 3650   2.034   5.447   0.905
 1229TIP3    H1 3651   2.030   5.459   1.000
 1229TIP3    H2 3652   1.944   5.425   0.880
 1230TIP3   OH2 3653   5.998   3.541   5.666
 1230TIP3    H1 3654   6.085   3.526   5.629
 1230TIP3    H2 3655   6.015   3.565   5.757
 1231TIP3   OH2 3656   5.978   1.720   3.050
 1231TIP3    H1 3657   5.961   1.648   2.990
 1231TIP3    H2 3658   5.893   1.763   3.060
 1232TIP3   OH2 3659   2.950   1.546   1.940
 1232TIP3    H1 3660   2.945   1.639   1.959
 1232TIP3    H2 3661   2.985   1.507   2.020
 1233TIP3   OH2 3662   1.985   4.569   3.931
 1233TIP3    H1 3663   1.971   4.663   3.940
 1233TIP3    H2 3664   2.071   4.562   3.888
 1234TIP3   OH2 3665   3.821   5.070   0.089
 1234TIP3    H1 3666   3.737   5.063   0.135
 1234TIP3    H2 3667   3.829   4.987   0.042
 1235TIP3   OH2 3668   0.043   6.573   1.430
 1235TIP3    H1 3669   0.037   6.576   1.525
 1235TIP3    H2 3670   0.136   6.583   1.411
 1236TIP3   OH2 3671   6.873   1.771   5.584
 1236TIP3    H1 3672   6.917   1.687   5.599
 1236TIP3    H2 3673   6.871   1.812   5.671
 1237TIP3   OH2 3674   3.893   3.354   0.941
 1237TIP3    H1 3675   3.836   3.347   0.865
 1237TIP3    H2 3676   3.908   3.448   0.952
 1238TIP3   OH2 3677   3.712   5.589   0.124
 1238TIP3    H1 3678   3.788   5.538   0.154
 1238TIP3    H2 3679   3.637   5.532   0.141
 1239TIP3   OH2 3680   2.661   2.425   1.995
 1239TIP3    H1 3681   2.728   2.430   1.927
 1239TIP3    H2 3682   2.630   2.515   2.005
 1240TIP3   OH2 3683   3.817   5.936   1.956
 1240TIP3    H1 3684   3.791   6.021   1.919
 1240TIP3    H2 3685   3.911   5.931   1.941
 1241TIP3   OH2 3686   4.746   4.508   5.654
 1241TIP3    H1 3687   4.783   4.583   5.607
 1241TIP3    H2 3688   4.793   4.507   5.737
 1242TIP3   OH2 3689   1.159   3.595   2.889
 1242TIP3    H1 3690   1.069   3.581   2.861
 1242TIP3    H2 3691   1.186   3.675   2.845
 1243TIP3   OH2 3692   5.413   2.589   2.919
 1243TIP3    H1 3693   5.406   2.678   2.953
 1243TIP3    H2 3694   5.503   2.584   2.885
 1244TIP3   OH2 3695   0.699   0.841   2.058
 1244TIP3    H1 3696   0.724   0.861   1.968
 1244TIP3    H2 3697   0.685   0.746   2.059
 1245TIP3   OH2 3698   6.097   4.888   4.706
 1245TIP3    H1 3699   6.102   4.832   4.628
 1245TIP3    H2 3700   6.055   4.834   4.772
 1246TIP3   OH2 3701   4.616   4.603   0.678
 1246TIP3    H1 3702   4.556   4.587   0.606
 1246TIP3    H2 3703   4.670   4.524   0.684
 1247TIP3   OH2 3704   4.695   6.366   2.347
 1247TIP3    H1 3705   4.686   6.271   2.350
 1247TIP3    H2 3706   4.626   6.394   2.287
 1248TIP3   OH2 3707   2.636   2.720   3.521
 1248TIP3    H1 3708   2.620   2.638   3.568
 1248TIP3    H2 3709   2.701   2.697   3.455
 1249TIP3   OH2 3710   5.697   2.878   1.905
 1249TIP3    H1 3711   5.683   2.973   1.911
 1249TIP3    H2 3712   5.625   2.847   1.849
 1250TIP3   OH2 3713   2.225   0.890   2.678
 1250TIP3    H1 3714   2.136   0.859   2.692
 1250TIP3    H2 3715   2.238   0.884   2.583
 1251TIP3   OH2 3716   3.138   0.677   4.624
 1251TIP3    H1 3717   3.099   0.593   4.648
 1251TIP3    H2 3718   3.209   0.654   4.564
 1252TIP3   OH2 3719   2.372   2.703   2.562
 1252TIP3    H1 3720   2.438   2.645   2.522
 1252TIP3    H2 3721   2.395   2.790   2.531
 1253TIP3   OH2 3722   1.598   1.370   5.400
 1253TIP3    H1 3723   1.692   1.380   5.383
 1253TIP3    H2 3724   1.594   1.310   5.474
 1254TIP3   OH2 3725   1.139   2.862   1.176
 1254TIP3    H1 3726   1.160   2.776   1.214
 1254TIP3    H2 3727   1.059   2.847   1.126
 1255TIP3   OH2 3728   3.847   5.114   2.007
 1255TIP3    H1 3729   3.759   5.086   2.033
 1255TIP3    H2 3730   3.869   5.185   2.067
 1256TIP3   OH2 3731   4.186   6.564   5.178
 1256TIP3    H1 3732   4.270   6.608   5.167
 1256TIP3    H2 3733   4.187   6.494   5.113
 1257TIP3   OH2 3734   1.990   4.143   5.324
 1257TIP3    H1 3735   1.924   4.174   5.385
 1257TIP3    H2 3736   1.952   4.063   5.286
 1258TIP3   OH2 3737   2.371   1.446   0.404
 1258TIP3    H1 3738   2.373   1.451   0.309
 1258TIP3    H2 3739   2.278   1.440   0.427
 1259TIP3   OH2 3740   1.118   5.275   2.887
 1259TIP3    H1 3741   1.160   5.345   2.938
 1259TIP3    H2 3742   1.092   5.210   2.953
 1260TIP3   OH2 3743   0.646   3.665   1.944
 1260TIP3    H1 3744   0.573   3.695   1.998
 1260TIP3    H2 3745   0.715   3.644   2.006
 1261TIP3   OH2 3746   4.654   2.236   1.709
 1261TIP3    H1 3747   4.734   2.187   1.691
 1261TIP3    H2 3748   4.682   2.327   1.711
 1262TIP3   OH2 3749   2.823   3.751   2.772
 1262TIP3    H1 3750   2.850   3.663   2.745
 1262TIP3    H2 3751   2.731   3.741   2.797
 1263TIP3   OH2 3752   5.973   5.367   1.942
 1263TIP3    H1 3753   5.884   5.357   1.908
 1263TIP3    H2 3754   5.964   5.364   2.037
 1264TIP3   OH2 3755   6.328   0.482   5.134
 1264TIP3    H1 3756   6.340   0.569   5.097
 1264TIP3    H2 3757   6.233   0.470   5.137
 1265TIP3   OH2 3758   0.236   2.676   2.851
 1265TIP3    H1 3759   0.328   2.665   2.877
 1265TIP3    H2 3760   0.196   2.726   2.923
 1266TIP3   OH2 3761   1.471   5.651   0.571
 1266TIP3    H1 3762   1.449   5.676   0.481
 1266TIP3    H2 3763   1.447   5.727   0.623
 1267TIP3   OH2 3764   4.304   1.227   2.936
 1267TIP3    H1 3765   4.222   1.275   2.942
 1267TIP3    H2 3766   4.361   1.266   3.002
 1268TIP3   OH2 3767   0.325   3.641   5.065
 1268TIP3    H1 3768   0.359   3.654   5.154
 1268TIP3    H2 3769   0.282   3.724   5.044
 1269TIP3   OH2 3770   4.106   1.719   3.432
 1269TIP3    H1 3771   4.160   1.784   3.476
 1269TIP3    H2 3772   4.040   1.694   3.497
 1270TIP3   OH2 3773   5.793   0.309   4.111
 1270TIP3    H1 3774   5.722   0.325   4.173
 1270TIP3    H2 3775   5.823   0.220   4.130
 1271TIP3   OH2 3776   2.133   5.744   0.009
 1271TIP3    H1 3777   2.071   5.699  -0.048
 1271TIP3    H2 3778   2.083   5.765   0.087
 1272TIP3   OH2 3779   6.294   6.372   4.501
 1272TIP3    H1 3780   6.343   6.405   4.426
 1272TIP3    H2 3781   6.361   6.344   4.564
 1273TIP3   OH2 3782   2.588   5.259   4.605
 1273TIP3    H1 3783   2.649   5.231   4.537
 1273TIP3    H2 3784   2.509   5.284   4.558
 1274TIP3   OH2 3785   0.192   4.194   4.211
 1274TIP3    H1 3786   0.194   4.253   4.135
 1274TIP3    H2 3787   0.147   4.244   4.279
 1275TIP3   OH2 3788   1.454   0.827   5.211
 1275TIP3    H1 3789   1.396   0.903   5.222
 1275TIP3    H2 3790   1.456   0.787   5.297
 1276TIP3   OH2 3791   6.807   0.954   1.480
 1276TIP3    H1 3792   6.782   0.929   1.569
 1276TIP3    H2 3793   6.901   0.970   1.485
 1277TIP3   OH2 3794   7.013   5.194   1.268
 1277TIP3    H1 3795   7.090   5.138   1.266
 1277TIP3    H2 3796   7.049   5.283   1.269
 1278TIP3   OH2 3797   4.442   3.033   0.769
 1278TIP3    H1 3798   4.520   3.089   0.770
 1278TIP3    H2 3799   4.451   2.978   0.846
 1279TIP3   OH2 3800   1.678   2.436   4.026
 1279TIP3    H1 3801   1.751   2.437   4.087
 1279TIP3    H2 3802   1.701   2.368   3.962
 1280TIP3   OH2 3803   6.112   5.009   3.561
 1280TIP3    H1 3804   6.071   4.938   3.511
 1280TIP3    H2 3805   6.107   4.981   3.652
 1281TIP3   OH2 3806   5.218   2.447   0.264
 1281TIP3    H1 3807   5.184   2.418   0.180
 1281TIP3    H2 3808   5.156   2.411   0.328
 1282TIP3   OH2 3809   1.158   4.436   0.204
 1282TIP3    H1 3810   1.159   4.448   0.109
 1282TIP3    H2 3811   1.069   4.410   0.225
 1283TIP3   OH2 3812   3.892   0.064   5.832
 1283TIP3    H1 3813   3.954   0.101   5.770
 1283TIP3    H2 3814   3.937  -0.012   5.869
 1284TIP3   OH2 3815   0.776   2.570   1.297
 1284TIP3    H1 3816   0.799   2.530   1.380
 1284TIP3    H2 3817   0.852   2.554   1.240
 1285TIP3   OH2 3818   7.037   2.149   1.144
 1285TIP3    H1 3819   6.961   2.204   1.123
 1285TIP3    H2 3820   7.043   2.088   1.071
 1286TIP3   OH2 3821   1.503   2.846   0.907
 1286TIP3    H1 3822   1.454   2.805   0.979
 1286TIP3    H2 3823   1.548   2.773   0.865
 1287TIP3   OH2 3824   0.247   5.223   5.248
 1287TIP3    H1 3825   0.239   5.316   5.225
 1287TIP3    H2 3826   0.341   5.211   5.262
 1288TIP3   OH2 3827   4.086   5.181   1.680
 1288TIP3    H1 3828   4.161   5.137   1.639
 1288TIP3    H2 3829   4.115   5.271   1.692
 1289TIP3   OH2 3830   2.404   0.665   0.358
 1289TIP3    H1 3831   2.498   0.648   0.355
 1289TIP3    H2 3832   2.365   0.583   0.388
 1290TIP3   OH2 3833   2.181   1.073   5.528
 1290TIP3    H1 3834   2.191   0.978   5.515
 1290TIP3    H2 3835   2.263   1.110   5.494
 1291TIP3   OH2 3836   4.631   2.271   0.269
 1291TIP3    H1 3837   4.626   2.300   0.361
 1291TIP3    H2 3838   4.705   2.320   0.233
 1292TIP3   OH2 3839   2.342   1.621   2.456
 1292TIP3    H1 3840   2.250   1.601   2.440
 1292TIP3    H2 3841   2.390   1.572   2.389
 1293TIP3   OH2 3842   3.073   1.219   2.895
 1293TIP3    H1 3843   3.155   1.186   2.932
 1293TIP3    H2 3844   3.006   1.191   2.957
 1294TIP3   OH2 3845  -0.017   5.065   5.661
 1294TIP3    H1 3846   0.005   5.123   5.588
 1294TIP3    H2 3847   0.057   5.005   5.668
 1295TIP3   OH2 3848   0.022   2.919   5.044
 1295TIP3    H1 3849   0.107   2.892   5.007
 1295TIP3    H2 3850   0.025   2.888   5.134
 1296TIP3   OH2 3851   6.072   5.266   2.982
 1296TIP3    H1 3852   6.111   5.305   2.903
 1296TIP3    H2 3853   6.123   5.185   2.995
 1297TIP3   OH2 3854   4.109   5.469   0.320
 1297TIP3    H1 3855   4.041   5.442   0.258
 1297TIP3    H2 3856   4.183   5.496   0.265
 1298TIP3   OH2 3857   0.373   2.892   5.400
 1298TIP3    H1 3858   0.379   2.900   5.305
 1298TIP3    H2 3859   0.374   2.982   5.432
 1299TIP3   OH2 3860   5.934   3.273   5.509
 1299TIP3    H1 3861   5.982   3.304   5.432
 1299TIP3    H2 3862   5.942   3.344   5.573
 1300TIP3   OH2 3863   1.062   6.511   4.192
 1300TIP3    H1 3864   1.097   6.525   4.280
 1300TIP3    H2 3865   1.078   6.594   4.146
 1301TIP3   OH2 3866   3.241   4.095   4.852
 1301TIP3    H1 3867   3.194   4.046   4.919
 1301TIP3    H2 3868   3.282   4.028   4.798
 1302TIP3   OH2 3869   3.248   4.557   5.443
 1302TIP3    H1 3870   3.285   4.620   5.505
 1302TIP3    H2 3871   3.314   4.488   5.436
 1303TIP3   OH2 3872   6.065   0.752   2.241
 1303TIP3    H1 3873   6.147   0.800   2.247
 1303TIP3    H2 3874   6.063   0.698   2.321
 1304TIP3   OH2 3875   6.082   5.895   0.647
 1304TIP3    H1 3876   6.025   5.967   0.676
 1304TIP3    H2 3877   6.159   5.902   0.702
 1305TIP3   OH2 3878   5.921   2.770   3.869
 1305TIP3    H1 3879   5.993   2.805   3.923
 1305TIP3    H2 3880   5.965   2.734   3.792
 1306TIP3   OH2 3881   1.043   4.401   5.420
 1306TIP3    H1 3882   0.985   4.474   5.444
 1306TIP3    H2 3883   1.131   4.439   5.422
 1307TIP3   OH2 3884   4.132   6.544   2.391
 1307TIP3    H1 3885   4.217   6.506   2.369
 1307TIP3    H2 3886   4.069   6.496   2.337
 1308TIP3   OH2 3887   6.060   1.671   2.633
 1308TIP3    H1 3888   6.093   1.604   2.573
 1308TIP3    H2 3889   6.137   1.724   2.654
 1309TIP3   OH2 3890   1.375   3.875   5.208
 1309TIP3    H1 3891   1.287   3.913   5.205
 1309TIP3    H2 3892   1.378   3.817   5.131
 1310TIP3   OH2 3893   1.696   4.781   2.241
 1310TIP3    H1 3894   1.728   4.694   2.221
 1310TIP3    H2 3895   1.622   4.767   2.300
 1311TIP3   OH2 3896   3.728   2.986   5.636
 1311TIP3    H1 3897   3.704   3.007   5.726
 1311TIP3    H2 3898   3.778   2.905   5.642
 1312TIP3   OH2 3899   6.580   2.554   2.106
 1312TIP3    H1 3900   6.641   2.615   2.065
 1312TIP3    H2 3901   6.585   2.575   2.199
 1313TIP3   OH2 3902   2.234   3.707   5.263
 1313TIP3    H1 3903   2.327   3.682   5.257
 1313TIP3    H2 3904   2.231   3.796   5.230
 1314TIP3   OH2 3905   3.483   3.296   3.953
 1314TIP3    H1 3906   3.551   3.297   4.020
 1314TIP3    H2 3907   3.528   3.267   3.874
 1315TIP3   OH2 3908   0.066   4.412   5.844
 1315TIP3    H1 3909   0.137   4.371   5.796
 1315TIP3    H2 3910   0.021   4.466   5.779
 1316TIP3   OH2 3911   2.518   5.905   5.137
 1316TIP3    H1 3912   2.502   5.954   5.057
 1316TIP3    H2 3913   2.436   5.857   5.153
 1317TIP3   OH2 3914   6.770   4.280   2.841
 1317TIP3    H1 3915   6.853   4.233   2.842
 1317TIP3    H2 3916   6.711   4.224   2.791
 1318TIP3   OH2 3917   6.472   6.366   4.723
 1318TIP3    H1 3918   6.451   6.320   4.804
 1318TIP3    H2 3919   6.560   6.402   4.739
 1319TIP3   OH2 3920   6.842   3.183   1.519
 1319TIP3    H1 3921   6.812   3.214   1.605
 1319TIP3    H2 3922   6.860   3.090   1.532
 1320TIP3   OH2 3923   5.297   5.214   5.812
 1320TIP3    H1 3924   5.228   5.162   5.853
 1320TIP3    H2 3925   5.250   5.278   5.758
 1321TIP3   OH2 3926  -0.027   5.982   1.373
 1321TIP3    H1 3927  -0.038   5.892   1.341
 1321TIP3    H2 3928   0.066   6.000   1.362
 1322TIP3   OH2 3929   3.640   4.308   1.279
 1322TIP3    H1 3930   3.659   4.277   1.191
 1322TIP3    H2 3931   3.628   4.228   1.330
 1323TIP3   OH2 3932   4.243   4.693   2.621
 1323TIP3    H1 3933   4.180   4.635   2.664
 1323TIP3    H2 3934   4.320   4.638   2.609
 1324TIP3   OH2 3935   1.570   3.952   1.241
 1324TIP3    H1 3936   1.541   4.032   1.196
 1324TIP3    H2 3937   1.489   3.905   1.261
 1325TIP3   OH2 3938   5.962   6.170   1.070
 1325TIP3    H1 3939   5.879   6.173   1.117
 1325TIP3    H2 3940   5.983   6.077   1.064
 1326TIP3   OH2 3941   5.407   0.109   1.169
 1326TIP3    H1 3942   5.355   0.188   1.155
 1326TIP3    H2 3943   5.490   0.127   1.125
 1327TIP3   OH2 3944   1.258   0.443   4.923
 1327TIP3    H1 3945   1.320   0.499   4.971
 1327TIP3    H2 3946   1.172   0.479   4.943
 1328TIP3   OH2 3947   6.364   2.010   2.513
 1328TIP3    H1 3948   6.446   2.056   2.534
 1328TIP3    H2 3949   6.358   1.941   2.580
 1329TIP3   OH2 3950   4.706   6.704   5.125
 1329TIP3    H1 3951   4.771   6.642   5.094
 1329TIP3    H2 3952   4.748   6.790   5.119
 1330TIP3   OH2 3953   2.088   6.028   1.709
 1330TIP3    H1 3954   2.140   5.980   1.773
 1330TIP3    H2 3955   2.002   6.039   1.752
 1331TIP3   OH2 3956   3.692   0.199   4.346
 1331TIP3    H1 3957   3.781   0.173   4.371
 1331TIP3    H2 3958   3.635   0.135   4.387
 1332TIP3   OH2 3959   3.927   5.039   1.262
 1332TIP3    H1 3960   3.860   5.038   1.331
 1332TIP3    H2 3961   3.891   5.098   1.196
 1333TIP3   OH2 3962   5.038   2.977   5.822
 1333TIP3    H1 3963   4.955   3.007   5.785
 1333TIP3    H2 3964   5.079   2.927   5.752
 1334TIP3   OH2 3965   2.951   3.589   4.340
 1334TIP3    H1 3966   2.931   3.497   4.323
 1334TIP3    H2 3967   2.971   3.626   4.254
 1335TIP3   OH2 3968   2.782   5.110   5.087
 1335TIP3    H1 3969   2.731   5.051   5.031
 1335TIP3    H2 3970   2.758   5.198   5.058
 1336TIP3   OH2 3971   1.330   3.827   2.637
 1336TIP3    H1 3972   1.280   3.777   2.573
 1336TIP3    H2 3973   1.269   3.843   2.709
 1337TIP3   OH2 3974   0.435   3.332   1.049
 1337TIP3    H1 3975   0.509   3.367   0.998
 1337TIP3    H2 3976   0.464   3.243   1.073
 1338TIP3   OH2 3977   2.983   6.152   3.112
 1338TIP3    H1 3978   2.996   6.240   3.147
 1338TIP3    H2 3979   2.915   6.163   3.045
 1339TIP3   OH2 3980   1.721   5.256   2.460
 1339TIP3    H1 3981   1.797   5.229   2.408
 1339TIP3    H2 3982   1.753   5.326   2.516
 1340TIP3   OH2 3983   0.671   2.051   3.301
 1340TIP3    H1 3984   0.765   2.050   3.281
 1340TIP3    H2 3985   0.628   2.043   3.216
 1341TIP3   OH2 3986   1.910   2.764   2.394
 1341TIP3    H1 3987   1.960   2.809   2.462
 1341TIP3    H2 3988   1.895   2.676   2.430
 1342TIP3   OH2 3989   0.134   6.006   2.429
 1342TIP3    H1 3990   0.133   5.973   2.339
 1342TIP3    H2 3991   0.122   6.101   2.419
 1343TIP3   OH2 3992   6.846   0.913   2.008
 1343TIP3    H1 3993   6.875   0.822   1.996
 1343TIP3    H2 3994   6.887   0.960   1.935
 1344TIP3   OH2 3995   5.293   4.493   1.665
 1344TIP3    H1 3996   5.360   4.512   1.731
 1344TIP3    H2 3997   5.216   4.543   1.693
 1345TIP3   OH2 3998   1.031   4.083   3.235
 1345TIP3    H1 3999   0.953   4.060   3.185
 1345TIP3    H2 4000   1.088   4.006   3.228
 1346TIP3   OH2 4001   0.151   0.257   5.320
 1346TIP3    H1 4002   0.162   0.255   5.415
 1346TIP3    H2 4003   0.232   0.298   5.288
 1347TIP3   OH2 4004   5.658   0.188   1.334
 1347TIP3    H1 4005   5.574   0.233   1.346
 1347TIP3    H2 4006   5.719   0.256   1.306
 1348TIP3   OH2 4007   3.455   4.428   4.809
 1348TIP3    H1 4008   3.546   4.438   4.781
 1348TIP3    H2 4009   3.456   4.352   4.867
 1349TIP3   OH2 4010   3.015   4.383   2.634
 1349TIP3    H1 4011   2.935   4.404   2.587
 1349TIP3    H2 4012   3.040   4.465   2.677
 1350TIP3   OH2 4013   1.560   1.143   3.257
 1350TIP3    H1 4014   1.529   1.056   3.279
 1350TIP3    H2 4015   1.548   1.194   3.337
 1351TIP3   OH2 4016   6.130   1.096   0.224
 1351TIP3    H1 4017   6.135   1.192   0.224
 1351TIP3    H2 4018   6.220   1.067   0.234
 1352TIP3   OH2 4019   4.013   0.366   1.760
 1352TIP3    H1 4020   4.076   0.436   1.780
 1352TIP3    H2 4021   3.989   0.331   1.846
 1353TIP3   OH2 4022   6.854   1.177   0.241
 1353TIP3    H1 4023   6.780   1.145   0.292
 1353TIP3    H2 4024   6.816   1.201   0.156
 1354TIP3   OH2 4025   5.749   0.928   2.384
 1354TIP3    H1 4026   5.737   1.020   2.358
 1354TIP3    H2 4027   5.815   0.932   2.453
 1355TIP3   OH2 4028   3.616   2.051   2.559
 1355TIP3    H1 4029   3.585   1.965   2.531
 1355TIP3    H2 4030   3.646   2.037   2.649
 1356TIP3   OH2 4031   3.750   5.560   3.090
 1356TIP3    H1 4032   3.775   5.531   3.002
 1356TIP3    H2 4033   3.737   5.478   3.138
 1357TIP3   OH2 4034   2.028   2.040   4.736
 1357TIP3    H1 4035   1.994   2.129   4.734
 1357TIP3    H2 4036   2.054   2.022   4.646
 1358TIP3   OH2 4037   0.425   4.912   2.195
 1358TIP3    H1 4038   0.430   4.918   2.291
 1358TIP3    H2 4039   0.497   4.854   2.171
 1359TIP3   OH2 4040   2.490   3.143   2.969
 1359TIP3    H1 4041   2.478   3.061   3.016
 1359TIP3    H2 4042   2.481   3.120   2.877
 1360TIP3   OH2 4043   2.905   1.876   3.101
 1360TIP3    H1 4044   2.955   1.957   3.103
 1360TIP3    H2 4045   2.892   1.858   3.008
 1361TIP3   OH2 4046   5.317   1.679   3.609
 1361TIP3    H1 4047   5.379   1.653   3.677
 1361TIP3    H2 4048   5.276   1.758   3.644
 1362TIP3   OH2 4049   3.713   2.965   5.202
 1362TIP3    H1 4050   3.744   3.010   5.123
 1362TIP3    H2 4051   3.774   2.994   5.270
 1363TIP3   OH2 4052   5.895   6.704   3.904
 1363TIP3    H1 4053   5.911   6.671   3.993
 1363TIP3    H2 4054   5.971   6.760   3.885
 1364TIP3   OH2 4055   0.791   4.424   4.536
 1364TIP3    H1 4056   0.834   4.503   4.502
 1364TIP3    H2 4057   0.725   4.457   4.597
 1365TIP3   OH2 4058   1.518   1.767   1.384
 1365TIP3    H1 4059   1.539   1.721   1.304
 1365TIP3    H2 4060   1.514   1.699   1.451
 1366TIP3   OH2 4061   7.204   6.448   5.140
 1366TIP3    H1 4062   7.172   6.515   5.079
 1366TIP3    H2 4063   7.268   6.398   5.089
 1367TIP3   OH2 4064   5.121   0.175   4.302
 1367TIP3    H1 4065   5.078   0.146   4.383
 1367TIP3    H2 4066   5.049   0.196   4.243
 1368TIP3   OH2 4067   1.851   6.344   1.724
 1368TIP3    H1 4068   1.883   6.277   1.664
 1368TIP3    H2 4069   1.837   6.421   1.669
 1369TIP3   OH2 4070   1.914   5.109   0.494
 1369TIP3    H1 4071   1.887   5.039   0.553
 1369TIP3    H2 4072   1.986   5.153   0.540
 1370TIP3   OH2 4073   1.883   2.593   2.781
 1370TIP3    H1 4074   1.861   2.681   2.811
 1370TIP3    H2 4075   1.895   2.603   2.686
 1371TIP3   OH2 4076   5.892   0.690   3.405
 1371TIP3    H1 4077   5.815   0.681   3.460
 1371TIP3    H2 4078   5.917   0.782   3.412
 1372TIP3   OH2 4079   4.957   2.258   1.565
 1372TIP3    H1 4080   5.031   2.255   1.625
 1372TIP3    H2 4081   4.920   2.169   1.568
 1373TIP3   OH2 4082   7.094   1.270   4.837
 1373TIP3    H1 4083   7.162   1.256   4.772
 1373TIP3    H2 4084   7.127   1.342   4.891
 1374TIP3   OH2 4085   2.019   5.980   0.656
 1374TIP3    H1 4086   2.053   5.996   0.568
 1374TIP3    H2 4087   1.936   6.028   0.659
 1375TIP3   OH2 4088   6.813   3.149   1.130
 1375TIP3    H1 4089   6.743   3.213   1.114
 1375TIP3    H2 4090   6.767   3.072   1.164
 1376TIP3   OH2 4091   3.354   0.710   3.684
 1376TIP3    H1 4092   3.289   0.655   3.641
 1376TIP3    H2 4093   3.334   0.705   3.777
 1377TIP3   OH2 4094   2.263   6.414   3.350
 1377TIP3    H1 4095   2.213   6.481   3.303
 1377TIP3    H2 4096   2.197   6.360   3.392
 1378TIP3   OH2 4097   7.070   0.929   1.805
 1378TIP3    H1 4098   7.161   0.919   1.777
 1378TIP3    H2 4099   7.048   0.845   1.845
 1379TIP3   OH2 4100   6.221   0.148   0.432
 1379TIP3    H1 4101   6.253   0.071   0.386
 1379TIP3    H2 4102   6.223   0.124   0.525
 1380TIP3   OH2 4103   7.176   3.600   3.963
 1380TIP3    H1 4104   7.182   3.684   4.009
 1380TIP3    H2 4105   7.142   3.622   3.877
 1381TIP3   OH2 4106   4.386   2.903   4.121
 1381TIP3    H1 4107   4.392   2.979   4.063
 1381TIP3    H2 4108   4.306   2.858   4.092
 1382TIP3   OH2 4109   4.612   1.841   2.590
 1382TIP3    H1 4110   4.585   1.845   2.498
 1382TIP3    H2 4111   4.694   1.793   2.589
 1383TIP3   OH2 4112   5.388   0.049   1.841
 1383TIP3    H1 4113   5.370   0.104   1.765
 1383TIP3    H2 4114   5.367   0.104   1.916
 1384TIP3   OH2 4115   2.347   4.783   5.354
 1384TIP3    H1 4116   2.307   4.836   5.423
 1384TIP3    H2 4117   2.425   4.746   5.396
 1385TIP3   OH2 4118   2.066   4.751   2.268
 1385TIP3    H1 4119   2.078   4.819   2.334
 1385TIP3    H2 4120   2.079   4.797   2.184
 1386TIP3   OH2 4121   3.308   1.509   2.036
 1386TIP3    H1 4122   3.366   1.436   2.058
 1386TIP3    H2 4123   3.245   1.472   1.975
 1387TIP3   OH2 4124   0.325   0.547   2.847
 1387TIP3    H1 4125   0.387   0.616   2.870
 1387TIP3    H2 4126   0.275   0.582   2.773
 1388TIP3   OH2 4127   1.644   1.125   4.838
 1388TIP3    H1 4128   1.739   1.117   4.832
 1388TIP3    H2 4129   1.619   1.056   4.901
 1389TIP3   OH2 4130   2.619   2.889   1.204
 1389TIP3    H1 4131   2.603   2.810   1.153
 1389TIP3    H2 4132   2.698   2.927   1.165
 1390TIP3   OH2 4133   4.367   5.290   2.723
 1390TIP3    H1 4134   4.415   5.213   2.754
 1390TIP3    H2 4135   4.384   5.292   2.629
 1391TIP3   OH2 4136   4.711   3.758   2.085
 1391TIP3    H1 4137   4.728   3.850   2.063
 1391TIP3    H2 4138   4.755   3.708   2.016
 1392TIP3   OH2 4139   5.440   0.775   5.654
 1392TIP3    H1 4140   5.402   0.767   5.741
 1392TIP3    H2 4141   5.381   0.835   5.608
 1393TIP3   OH2 4142   3.110   4.991   3.344
 1393TIP3    H1 4143   3.053   4.970   3.418
 1393TIP3    H2 4144   3.191   5.022   3.384
 1394TIP3   OH2 4145   5.628   2.309   2.968
 1394TIP3    H1 4146   5.586   2.232   3.004
 1394TIP3    H2 4147   5.602   2.380   3.026
 1395TIP3   OH2 4148   6.294   1.967   3.400
 1395TIP3    H1 4149   6.231   2.015   3.346
 1395TIP3    H2 4150   6.354   1.927   3.338
 1396TIP3   OH2 4151   6.999   1.214   4.493
 1396TIP3    H1 4152   7.021   1.279   4.426
 1396TIP3    H2 4153   7.062   1.230   4.563
 1397TIP3   OH2 4154   6.793   1.543   1.296
 1397TIP3    H1 4155   6.718   1.499   1.256
 1397TIP3    H2 4156   6.755   1.617   1.344
 1398TIP3   OH2 4157   7.175   2.392   2.119
 1398TIP3    H1 4158   7.248   2.442   2.157
 1398TIP3    H2 4159   7.105   2.398   2.185
 1399TIP3   OH2 4160   2.918   3.338   0.805
 1399TIP3    H1 4161   2.843   3.386   0.837
 1399TIP3    H2 4162   2.955   3.296   0.882
 1400TIP3   OH2 4163   3.828   4.469   3.299
 1400TIP3    H1 4164   3.777   4.485   3.379
 1400TIP3    H2 4165   3.766   4.486   3.228
 1401TIP3   OH2 4166   5.342   2.907   3.314
 1401TIP3    H1 4167   5.297   2.912   3.230
 1401TIP3    H2 4168   5.434   2.893   3.291
 1402TIP3   OH2 4169   0.825   3.055   5.891
 1402TIP3    H1 4170   0.903   3.038   5.838
 1402TIP3    H2 4171   0.797   2.969   5.921
 1403TIP3   OH2 4172   2.389   1.638   5.767
 1403TIP3    H1 4173   2.413   1.593   5.686
 1403TIP3    H2 4174   2.332   1.576   5.812
 1404TIP3   OH2 4175   2.029   6.813   3.529
 1404TIP3    H1 4176   2.037   6.721   3.503
 1404TIP3    H2 4177   1.936   6.832   3.522
 1405TIP3   OH2 4178   6.917   6.424   1.237
 1405TIP3    H1 4179   6.949   6.379   1.316
 1405TIP3    H2 4180   6.916   6.517   1.261
 1406TIP3   OH2 4181   6.744   1.454   2.045
 1406TIP3    H1 4182   6.773   1.472   2.135
 1406TIP3    H2 4183   6.752   1.359   2.036
 1407TIP3   OH2 4184   2.242   2.050   1.022
 1407TIP3    H1 4185   2.216   1.980   1.083
 1407TIP3    H2 4186   2.334   2.066   1.042
 1408TIP3   OH2 4187   6.512   1.481   4.675
 1408TIP3    H1 4188   6.507   1.386   4.661
 1408TIP3    H2 4189   6.431   1.502   4.722
 1409TIP3   OH2 4190   2.497   6.308   3.366
 1409TIP3    H1 4191   2.574   6.362   3.352
 1409TIP3    H2 4192   2.423   6.369   3.359
 1410TIP3   OH2 4193   4.038   6.094   2.065
 1410TIP3    H1 4194   4.102   6.037   2.023
 1410TIP3    H2 4195   3.954   6.053   2.047
 1411TIP3   OH2 4196   1.249   2.001   5.596
 1411TIP3    H1 4197   1.237   1.908   5.614
 1411TIP3    H2 4198   1.175   2.044   5.639
 1412TIP3   OH2 4199   5.397   6.534   1.842
 1412TIP3    H1 4200   5.372   6.625   1.828
 1412TIP3    H2 4201   5.486   6.539   1.878
 1413TIP3   OH2 4202   2.892   6.289   3.657
 1413TIP3    H1 4203   2.833   6.214   3.656
 1413TIP3    H2 4204   2.852   6.352   3.717
 1414TIP3   OH2 4205   3.092   2.643   4.226
 1414TIP3    H1 4206   3.101   2.719   4.283
 1414TIP3    H2 4207   3.105   2.678   4.138
 1415TIP3   OH2 4208   6.633   2.281   0.671
 1415TIP3    H1 4209   6.645   2.371   0.701
 1415TIP3    H2 4210   6.586   2.238   0.743
 1416TIP3   OH2 4211   7.163   2.460   3.036
 1416TIP3    H1 4212   7.115   2.533   3.077
 1416TIP3    H2 4213   7.104   2.385   3.044
 1417TIP3   OH2 4214   0.658   4.882   5.332
 1417TIP3    H1 4215   0.687   4.792   5.324
 1417TIP3    H2 4216   0.562   4.876   5.339
 1418TIP3   OH2 4217   1.894   6.639   4.177
 1418TIP3    H1 4218   1.968   6.594   4.138
 1418TIP3    H2 4219   1.835   6.657   4.104
 1419TIP3   OH2 4220   2.196   3.714   2.629
 1419TIP3    H1 4221   2.170   3.643   2.571
 1419TIP3    H2 4222   2.118   3.769   2.636
 1420TIP3   OH2 4223   0.811   0.601   4.672
 1420TIP3    H1 4224   0.815   0.515   4.631
 1420TIP3    H2 4225   0.718   0.616   4.689
 1421TIP3   OH2 4226   0.279   1.660   1.352
 1421TIP3    H1 4227   0.249   1.741   1.310
 1421TIP3    H2 4228   0.352   1.688   1.407
 1422TIP3   OH2 4229   0.187   4.521   5.261
 1422TIP3    H1 4230   0.111   4.471   5.290
 1422TIP3    H2 4231   0.151   4.593   5.209
 1423TIP3   OH2 4232   3.805   4.029   0.996
 1423TIP3    H1 4233   3.790   4.043   0.903
 1423TIP3    H2 4234   3.877   3.966   0.999
 1424TIP3   OH2 4235   2.155   5.521   3.917
 1424TIP3    H1 4236   2.242   5.542   3.952
 1424TIP3    H2 4237   2.125   5.447   3.968
 1425TIP3   OH2 4238   6.254   3.154   5.167
 1425TIP3    H1 4239   6.187   3.193   5.111
 1425TIP3    H2 4240   6.331   3.209   5.156
 1426TIP3   OH2 4241   3.591   0.026   0.484
 1426TIP3    H1 4242   3.561   0.115   0.501
 1426TIP3    H2 4243   3.684   0.036   0.463
 1427TIP3   OH2 4244   5.702   0.594   4.295
 1427TIP3    H1 4245   5.794   0.573   4.313
 1427TIP3    H2 4246   5.686   0.674   4.344
 1428TIP3   OH2 4247   5.745   1.532   4.207
 1428TIP3    H1 4248   5.819   1.532   4.268
 1428TIP3    H2 4249   5.758   1.610   4.153
 1429TIP3   OH2 4250   6.498   5.097   0.984
 1429TIP3    H1 4251   6.430   5.122   0.921
 1429TIP3    H2 4252   6.475   5.008   1.011
 1430TIP3   OH2 4253   2.200   1.851   1.193
 1430TIP3    H1 4254   2.118   1.804   1.173
 1430TIP3    H2 4255   2.236   1.805   1.269
 1431TIP3   OH2 4256   4.813   1.003   3.449
 1431TIP3    H1 4257   4.885   1.027   3.391
 1431TIP3    H2 4258   4.734   1.010   3.394
 1432TIP3   OH2 4259   5.649   3.373   4.330
 1432TIP3    H1 4260   5.641   3.309   4.400
 1432TIP3    H2 4261   5.570   3.360   4.277
 1433TIP3   OH2 4262   4.451   0.230   2.046
 1433TIP3    H1 4263   4.368   0.233   2.094
 1433TIP3    H2 4264   4.452   0.310   1.994
 1434TIP3   OH2 4265   4.903   3.654   3.248
 1434TIP3    H1 4266   4.952   3.658   3.166
 1434TIP3    H2 4267   4.816   3.687   3.225
 1435TIP3   OH2 4268   0.918   6.479   3.234
 1435TIP3    H1 4269   0.937   6.387   3.248
 1435TIP3    H2 4270   0.988   6.526   3.279
 1436TIP3   OH2 4271   3.755   5.473   2.810
 1436TIP3    H1 4272   3.809   5.497   2.735
 1436TIP3    H2 4273   3.776   5.382   2.827
 1437TIP3   OH2 4274   4.115   2.021   2.090
 1437TIP3    H1 4275   4.207   1.997   2.085
 1437TIP3    H2 4276   4.099   2.037   2.183
 1438TIP3   OH2 4277   0.008   0.405   0.788
 1438TIP3    H1 4278   0.060   0.358   0.853
 1438TIP3    H2 4279   0.073   0.438   0.725
 1439TIP3   OH2 4280   5.455   4.337   0.721
 1439TIP3    H1 4281   5.451   4.352   0.816
 1439TIP3    H2 4282   5.413   4.251   0.709
 1440TIP3   OH2 4283   6.276   5.423   2.542
 1440TIP3    H1 4284   6.351   5.371   2.570
 1440TIP3    H2 4285   6.267   5.404   2.449
 1441TIP3   OH2 4286   6.025   4.456   0.011
 1441TIP3    H1 4287   6.011   4.416   0.097
 1441TIP3    H2 4288   5.997   4.389  -0.051
 1442TIP3   OH2 4289   2.838   6.067   0.034
 1442TIP3    H1 4290   2.815   6.026   0.117
 1442TIP3    H2 4291   2.925   6.106   0.049
 1443TIP3   OH2 4292   2.903   0.158   2.282
 1443TIP3    H1 4293   2.983   0.107   2.292
 1443TIP3    H2 4294   2.856   0.145   2.364
 1444TIP3   OH2 4295   5.253   5.594   4.452
 1444TIP3    H1 4296   5.160   5.569   4.460
 1444TIP3    H2 4297   5.255   5.653   4.377
 1445TIP3   OH2 4298   6.693   4.797   4.669
 1445TIP3    H1 4299   6.616   4.765   4.621
 1445TIP3    H2 4300   6.707   4.732   4.738
 1446TIP3   OH2 4301   5.629   6.686   1.499
 1446TIP3    H1 4302   5.713   6.686   1.454
 1446TIP3    H2 4303   5.629   6.606   1.550
 1447TIP3   OH2 4304   1.841   5.997   4.870
 1447TIP3    H1 4305   1.859   5.904   4.883
 1447TIP3    H2 4306   1.922   6.031   4.831
 1448TIP3   OH2 4307   2.981   4.918   5.164
 1448TIP3    H1 4308   2.952   4.882   5.247
 1448TIP3    H2 4309   2.919   4.990   5.147
 1449TIP3   OH2 4310   3.989   2.378   4.675
 1449TIP3    H1 4311   3.905   2.379   4.719
 1449TIP3    H2 4312   4.035   2.303   4.712
 1450TIP3   OH2 4313   2.126   2.365   5.103
 1450TIP3    H1 4314   2.170   2.371   5.017
 1450TIP3    H2 4315   2.084   2.279   5.101
 1451TIP3   OH2 4316   1.052   0.431   4.578
 1451TIP3    H1 4317   0.973   0.379   4.563
 1451TIP3    H2 4318   1.123   0.366   4.579
 1452TIP3   OH2 4319   0.696   0.087   2.752
 1452TIP3    H1 4320   0.773   0.123   2.708
 1452TIP3    H2 4321   0.659   0.161   2.800
 1453TIP3   OH2 4322   3.713   5.002   2.509
 1453TIP3    H1 4323   3.757   4.920   2.486
 1453TIP3    H2 4324   3.624   4.992   2.476
 1454TIP3   OH2 4325   6.307   4.431   4.037
 1454TIP3    H1 4326   6.257   4.428   3.956
 1454TIP3    H2 4327   6.311   4.340   4.066
 1455TIP3   OH2 4328   6.498   1.972   2.138
 1455TIP3    H1 4329   6.545   2.049   2.170
 1455TIP3    H2 4330   6.410   1.980   2.174
 1456TIP3   OH2 4331   6.044   0.547   4.508
 1456TIP3    H1 4332   6.019   0.499   4.429
 1456TIP3    H2 4333   5.973   0.529   4.570
 1457TIP3   OH2 4334   0.893   3.929   0.856
 1457TIP3    H1 4335   0.897   3.913   0.950
 1457TIP3    H2 4336   0.919   4.020   0.846
 1458TIP3   OH2 4337   2.233   2.487   5.484
 1458TIP3    H1 4338   2.182   2.515   5.409
 1458TIP3    H2 4339   2.185   2.412   5.519
 1459TIP3   OH2 4340   4.067   4.939   3.583
 1459TIP3    H1 4341   3.993   4.999   3.577
 1459TIP3    H2 4342   4.037   4.859   3.541
 1460TIP3   OH2 4343   7.037   2.280   3.208
 1460TIP3    H1 4344   7.088   2.294   3.288
 1460TIP3    H2 4345   6.990   2.199   3.224
 1461TIP3   OH2 4346   5.303   5.344   2.155
 1461TIP3    H1 4347   5.362   5.405   2.110
 1461TIP3    H2 4348   5.240   5.317   2.088
 1462TIP3   OH2 4349   6.587   3.241   1.333
 1462TIP3    H1 4350   6.502   3.281   1.355
 1462TIP3    H2 4351   6.646   3.272   1.401
 1463TIP3   OH2 4352   0.612   1.874   3.729
 1463TIP3    H1 4353   0.606   1.807   3.661
 1463TIP3    H2 4354   0.537   1.931   3.714
 1464TIP3   OH2 4355   6.707   3.383   0.682
 1464TIP3    H1 4356   6.720   3.459   0.738
 1464TIP3    H2 4357   6.641   3.330   0.728
 1465TIP3   OH2 4358   5.649   0.185   1.659
 1465TIP3    H1 4359   5.668   0.091   1.661
 1465TIP3    H2 4360   5.616   0.201   1.571
 1466TIP3   OH2 4361   3.218   2.889   3.409
 1466TIP3    H1 4362   3.147   2.948   3.383
 1466TIP3    H2 4363   3.201   2.869   3.501
 1467TIP3   OH2 4364   1.927   0.693   1.307
 1467TIP3    H1 4365   1.953   0.703   1.216
 1467TIP3    H2 4366   1.836   0.663   1.304
 1468TIP3   OH2 4367   0.128   3.285   1.250
 1468TIP3    H1 4368   0.059   3.246   1.303
 1468TIP3    H2 4369   0.169   3.211   1.205
 1469TIP3   OH2 4370   5.666   4.980   5.677
 1469TIP3    H1 4371   5.718   5.059   5.665
 1469TIP3    H2 4372   5.683   4.953   5.767
 1470TIP3   OH2 4373   2.921   0.276   1.923
 1470TIP3    H1 4374   2.915   0.371   1.934
 1470TIP3    H2 4375   2.870   0.257   1.844
 1471TIP3   OH2 4376   2.394   3.745   2.812
 1471TIP3    H1 4377   2.415   3.780   2.726
 1471TIP3    H2 4378   2.299   3.729   2.809
 1472TIP3   OH2 4379   6.980   5.555   3.859
 1472TIP3    H1 4380   7.027   5.472   3.844
 1472TIP3    H2 4381   6.920   5.535   3.931
 1473TIP3   OH2 4382   2.038   1.506   4.883
 1473TIP3    H1 4383   2.119   1.469   4.917
 1473TIP3    H2 4384   1.984   1.520   4.961
 1474TIP3   OH2 4385   3.111   0.112   2.034
 1474TIP3    H1 4386   3.051   0.171   1.988
 1474TIP3    H2 4387   3.073   0.025   2.022
 1475TIP3   OH2 4388   1.070   0.956   5.638
 1475TIP3    H1 4389   1.015   0.934   5.713
 1475TIP3    H2 4390   1.021   0.925   5.562
 1476TIP3   OH2 4391   7.029   1.437   1.699
 1476TIP3    H1 4392   7.088   1.368   1.666
 1476TIP3    H2 4393   6.998   1.403   1.784
 1477TIP3   OH2 4394   0.373   2.142   1.417
 1477TIP3    H1 4395   0.298   2.191   1.384
 1477TIP3    H2 4396   0.369   2.153   1.512
 1478TIP3   OH2 4397   1.248   0.645   1.985
 1478TIP3    H1 4398   1.268   0.583   1.915
 1478TIP3    H2 4399   1.196   0.595   2.048
 1479TIP3   OH2 4400   6.897   0.606   1.926
 1479TIP3    H1 4401   6.939   0.522   1.949
 1479TIP3    H2 4402   6.896   0.606   1.830
 1480TIP3   OH2 4403   5.435   0.739   0.702
 1480TIP3    H1 4404   5.522   0.746   0.663
 1480TIP3    H2 4405   5.452   0.736   0.797
 1481TIP3   OH2 4406   6.137   3.597   0.882
 1481TIP3    H1 4407   6.209   3.540   0.854
 1481TIP3    H2 4408   6.179   3.663   0.937
 1482TIP3   OH2 4409   0.614   5.789   2.428
 1482TIP3    H1 4410   0.631   5.739   2.348
 1482TIP3    H2 4411   0.699   5.821   2.455
 1483TIP3   OH2 4412   4.324   0.958   2.996
 1483TIP3    H1 4413   4.402   0.922   2.954
 1483TIP3    H2 4414   4.329   1.052   2.981
 1484TIP3   OH2 4415   5.473   0.510   2.075
 1484TIP3    H1 4416   5.385   0.531   2.105
 1484TIP3    H2 4417   5.464   0.491   1.982
 1485TIP3   OH2 4418   1.875   1.013   3.321
 1485TIP3    H1 4419   1.780   1.017   3.325
 1485TIP3    H2 4420   1.896   0.920   3.331
 1486TIP3   OH2 4421   4.047   5.087   2.857
 1486TIP3    H1 4422   3.969   5.130   2.822
 1486TIP3    H2 4423   4.059   5.010   2.802
 1487TIP3   OH2 4424   3.592   2.360   4.587
 1487TIP3    H1 4425   3.592   2.312   4.505
 1487TIP3    H2 4426   3.508   2.407   4.587
 1488TIP3   OH2 4427   4.076   6.734   1.857
 1488TIP3    H1 4428   4.007   6.691   1.806
 1488TIP3    H2 4429   4.057   6.711   1.947
 1489TIP3   OH2 4430   4.715   4.455   1.626
 1489TIP3    H1 4431   4.753   4.480   1.710
 1489TIP3    H2 4432   4.750   4.368   1.609
 1490TIP3   OH2 4433   5.830   3.210   3.397
 1490TIP3    H1 4434   5.812   3.118   3.417
 1490TIP3    H2 4435   5.752   3.257   3.428
 1491TIP3   OH2 4436   5.947   2.265   1.562
 1491TIP3    H1 4437   5.999   2.202   1.612
 1491TIP3    H2 4438   5.936   2.340   1.621
 1492TIP3   OH2 4439   1.779   3.199   4.163
 1492TIP3    H1 4440   1.743   3.116   4.130
 1492TIP3    H2 4441   1.829   3.174   4.241
 1493TIP3   OH2 4442   3.118   1.417   5.475
 1493TIP3    H1 4443   3.124   1.322   5.466
 1493TIP3    H2 4444   3.209   1.446   5.483
 1494TIP3   OH2 4445   7.203   5.822   0.897
 1494TIP3    H1 4446   7.203   5.783   0.809
 1494TIP3    H2 4447   7.193   5.916   0.881
 1495TIP3   OH2 4448   5.521   3.720   2.382
 1495TIP3    H1 4449   5.545   3.751   2.470
 1495TIP3    H2 4450   5.459   3.648   2.398
 1496TIP3   OH2 4451   0.725   0.061   4.454
 1496TIP3    H1 4452   0.690   0.070   4.365
 1496TIP3    H2 4453   0.673  -0.009   4.493
 1497TIP3   OH2 4454   5.925   4.795   5.036
 1497TIP3    H1 4455   5.844   4.842   5.053
 1497TIP3    H2 4456   5.911   4.750   4.953
 1498TIP3   OH2 4457   0.796   4.038   5.002
 1498TIP3    H1 4458   0.767   3.968   4.943
 1498TIP3    H2 4459   0.891   4.041   4.991
 1499TIP3   OH2 4460   6.034   6.445   3.842
 1499TIP3    H1 4461   6.113   6.392   3.843
 1499TIP3    H2 4462   6.032   6.487   3.928
 1500TIP3   OH2 4463   6.385   3.325   2.670
 1500TIP3    H1 4464   6.459   3.373   2.708
 1500TIP3    H2 4465   6.425   3.259   2.613
 1501TIP3   OH2 4466   3.793   1.592   2.759
 1501TIP3    H1 4467   3.867   1.628   2.808
 1501TIP3    H2 4468   3.716   1.625   2.805
 1502TIP3   OH2 4469   3.845   1.592   1.004
 1502TIP3    H1 4470   3.789   1.584   1.081
 1502TIP3    H2 4471   3.928   1.624   1.038
 1503TIP3   OH2 4472   3.909   2.034   0.447
 1503TIP3    H1 4473   3.992   2.029   0.400
 1503TIP3    H2 4474   3.891   2.128   0.455
 1504TIP3   OH2 4475   3.388   0.035   3.267
 1504TIP3    H1 4476   3.316   0.062   3.323
 1504TIP3    H2 4477   3.424  -0.043   3.310
 1505TIP3   OH2 4478   3.230   6.007   3.109
 1505TIP3    H1 4479   3.155   6.062   3.131
 1505TIP3    H2 4480   3.196   5.945   3.045
 1506TIP3   OH2 4481   3.145   5.587   1.413
 1506TIP3    H1 4482   3.202   5.663   1.400
 1506TIP3    H2 4483   3.153   5.538   1.331
 1507TIP3   OH2 4484   1.695   6.024   5.797
 1507TIP3    H1 4485   1.683   5.951   5.737
 1507TIP3    H2 4486   1.676   5.988   5.883
 1508TIP3   OH2 4487   2.684   4.773   1.702
 1508TIP3    H1 4488   2.765   4.792   1.653
 1508TIP3    H2 4489   2.622   4.839   1.672
 1509TIP3   OH2 4490   4.437   0.632   3.151
 1509TIP3    H1 4491   4.384   0.711   3.143
 1509TIP3    H2 4492   4.377   0.561   3.128
 1510TIP3   OH2 4493   2.365   1.219   1.161
 1510TIP3    H1 4494   2.409   1.295   1.121
 1510TIP3    H2 4495   2.272   1.237   1.150
 1511TIP3   OH2 4496   0.925   3.969   1.975
 1511TIP3    H1 4497   0.958   3.908   2.041
 1511TIP3    H2 4498   0.872   4.031   2.025
 1512TIP3   OH2 4499   5.773   6.344   5.468
 1512TIP3    H1 4500   5.721   6.377   5.395
 1512TIP3    H2 4501   5.799   6.256   5.442
 1513TIP3   OH2 4502   0.823   6.417   5.509
 1513TIP3    H1 4503   0.889   6.456   5.567
 1513TIP3    H2 4504   0.855   6.436   5.421
 1514TIP3   OH2 4505   6.345   5.918   4.163
 1514TIP3    H1 4506   6.292   5.840   4.180
 1514TIP3    H2 4507   6.334   5.935   4.069
 1515TIP3   OH2 4508   5.679   1.280   5.769
 1515TIP3    H1 4509   5.651   1.368   5.744
 1515TIP3    H2 4510   5.754   1.293   5.827
 1516TIP3   OH2 4511   6.713   2.333   2.448
 1516TIP3    H1 4512   6.678   2.415   2.483
 1516TIP3    H2 4513   6.712   2.273   2.522
 1517TIP3   OH2 4514   5.012   4.572   5.094
 1517TIP3    H1 4515   5.056   4.570   5.179
 1517TIP3    H2 4516   4.919   4.578   5.115
 1518TIP3   OH2 4517   2.421   6.583   2.091
 1518TIP3    H1 4518   2.475   6.602   2.014
 1518TIP3    H2 4519   2.434   6.659   2.148
 1519TIP3   OH2 4520   3.070   5.504   3.351
 1519TIP3    H1 4521   3.135   5.572   3.335
 1519TIP3    H2 4522   3.114   5.441   3.409
 1520TIP3   OH2 4523   1.439   6.321   3.364
 1520TIP3    H1 4524   1.434   6.353   3.454
 1520TIP3    H2 4525   1.440   6.400   3.311
 1521TIP3   OH2 4526   1.769   0.794   4.013
 1521TIP3    H1 4527   1.790   0.752   4.097
 1521TIP3    H2 4528   1.831   0.866   4.006
 1522TIP3   OH2 4529   5.988   2.407   4.454
 1522TIP3    H1 4530   6.018   2.316   4.456
 1522TIP3    H2 4531   6.042   2.451   4.519
 1523TIP3   OH2 4532   2.102   2.318   3.547
 1523TIP3    H1 4533   2.014   2.338   3.579
 1523TIP3    H2 4534   2.096   2.328   3.452
 1524TIP3   OH2 4535   1.884   1.905   4.104
 1524TIP3    H1 4536   1.911   1.891   4.014
 1524TIP3    H2 4537   1.947   1.969   4.138
 1525TIP3   OH2 4538   6.492   0.475   1.585
 1525TIP3    H1 4539   6.471   0.505   1.497
 1525TIP3    H2 4540   6.423   0.412   1.606
 1526TIP3   OH2 4541   1.444   2.601   0.625
 1526TIP3    H1 4542   1.496   2.678   0.603
 1526TIP3    H2 4543   1.508   2.531   0.635
 1527TIP3   OH2 4544   3.770   0.329   5.033
 1527TIP3    H1 4545   3.746   0.241   5.003
 1527TIP3    H2 4546   3.816   0.313   5.116
 1528TIP3   OH2 4547   4.212   6.731   4.907
 1528TIP3    H1 4548   4.156   6.779   4.968
 1528TIP3    H2 4549   4.277   6.687   4.962
 1529TIP3   OH2 4550   1.623   4.171   0.012
 1529TIP3    H1 4551   1.659   4.256   0.037
 1529TIP3    H2 4552   1.535   4.170   0.050
 1530TIP3   OH2 4553   2.777   4.461   2.490
 1530TIP3    H1 4554   2.793   4.445   2.397
 1530TIP3    H2 4555   2.683   4.446   2.500
 1531TIP3   OH2 4556   6.888   3.354   3.060
 1531TIP3    H1 4557   6.982   3.338   3.057
 1531TIP3    H2 4558   6.856   3.333   2.972
 1532TIP3   OH2 4559   0.934   5.971   3.084
 1532TIP3    H1 4560   1.014   5.931   3.051
 1532TIP3    H2 4561   0.921   6.049   3.030
 1533TIP3   OH2 4562   2.637   1.882   2.034
 1533TIP3    H1 4563   2.587   1.858   1.956
 1533TIP3    H2 4564   2.628   1.977   2.040
 1534TIP3   OH2 4565   7.074   4.732   4.846
 1534TIP3    H1 4566   7.146   4.735   4.783
 1534TIP3    H2 4567   7.109   4.683   4.920
 1535TIP3   OH2 4568   0.890   2.054   0.224
 1535TIP3    H1 4569   0.946   2.131   0.236
 1535TIP3    H2 4570   0.811   2.074   0.274
 1536TIP3   OH2 4571   0.109   1.207   2.423
 1536TIP3    H1 4572   0.045   1.171   2.361
 1536TIP3    H2 4573   0.171   1.254   2.369
 1537TIP3   OH2 4574   5.908   1.200   4.500
 1537TIP3    H1 4575   5.842   1.266   4.476
 1537TIP3    H2 4576   5.912   1.205   4.595
 1538TIP3   OH2 4577   2.857   6.097   2.751
 1538TIP3    H1 4578   2.888   6.187   2.766
 1538TIP3    H2 4579   2.813   6.102   2.666
 1539TIP3   OH2 4580   2.366   3.454   0.946
 1539TIP3    H1 4581   2.338   3.523   0.887
 1539TIP3    H2 4582   2.341   3.485   1.033
 1540TIP3   OH2 4583   0.427   3.032   3.492
 1540TIP3    H1 4584   0.398   2.952   3.536
 1540TIP3    H2 4585   0.374   3.037   3.413
 1541TIP3   OH2 4586   3.609   3.787   2.478
 1541TIP3    H1 4587   3.522   3.756   2.455
 1541TIP3    H2 4588   3.629   3.854   2.412
 1542TIP3   OH2 4589   4.391   6.475   2.377
 1542TIP3    H1 4590   4.378   6.389   2.418
 1542TIP3    H2 4591   4.380   6.537   2.449
 1543TIP3   OH2 4592   1.346   5.549   0.033
 1543TIP3    H1 4593   1.251   5.548   0.036
 1543TIP3    H2 4594   1.367   5.565  -0.059
 1544TIP3   OH2 4595   1.029   1.019   1.325
 1544TIP3    H1 4596   0.998   0.943   1.376
 1544TIP3    H2 4597   1.117   0.994   1.297
 1545TIP3   OH2 4598   0.479   5.360   4.090
 1545TIP3    H1 4599   0.509   5.449   4.068
 1545TIP3    H2 4600   0.527   5.303   4.031
 1546TIP3   OH2 4601   4.840   2.306   4.534
 1546TIP3    H1 4602   4.837   2.386   4.482
 1546TIP3    H2 4603   4.933   2.287   4.544
 1547TIP3   OH2 4604   5.582   3.882   5.618
 1547TIP3    H1 4605   5.673   3.852   5.619
 1547TIP3    H2 4606   5.541   3.828   5.551
 1548TIP3   OH2 4607   3.194   6.211   0.659
 1548TIP3    H1 4608   3.190   6.137   0.598
 1548TIP3    H2 4609   3.278   6.254   0.639
 1549TIP3   OH2 4610   5.794   1.469   5.167
 1549TIP3    H1 4611   5.767   1.424   5.087
 1549TIP3    H2 4612   5.737   1.546   5.171
 1550TIP3   OH2 4613   6.487   1.024   2.621
 1550TIP3    H1 4614   6.440   1.106   2.636
 1550TIP3    H2 4615   6.418   0.957   2.620
 1551TIP3   OH2 4616   3.783   6.142   1.488
 1551TIP3    H1 4617   3.752   6.094   1.411
 1551TIP3    H2 4618   3.791   6.233   1.458
 1552TIP3   OH2 4619   5.840   5.838   2.697
 1552TIP3    H1 4620   5.825   5.862   2.605
 1552TIP3    H2 4621   5.791   5.903   2.746
 1553TIP3   OH2 4622   1.832   5.448   1.739
 1553TIP3    H1 4623   1.742   5.417   1.735
 1553TIP3    H2 4624   1.876   5.403   1.667
 1554TIP3   OH2 4625   2.040   5.230   2.061
 1554TIP3    H1 4626   2.001   5.164   2.002
 1554TIP3    H2 4627   2.133   5.229   2.040
 1555TIP3   OH2 4628   5.140   0.268   5.821
 1555TIP3    H1 4629   5.157   0.313   5.738
 1555TIP3    H2 4630   5.141   0.337   5.887
 1556TIP3   OH2 4631   5.198   6.581   1.360
 1556TIP3    H1 4632   5.270   6.560   1.419
 1556TIP3    H2 4633   5.203   6.676   1.350
 1557TIP3   OH2 4634   4.948   0.624   0.463
 1557TIP3    H1 4635   5.018   0.630   0.528
 1557TIP3    H2 4636   4.868   0.633   0.514
 1558TIP3   OH2 4637   3.065   0.471   5.743
 1558TIP3    H1 4638   3.004   0.523   5.796
 1558TIP3    H2 4639   3.016   0.453   5.662
 1559TIP3   OH2 4640   5.699   1.011   3.595
 1559TIP3    H1 4641   5.611   1.014   3.632
 1559TIP3    H2 4642   5.727   0.920   3.605
 1560TIP3   OH2 4643   5.695   4.119   2.043
 1560TIP3    H1 4644   5.683   4.168   1.961
 1560TIP3    H2 4645   5.762   4.054   2.022
 1561TIP3   OH2 4646   5.227   2.786   4.299
 1561TIP3    H1 4647   5.192   2.871   4.328
 1561TIP3    H2 4648   5.222   2.730   4.377
 1562TIP3   OH2 4649   2.182   3.061   2.955
 1562TIP3    H1 4650   2.239   3.062   2.877
 1562TIP3    H2 4651   2.114   3.125   2.935
 1563TIP3   OH2 4652   6.557   4.796   2.225
 1563TIP3    H1 4653   6.483   4.740   2.248
 1563TIP3    H2 4654   6.541   4.879   2.269
 1564TIP3   OH2 4655   3.329   6.152   5.409
 1564TIP3    H1 4656   3.407   6.188   5.366
 1564TIP3    H2 4657   3.343   6.167   5.502
 1565TIP3   OH2 4658   1.759   3.377   4.654
 1565TIP3    H1 4659   1.676   3.407   4.691
 1565TIP3    H2 4660   1.780   3.298   4.703
 1566TIP3   OH2 4661   5.102   5.848   5.344
 1566TIP3    H1 4662   5.103   5.943   5.357
 1566TIP3    H2 4663   5.146   5.835   5.260
 1567TIP3   OH2 4664   4.881   5.807   5.800
 1567TIP3    H1 4665   4.790   5.776   5.804
 1567TIP3    H2 4666   4.890   5.845   5.713
 1568TIP3   OH2 4667   3.034   5.721   2.089
 1568TIP3    H1 4668   3.056   5.808   2.123
 1568TIP3    H2 4669   3.066   5.661   2.156
 1569TIP3   OH2 4670   1.466   2.336   2.639
 1569TIP3    H1 4671   1.386   2.343   2.587
 1569TIP3    H2 4672   1.437   2.335   2.730
 1570TIP3   OH2 4673   2.548   1.409   1.069
 1570TIP3    H1 4674   2.552   1.502   1.088
 1570TIP3    H2 4675   2.543   1.403   0.974
 1571TIP3   OH2 4676   6.729   6.219   1.164
 1571TIP3    H1 4677   6.768   6.148   1.113
 1571TIP3    H2 4678   6.803   6.276   1.186
 1572TIP3   OH2 4679   1.472   2.026   5.431
 1572TIP3    H1 4680   1.387   2.040   5.471
 1572TIP3    H2 4681   1.487   1.932   5.436
 1573TIP3   OH2 4682   4.533   1.176   5.721
 1573TIP3    H1 4683   4.616   1.128   5.730
 1573TIP3    H2 4684   4.466   1.111   5.741
 1574TIP3   OH2 4685   5.972   3.781   4.004
 1574TIP3    H1 4686   5.921   3.817   4.077
 1574TIP3    H2 4687   5.951   3.688   4.004
 1575TIP3   OH2 4688   4.166   5.243   4.463
 1575TIP3    H1 4689   4.258   5.249   4.489
 1575TIP3    H2 4690   4.122   5.201   4.537
 1576TIP3   OH2 4691   1.389   5.533   4.077
 1576TIP3    H1 4692   1.398   5.478   3.999
 1576TIP3    H2 4693   1.329   5.485   4.134
 1577TIP3   OH2 4694   5.175   4.553   3.198
 1577TIP3    H1 4695   5.214   4.468   3.179
 1577TIP3    H2 4696   5.244   4.616   3.179
 1578TIP3   OH2 4697   5.914   5.616   1.031
 1578TIP3    H1 4698   5.851   5.567   0.979
 1578TIP3    H2 4699   5.896   5.708   1.011
 1579TIP3   OH2 4700   4.887   2.017   4.945
 1579TIP3    H1 4701   4.977   2.048   4.937
 1579TIP3    H2 4702   4.836   2.078   4.893
 1580TIP3   OH2 4703   0.510   4.559   1.835
 1580TIP3    H1 4704   0.458   4.509   1.772
 1580TIP3    H2 4705   0.491   4.519   1.920
 1581TIP3   OH2 4706   0.151   2.160   4.140
 1581TIP3    H1 4707   0.098   2.172   4.218
 1581TIP3    H2 4708   0.126   2.073   4.107
 1582TIP3   OH2 4709   1.382   1.712   0.270
 1582TIP3    H1 4710   1.311   1.693   0.330
 1582TIP3    H2 4711   1.377   1.642   0.204
 1583TIP3   OH2 4712   1.724   4.351   1.538
 1583TIP3    H1 4713   1.784   4.402   1.592
 1583TIP3    H2 4714   1.769   4.267   1.526
 1584TIP3   OH2 4715   4.780   4.744   3.373
 1584TIP3    H1 4716   4.777   4.836   3.400
 1584TIP3    H2 4717   4.839   4.703   3.437
 1585TIP3   OH2 4718   1.671   4.177   3.025
 1585TIP3    H1 4719   1.676   4.183   3.120
 1585TIP3    H2 4720   1.703   4.089   3.005
 1586TIP3   OH2 4721   5.304   6.434   2.875
 1586TIP3    H1 4722   5.356   6.508   2.843
 1586TIP3    H2 4723   5.368   6.375   2.915
 1587TIP3   OH2 4724   1.170   2.286   3.478
 1587TIP3    H1 4725   1.163   2.277   3.573
 1587TIP3    H2 4726   1.110   2.221   3.443
 1588TIP3   OH2 4727   5.946   5.399   4.896
 1588TIP3    H1 4728   5.853   5.382   4.915
 1588TIP3    H2 4729   5.957   5.493   4.909
 1589TIP3   OH2 4730   3.888   3.685   5.092
 1589TIP3    H1 4731   3.917   3.744   5.022
 1589TIP3    H2 4732   3.794   3.675   5.078
 1590TIP3   OH2 4733   0.290   0.265   3.399
 1590TIP3    H1 4734   0.213   0.211   3.412
 1590TIP3    H2 4735   0.303   0.268   3.304
 1591TIP3   OH2 4736   3.298   6.458   1.726
 1591TIP3    H1 4737   3.240   6.525   1.762
 1591TIP3    H2 4738   3.350   6.505   1.660
 1592TIP3   OH2 4739   7.039   3.540   1.800
 1592TIP3    H1 4740   6.995   3.502   1.876
 1592TIP3    H2 4741   6.969   3.562   1.739
 1593TIP3   OH2 4742   3.741   2.499   2.950
 1593TIP3    H1 4743   3.761   2.589   2.922
 1593TIP3    H2 4744   3.665   2.475   2.898
 1594TIP3   OH2 4745   6.401   1.410   4.119
 1594TIP3    H1 4746   6.314   1.379   4.095
 1594TIP3    H2 4747   6.426   1.470   4.049
 1595TIP3   OH2 4748   3.770   0.749   3.291
 1595TIP3    H1 4749   3.715   0.684   3.247
 1595TIP3    H2 4750   3.858   0.711   3.289
 1596TIP3   OH2 4751   1.163   3.744   3.714
 1596TIP3    H1 4752   1.123   3.712   3.795
 1596TIP3    H2 4753   1.196   3.831   3.735
 1597TIP3   OH2 4754   7.034   6.097   0.336
 1597TIP3    H1 4755   7.004   6.172   0.388
 1597TIP3    H2 4756   6.993   6.109   0.250
 1598TIP3   OH2 4757   5.938   0.222   1.112
 1598TIP3    H1 4758   5.918   0.279   1.187
 1598TIP3    H2 4759   5.970   0.141   1.151
 1599TIP3   OH2 4760   0.778   5.320   2.424
 1599TIP3    H1 4761   0.841   5.354   2.487
 1599TIP3    H2 4762   0.694   5.359   2.450
 1600TIP3   OH2 4763   6.448   3.800   0.989
 1600TIP3    H1 4764   6.478   3.813   1.079
 1600TIP3    H2 4765   6.353   3.809   0.993
 1601TIP3   OH2 4766   2.849   1.417   4.378
 1601TIP3    H1 4767   2.854   1.511   4.360
 1601TIP3    H2 4768   2.902   1.377   4.309
 1602TIP3   OH2 4769   6.041   0.307   0.651
 1602TIP3    H1 4770   6.118   0.358   0.626
 1602TIP3    H2 4771   6.036   0.237   0.586
 1603TIP3   OH2 4772   2.420   5.637   0.389
 1603TIP3    H1 4773   2.406   5.713   0.332
 1603TIP3    H2 4774   2.487   5.665   0.450
 1604TIP3   OH2 4775   5.621   2.893   5.768
 1604TIP3    H1 4776   5.695   2.835   5.757
 1604TIP3    H2 4777   5.660   2.980   5.776
 1605TIP3   OH2 4778   1.036   5.262   4.075
 1605TIP3    H1 4779   1.084   5.290   3.997
 1605TIP3    H2 4780   0.946   5.289   4.059
 1606TIP3   OH2 4781   3.535   5.167   4.432
 1606TIP3    H1 4782   3.488   5.159   4.349
 1606TIP3    H2 4783   3.466   5.161   4.499
 1607TIP3   OH2 4784   1.570   5.956   5.284
 1607TIP3    H1 4785   1.580   6.003   5.201
 1607TIP3    H2 4786   1.659   5.944   5.315
 1608TIP3   OH2 4787   0.309   6.637   0.095
 1608TIP3    H1 4788   0.356   6.611   0.175
 1608TIP3    H2 4789   0.235   6.576   0.091
 1609TIP3   OH2 4790   4.955   2.124   1.857
 1609TIP3    H1 4791   4.942   2.035   1.823
 1609TIP3    H2 4792   5.048   2.129   1.877
 1610TIP3   OH2 4793   4.537   2.781   0.050
 1610TIP3    H1 4794   4.555   2.687   0.057
 1610TIP3    H2 4795   4.447   2.791   0.080
 1611TIP3   OH2 4796   4.308   1.213   2.378
 1611TIP3    H1 4797   4.268   1.153   2.441
 1611TIP3    H2 4798   4.244   1.284   2.370
 1612TIP3   OH2 4799   2.756   5.235   0.257
 1612TIP3    H1 4800   2.837   5.201   0.220
 1612TIP3    H2 4801   2.725   5.166   0.315
 1613TIP3   OH2 4802   0.548   2.395   3.423
 1613TIP3    H1 4803   0.488   2.456   3.466
 1613TIP3    H2 4804   0.522   2.308   3.456
 1614TIP3   OH2 4805   3.941   5.572   3.868
 1614TIP3    H1 4806   3.854   5.612   3.865
 1614TIP3    H2 4807   3.969   5.583   3.959
 1615TIP3   OH2 4808   0.961   6.765   2.225
 1615TIP3    H1 4809   0.873   6.748   2.257
 1615TIP3    H2 4810   1.005   6.811   2.298
 1616TIP3   OH2 4811   4.048   5.946   1.807
 1616TIP3    H1 4812   4.089   5.860   1.800
 1616TIP3    H2 4813   4.040   5.976   1.716
 1617TIP3   OH2 4814   2.597   0.520   4.713
 1617TIP3    H1 4815   2.538   0.583   4.671
 1617TIP3    H2 4816   2.603   0.447   4.651
 1618TIP3   OH2 4817   2.847   2.253   4.226
 1618TIP3    H1 4818   2.884   2.332   4.187
 1618TIP3    H2 4819   2.754   2.257   4.204
 1619TIP3   OH2 4820   1.497   4.220   3.821
 1619TIP3    H1 4821   1.423   4.202   3.763
 1619TIP3    H2 4822   1.574   4.219   3.763
 1620TIP3   OH2 4823   1.553   4.037   0.476
 1620TIP3    H1 4824   1.630   3.980   0.475
 1620TIP3    H2 4825   1.489   3.989   0.423
 1621TIP3   OH2 4826   5.561   4.302   2.426
 1621TIP3    H1 4827   5.557   4.354   2.506
 1621TIP3    H2 4828   5.632   4.240   2.441
 1622TIP3   OH2 4829   6.615   4.722   0.333
 1622TIP3    H1 4830   6.525   4.733   0.304
 1622TIP3    H2 4831   6.616   4.755   0.423
 1623TIP3   OH2 4832   5.169   2.747   3.531
 1623TIP3    H1 4833   5.207   2.801   3.462
 1623TIP3    H2 4834   5.137   2.809   3.596
 1624TIP3   OH2 4835   0.508   1.143   4.267
 1624TIP3    H1 4836   0.506   1.193   4.348
 1624TIP3    H2 4837   0.434   1.082   4.274
 1625TIP3   OH2 4838   6.897   4.542   3.100
 1625TIP3    H1 4839   6.936   4.616   3.054
 1625TIP3    H2 4840   6.963   4.473   3.096
 1626TIP3   OH2 4841   6.124   3.705   3.063
 1626TIP3    H1 4842   6.139   3.783   3.116
 1626TIP3    H2 4843   6.051   3.660   3.106
 1627TIP3   OH2 4844   1.973   0.220   0.969
 1627TIP3    H1 4845   1.952   0.313   0.963
 1627TIP3    H2 4846   1.904   0.183   1.025
 1628TIP3   OH2 4847   4.677   2.012   2.047
 1628TIP3    H1 4848   4.708   2.102   2.046
 1628TIP3    H2 4849   4.756   1.959   2.038
 1629TIP3   OH2 4850   0.189   5.132   2.330
 1629TIP3    H1 4851   0.247   5.127   2.254
 1629TIP3    H2 4852   0.145   5.048   2.332
 1630TIP3   OH2 4853   2.302   6.619   0.517
 1630TIP3    H1 4854   2.373   6.676   0.546
 1630TIP3    H2 4855   2.286   6.561   0.591
 1631TIP3   OH2 4856   6.405   5.116   1.762
 1631TIP3    H1 4857   6.431   5.066   1.840
 1631TIP3    H2 4858   6.375   5.200   1.796
 1632TIP3   OH2 4859   0.601   4.347   0.369
 1632TIP3    H1 4860   0.626   4.281   0.304
 1632TIP3    H2 4861   0.520   4.385   0.334
 1633TIP3   OH2 4862   4.180   6.531   3.233
 1633TIP3    H1 4863   4.086   6.547   3.240
 1633TIP3    H2 4864   4.194   6.502   3.143
 1634TIP3   OH2 4865   1.568   3.126   4.405
 1634TIP3    H1 4866   1.554   3.145   4.497
 1634TIP3    H2 4867   1.482   3.138   4.364
 1635TIP3   OH2 4868   5.611   6.324   3.947
 1635TIP3    H1 4869   5.575   6.257   3.889
 1635TIP3    H2 4870   5.554   6.400   3.933
 1636TIP3   OH2 4871   0.945   0.147   2.135
 1636TIP3    H1 4872   0.869   0.203   2.120
 1636TIP3    H2 4873   0.916   0.085   2.202
 1637TIP3   OH2 4874   2.933   3.132   2.442
 1637TIP3    H1 4875   2.930   3.203   2.378
 1637TIP3    H2 4876   2.963   3.175   2.523
 1638TIP3   OH2 4877   3.722   4.391   5.065
 1638TIP3    H1 4878   3.729   4.484   5.041
 1638TIP3    H2 4879   3.768   4.345   4.995
 1639TIP3   OH2 4880   2.412   2.710   4.821
 1639TIP3    H1 4881   2.394   2.633   4.767
 1639TIP3    H2 4882   2.442   2.777   4.760
 1640TIP3   OH2 4883   1.506   6.119   3.170
 1640TIP3    H1 4884   1.497   6.173   3.248
 1640TIP3    H2 4885   1.579   6.158   3.122
 1641TIP3   OH2 4886   6.299   0.738   4.174
 1641TIP3    H1 4887   6.292   0.832   4.191
 1641TIP3    H2 4888   6.217   0.717   4.130
 1642TIP3   OH2 4889   1.568   2.104   4.608
 1642TIP3    H1 4890   1.575   2.073   4.699
 1642TIP3    H2 4891   1.637   2.170   4.600
 1643TIP3   OH2 4892   0.629   1.174   0.365
 1643TIP3    H1 4893   0.547   1.125   0.377
 1643TIP3    H2 4894   0.607   1.263   0.392
 1644TIP3   OH2 4895   5.899   5.957   2.963
 1644TIP3    H1 4896   5.985   5.997   2.975
 1644TIP3    H2 4897   5.853   6.016   2.904
 1645TIP3   OH2 4898   7.102   3.974   1.092
 1645TIP3    H1 4899   7.027   3.978   1.033
 1645TIP3    H2 4900   7.173   3.938   1.038
 1646TIP3   OH2 4901   5.342   4.269   4.737
 1646TIP3    H1 4902   5.423   4.221   4.757
 1646TIP3    H2 4903   5.274   4.201   4.734
 1647TIP3   OH2 4904   2.378   6.251   1.128
 1647TIP3    H1 4905   2.440   6.178   1.120
 1647TIP3    H2 4906   2.306   6.227   1.069
 1648TIP3   OH2 4907   5.233   2.721   2.173
 1648TIP3    H1 4908   5.256   2.811   2.153
 1648TIP3    H2 4909   5.284   2.668   2.112
 1649TIP3   OH2 4910   0.171   0.908   2.217
 1649TIP3    H1 4911   0.234   0.928   2.148
 1649TIP3    H2 4912   0.199   0.962   2.291
 1650TIP3   OH2 4913   3.058   5.711   0.310
 1650TIP3    H1 4914   3.091   5.659   0.236
 1650TIP3    H2 4915   3.135   5.755   0.344
 1651TIP3   OH2 4916   4.866   2.815   4.078
 1651TIP3    H1 4917   4.871   2.788   4.170
 1651TIP3    H2 4918   4.804   2.888   4.078
 1652TIP3   OH2 4919   3.880   0.862   5.875
 1652TIP3    H1 4920   3.826   0.868   5.796
 1652TIP3    H2 4921   3.869   0.947   5.918
 1653TIP3   OH2 4922   4.549   4.255   0.956
 1653TIP3    H1 4923   4.497   4.201   1.016
 1653TIP3    H2 4924   4.638   4.222   0.965
 1654TIP3   OH2 4925   6.324   3.224   0.257
 1654TIP3    H1 4926   6.329   3.213   0.162
 1654TIP3    H2 4927   6.414   3.208   0.287
 1655TIP3   OH2 4928   0.632   1.989   5.835
 1655TIP3    H1 4929   0.634   1.986   5.740
 1655TIP3    H2 4930   0.543   2.019   5.856
 1656TIP3   OH2 4931   0.052   6.276   2.400
 1656TIP3    H1 4932   0.130   6.330   2.402
 1656TIP3    H2 4933   0.027   6.273   2.308
 1657TIP3   OH2 4934   1.219   0.689   3.543
 1657TIP3    H1 4935   1.167   0.637   3.481
 1657TIP3    H2 4936   1.307   0.687   3.507
 1658TIP3   OH2 4937   4.882   1.783   4.733
 1658TIP3    H1 4938   4.944   1.834   4.784
 1658TIP3    H2 4939   4.810   1.764   4.794
 1659TIP3   OH2 4940   4.275   2.319   0.793
 1659TIP3    H1 4941   4.294   2.246   0.734
 1659TIP3    H2 4942   4.334   2.306   0.867
 1660TIP3   OH2 4943   2.517   0.926   1.420
 1660TIP3    H1 4944   2.428   0.922   1.383
 1660TIP3    H2 4945   2.510   0.991   1.490
 1661TIP3   OH2 4946   2.636   1.664   4.795
 1661TIP3    H1 4947   2.658   1.595   4.732
 1661TIP3    H2 4948   2.720   1.688   4.834
 1662TIP3   OH2 4949   4.400   5.069   4.924
 1662TIP3    H1 4950   4.314   5.039   4.952
 1662TIP3    H2 4951   4.384   5.113   4.840
 1663TIP3   OH2 4952   7.102   6.047   4.572
 1663TIP3    H1 4953   7.041   6.003   4.631
 1663TIP3    H2 4954   7.109   5.988   4.497
 1664TIP3   OH2 4955   3.743   4.184   2.747
 1664TIP3    H1 4956   3.769   4.171   2.838
 1664TIP3    H2 4957   3.665   4.131   2.736
 1665TIP3   OH2 4958   4.714   5.907   3.798
 1665TIP3    H1 4959   4.720   5.913   3.893
 1665TIP3    H2 4960   4.804   5.888   3.770
 1666TIP3   OH2 4961   7.105   2.531   1.580
 1666TIP3    H1 4962   7.091   2.613   1.627
 1666TIP3    H2 4963   7.055   2.466   1.629
 1667TIP3   OH2 4964   4.664   2.594   5.452
 1667TIP3    H1 4965   4.644   2.555   5.537
 1667TIP3    H2 4966   4.585   2.641   5.428
 1668TIP3   OH2 4967   3.061   0.394   0.619
 1668TIP3    H1 4968   3.102   0.322   0.571
 1668TIP3    H2 4969   3.131   0.430   0.673
 1669TIP3   OH2 4970   1.762   2.716   1.398
 1669TIP3    H1 4971   1.800   2.752   1.318
 1669TIP3    H2 4972   1.824   2.739   1.467
 1670TIP3   OH2 4973   2.113   1.536   3.960
 1670TIP3    H1 4974   2.084   1.569   3.875
 1670TIP3    H2 4975   2.033   1.525   4.011
 1671TIP3   OH2 4976   1.640   5.132   0.134
 1671TIP3    H1 4977   1.554   5.155   0.170
 1671TIP3    H2 4978   1.702   5.166   0.199
 1672TIP3   OH2 4979   0.295   6.608   1.372
 1672TIP3    H1 4980   0.372   6.554   1.386
 1672TIP3    H2 4981   0.303   6.637   1.281
 1673TIP3   OH2 4982   0.938   5.611   1.940
 1673TIP3    H1 4983   0.847   5.607   1.911
 1673TIP3    H2 4984   0.933   5.614   2.035
 1674TIP3   OH2 4985   7.176   1.865   2.912
 1674TIP3    H1 4986   7.144   1.866   2.821
 1674TIP3    H2 4987   7.208   1.954   2.926
 1675TIP3   OH2 4988   6.591   0.453   5.892
 1675TIP3    H1 4989   6.613   0.535   5.936
 1675TIP3    H2 4990   6.540   0.481   5.815
 1676TIP3   OH2 4991   3.281   4.920   0.586
 1676TIP3    H1 4992   3.334   4.842   0.593
 1676TIP3    H2 4993   3.193   4.888   0.564
 1677TIP3   OH2 4994   3.032   2.121   3.062
 1677TIP3    H1 4995   2.995   2.169   2.987
 1677TIP3    H2 4996   3.126   2.133   3.053
 1678TIP3   OH2 4997   3.123   1.489   3.790
 1678TIP3    H1 4998   3.156   1.560   3.734
 1678TIP3    H2 4999   3.192   1.423   3.788
 1679TIP3   OH2 5000   0.941   6.165   2.392
 1679TIP3    H1 5001   0.856   6.134   2.359
 1679TIP3    H2 5002   1.004   6.102   2.357
 1680TIP3   OH2 5003   1.719   1.258   3.973
 1680TIP3    H1 5004   1.652   1.245   3.906
 1680TIP3    H2 5005   1.795   1.292   3.925
 1681TIP3   OH2 5006   5.572   0.688   3.539
 1681TIP3    H1 5007   5.521   0.607   3.548
 1681TIP3    H2 5008   5.638   0.682   3.608
 1682TIP3   OH2 5009   6.895   1.280   1.377
 1682TIP3    H1 5010   6.821   1.258   1.434
 1682TIP3    H2 5011   6.855   1.330   1.306
 1683TIP3   OH2 5012   0.136   3.219   5.555
 1683TIP3    H1 5013   0.228   3.198   5.542
 1683TIP3    H2 5014   0.126   3.306   5.516
 1684TIP3   OH2 5015   4.857   5.869   2.623
 1684TIP3    H1 5016   4.865   5.823   2.539
 1684TIP3    H2 5017   4.765   5.857   2.648
 1685TIP3   OH2 5018   0.623   2.916   4.467
 1685TIP3    H1 5019   0.601   2.962   4.386
 1685TIP3    H2 5020   0.541   2.913   4.516
 1686TIP3   OH2 5021   4.991   0.354   3.354
 1686TIP3    H1 5022   5.073   0.305   3.347
 1686TIP3    H2 5023   5.008   0.418   3.424
 1687TIP3   OH2 5024   0.063   3.735   3.520
 1687TIP3    H1 5025   0.016   3.812   3.551
 1687TIP3    H2 5026   0.026   3.662   3.569
 1688TIP3   OH2 5027   3.583   3.836   3.157
 1688TIP3    H1 5028   3.523   3.778   3.204
 1688TIP3    H2 5029   3.545   3.843   3.070
 1689TIP3   OH2 5030   1.905   4.475   0.624
 1689TIP3    H1 5031   1.983   4.432   0.659
 1689TIP3    H2 5032   1.938   4.538   0.560
 1690TIP3   OH2 5033   0.141   1.604   1.625
 1690TIP3    H1 5034   0.129   1.661   1.549
 1690TIP3    H2 5035   0.052   1.581   1.652
 1691TIP3   OH2 5036   6.575   3.245   4.613
 1691TIP3    H1 5037   6.515   3.171   4.605
 1691TIP3    H2 5038   6.530   3.318   4.571
 1692TIP3   OH2 5039   4.793   0.984   5.274
 1692TIP3    H1 5040   4.736   1.044   5.323
 1692TIP3    H2 5041   4.811   1.030   5.192
 1693TIP3   OH2 5042   4.103   1.450   2.408
 1693TIP3    H1 5043   4.075   1.436   2.498
 1693TIP3    H2 5044   4.035   1.506   2.369
 1694TIP3   OH2 5045   0.753   6.209   1.939
 1694TIP3    H1 5046   0.844   6.188   1.916
 1694TIP3    H2 5047   0.722   6.133   1.987
 1695TIP3   OH2 5048   2.852   4.409   2.221
 1695TIP3    H1 5049   2.846   4.313   2.227
 1695TIP3    H2 5050   2.901   4.425   2.140
 1696TIP3   OH2 5051   0.240   3.042   2.791
 1696TIP3    H1 5052   0.179   2.970   2.773
 1696TIP3    H2 5053   0.323   3.012   2.756
 1697TIP3   OH2 5054   7.133   0.522   5.689
 1697TIP3    H1 5055   7.204   0.505   5.751
 1697TIP3    H2 5056   7.161   0.599   5.641
 1698TIP3   OH2 5057   1.888   1.428   5.308
 1698TIP3    H1 5058   1.970   1.385   5.283
 1698TIP3    H2 5059   1.860   1.473   5.228
 1699TIP3   OH2 5060   0.906   0.825   2.642
 1699TIP3    H1 5061   0.884   0.748   2.589
 1699TIP3    H2 5062   0.994   0.807   2.675
 1700TIP3   OH2 5063   3.016   2.550   1.069
 1700TIP3    H1 5064   3.038   2.554   1.162
 1700TIP3    H2 5065   2.934   2.599   1.061
 1701TIP3   OH2 5066   4.654   3.432   0.715
 1701TIP3    H1 5067   4.649   3.336   0.714
 1701TIP3    H2 5068   4.626   3.458   0.627
 1702TIP3   OH2 5069   4.166   1.071   0.926
 1702TIP3    H1 5070   4.148   1.134   0.996
 1702TIP3    H2 5071   4.115   1.103   0.852
 1703TIP3   OH2 5072   1.043   0.143   0.162
 1703TIP3    H1 5073   0.953   0.125   0.190
 1703TIP3    H2 5074   1.045   0.117   0.070
 1704TIP3   OH2 5075   4.780   4.996   4.386
 1704TIP3    H1 5076   4.858   5.042   4.418
 1704TIP3    H2 5077   4.709   5.059   4.396
 1705TIP3   OH2 5078   6.484   4.639   4.046
 1705TIP3    H1 5079   6.535   4.640   4.127
 1705TIP3    H2 5080   6.448   4.551   4.041
 1706TIP3   OH2 5081   5.343   6.343   2.035
 1706TIP3    H1 5082   5.357   6.401   1.960
 1706TIP3    H2 5083   5.280   6.279   2.004
 1707TIP3   OH2 5084   0.830   1.310   5.272
 1707TIP3    H1 5085   0.909   1.264   5.300
 1707TIP3    H2 5086   0.857   1.401   5.260
 1708TIP3   OH2 5087   0.787   4.036   3.106
 1708TIP3    H1 5088   0.751   4.103   3.048
 1708TIP3    H2 5089   0.750   3.954   3.074
 1709TIP3   OH2 5090   6.199   3.612   5.102
 1709TIP3    H1 5091   6.114   3.619   5.059
 1709TIP3    H2 5092   6.247   3.690   5.074
 1710TIP3   OH2 5093   6.120   1.358   2.824
 1710TIP3    H1 5094   6.191   1.318   2.773
 1710TIP3    H2 5095   6.146   1.449   2.835
 1711TIP3   OH2 5096   0.149   2.657   1.789
 1711TIP3    H1 5097   0.151   2.657   1.693
 1711TIP3    H2 5098   0.229   2.704   1.815
 1712TIP3   OH2 5099   2.976   1.757   0.586
 1712TIP3    H1 5100   2.959   1.780   0.494
 1712TIP3    H2 5101   3.064   1.722   0.586
 1713TIP3   OH2 5102   1.742   4.461   4.656
 1713TIP3    H1 5103   1.799   4.389   4.682
 1713TIP3    H2 5104   1.718   4.504   4.738
 1714TIP3   OH2 5105   3.579   3.988   0.445
 1714TIP3    H1 5106   3.541   3.929   0.380
 1714TIP3    H2 5107   3.672   3.966   0.446
 1715TIP3   OH2 5108   3.292   0.594   3.919
 1715TIP3    H1 5109   3.247   0.528   3.867
 1715TIP3    H2 5110   3.377   0.555   3.938
 1716TIP3   OH2 5111   0.888   1.385   4.439
 1716TIP3    H1 5112   0.927   1.346   4.360
 1716TIP3    H2 5113   0.866   1.475   4.413
 1717TIP3   OH2 5114   6.064   1.094   4.863
 1717TIP3    H1 5115   6.002   1.096   4.936
 1717TIP3    H2 5116   6.031   1.161   4.802
 1718TIP3   OH2 5117   5.128   4.454   1.467
 1718TIP3    H1 5118   5.080   4.374   1.489
 1718TIP3    H2 5119   5.204   4.452   1.525
 1719TIP3   OH2 5120   7.158   1.166   1.723
 1719TIP3    H1 5121   7.221   1.170   1.796
 1719TIP3    H2 5122   7.075   1.143   1.765
 1720TIP3   OH2 5123   3.081   0.822   5.658
 1720TIP3    H1 5124   3.002   0.853   5.615
 1720TIP3    H2 5125   3.050   0.775   5.734
 1721TIP3   OH2 5126   6.981   6.051   3.378
 1721TIP3    H1 5127   7.039   6.119   3.343
 1721TIP3    H2 5128   6.961   5.995   3.304
 1722TIP3   OH2 5129   6.744   6.113   5.021
 1722TIP3    H1 5130   6.723   6.053   5.092
 1722TIP3    H2 5131   6.816   6.167   5.055
 1723TIP3   OH2 5132   3.816   3.872   0.429
 1723TIP3    H1 5133   3.821   3.776   0.436
 1723TIP3    H2 5134   3.908   3.900   0.424
 1724TIP3   OH2 5135   0.514   5.250   0.252
 1724TIP3    H1 5136   0.491   5.292   0.169
 1724TIP3    H2 5137   0.429   5.234   0.294
 1725TIP3   OH2 5138   6.301   1.311   2.605
 1725TIP3    H1 5139   6.236   1.252   2.567
 1725TIP3    H2 5140   6.296   1.390   2.552
 1726TIP3   OH2 5141   4.524   0.625   1.453
 1726TIP3    H1 5142   4.461   0.643   1.383
 1726TIP3    H2 5143   4.538   0.531   1.450
 1727TIP3   OH2 5144   5.673   6.448   1.651
 1727TIP3    H1 5145   5.758   6.408   1.633
 1727TIP3    H2 5146   5.621   6.377   1.689
 1728TIP3   OH2 5147   2.760   1.561   2.644
 1728TIP3    H1 5148   2.786   1.505   2.717
 1728TIP3    H2 5149   2.810   1.527   2.569
 1729TIP3   OH2 5150   5.634   0.550   2.309
 1729TIP3    H1 5151   5.594   0.512   2.231
 1729TIP3    H2 5152   5.698   0.613   2.275
 1730TIP3   OH2 5153   4.917   6.356   1.832
 1730TIP3    H1 5154   5.006   6.392   1.833
 1730TIP3    H2 5155   4.879   6.383   1.916
 1731TIP3   OH2 5156   4.348   1.437   1.778
 1731TIP3    H1 5157   4.373   1.390   1.699
 1731TIP3    H2 5158   4.253   1.451   1.769
 1732TIP3   OH2 5159   5.388   6.037   5.549
 1732TIP3    H1 5160   5.391   6.106   5.482
 1732TIP3    H2 5161   5.314   6.062   5.605
 1733TIP3   OH2 5162   4.869   1.010   4.047
 1733TIP3    H1 5163   4.910   0.968   3.971
 1733TIP3    H2 5164   4.787   1.047   4.013
 1734TIP3   OH2 5165   1.610   2.883   5.172
 1734TIP3    H1 5166   1.547   2.829   5.125
 1734TIP3    H2 5167   1.631   2.954   5.111
 1735TIP3   OH2 5168   2.981   0.306   2.737
 1735TIP3    H1 5169   2.932   0.233   2.776
 1735TIP3    H2 5170   2.940   0.385   2.773
 1736TIP3   OH2 5171   1.662   3.332   0.603
 1736TIP3    H1 5172   1.572   3.304   0.583
 1736TIP3    H2 5173   1.695   3.265   0.663
 1737TIP3   OH2 5174   2.019   0.798   4.328
 1737TIP3    H1 5175   1.977   0.840   4.253
 1737TIP3    H2 5176   2.056   0.871   4.379
 1738TIP3   OH2 5177   4.259   5.947   2.935
 1738TIP3    H1 5178   4.191   5.926   2.998
 1738TIP3    H2 5179   4.274   6.041   2.945
 1739TIP3   OH2 5180   3.508   1.437   1.740
 1739TIP3    H1 5181   3.441   1.503   1.730
 1739TIP3    H2 5182   3.466   1.355   1.713
 1740TIP3   OH2 5183   0.720   0.806   4.123
 1740TIP3    H1 5184   0.783   0.740   4.153
 1740TIP3    H2 5185   0.676   0.836   4.203
 1741TIP3   OH2 5186   3.746   4.736   2.205
 1741TIP3    H1 5187   3.758   4.651   2.246
 1741TIP3    H2 5188   3.687   4.783   2.265
 1742TIP3   OH2 5189   2.661   1.796   3.730
 1742TIP3    H1 5190   2.665   1.891   3.717
 1742TIP3    H2 5191   2.749   1.765   3.707
 1743TIP3   OH2 5192   0.175   1.700   2.410
 1743TIP3    H1 5193   0.122   1.622   2.427
 1743TIP3    H2 5194   0.254   1.688   2.464
 1744TIP3   OH2 5195   5.626   2.696   3.688
 1744TIP3    H1 5196   5.621   2.623   3.750
 1744TIP3    H2 5197   5.579   2.664   3.611
 1745TIP3   OH2 5198   5.321   2.764   1.030
 1745TIP3    H1 5199   5.226   2.779   1.023
 1745TIP3    H2 5200   5.359   2.852   1.027
 1746TIP3   OH2 5201   6.569   0.569   3.795
 1746TIP3    H1 5202   6.595   0.477   3.804
 1746TIP3    H2 5203   6.623   0.616   3.859
 1747TIP3   OH2 5204   6.382   6.556   0.956
 1747TIP3    H1 5205   6.304   6.611   0.961
 1747TIP3    H2 5206   6.444   6.607   0.904
 1748TIP3   OH2 5207   0.718   6.457   2.083
 1748TIP3    H1 5208   0.716   6.389   2.015
 1748TIP3    H2 5209   0.792   6.433   2.138
 1749TIP3   OH2 5210   3.019   4.457   0.215
 1749TIP3    H1 5211   2.935   4.453   0.259
 1749TIP3    H2 5212   3.010   4.396   0.141
 1750TIP3   OH2 5213   4.998   1.458   3.026
 1750TIP3    H1 5214   4.994   1.405   3.105
 1750TIP3    H2 5215   4.999   1.394   2.955
 1751TIP3   OH2 5216   0.386   0.737   5.508
 1751TIP3    H1 5217   0.412   0.829   5.514
 1751TIP3    H2 5218   0.466   0.689   5.527
 1752TIP3   OH2 5219   6.335   5.797   5.038
 1752TIP3    H1 5220   6.356   5.705   5.018
 1752TIP3    H2 5221   6.241   5.797   5.054
 1753TIP3   OH2 5222   0.210   6.430   4.649
 1753TIP3    H1 5223   0.257   6.510   4.671
 1753TIP3    H2 5224   0.277   6.371   4.616
 1754TIP3   OH2 5225   4.430   4.430   3.864
 1754TIP3    H1 5226   4.397   4.388   3.944
 1754TIP3    H2 5227   4.372   4.505   3.851
 1755TIP3   OH2 5228   4.172   5.784   5.164
 1755TIP3    H1 5229   4.150   5.872   5.132
 1755TIP3    H2 5230   4.140   5.725   5.096
 1756TIP3   OH2 5231   4.655   2.186   4.361
 1756TIP3    H1 5232   4.700   2.103   4.375
 1756TIP3    H2 5233   4.696   2.247   4.423
 1757TIP3   OH2 5234   1.706   6.653   1.681
 1757TIP3    H1 5235   1.695   6.737   1.725
 1757TIP3    H2 5236   1.671   6.589   1.742
 1758TIP3   OH2 5237   1.115   4.971   5.835
 1758TIP3    H1 5238   1.078   5.009   5.756
 1758TIP3    H2 5239   1.186   5.029   5.859
 1759TIP3   OH2 5240   1.695   1.826   2.924
 1759TIP3    H1 5241   1.627   1.799   2.863
 1759TIP3    H2 5242   1.775   1.785   2.891
 1760TIP3   OH2 5243   5.377   4.825   4.961
 1760TIP3    H1 5244   5.332   4.769   4.897
 1760TIP3    H2 5245   5.470   4.813   4.942
 1761TIP3   OH2 5246   4.814   0.065   0.595
 1761TIP3    H1 5247   4.801   0.088   0.503
 1761TIP3    H2 5248   4.901   0.098   0.616
 1762TIP3   OH2 5249   2.558   5.722   1.336
 1762TIP3    H1 5250   2.583   5.682   1.420
 1762TIP3    H2 5251   2.489   5.665   1.302
 1763TIP3   OH2 5252   6.796   4.886   0.203
 1763TIP3    H1 5253   6.743   4.814   0.237
 1763TIP3    H2 5254   6.732   4.949   0.170
 1764TIP3   OH2 5255   6.857   2.392   4.308
 1764TIP3    H1 5256   6.849   2.318   4.248
 1764TIP3    H2 5257   6.846   2.353   4.395
 1765TIP3   OH2 5258   4.697   6.409   3.751
 1765TIP3    H1 5259   4.634   6.480   3.760
 1765TIP3    H2 5260   4.648   6.339   3.707
 1766TIP3   OH2 5261   0.514   5.094   3.951
 1766TIP3    H1 5262   0.440   5.140   3.911
 1766TIP3    H2 5263   0.513   5.007   3.910
 1767TIP3   OH2 5264   3.720   3.797   2.891
 1767TIP3    H1 5265   3.784   3.732   2.864
 1767TIP3    H2 5266   3.741   3.815   2.983
 1768TIP3   OH2 5267   3.022   5.350   4.449
 1768TIP3    H1 5268   2.983   5.374   4.533
 1768TIP3    H2 5269   3.072   5.270   4.467
 1769TIP3   OH2 5270   6.407   4.060   3.769
 1769TIP3    H1 5271   6.405   3.964   3.769
 1769TIP3    H2 5272   6.482   4.082   3.825
 1770TIP3   OH2 5273   0.576   2.990   0.600
 1770TIP3    H1 5274   0.563   2.957   0.511
 1770TIP3    H2 5275   0.531   2.927   0.655
 1771TIP3   OH2 5276   1.285   2.297   0.591
 1771TIP3    H1 5277   1.370   2.320   0.628
 1771TIP3    H2 5278   1.267   2.367   0.527
 1772TIP3   OH2 5279   6.973   5.231   5.667
 1772TIP3    H1 5280   6.974   5.312   5.717
 1772TIP3    H2 5281   7.027   5.170   5.719
 1773TIP3   OH2 5282   6.128   3.528   3.763
 1773TIP3    H1 5283   6.090   3.472   3.695
 1773TIP3    H2 5284   6.073   3.513   3.840
 1774TIP3   OH2 5285   0.054   4.368   4.391
 1774TIP3    H1 5286  -0.037   4.363   4.421
 1774TIP3    H2 5287   0.103   4.401   4.467
 1775TIP3   OH2 5288   1.716   2.067   5.162
 1775TIP3    H1 5289   1.632   2.108   5.184
 1775TIP3    H2 5290   1.730   2.002   5.231
 1776TIP3   OH2 5291   3.628   5.359   5.719
 1776TIP3    H1 5292   3.657   5.275   5.756
 1776TIP3    H2 5293   3.699   5.387   5.662
 1777TIP3   OH2 5294   1.449   1.681   4.288
 1777TIP3    H1 5295   1.379   1.657   4.227
 1777TIP3    H2 5296   1.513   1.727   4.234
 1778TIP3   OH2 5297   3.169   2.235   4.056
 1778TIP3    H1 5298   3.220   2.288   4.117
 1778TIP3    H2 5299   3.084   2.223   4.099
 1779TIP3   OH2 5300   4.418   3.951   1.122
 1779TIP3    H1 5301   4.333   3.937   1.165
 1779TIP3    H2 5302   4.437   4.044   1.138
 1780TIP3   OH2 5303   3.631   1.637   4.834
 1780TIP3    H1 5304   3.664   1.626   4.923
 1780TIP3    H2 5305   3.594   1.725   4.833
 1781TIP3   OH2 5306   2.252   3.500   4.665
 1781TIP3    H1 5307   2.225   3.543   4.584
 1781TIP3    H2 5308   2.180   3.516   4.726
 1782TIP3   OH2 5309   1.593   6.200   0.477
 1782TIP3    H1 5310   1.536   6.261   0.523
 1782TIP3    H2 5311   1.592   6.229   0.386
 1783TIP3   OH2 5312   4.905   0.163   2.491
 1783TIP3    H1 5313   4.925   0.201   2.405
 1783TIP3    H2 5314   4.966   0.091   2.500
 1784TIP3   OH2 5315   6.563   4.947   1.305
 1784TIP3    H1 5316   6.639   4.889   1.303
 1784TIP3    H2 5317   6.557   4.974   1.397
 1785TIP3   OH2 5318   6.180   0.369   3.073
 1785TIP3    H1 5319   6.108   0.336   3.018
 1785TIP3    H2 5320   6.254   0.376   3.013
 1786TIP3   OH2 5321   2.436   4.902   4.276
 1786TIP3    H1 5322   2.441   4.860   4.191
 1786TIP3    H2 5323   2.449   4.995   4.258
 1787TIP3   OH2 5324   6.589   6.548   5.114
 1787TIP3    H1 5325   6.518   6.489   5.089
 1787TIP3    H2 5326   6.669   6.500   5.093
 1788TIP3   OH2 5327   2.248   5.635   1.969
 1788TIP3    H1 5328   2.283   5.557   1.927
 1788TIP3    H2 5329   2.233   5.697   1.898
 1789TIP3   OH2 5330   1.625   2.392   5.176
 1789TIP3    H1 5331   1.559   2.323   5.178
 1789TIP3    H2 5332   1.585   2.465   5.223
 1790TIP3   OH2 5333   5.184   5.146   4.857
 1790TIP3    H1 5334   5.170   5.228   4.811
 1790TIP3    H2 5335   5.096   5.115   4.879
 1791TIP3   OH2 5336   6.427   5.650   3.427
 1791TIP3    H1 5337   6.368   5.594   3.477
 1791TIP3    H2 5338   6.451   5.598   3.350
 1792TIP3   OH2 5339   0.876   0.325   4.823
 1792TIP3    H1 5340   0.807   0.354   4.883
 1792TIP3    H2 5341   0.842   0.345   4.736
 1793TIP3   OH2 5342   3.453   4.052   5.833
 1793TIP3    H1 5343   3.470   4.066   5.927
 1793TIP3    H2 5344   3.538   4.026   5.797
 1794TIP3   OH2 5345   3.509   3.752   3.965
 1794TIP3    H1 5346   3.541   3.835   3.931
 1794TIP3    H2 5347   3.537   3.750   4.056
 1795TIP3   OH2 5348   6.986   0.268   4.475
 1795TIP3    H1 5349   6.961   0.302   4.389
 1795TIP3    H2 5350   7.063   0.319   4.499
 1796TIP3   OH2 5351   4.056   2.324   5.469
 1796TIP3    H1 5352   4.121   2.272   5.422
 1796TIP3    H2 5353   3.993   2.350   5.402
 1797TIP3   OH2 5354   6.555   2.196   0.922
 1797TIP3    H1 5355   6.585   2.215   1.011
 1797TIP3    H2 5356   6.609   2.121   0.894
 1798TIP3   OH2 5357   6.654   5.061   4.736
 1798TIP3    H1 5358   6.668   4.966   4.727
 1798TIP3    H2 5359   6.605   5.071   4.817
 1799TIP3   OH2 5360   4.991   5.405   3.449
 1799TIP3    H1 5361   4.985   5.366   3.362
 1799TIP3    H2 5362   5.081   5.436   3.455
 1800TIP3   OH2 5363   5.913   1.332   2.627
 1800TIP3    H1 5364   5.973   1.375   2.688
 1800TIP3    H2 5365   5.826   1.344   2.667
 1801TIP3   OH2 5366   4.954   1.773   3.376
 1801TIP3    H1 5367   4.917   1.708   3.315
 1801TIP3    H2 5368   4.918   1.749   3.461
 1802TIP3   OH2 5369   2.242   5.176   0.301
 1802TIP3    H1 5370   2.203   5.252   0.343
 1802TIP3    H2 5371   2.170   5.115   0.288
 1803TIP3   OH2 5372   3.684   4.558   5.447
 1803TIP3    H1 5373   3.619   4.588   5.383
 1803TIP3    H2 5374   3.649   4.476   5.481
 1804TIP3   OH2 5375   2.477   0.039   2.141
 1804TIP3    H1 5376   2.567   0.061   2.118
 1804TIP3    H2 5377   2.468  -0.053   2.117
 1805TIP3   OH2 5378   5.157   5.004   2.421
 1805TIP3    H1 5379   5.107   4.946   2.364
 1805TIP3    H2 5380   5.104   5.010   2.501
 1806TIP3   OH2 5381   3.874   4.290   4.849
 1806TIP3    H1 5382   3.878   4.204   4.809
 1806TIP3    H2 5383   3.949   4.292   4.910
 1807TIP3   OH2 5384   2.322   3.290   4.881
 1807TIP3    H1 5385   2.271   3.345   4.822
 1807TIP3    H2 5386   2.322   3.204   4.840
 1808TIP3   OH2 5387   5.908   4.481   0.623
 1808TIP3    H1 5388   5.954   4.419   0.680
 1808TIP3    H2 5389   5.936   4.456   0.535
 1809TIP3   OH2 5390   6.989   5.127   0.230
 1809TIP3    H1 5391   6.967   5.037   0.253
 1809TIP3    H2 5392   6.932   5.148   0.155
 1810TIP3   OH2 5393   2.233   3.844   1.655
 1810TIP3    H1 5394   2.293   3.825   1.727
 1810TIP3    H2 5395   2.232   3.764   1.602
 1811TIP3   OH2 5396   5.854   2.118   0.146
 1811TIP3    H1 5397   5.782   2.168   0.186
 1811TIP3    H2 5398   5.813   2.038   0.113
 1812TIP3   OH2 5399   6.224   6.576   5.371
 1812TIP3    H1 5400   6.199   6.647   5.430
 1812TIP3    H2 5401   6.244   6.618   5.288
 1813TIP3   OH2 5402   6.877   1.550   0.067
 1813TIP3    H1 5403   6.835   1.632   0.038
 1813TIP3    H2 5404   6.883   1.497  -0.012
 1814TIP3   OH2 5405   6.680   3.838   1.433
 1814TIP3    H1 5406   6.649   3.790   1.510
 1814TIP3    H2 5407   6.739   3.904   1.467
 1815TIP3   OH2 5408   1.188   6.714   1.674
 1815TIP3    H1 5409   1.218   6.656   1.603
 1815TIP3    H2 5410   1.095   6.728   1.655
 1816TIP3   OH2 5411   1.395   3.298   1.805
 1816TIP3    H1 5412   1.308   3.311   1.842
 1816TIP3    H2 5413   1.385   3.226   1.743
 1817TIP3   OH2 5414   4.184   3.548   5.362
 1817TIP3    H1 5415   4.256   3.508   5.312
 1817TIP3    H2 5416   4.213   3.545   5.453
 1818TIP3   OH2 5417   7.176   5.166   4.060
 1818TIP3    H1 5418   7.099   5.165   4.005
 1818TIP3    H2 5419   7.226   5.242   4.032
 1819TIP3   OH2 5420   5.490   2.808   3.924
 1819TIP3    H1 5421   5.454   2.730   3.966
 1819TIP3    H2 5422   5.536   2.775   3.847
 1820TIP3   OH2 5423   5.902   3.271   3.844
 1820TIP3    H1 5424   5.854   3.335   3.791
 1820TIP3    H2 5425   5.940   3.211   3.781
 1821TIP3   OH2 5426   6.624   4.030   1.138
 1821TIP3    H1 5427   6.706   4.072   1.164
 1821TIP3    H2 5428   6.576   4.099   1.092
 1822TIP3   OH2 5429   5.669   1.257   4.169
 1822TIP3    H1 5430   5.716   1.339   4.185
 1822TIP3    H2 5431   5.705   1.225   4.086
 1823TIP3   OH2 5432   4.777   6.251   0.786
 1823TIP3    H1 5433   4.687   6.229   0.810
 1823TIP3    H2 5434   4.809   6.175   0.739
 1824TIP3   OH2 5435   2.967   3.539   3.932
 1824TIP3    H1 5436   3.013   3.603   3.987
 1824TIP3    H2 5437   2.906   3.495   3.991
 1825TIP3   OH2 5438   7.041   1.529   4.561
 1825TIP3    H1 5439   7.094   1.587   4.506
 1825TIP3    H2 5440   7.095   1.452   4.574
 1826TIP3   OH2 5441   2.347   2.947   1.281
 1826TIP3    H1 5442   2.306   2.862   1.263
 1826TIP3    H2 5443   2.437   2.936   1.250
 1827TIP3   OH2 5444   5.120   3.573   1.350
 1827TIP3    H1 5445   5.154   3.634   1.284
 1827TIP3    H2 5446   5.182   3.578   1.422
 1828TIP3   OH2 5447   3.311   1.064   2.949
 1828TIP3    H1 5448   3.362   1.113   3.014
 1828TIP3    H2 5449   3.357   0.981   2.939
 1829TIP3   OH2 5450   6.355   3.657   5.715
 1829TIP3    H1 5451   6.327   3.591   5.652
 1829TIP3    H2 5452   6.298   3.644   5.791
 1830TIP3   OH2 5453   4.883   6.748   2.071
 1830TIP3    H1 5454   4.971   6.727   2.102
 1830TIP3    H2 5455   4.878   6.843   2.076
 1831TIP3   OH2 5456   3.200   4.336   3.749
 1831TIP3    H1 5457   3.266   4.268   3.742
 1831TIP3    H2 5458   3.210   4.388   3.670
 1832TIP3   OH2 5459   1.482   6.730   2.832
 1832TIP3    H1 5460   1.553   6.766   2.778
 1832TIP3    H2 5461   1.406   6.784   2.809
 1833TIP3   OH2 5462   3.687   5.647   3.770
 1833TIP3    H1 5463   3.674   5.612   3.858
 1833TIP3    H2 5464   3.626   5.598   3.715
 1834TIP3   OH2 5465   6.844   3.939   2.203
 1834TIP3    H1 5466   6.859   3.845   2.195
 1834TIP3    H2 5467   6.929   3.979   2.185
 1835TIP3   OH2 5468   2.980   2.259   3.295
 1835TIP3    H1 5469   2.970   2.202   3.218
 1835TIP3    H2 5470   3.010   2.343   3.258
 1836TIP3   OH2 5471   1.562   4.404   3.180
 1836TIP3    H1 5472   1.551   4.462   3.105
 1836TIP3    H2 5473   1.609   4.328   3.145
 1837TIP3   OH2 5474   4.459   4.205   1.625
 1837TIP3    H1 5475   4.478   4.187   1.717
 1837TIP3    H2 5476   4.406   4.285   1.627
 1838TIP3   OH2 5477   5.685   5.527   1.309
 1838TIP3    H1 5478   5.738   5.459   1.267
 1838TIP3    H2 5479   5.748   5.583   1.354
 1839TIP3   OH2 5480   1.910   5.546   1.480
 1839TIP3    H1 5481   1.976   5.485   1.448
 1839TIP3    H2 5482   1.836   5.490   1.504
 1840TIP3   OH2 5483   1.887   6.364   2.817
 1840TIP3    H1 5484   1.852   6.405   2.737
 1840TIP3    H2 5485   1.971   6.326   2.790
 1841TIP3   OH2 5486   6.367   2.794   2.234
 1841TIP3    H1 5487   6.423   2.729   2.277
 1841TIP3    H2 5488   6.428   2.861   2.203
 1842TIP3   OH2 5489   5.819   4.929   3.897
 1842TIP3    H1 5490   5.854   5.009   3.858
 1842TIP3    H2 5491   5.785   4.956   3.982
 1843TIP3   OH2 5492   3.131   4.883   0.856
 1843TIP3    H1 5493   3.056   4.860   0.911
 1843TIP3    H2 5494   3.103   4.862   0.767
 1844TIP3   OH2 5495   0.516   6.488   0.643
 1844TIP3    H1 5496   0.582   6.525   0.584
 1844TIP3    H2 5497   0.456   6.441   0.586
 1845TIP3   OH2 5498   4.525   2.387   4.181
 1845TIP3    H1 5499   4.443   2.426   4.212
 1845TIP3    H2 5500   4.551   2.326   4.251
 1846TIP3   OH2 5501   3.623   1.916   1.623
 1846TIP3    H1 5502   3.598   1.875   1.706
 1846TIP3    H2 5503   3.649   1.843   1.566
 1847TIP3   OH2 5504   6.644   2.032   0.521
 1847TIP3    H1 5505   6.621   2.005   0.432
 1847TIP3    H2 5506   6.601   2.117   0.532
 1848TIP3   OH2 5507   7.025   6.296   1.686
 1848TIP3    H1 5508   7.040   6.213   1.730
 1848TIP3    H2 5509   6.999   6.356   1.755
 1849TIP3   OH2 5510   4.395   3.938   1.761
 1849TIP3    H1 5511   4.367   3.971   1.847
 1849TIP3    H2 5512   4.475   3.988   1.742
 1850TIP3   OH2 5513   0.629   5.159   2.250
 1850TIP3    H1 5514   0.705   5.185   2.302
 1850TIP3    H2 5515   0.554   5.186   2.302
 1851TIP3   OH2 5516   1.568   4.464   1.997
 1851TIP3    H1 5517   1.581   4.475   2.091
 1851TIP3    H2 5518   1.510   4.389   1.989
 1852TIP3   OH2 5519   4.263   3.322   3.490
 1852TIP3    H1 5520   4.341   3.377   3.479
 1852TIP3    H2 5521   4.201   3.355   3.425
 1853TIP3   OH2 5522   6.579   1.499   1.132
 1853TIP3    H1 5523   6.544   1.411   1.117
 1853TIP3    H2 5524   6.507   1.558   1.109
 1854TIP3   OH2 5525   5.201   3.285   1.572
 1854TIP3    H1 5526   5.270   3.294   1.507
 1854TIP3    H2 5527   5.120   3.296   1.522
 1855TIP3   OH2 5528   2.065   4.575   4.532
 1855TIP3    H1 5529   2.118   4.551   4.457
 1855TIP3    H2 5530   2.062   4.671   4.529
 1856TIP3   OH2 5531   6.405   0.645   2.063
 1856TIP3    H1 5532   6.443   0.593   1.992
 1856TIP3    H2 5533   6.363   0.581   2.120
 1857TIP3   OH2 5534   5.836   6.668   5.212
 1857TIP3    H1 5535   5.793   6.585   5.231
 1857TIP3    H2 5536   5.851   6.665   5.117
 1858TIP3   OH2 5537   3.708   0.169   4.061
 1858TIP3    H1 5538   3.637   0.104   4.065
 1858TIP3    H2 5539   3.727   0.189   4.153
 1859TIP3   OH2 5540   5.819   5.591   2.051
 1859TIP3    H1 5541   5.738   5.632   2.022
 1859TIP3    H2 5542   5.797   5.549   2.133
 1860TIP3   OH2 5543   5.262   0.414   3.290
 1860TIP3    H1 5544   5.290   0.502   3.267
 1860TIP3    H2 5545   5.337   0.376   3.336
 1861TIP3   OH2 5546   6.448   2.251   1.187
 1861TIP3    H1 5547   6.435   2.274   1.279
 1861TIP3    H2 5548   6.487   2.164   1.190
 1862TIP3   OH2 5549   4.775   0.639   4.296
 1862TIP3    H1 5550   4.783   0.549   4.327
 1862TIP3    H2 5551   4.691   0.669   4.329
 1863TIP3   OH2 5552   6.627   4.726   1.056
 1863TIP3    H1 5553   6.673   4.737   1.139
 1863TIP3    H2 5554   6.535   4.712   1.081
 1864TIP3   OH2 5555   7.115   4.328   2.086
 1864TIP3    H1 5556   7.190   4.275   2.115
 1864TIP3    H2 5557   7.111   4.314   1.992
 1865TIP3   OH2 5558   4.347   6.003   0.210
 1865TIP3    H1 5559   4.282   6.063   0.247
 1865TIP3    H2 5560   4.297   5.924   0.189
 1866TIP3   OH2 5561   5.826   3.427   4.871
 1866TIP3    H1 5562   5.798   3.416   4.962
 1866TIP3    H2 5563   5.752   3.395   4.819
 1867TIP3   OH2 5564   4.166   4.323   5.446
 1867TIP3    H1 5565   4.172   4.230   5.468
 1867TIP3    H2 5566   4.130   4.324   5.357
 1868TIP3   OH2 5567   0.535   1.023   4.969
 1868TIP3    H1 5568   0.628   1.047   4.971
 1868TIP3    H2 5569   0.489   1.106   4.975
 1869TIP3   OH2 5570   2.065   5.430   0.359
 1869TIP3    H1 5571   2.096   5.470   0.278
 1869TIP3    H2 5572   1.988   5.379   0.333
 1870TIP3   OH2 5573   1.910   1.093   4.877
 1870TIP3    H1 5574   1.941   1.006   4.851
 1870TIP3    H2 5575   1.946   1.105   4.965
 1871TIP3   OH2 5576   1.522   3.310   3.668
 1871TIP3    H1 5577   1.499   3.265   3.586
 1871TIP3    H2 5578   1.471   3.390   3.667
 1872TIP3   OH2 5579   0.427   0.218   0.852
 1872TIP3    H1 5580   0.460   0.208   0.941
 1872TIP3    H2 5581   0.498   0.186   0.796
 1873TIP3   OH2 5582   6.378   4.071   2.733
 1873TIP3    H1 5583   6.464   4.066   2.775
 1873TIP3    H2 5584   6.397   4.093   2.642
 1874TIP3   OH2 5585   2.039   2.378   2.401
 1874TIP3    H1 5586   2.069   2.386   2.310
 1874TIP3    H2 5587   2.119   2.366   2.451
 1875TIP3   OH2 5588   2.773   1.810   1.800
 1875TIP3    H1 5589   2.818   1.889   1.831
 1875TIP3    H2 5590   2.685   1.840   1.779
 1876TIP3   OH2 5591   0.335   5.511   1.218
 1876TIP3    H1 5592   0.406   5.465   1.172
 1876TIP3    H2 5593   0.260   5.503   1.159
 1877TIP3   OH2 5594   1.582   4.925   3.210
 1877TIP3    H1 5595   1.583   5.016   3.242
 1877TIP3    H2 5596   1.583   4.872   3.289
 1878TIP3   OH2 5597   6.591   4.409   2.515
 1878TIP3    H1 5598   6.627   4.334   2.562
 1878TIP3    H2 5599   6.601   4.386   2.423
 1879TIP3   OH2 5600   1.070   2.437   4.883
 1879TIP3    H1 5601   0.979   2.415   4.902
 1879TIP3    H2 5602   1.086   2.401   4.796
 1880TIP3   OH2 5603   2.437   2.473   3.957
 1880TIP3    H1 5604   2.395   2.465   4.043
 1880TIP3    H2 5605   2.386   2.539   3.911
 1881TIP3   OH2 5606   6.013   5.145   0.429
 1881TIP3    H1 5607   6.056   5.080   0.484
 1881TIP3    H2 5608   6.006   5.104   0.343
 1882TIP3   OH2 5609   4.396   6.630   2.926
 1882TIP3    H1 5610   4.300   6.629   2.921
 1882TIP3    H2 5611   4.421   6.538   2.926
 1883TIP3   OH2 5612   5.353   2.441   3.760
 1883TIP3    H1 5613   5.405   2.367   3.790
 1883TIP3    H2 5614   5.269   2.431   3.804
 1884TIP3   OH2 5615   3.766   2.384   0.941
 1884TIP3    H1 5616   3.699   2.321   0.917
 1884TIP3    H2 5617   3.846   2.351   0.900
 1885TIP3   OH2 5618   4.334   3.028   1.425
 1885TIP3    H1 5619   4.266   3.015   1.359
 1885TIP3    H2 5620   4.294   2.999   1.507
 1886TIP3   OH2 5621   1.401   0.592   2.815
 1886TIP3    H1 5622   1.411   0.500   2.838
 1886TIP3    H2 5623   1.485   0.617   2.778
 1887TIP3   OH2 5624   6.545   0.492   1.866
 1887TIP3    H1 5625   6.524   0.502   1.773
 1887TIP3    H2 5626   6.612   0.424   1.869
 1888TIP3   OH2 5627   3.613   6.190   4.178
 1888TIP3    H1 5628   3.631   6.096   4.184
 1888TIP3    H2 5629   3.691   6.232   4.214
 1889TIP3   OH2 5630   5.775   2.948   3.683
 1889TIP3    H1 5631   5.861   2.922   3.714
 1889TIP3    H2 5632   5.717   2.876   3.709
 1890TIP3   OH2 5633   5.110   0.026   5.185
 1890TIP3    H1 5634   5.111   0.016   5.280
 1890TIP3    H2 5635   5.203   0.023   5.160
 1891TIP3   OH2 5636   4.067   5.746   2.271
 1891TIP3    H1 5637   4.050   5.722   2.362
 1891TIP3    H2 5638   4.117   5.828   2.276
 1892TIP3   OH2 5639   5.273   3.067   1.255
 1892TIP3    H1 5640   5.180   3.088   1.245
 1892TIP3    H2 5641   5.311   3.146   1.296
 1893TIP3   OH2 5642   4.796   6.492   0.640
 1893TIP3    H1 5643   4.786   6.420   0.701
 1893TIP3    H2 5644   4.713   6.497   0.594
 1894TIP3   OH2 5645   4.796   5.355   4.460
 1894TIP3    H1 5646   4.712   5.331   4.421
 1894TIP3    H2 5647   4.802   5.301   4.539
 1895TIP3   OH2 5648   4.140   0.604   1.869
 1895TIP3    H1 5649   4.116   0.684   1.915
 1895TIP3    H2 5650   4.152   0.539   1.939
 1896TIP3   OH2 5651   3.463   4.915   3.676
 1896TIP3    H1 5652   3.429   4.917   3.586
 1896TIP3    H2 5653   3.553   4.884   3.666
 1897TIP3   OH2 5654   5.475   1.019   2.024
 1897TIP3    H1 5655   5.570   1.012   2.024
 1897TIP3    H2 5656   5.445   0.937   2.064
 1898TIP3   OH2 5657   2.876   0.943   5.852
 1898TIP3    H1 5658   2.952   0.938   5.794
 1898TIP3    H2 5659   2.855   1.036   5.856
 1899TIP3   OH2 5660   3.492   3.279   4.425
 1899TIP3    H1 5661   3.405   3.287   4.386
 1899TIP3    H2 5662   3.488   3.333   4.504
 1900TIP3   OH2 5663   5.583   3.341   5.381
 1900TIP3    H1 5664   5.490   3.354   5.362
 1900TIP3    H2 5665   5.599   3.394   5.460
 1901TIP3   OH2 5666   2.234   5.243   4.053
 1901TIP3    H1 5667   2.177   5.206   4.121
 1901TIP3    H2 5668   2.222   5.185   3.978
 1902TIP3   OH2 5669   1.898   6.400   2.207
 1902TIP3    H1 5670   1.821   6.451   2.181
 1902TIP3    H2 5671   1.912   6.339   2.134
 1903TIP3   OH2 5672   7.088   1.065   1.470
 1903TIP3    H1 5673   7.143   0.990   1.449
 1903TIP3    H2 5674   7.128   1.104   1.548
 1904TIP3   OH2 5675   3.222   0.201   3.132
 1904TIP3    H1 5676   3.274   0.135   3.180
 1904TIP3    H2 5677   3.134   0.163   3.127
 1905TIP3   OH2 5678   0.395   3.706   5.596
 1905TIP3    H1 5679   0.326   3.722   5.661
 1905TIP3    H2 5680   0.473   3.687   5.648
 1906TIP3   OH2 5681   5.473   1.072   5.688
 1906TIP3    H1 5682   5.441   1.162   5.693
 1906TIP3    H2 5683   5.485   1.045   5.780
 1907TIP3   OH2 5684   1.705   3.202   0.086
 1907TIP3    H1 5685   1.770   3.267   0.061
 1907TIP3    H2 5686   1.631   3.219   0.028
 1908TIP3   OH2 5687   2.466   4.929   0.354
 1908TIP3    H1 5688   2.428   5.016   0.349
 1908TIP3    H2 5689   2.560   4.944   0.364
 1909TIP3   OH2 5690   2.915   0.669   0.118
 1909TIP3    H1 5691   2.900   0.675   0.023
 1909TIP3    H2 5692   2.827   0.673   0.155
 1910TIP3   OH2 5693   3.840   0.681   2.905
 1910TIP3    H1 5694   3.915   0.692   2.963
 1910TIP3    H2 5695   3.841   0.589   2.880
 1911TIP3   OH2 5696   6.485   6.689   5.563
 1911TIP3    H1 5697   6.513   6.597   5.568
 1911TIP3    H2 5698   6.414   6.689   5.499
 1912TIP3   OH2 5699   0.773   0.345   4.540
 1912TIP3    H1 5700   0.738   0.396   4.468
 1912TIP3    H2 5701   0.753   0.254   4.518
 1913TIP3   OH2 5702   2.631   6.187   4.159
 1913TIP3    H1 5703   2.559   6.227   4.207
 1913TIP3    H2 5704   2.589   6.140   4.087
 1914TIP3   OH2 5705   5.602   3.042   4.807
 1914TIP3    H1 5706   5.681   2.988   4.803
 1914TIP3    H2 5707   5.532   2.981   4.830
 1915TIP3   OH2 5708   4.168   3.995   3.618
 1915TIP3    H1 5709   4.228   3.956   3.555
 1915TIP3    H2 5710   4.214   3.988   3.702
 1916TIP3   OH2 5711   5.697   3.968   2.312
 1916TIP3    H1 5712   5.626   3.903   2.307
 1916TIP3    H2 5713   5.690   4.017   2.230
 1917TIP3   OH2 5714   2.351   5.521   0.673
 1917TIP3    H1 5715   2.341   5.540   0.580
 1917TIP3    H2 5716   2.426   5.461   0.677
 1918TIP3   OH2 5717   5.647   4.297   4.748
 1918TIP3    H1 5718   5.634   4.230   4.816
 1918TIP3    H2 5719   5.686   4.249   4.675
 1919TIP3   OH2 5720   1.476   4.330   0.574
 1919TIP3    H1 5721   1.432   4.367   0.651
 1919TIP3    H2 5722   1.464   4.396   0.506
 1920TIP3   OH2 5723   3.059   6.552   1.138
 1920TIP3    H1 5724   3.077   6.592   1.223
 1920TIP3    H2 5725   3.093   6.463   1.147
 1921TIP3   OH2 5726   4.224   5.712   1.826
 1921TIP3    H1 5727   4.153   5.704   1.890
 1921TIP3    H2 5728   4.304   5.702   1.877
 1922TIP3   OH2 5729   1.026   3.419   0.798
 1922TIP3    H1 5730   1.062   3.467   0.872
 1922TIP3    H2 5731   0.970   3.482   0.753
 1923TIP3   OH2 5732   6.478   4.502   5.143
 1923TIP3    H1 5733   6.414   4.466   5.081
 1923TIP3    H2 5734   6.558   4.453   5.126
 1924TIP3   OH2 5735   3.758   1.398   0.852
 1924TIP3    H1 5736   3.793   1.464   0.913
 1924TIP3    H2 5737   3.748   1.444   0.769
 1925TIP3   OH2 5738   0.394   6.737   3.789
 1925TIP3    H1 5739   0.305   6.753   3.819
 1925TIP3    H2 5740   0.423   6.821   3.752
 1926TIP3   OH2 5741   4.899   3.973   1.089
 1926TIP3    H1 5742   4.989   4.005   1.090
 1926TIP3    H2 5743   4.897   3.906   1.157
 1927TIP3   OH2 5744   3.605   5.797   3.161
 1927TIP3    H1 5745   3.512   5.777   3.150
 1927TIP3    H2 5746   3.650   5.723   3.121
 1928TIP3   OH2 5747   4.873   1.435   4.249
 1928TIP3    H1 5748   4.803   1.373   4.231
 1928TIP3    H2 5749   4.905   1.411   4.336
 1929TIP3   OH2 5750   2.140   0.391   1.218
 1929TIP3    H1 5751   2.165   0.467   1.271
 1929TIP3    H2 5752   2.215   0.332   1.222
 1930TIP3   OH2 5753   0.771   3.602   3.069
 1930TIP3    H1 5754   0.814   3.650   3.140
 1930TIP3    H2 5755   0.783   3.510   3.092
 1931TIP3   OH2 5756   4.794   2.058   3.239
 1931TIP3    H1 5757   4.719   2.117   3.249
 1931TIP3    H2 5758   4.843   2.094   3.165
 1932TIP3   OH2 5759   3.216   4.965   0.238
 1932TIP3    H1 5760   3.303   5.004   0.235
 1932TIP3    H2 5761   3.231   4.872   0.220
 1933TIP3   OH2 5762   3.078   4.706   0.640
 1933TIP3    H1 5763   3.082   4.672   0.551
 1933TIP3    H2 5764   2.984   4.719   0.656
 1934TIP3   OH2 5765   4.881   6.262   4.485
 1934TIP3    H1 5766   4.801   6.257   4.433
 1934TIP3    H2 5767   4.859   6.321   4.557
 1935TIP3   OH2 5768   0.063   3.370   1.819
 1935TIP3    H1 5769   0.083   3.451   1.866
 1935TIP3    H2 5770  -0.031   3.373   1.805
 1936TIP3   OH2 5771   0.609   5.728   0.572
 1936TIP3    H1 5772   0.603   5.809   0.624
 1936TIP3    H2 5773   0.698   5.696   0.589
 1937TIP3   OH2 5774   3.516   4.726   1.589
 1937TIP3    H1 5775   3.593   4.720   1.531
 1937TIP3    H2 5776   3.459   4.655   1.561
 1938TIP3   OH2 5777   4.271   0.493   3.476
 1938TIP3    H1 5778   4.287   0.445   3.557
 1938TIP3    H2 5779   4.358   0.505   3.438
 1939TIP3   OH2 5780   0.615   0.506   1.224
 1939TIP3    H1 5781   0.614   0.596   1.258
 1939TIP3    H2 5782   0.686   0.506   1.159
 1940TIP3   OH2 5783   4.844   4.226   4.654
 1940TIP3    H1 5784   4.750   4.211   4.660
 1940TIP3    H2 5785   4.863   4.286   4.727
 1941TIP3   OH2 5786   6.902   3.662   0.836
 1941TIP3    H1 5787   6.881   3.725   0.905
 1941TIP3    H2 5788   6.908   3.578   0.882
 1942TIP3   OH2 5789   5.762   1.878   3.092
 1942TIP3    H1 5790   5.743   1.964   3.130
 1942TIP3    H2 5791   5.753   1.891   2.998
 1943TIP3   OH2 5792   6.943   4.097   0.854
 1943TIP3    H1 5793   6.915   4.172   0.908
 1943TIP3    H2 5794   6.997   4.136   0.785
 1944TIP3   OH2 5795   5.938   1.251   5.883
 1944TIP3    H1 5796   5.970   1.288   5.800
 1944TIP3    H2 5797   5.977   1.307   5.950
 1945TIP3   OH2 5798   2.804   0.590   3.808
 1945TIP3    H1 5799   2.893   0.620   3.793
 1945TIP3    H2 5800   2.760   0.663   3.851
 1946TIP3   OH2 5801   4.977   0.332   2.299
 1946TIP3    H1 5802   4.949   0.415   2.260
 1946TIP3    H2 5803   5.072   0.332   2.289
 1947TIP3   OH2 5804   0.296   1.209   3.583
 1947TIP3    H1 5805   0.267   1.199   3.674
 1947TIP3    H2 5806   0.388   1.183   3.585
 1948TIP3   OH2 5807   1.483   1.970   3.898
 1948TIP3    H1 5808   1.450   1.997   3.983
 1948TIP3    H2 5809   1.452   2.038   3.838
 1949TIP3   OH2 5810   3.114   0.410   3.372
 1949TIP3    H1 5811   3.171   0.484   3.350
 1949TIP3    H2 5812   3.026   0.448   3.377
 1950TIP3   OH2 5813   3.655   4.071   3.335
 1950TIP3    H1 5814   3.634   4.005   3.268
 1950TIP3    H2 5815   3.585   4.136   3.326
 1951TIP3   OH2 5816   5.379   2.356   2.079
 1951TIP3    H1 5817   5.400   2.277   2.029
 1951TIP3    H2 5818   5.419   2.427   2.028
 1952TIP3   OH2 5819   6.260   3.316   3.579
 1952TIP3    H1 5820   6.175   3.355   3.558
 1952TIP3    H2 5821   6.277   3.255   3.507
 1953TIP3   OH2 5822   6.964   1.005   4.314
 1953TIP3    H1 5823   6.977   1.053   4.396
 1953TIP3    H2 5824   6.939   1.072   4.250
 1954TIP3   OH2 5825   0.369   0.319   5.092
 1954TIP3    H1 5826   0.403   0.402   5.123
 1954TIP3    H2 5827   0.291   0.343   5.041
 1955TIP3   OH2 5828   1.218   0.378   3.135
 1955TIP3    H1 5829   1.126   0.396   3.156
 1955TIP3    H2 5830   1.227   0.283   3.143
 1956TIP3   OH2 5831   6.468   5.047   2.307
 1956TIP3    H1 5832   6.513   5.056   2.391
 1956TIP3    H2 5833   6.375   5.047   2.329
 1957TIP3   OH2 5834   6.054   5.658   1.299
 1957TIP3    H1 5835   6.094   5.725   1.355
 1957TIP3    H2 5836   6.023   5.706   1.222
 1958TIP3   OH2 5837   1.908   4.682   4.760
 1958TIP3    H1 5838   1.874   4.765   4.727
 1958TIP3    H2 5839   1.951   4.642   4.684
 1959TIP3   OH2 5840   0.624   6.748   4.645
 1959TIP3    H1 5841   0.585   6.738   4.558
 1959TIP3    H2 5842   0.673   6.830   4.640
 1960TIP3   OH2 5843   1.067   4.632   4.478
 1960TIP3    H1 5844   1.103   4.565   4.421
 1960TIP3    H2 5845   1.139   4.693   4.493
 1961TIP3   OH2 5846   0.297   0.052   3.991
 1961TIP3    H1 5847   0.331   0.020   3.907
 1961TIP3    H2 5848   0.208   0.082   3.970
 1962TIP3   OH2 5849   6.562   5.622   2.594
 1962TIP3    H1 5850   6.554   5.681   2.518
 1962TIP3    H2 5851   6.594   5.540   2.557
 1963TIP3   OH2 5852   2.356   0.526   2.451
 1963TIP3    H1 5853   2.371   0.447   2.503
 1963TIP3    H2 5854   2.443   0.550   2.419
 1964TIP3   OH2 5855   1.605   4.919   0.344
 1964TIP3    H1 5856   1.560   5.002   0.354
 1964TIP3    H2 5857   1.554   4.871   0.279
 1965TIP3   OH2 5858   6.584   3.500   1.871
 1965TIP3    H1 5859   6.516   3.544   1.819
 1965TIP3    H2 5860   6.619   3.569   1.927
 1966TIP3   OH2 5861   3.142   5.615   5.432
 1966TIP3    H1 5862   3.179   5.645   5.348
 1966TIP3    H2 5863   3.062   5.667   5.442
 1967TIP3   OH2 5864   3.411   5.487   5.816
 1967TIP3    H1 5865   3.487   5.436   5.788
 1967TIP3    H2 5866   3.351   5.422   5.852
 1968TIP3   OH2 5867   3.395   2.943   2.727
 1968TIP3    H1 5868   3.302   2.963   2.737
 1968TIP3    H2 5869   3.417   2.892   2.805
 1969TIP3   OH2 5870   4.571   6.524   4.286
 1969TIP3    H1 5871   4.476   6.526   4.294
 1969TIP3    H2 5872   4.591   6.585   4.215
 1970TIP3   OH2 5873   1.721   2.477   0.452
 1970TIP3    H1 5874   1.714   2.385   0.475
 1970TIP3    H2 5875   1.787   2.513   0.512
 1971TIP3   OH2 5876   4.322   6.324   1.624
 1971TIP3    H1 5877   4.240   6.365   1.596
 1971TIP3    H2 5878   4.352   6.277   1.546
 1972TIP3   OH2 5879   1.148   0.943   0.578
 1972TIP3    H1 5880   1.139   1.009   0.647
 1972TIP3    H2 5881   1.106   0.865   0.614
 1973TIP3   OH2 5882   3.652   2.326   2.481
 1973TIP3    H1 5883   3.739   2.353   2.511
 1973TIP3    H2 5884   3.659   2.232   2.469
 1974TIP3   OH2 5885   2.683   2.029   4.852
 1974TIP3    H1 5886   2.757   2.075   4.811
 1974TIP3    H2 5887   2.645   1.977   4.781
 1975TIP3   OH2 5888   2.728   4.269   3.737
 1975TIP3    H1 5889   2.763   4.287   3.650
 1975TIP3    H2 5890   2.795   4.214   3.779
 1976TIP3   OH2 5891   0.263   3.463   5.360
 1976TIP3    H1 5892   0.204   3.533   5.388
 1976TIP3    H2 5893   0.338   3.508   5.321
 1977TIP3   OH2 5894   5.268   4.838   3.928
 1977TIP3    H1 5895   5.268   4.798   3.841
 1977TIP3    H2 5896   5.316   4.776   3.983
 1978TIP3   OH2 5897   0.823   5.894   0.751
 1978TIP3    H1 5898   0.804   5.955   0.679
 1978TIP3    H2 5899   0.903   5.849   0.722
 1979TIP3   OH2 5900   3.318   3.741   4.257
 1979TIP3    H1 5901   3.301   3.678   4.328
 1979TIP3    H2 5902   3.314   3.827   4.300
 1980TIP3   OH2 5903   0.967   2.473   1.533
 1980TIP3    H1 5904   1.004   2.464   1.621
 1980TIP3    H2 5905   0.873   2.483   1.548
 1981TIP3   OH2 5906   6.660   6.276   5.291
 1981TIP3    H1 5907   6.582   6.318   5.328
 1981TIP3    H2 5908   6.652   6.184   5.317
 1982TIP3   OH2 5909   0.794   6.461   2.854
 1982TIP3    H1 5910   0.837   6.546   2.867
 1982TIP3    H2 5911   0.751   6.443   2.937
 1983TIP3   OH2 5912   4.248   0.154   5.842
 1983TIP3    H1 5913   4.255   0.090   5.771
 1983TIP3    H2 5914   4.177   0.212   5.816
 1984TIP3   OH2 5915   4.085   4.220   2.244
 1984TIP3    H1 5916   4.179   4.235   2.238
 1984TIP3    H2 5917   4.046   4.294   2.198
 1985TIP3   OH2 5918   1.759   3.042   0.730
 1985TIP3    H1 5919   1.853   3.039   0.745
 1985TIP3    H2 5920   1.720   3.044   0.817
 1986TIP3   OH2 5921   1.218   4.333   1.244
 1986TIP3    H1 5922   1.180   4.342   1.331
 1986TIP3    H2 5923   1.172   4.398   1.190
 1987TIP3   OH2 5924   1.047   4.501   4.733
 1987TIP3    H1 5925   0.981   4.510   4.664
 1987TIP3    H2 5926   1.086   4.588   4.742
 1988TIP3   OH2 5927   0.702   0.938   4.446
 1988TIP3    H1 5928   0.677   1.030   4.447
 1988TIP3    H2 5929   0.785   0.935   4.494
 1989TIP3   OH2 5930   4.888   1.459   4.792
 1989TIP3    H1 5931   4.801   1.496   4.805
 1989TIP3    H2 5932   4.872   1.376   4.748
 1990TIP3   OH2 5933   6.295   3.796   5.361
 1990TIP3    H1 5934   6.375   3.747   5.382
 1990TIP3    H2 5935   6.288   3.791   5.266
 1991TIP3   OH2 5936   3.837   4.467   1.349
 1991TIP3    H1 5937   3.765   4.416   1.312
 1991TIP3    H2 5938   3.840   4.441   1.441
 1992TIP3   OH2 5939   3.086   1.539   5.216
 1992TIP3    H1 5940   3.163   1.580   5.178
 1992TIP3    H2 5941   3.119   1.492   5.292
 1993TIP3   OH2 5942   5.461   4.591   0.632
 1993TIP3    H1 5943   5.465   4.496   0.617
 1993TIP3    H2 5944   5.394   4.622   0.571
 1994TIP3   OH2 5945   5.067   4.521   2.874
 1994TIP3    H1 5946   5.020   4.547   2.953
 1994TIP3    H2 5947   5.004   4.468   2.825
 1995TIP3   OH2 5948   3.495   4.528   2.476
 1995TIP3    H1 5949   3.498   4.565   2.388
 1995TIP3    H2 5950   3.528   4.439   2.465
 1996TIP3   OH2 5951   4.959   2.904   1.759
 1996TIP3    H1 5952   5.016   2.835   1.726
 1996TIP3    H2 5953   4.967   2.975   1.695
 1997TIP3   OH2 5954   2.761   0.927   1.948
 1997TIP3    H1 5955   2.843   0.883   1.926
 1997TIP3    H2 5956   2.778   1.019   1.929
 1998TIP3   OH2 5957   0.825   5.212   4.523
 1998TIP3    H1 5958   0.869   5.286   4.564
 1998TIP3    H2 5959   0.773   5.250   4.453
 1999TIP3   OH2 5960   4.557   1.012   0.416
 1999TIP3    H1 5961   4.616   1.004   0.491
 1999TIP3    H2 5962   4.513   0.927   0.410
 2000TIP3   OH2 5963   3.300   2.897   4.147
 2000TIP3    H1 5964   3.349   2.821   4.117
 2000TIP3    H2 5965   3.364   2.951   4.193
 2001TIP3   OH2 5966   2.590   0.197   3.319
 2001TIP3    H1 5967   2.530   0.149   3.263
 2001TIP3    H2 5968   2.547   0.281   3.334
 2002TIP3   OH2 5969   2.963   4.257   0.879
 2002TIP3    H1 5970   3.032   4.323   0.877
 2002TIP3    H2 5971   3.008   4.177   0.907
 2003TIP3   OH2 5972   7.147   6.419   0.277
 2003TIP3    H1 5973   7.144   6.496   0.334
 2003TIP3    H2 5974   7.055   6.404   0.253
 2004TIP3   OH2 5975   4.346   1.845   3.959
 2004TIP3    H1 5976   4.396   1.876   3.883
 2004TIP3    H2 5977   4.387   1.761   3.981
 2005TIP3   OH2 5978   7.208   1.640   2.161
 2005TIP3    H1 5979   7.289   1.667   2.203
 2005TIP3    H2 5980   7.139   1.678   2.216
 2006TIP3   OH2 5981   2.326   0.467   3.907
 2006TIP3    H1 5982   2.252   0.511   3.950
 2006TIP3    H2 5983   2.353   0.529   3.839
 2007TIP3   OH2 5984   0.021   5.068   4.924
 2007TIP3    H1 5985  -0.045   5.015   4.880
 2007TIP3    H2 5986   0.054   5.127   4.855
 2008TIP3   OH2 5987   4.652   4.056   1.829
 2008TIP3    H1 5988   4.707   3.985   1.794
 2008TIP3    H2 5989   4.661   4.047   1.924
 2009TIP3   OH2 5990   6.779   6.245   3.494
 2009TIP3    H1 5991   6.869   6.214   3.495
 2009TIP3    H2 5992   6.756   6.251   3.402
 2010TIP3   OH2 5993   6.850   0.487   0.372
 2010TIP3    H1 5994   6.766   0.473   0.417
 2010TIP3    H2 5995   6.888   0.563   0.416
 2011TIP3   OH2 5996   1.319   5.204   0.911
 2011TIP3    H1 5997   1.263   5.249   0.975
 2011TIP3    H2 5998   1.267   5.201   0.831
 2012TIP3   OH2 5999   3.921   3.663   4.673
 2012TIP3    H1 6000   3.972   3.724   4.618
 2012TIP3    H2 6001   3.953   3.577   4.647
 2013TIP3   OH2 6002   2.308   4.885   3.942
 2013TIP3    H1 6003   2.320   4.820   4.010
 2013TIP3    H2 6004   2.243   4.847   3.882
 2014TIP3   OH2 6005   0.306   6.755   5.697
 2014TIP3    H1 6006   0.251   6.701   5.641
 2014TIP3    H2 6007   0.374   6.790   5.639
 2015TIP3   OH2 6008   2.045   5.018   5.329
 2015TIP3    H1 6009   2.024   4.925   5.321
 2015TIP3    H2 6010   1.972   5.054   5.380
 2016TIP3   OH2 6011   5.444   2.126   1.575
 2016TIP3    H1 6012   5.538   2.110   1.568
 2016TIP3    H2 6013   5.429   2.202   1.519
 2017TIP3   OH2 6014   2.241   4.966   5.606
 2017TIP3    H1 6015   2.322   5.006   5.639
 2017TIP3    H2 6016   2.205   5.031   5.547
 2018TIP3   OH2 6017   6.827   0.442   3.720
 2018TIP3    H1 6018   6.786   0.510   3.666
 2018TIP3    H2 6019   6.861   0.489   3.796
 2019TIP3   OH2 6020   3.148   3.697   3.627
 2019TIP3    H1 6021   3.060   3.726   3.650
 2019TIP3    H2 6022   3.199   3.778   3.622
 2020TIP3   OH2 6023   6.886   1.455   2.889
 2020TIP3    H1 6024   6.962   1.445   2.946
 2020TIP3    H2 6025   6.822   1.394   2.925
 2021TIP3   OH2 6026   7.135   3.648   4.445
 2021TIP3    H1 6027   7.044   3.667   4.468
 2021TIP3    H2 6028   7.129   3.594   4.366
 2022TIP3   OH2 6029   3.762   2.631   1.873
 2022TIP3    H1 6030   3.725   2.555   1.919
 2022TIP3    H2 6031   3.832   2.662   1.931
 2023TIP3   OH2 6032   3.850   2.031   1.498
 2023TIP3    H1 6033   3.837   2.041   1.404
 2023TIP3    H2 6034   3.766   1.999   1.531
 2024TIP3   OH2 6035   1.309   2.440   2.835
 2024TIP3    H1 6036   1.306   2.411   2.926
 2024TIP3    H2 6037   1.257   2.520   2.834
 2025TIP3   OH2 6038   1.042   2.170   0.546
 2025TIP3    H1 6039   1.127   2.187   0.586
 2025TIP3    H2 6040   1.052   2.199   0.455
 2026TIP3   OH2 6041   2.241   6.307   3.054
 2026TIP3    H1 6042   2.206   6.328   3.140
 2026TIP3    H2 6043   2.256   6.392   3.012
 2027TIP3   OH2 6044   1.749   1.268   5.776
 2027TIP3    H1 6045   1.835   1.255   5.736
 2027TIP3    H2 6046   1.747   1.205   5.848
 2028TIP3   OH2 6047   2.131   6.739   5.074
 2028TIP3    H1 6048   2.120   6.648   5.047
 2028TIP3    H2 6049   2.170   6.733   5.161
 2029TIP3   OH2 6050   3.411   0.043   1.016
 2029TIP3    H1 6051   3.366   0.020   1.097
 2029TIP3    H2 6052   3.355   0.109   0.975
 2030TIP3   OH2 6053   4.735   0.712   1.641
 2030TIP3    H1 6054   4.788   0.633   1.625
 2030TIP3    H2 6055   4.657   0.700   1.587
 2031TIP3   OH2 6056   5.135   6.073   3.800
 2031TIP3    H1 6057   5.203   6.140   3.805
 2031TIP3    H2 6058   5.073   6.096   3.870
 2032TIP3   OH2 6059   4.357   6.783   0.609
 2032TIP3    H1 6060   4.331   6.705   0.659
 2032TIP3    H2 6061   4.408   6.748   0.536
 2033TIP3   OH2 6062   5.245   1.263   5.510
 2033TIP3    H1 6063   5.258   1.176   5.472
 2033TIP3    H2 6064   5.267   1.323   5.438
 2034TIP3   OH2 6065   4.127   6.566   1.371
 2034TIP3    H1 6066   4.142   6.497   1.306
 2034TIP3    H2 6067   4.140   6.524   1.455
 2035TIP3   OH2 6068   5.581   1.030   4.286
 2035TIP3    H1 6069   5.628   1.104   4.249
 2035TIP3    H2 6070   5.646   0.982   4.336
 2036TIP3   OH2 6071   4.110   4.740   0.793
 2036TIP3    H1 6072   4.202   4.738   0.821
 2036TIP3    H2 6073   4.114   4.752   0.698
 2037TIP3   OH2 6074   2.853   3.216   2.154
 2037TIP3    H1 6075   2.761   3.208   2.127
 2037TIP3    H2 6076   2.899   3.151   2.102
 2038TIP3   OH2 6077   5.242   6.803   4.507
 2038TIP3    H1 6078   5.195   6.721   4.524
 2038TIP3    H2 6079   5.215   6.828   4.419
 2039TIP3   OH2 6080   2.269   0.068   3.516
 2039TIP3    H1 6081   2.273   0.029   3.429
 2039TIP3    H2 6082   2.176   0.079   3.533
 2040TIP3   OH2 6083   6.350   0.675   3.661
 2040TIP3    H1 6084   6.396   0.624   3.728
 2040TIP3    H2 6085   6.420   0.716   3.610
 2041TIP3   OH2 6086   4.425   6.660   5.075
 2041TIP3    H1 6087   4.427   6.756   5.075
 2041TIP3    H2 6088   4.514   6.635   5.051
 2042TIP3   OH2 6089   5.615   6.656   0.993
 2042TIP3    H1 6090   5.596   6.572   0.951
 2042TIP3    H2 6091   5.540   6.672   1.051
 2043TIP3   OH2 6092   0.859   3.678   2.125
 2043TIP3    H1 6093   0.931   3.639   2.174
 2043TIP3    H2 6094   0.810   3.729   2.189
 2044TIP3   OH2 6095   6.969   6.769   5.301
 2044TIP3    H1 6096   6.936   6.744   5.214
 2044TIP3    H2 6097   6.900   6.741   5.361
 2045TIP3   OH2 6098   6.490   6.182   2.821
 2045TIP3    H1 6099   6.425   6.240   2.782
 2045TIP3    H2 6100   6.552   6.241   2.863
 2046TIP3   OH2 6101   2.012   2.510   5.305
 2046TIP3    H1 6102   2.040   2.450   5.236
 2046TIP3    H2 6103   1.951   2.460   5.358
 2047TIP3   OH2 6104   6.312   3.866   5.095
 2047TIP3    H1 6105   6.379   3.933   5.107
 2047TIP3    H2 6106   6.261   3.896   5.020
 2048TIP3   OH2 6107   2.697   3.855   0.452
 2048TIP3    H1 6108   2.727   3.893   0.535
 2048TIP3    H2 6109   2.754   3.894   0.386
 2049TIP3   OH2 6110   5.289   1.510   4.477
 2049TIP3    H1 6111   5.222   1.553   4.530
 2049TIP3    H2 6112   5.334   1.451   4.538
 2050TIP3   OH2 6113   7.152   3.406   0.258
 2050TIP3    H1 6114   7.118   3.351   0.188
 2050TIP3    H2 6115   7.150   3.350   0.336
 2051TIP3   OH2 6116   2.223   0.302   1.528
 2051TIP3    H1 6117   2.139   0.259   1.546
 2051TIP3    H2 6118   2.199   0.388   1.493
 2052TIP3   OH2 6119   4.483   4.048   4.867
 2052TIP3    H1 6120   4.449   4.044   4.957
 2052TIP3    H2 6121   4.563   4.101   4.874
 2053TIP3   OH2 6122   6.434   3.208   5.395
 2053TIP3    H1 6123   6.390   3.294   5.390
 2053TIP3    H2 6124   6.389   3.155   5.330
 2054TIP3   OH2 6125   3.569   4.466   0.148
 2054TIP3    H1 6126   3.504   4.399   0.127
 2054TIP3    H2 6127   3.546   4.494   0.237
 2055TIP3   OH2 6128   1.323   1.538   2.254
 2055TIP3    H1 6129   1.389   1.589   2.207
 2055TIP3    H2 6130   1.350   1.447   2.241
 2056TIP3   OH2 6131   2.506   3.644   5.246
 2056TIP3    H1 6132   2.486   3.551   5.236
 2056TIP3    H2 6133   2.602   3.647   5.249
 2057TIP3   OH2 6134   2.470   6.724   3.543
 2057TIP3    H1 6135   2.414   6.802   3.552
 2057TIP3    H2 6136   2.480   6.712   3.449
 2058TIP3   OH2 6137   3.633   3.544   5.560
 2058TIP3    H1 6138   3.667   3.456   5.545
 2058TIP3    H2 6139   3.560   3.531   5.621
 2059TIP3   OH2 6140   3.684   1.428   3.157
 2059TIP3    H1 6141   3.608   1.487   3.157
 2059TIP3    H2 6142   3.686   1.392   3.068
 2060TIP3   OH2 6143   4.645   2.503   4.877
 2060TIP3    H1 6144   4.730   2.541   4.857
 2060TIP3    H2 6145   4.581   2.564   4.839
 2061TIP3   OH2 6146   5.964   4.860   3.160
 2061TIP3    H1 6147   5.872   4.884   3.170
 2061TIP3    H2 6148   5.962   4.774   3.117
 2062TIP3   OH2 6149   1.288   5.245   1.348
 2062TIP3    H1 6150   1.288   5.338   1.372
 2062TIP3    H2 6151   1.321   5.200   1.426
 2063TIP3   OH2 6152   1.558   5.048   2.534
 2063TIP3    H1 6153   1.635   4.991   2.529
 2063TIP3    H2 6154   1.594   5.137   2.530
 2064TIP3   OH2 6155   1.948   0.238   5.332
 2064TIP3    H1 6156   1.867   0.237   5.383
 2064TIP3    H2 6157   1.981   0.327   5.342
 2065TIP3   OH2 6158   5.654   5.229   0.264
 2065TIP3    H1 6159   5.737   5.275   0.250
 2065TIP3    H2 6160   5.658   5.201   0.355
 2066TIP3   OH2 6161   6.925   5.775   4.889
 2066TIP3    H1 6162   6.832   5.790   4.873
 2066TIP3    H2 6163   6.938   5.682   4.869
 2067TIP3   OH2 6164   4.515   0.342   1.462
 2067TIP3    H1 6165   4.581   0.278   1.489
 2067TIP3    H2 6166   4.483   0.309   1.378
 2068TIP3   OH2 6167   4.284   0.670   1.664
 2068TIP3    H1 6168   4.215   0.653   1.729
 2068TIP3    H2 6169   4.298   0.585   1.622
 2069TIP3   OH2 6170   1.494   2.399   0.966
 2069TIP3    H1 6171   1.517   2.395   1.059
 2069TIP3    H2 6172   1.410   2.354   0.960
 2070TIP3   OH2 6173   0.785   1.163   1.561
 2070TIP3    H1 6174   0.719   1.202   1.618
 2070TIP3    H2 6175   0.863   1.156   1.616
 2071TIP3   OH2 6176   0.952   2.524   3.920
 2071TIP3    H1 6177   0.960   2.612   3.885
 2071TIP3    H2 6178   0.905   2.475   3.852
 2072TIP3   OH2 6179   3.267   0.759   2.212
 2072TIP3    H1 6180   3.185   0.752   2.261
 2072TIP3    H2 6181   3.256   0.699   2.138
 2073TIP3   OH2 6182   2.926   6.492   4.277
 2073TIP3    H1 6183   2.961   6.416   4.229
 2073TIP3    H2 6184   2.891   6.455   4.358
 2074TIP3   OH2 6185   4.620   1.387   4.589
 2074TIP3    H1 6186   4.538   1.374   4.543
 2074TIP3    H2 6187   4.669   1.305   4.574
 2075TIP3   OH2 6188   6.493   4.621   0.704
 2075TIP3    H1 6189   6.578   4.600   0.663
 2075TIP3    H2 6190   6.513   4.629   0.797
 2076TIP3   OH2 6191   4.646   3.991   3.741
 2076TIP3    H1 6192   4.701   4.037   3.678
 2076TIP3    H2 6193   4.639   4.051   3.815
 2077TIP3   OH2 6194   1.832   5.126   5.483
 2077TIP3    H1 6195   1.740   5.103   5.468
 2077TIP3    H2 6196   1.849   5.096   5.572
 2078TIP3   OH2 6197   0.605   1.429   0.464
 2078TIP3    H1 6198   0.527   1.467   0.422
 2078TIP3    H2 6199   0.618   1.483   0.542
 2079TIP3   OH2 6200   7.166   2.263   0.547
 2079TIP3    H1 6201   7.098   2.198   0.532
 2079TIP3    H2 6202   7.248   2.216   0.531
 2080TIP3   OH2 6203   0.234   6.593   3.301
 2080TIP3    H1 6204   0.294   6.630   3.365
 2080TIP3    H2 6205   0.152   6.640   3.313
 2081TIP3   OH2 6206   3.523   0.731   2.348
 2081TIP3    H1 6207   3.460   0.715   2.278
 2081TIP3    H2 6208   3.568   0.811   2.322
 2082TIP3   OH2 6209   4.051   2.187   2.945
 2082TIP3    H1 6210   4.062   2.244   2.869
 2082TIP3    H2 6211   4.023   2.246   3.015
 2083TIP3   OH2 6212   1.571   6.086   2.138
 2083TIP3    H1 6213   1.583   5.991   2.128
 2083TIP3    H2 6214   1.659   6.119   2.159
 2084TIP3   OH2 6215   6.877   2.908   0.465
 2084TIP3    H1 6216   6.810   2.886   0.401
 2084TIP3    H2 6217   6.848   2.991   0.503
 2085TIP3   OH2 6218   0.003   6.826   1.569
 2085TIP3    H1 6219   0.043   6.817   1.483
 2085TIP3    H2 6220   0.038   6.753   1.620
 2086TIP3   OH2 6221   5.068   3.838   2.225
 2086TIP3    H1 6222   5.135   3.842   2.293
 2086TIP3    H2 6223   5.036   3.747   2.229
 2087TIP3   OH2 6224   6.766   2.659   1.934
 2087TIP3    H1 6225   6.751   2.703   1.850
 2087TIP3    H2 6226   6.842   2.603   1.918
 2088TIP3   OH2 6227   4.367   5.427   0.213
 2088TIP3    H1 6228   4.436   5.432   0.279
 2088TIP3    H2 6229   4.407   5.381   0.139
 2089TIP3   OH2 6230   4.204   6.062   0.786
 2089TIP3    H1 6231   4.195   5.968   0.772
 2089TIP3    H2 6232   4.280   6.071   0.843
 2090TIP3   OH2 6233   4.205   5.573   4.504
 2090TIP3    H1 6234   4.123   5.554   4.552
 2090TIP3    H2 6235   4.198   5.665   4.480
 2091TIP3   OH2 6236   3.730   4.513   4.762
 2091TIP3    H1 6237   3.782   4.432   4.762
 2091TIP3    H2 6238   3.795   4.582   4.748
 2092TIP3   OH2 6239   5.497   0.267   3.334
 2092TIP3    H1 6240   5.589   0.241   3.332
 2092TIP3    H2 6241   5.457   0.210   3.400
 2093TIP3   OH2 6242   4.439   2.440   2.487
 2093TIP3    H1 6243   4.390   2.358   2.496
 2093TIP3    H2 6244   4.530   2.413   2.479
 2094TIP3   OH2 6245   1.971   2.826   0.437
 2094TIP3    H1 6246   1.949   2.879   0.360
 2094TIP3    H2 6247   1.923   2.744   0.423
 2095TIP3   OH2 6248   4.476   1.951   0.169
 2095TIP3    H1 6249   4.499   1.878   0.226
 2095TIP3    H2 6250   4.420   2.007   0.222
 2096TIP3   OH2 6251   7.068   6.363   5.770
 2096TIP3    H1 6252   7.016   6.292   5.806
 2096TIP3    H2 6253   7.015   6.442   5.786
 2097TIP3   OH2 6254   0.099   6.349   5.676
 2097TIP3    H1 6255   0.010   6.348   5.712
 2097TIP3    H2 6256   0.105   6.431   5.629
 2098TIP3   OH2 6257   0.450   0.549   5.237
 2098TIP3    H1 6258   0.439   0.482   5.305
 2098TIP3    H2 6259   0.475   0.628   5.285
 2099TIP3   OH2 6260   5.210   2.109   1.120
 2099TIP3    H1 6261   5.145   2.180   1.126
 2099TIP3    H2 6262   5.240   2.113   1.030
 2100TIP3   OH2 6263   0.439   2.707   2.242
 2100TIP3    H1 6264   0.485   2.655   2.177
 2100TIP3    H2 6265   0.482   2.686   2.325
 2101TIP3   OH2 6266   0.976   5.368   4.742
 2101TIP3    H1 6267   1.031   5.430   4.790
 2101TIP3    H2 6268   0.955   5.300   4.806
 2102TIP3   OH2 6269   2.558   1.466   2.348
 2102TIP3    H1 6270   2.602   1.393   2.391
 2102TIP3    H2 6271   2.628   1.514   2.304
 2103TIP3   OH2 6272   0.971   3.614   1.566
 2103TIP3    H1 6273   0.894   3.560   1.549
 2103TIP3    H2 6274   0.968   3.634   1.659
 2104TIP3   OH2 6275   5.576   3.993   0.364
 2104TIP3    H1 6276   5.487   3.997   0.329
 2104TIP3    H2 6277   5.576   3.915   0.419
 2105TIP3   OH2 6278   2.093   2.084   4.173
 2105TIP3    H1 6279   2.106   2.121   4.086
 2105TIP3    H2 6280   2.111   2.156   4.233
 2106TIP3   OH2 6281   6.817   1.097   3.403
 2106TIP3    H1 6282   6.764   1.122   3.479
 2106TIP3    H2 6283   6.769   1.025   3.363
 2107TIP3   OH2 6284   2.467   1.863   0.495
 2107TIP3    H1 6285   2.511   1.938   0.456
 2107TIP3    H2 6286   2.462   1.885   0.588
 2108TIP3   OH2 6287   3.782   3.013   2.812
 2108TIP3    H1 6288   3.770   3.074   2.738
 2108TIP3    H2 6289   3.737   3.056   2.885
 2109TIP3   OH2 6290   5.765   3.419   5.136
 2109TIP3    H1 6291   5.706   3.488   5.167
 2109TIP3    H2 6292   5.800   3.380   5.215
 2110TIP3   OH2 6293   4.570   0.622   1.138
 2110TIP3    H1 6294   4.488   0.652   1.177
 2110TIP3    H2 6295   4.566   0.652   1.048
 2111TIP3   OH2 6296   1.690   1.370   4.628
 2111TIP3    H1 6297   1.708   1.276   4.618
 2111TIP3    H2 6298   1.599   1.380   4.602
 2112TIP3   OH2 6299   5.431   5.614   1.271
 2112TIP3    H1 6300   5.397   5.568   1.348
 2112TIP3    H2 6301   5.521   5.583   1.262
 2113TIP3   OH2 6302   4.491   5.691   0.735
 2113TIP3    H1 6303   4.546   5.663   0.808
 2113TIP3    H2 6304   4.503   5.786   0.731
 2114TIP3   OH2 6305   4.560   6.020   4.646
 2114TIP3    H1 6306   4.493   6.084   4.620
 2114TIP3    H2 6307   4.514   5.936   4.646
 2115TIP3   OH2 6308   1.492   3.717   4.257
 2115TIP3    H1 6309   1.439   3.794   4.236
 2115TIP3    H2 6310   1.518   3.730   4.348
 2116TIP3   OH2 6311   5.800   5.731   5.607
 2116TIP3    H1 6312   5.740   5.795   5.646
 2116TIP3    H2 6313   5.797   5.749   5.513
 2117TIP3   OH2 6314   3.309   2.294   1.269
 2117TIP3    H1 6315   3.368   2.351   1.220
 2117TIP3    H2 6316   3.357   2.212   1.279
 2118TIP3   OH2 6317   3.827   2.646   2.622
 2118TIP3    H1 6318   3.900   2.708   2.632
 2118TIP3    H2 6319   3.751   2.701   2.605
 2119TIP3   OH2 6320   5.710   1.565   0.177
 2119TIP3    H1 6321   5.793   1.594   0.138
 2119TIP3    H2 6322   5.660   1.645   0.189
 2120TIP3   OH2 6323   2.598   4.493   5.321
 2120TIP3    H1 6324   2.635   4.532   5.241
 2120TIP3    H2 6325   2.620   4.556   5.390
 2121TIP3   OH2 6326   1.986   6.119   2.632
 2121TIP3    H1 6327   2.045   6.194   2.641
 2121TIP3    H2 6328   1.978   6.084   2.720
 2122TIP3   OH2 6329   4.128   0.727   4.680
 2122TIP3    H1 6330   4.038   0.708   4.705
 2122TIP3    H2 6331   4.153   0.653   4.624
 2123TIP3   OH2 6332   0.386   6.229   3.794
 2123TIP3    H1 6333   0.334   6.250   3.717
 2123TIP3    H2 6334   0.415   6.314   3.827
 2124TIP3   OH2 6335   6.211   1.743   4.694
 2124TIP3    H1 6336   6.253   1.657   4.693
 2124TIP3    H2 6337   6.117   1.723   4.691
 2125TIP3   OH2 6338   2.217   6.246   4.464
 2125TIP3    H1 6339   2.209   6.303   4.540
 2125TIP3    H2 6340   2.286   6.183   4.488
 2126TIP3   OH2 6341   1.250   6.389   0.517
 2126TIP3    H1 6342   1.277   6.321   0.579
 2126TIP3    H2 6343   1.267   6.472   0.563
 2127TIP3   OH2 6344   0.496   5.622  -0.012
 2127TIP3    H1 6345   0.516   5.658   0.074
 2127TIP3    H2 6346   0.425   5.676  -0.045
 2128TIP3   OH2 6347   5.958   0.638   2.700
 2128TIP3    H1 6348   6.040   0.667   2.741
 2128TIP3    H2 6349   5.983   0.612   2.612
 2129TIP3   OH2 6350   4.912   3.417   5.210
 2129TIP3    H1 6351   4.961   3.386   5.286
 2129TIP3    H2 6352   4.861   3.490   5.242
 2130TIP3   OH2 6353   3.587   6.144   1.726
 2130TIP3    H1 6354   3.652   6.148   1.655
 2130TIP3    H2 6355   3.505   6.171   1.684
 2131TIP3   OH2 6356   0.947   6.440   2.286
 2131TIP3    H1 6357   0.929   6.363   2.339
 2131TIP3    H2 6358   1.019   6.414   2.228
 2132TIP3   OH2 6359   0.349   1.663   5.576
 2132TIP3    H1 6360   0.265   1.632   5.540
 2132TIP3    H2 6361   0.326   1.701   5.661
 2133TIP3   OH2 6362   3.185   6.759   0.993
 2133TIP3    H1 6363   3.243   6.717   0.930
 2133TIP3    H2 6364   3.134   6.687   1.031
 2134TIP3   OH2 6365   3.286   0.478   1.228
 2134TIP3    H1 6366   3.286   0.388   1.261
 2134TIP3    H2 6367   3.346   0.477   1.154
 2135TIP3   OH2 6368   0.527   6.059   5.558
 2135TIP3    H1 6369   0.620   6.072   5.540
 2135TIP3    H2 6370   0.517   6.084   5.650
 2136TIP3   OH2 6371   1.195   2.722   3.849
 2136TIP3    H1 6372   1.192   2.817   3.860
 2136TIP3    H2 6373   1.261   2.693   3.912
 2137TIP3   OH2 6374   2.630   4.219   3.237
 2137TIP3    H1 6375   2.600   4.135   3.272
 2137TIP3    H2 6376   2.551   4.273   3.235
 2138TIP3   OH2 6377   4.270   4.039   2.981
 2138TIP3    H1 6378   4.214   3.994   2.917
 2138TIP3    H2 6379   4.219   4.038   3.062
 2139TIP3   OH2 6380   5.534   4.756   3.736
 2139TIP3    H1 6381   5.442   4.781   3.727
 2139TIP3    H2 6382   5.532   4.673   3.784
 2140TIP3   OH2 6383   1.494   4.698   0.853
 2140TIP3    H1 6384   1.553   4.664   0.787
 2140TIP3    H2 6385   1.463   4.781   0.817
 2141TIP3   OH2 6386   4.994   5.676   0.157
 2141TIP3    H1 6387   5.030   5.666   0.069
 2141TIP3    H2 6388   5.039   5.609   0.210
 2142TIP3   OH2 6389   3.187   6.626   2.646
 2142TIP3    H1 6390   3.122   6.584   2.590
 2142TIP3    H2 6391   3.264   6.570   2.639
 2143TIP3   OH2 6392   4.173   5.298   4.930
 2143TIP3    H1 6393   4.218   5.377   4.900
 2143TIP3    H2 6394   4.182   5.300   5.026
 2144TIP3   OH2 6395   6.901   3.531   2.426
 2144TIP3    H1 6396   6.852   3.450   2.435
 2144TIP3    H2 6397   6.874   3.585   2.499
 2145TIP3   OH2 6398   3.046   1.440   1.183
 2145TIP3    H1 6399   3.141   1.455   1.187
 2145TIP3    H2 6400   3.034   1.379   1.110
 2146TIP3   OH2 6401   5.663   2.199   4.018
 2146TIP3    H1 6402   5.728   2.208   4.088
 2146TIP3    H2 6403   5.601   2.270   4.034
 2147TIP3   OH2 6404   3.596   6.586   5.054
 2147TIP3    H1 6405   3.631   6.505   5.015
 2147TIP3    H2 6406   3.615   6.577   5.148
 2148TIP3   OH2 6407   5.728   4.921   2.189
 2148TIP3    H1 6408   5.750   4.845   2.244
 2148TIP3    H2 6409   5.650   4.894   2.140
 2149TIP3   OH2 6410   2.052   5.747   5.857
 2149TIP3    H1 6411   2.091   5.835   5.855
 2149TIP3    H2 6412   1.990   5.749   5.930
 2150TIP3   OH2 6413   6.580   5.177   2.101
 2150TIP3    H1 6414   6.536   5.140   2.177
 2150TIP3    H2 6415   6.667   5.138   2.103
 2151TIP3   OH2 6416   3.946   6.719   4.138
 2151TIP3    H1 6417   3.975   6.638   4.180
 2151TIP3    H2 6418   3.990   6.720   4.054
 2152TIP3   OH2 6419   5.759   0.454   1.684
 2152TIP3    H1 6420   5.771   0.461   1.779
 2152TIP3    H2 6421   5.766   0.361   1.666
 2153TIP3   OH2 6422   4.790   4.199   1.564
 2153TIP3    H1 6423   4.731   4.233   1.497
 2153TIP3    H2 6424   4.740   4.131   1.608
 2154TIP3   OH2 6425   4.210   2.833   4.810
 2154TIP3    H1 6426   4.128   2.879   4.830
 2154TIP3    H2 6427   4.183   2.755   4.763
 2155TIP3   OH2 6428   0.867   6.603   3.858
 2155TIP3    H1 6429   0.869   6.543   3.933
 2155TIP3    H2 6430   0.874   6.546   3.781
 2156TIP3   OH2 6431   0.278   5.436   2.088
 2156TIP3    H1 6432   0.291   5.462   1.996
 2156TIP3    H2 6433   0.294   5.341   2.089
 2157TIP3   OH2 6434   1.848   1.945   4.523
 2157TIP3    H1 6435   1.809   1.894   4.451
 2157TIP3    H2 6436   1.822   1.899   4.602
 2158TIP3   OH2 6437   1.357   5.336   2.590
 2158TIP3    H1 6438   1.405   5.414   2.618
 2158TIP3    H2 6439   1.332   5.354   2.499
 2159TIP3   OH2 6440   3.870   2.940   1.853
 2159TIP3    H1 6441   3.889   2.859   1.900
 2159TIP3    H2 6442   3.897   2.923   1.763
 2160TIP3   OH2 6443   2.184   4.756   1.314
 2160TIP3    H1 6444   2.176   4.837   1.263
 2160TIP3    H2 6445   2.127   4.694   1.269
 2161TIP3   OH2 6446   4.599   3.442   5.848
 2161TIP3    H1 6447   4.617   3.478   5.762
 2161TIP3    H2 6448   4.513   3.476   5.872
 2162TIP3   OH2 6449   4.814   0.762   0.780
 2162TIP3    H1 6450   4.737   0.801   0.739
 2162TIP3    H2 6451   4.886   0.782   0.720
 2163TIP3   OH2 6452   2.023   2.864   4.208
 2163TIP3    H1 6453   1.936   2.829   4.192
 2163TIP3    H2 6454   2.022   2.891   4.300
 2164TIP3   OH2 6455   6.383   0.856   1.874
 2164TIP3    H1 6456   6.404   0.781   1.929
 2164TIP3    H2 6457   6.290   0.871   1.889
 2165TIP3   OH2 6458   2.382   5.975   1.315
 2165TIP3    H1 6459   2.388   6.041   1.383
 2165TIP3    H2 6460   2.427   5.899   1.351
 2166TIP3   OH2 6461   6.982   0.264   1.626
 2166TIP3    H1 6462   6.956   0.175   1.601
 2166TIP3    H2 6463   7.067   0.277   1.584
 2167TIP3   OH2 6464   1.328   2.707   1.969
 2167TIP3    H1 6465   1.249   2.744   2.007
 2167TIP3    H2 6466   1.322   2.613   1.988
 2168TIP3   OH2 6467   0.111   3.971   1.859
 2168TIP3    H1 6468   0.124   3.925   1.942
 2168TIP3    H2 6469   0.058   3.911   1.807
 2169TIP3   OH2 6470   6.634   0.220   2.446
 2169TIP3    H1 6471   6.544   0.192   2.431
 2169TIP3    H2 6472   6.683   0.182   2.373
 2170TIP3   OH2 6473   2.213   4.176   2.140
 2170TIP3    H1 6474   2.162   4.218   2.071
 2170TIP3    H2 6475   2.151   4.164   2.211
 2171TIP3   OH2 6476   4.335   4.266   4.477
 2171TIP3    H1 6477   4.331   4.356   4.445
 2171TIP3    H2 6478   4.268   4.220   4.428
 2172TIP3   OH2 6479   3.846   6.120   5.523
 2172TIP3    H1 6480   3.811   6.066   5.451
 2172TIP3    H2 6481   3.830   6.210   5.495
 2173TIP3   OH2 6482   6.440   6.554   0.607
 2173TIP3    H1 6483   6.407   6.621   0.548
 2173TIP3    H2 6484   6.363   6.502   0.630
 2174TIP3   OH2 6485   5.057   3.637   4.240
 2174TIP3    H1 6486   4.973   3.604   4.209
 2174TIP3    H2 6487   5.115   3.562   4.239
 2175TIP3   OH2 6488   6.524   5.578   1.902
 2175TIP3    H1 6489   6.531   5.533   1.817
 2175TIP3    H2 6490   6.583   5.653   1.894
 2176TIP3   OH2 6491   2.232   3.099   5.314
 2176TIP3    H1 6492   2.324   3.116   5.333
 2176TIP3    H2 6493   2.206   3.171   5.256
 2177TIP3   OH2 6494   3.437   5.552   3.673
 2177TIP3    H1 6495   3.399   5.553   3.585
 2177TIP3    H2 6496   3.455   5.459   3.690
 2178TIP3   OH2 6497   5.254   4.500   4.928
 2178TIP3    H1 6498   5.212   4.454   4.856
 2178TIP3    H2 6499   5.182   4.541   4.977
 2179TIP3   OH2 6500   4.111   2.290   1.471
 2179TIP3    H1 6501   4.146   2.291   1.560
 2179TIP3    H2 6502   4.018   2.309   1.482
 2180TIP3   OH2 6503   6.831   4.782   1.755
 2180TIP3    H1 6504   6.746   4.825   1.755
 2180TIP3    H2 6505   6.817   4.700   1.802
 2181TIP3   OH2 6506   6.695   3.043   2.460
 2181TIP3    H1 6507   6.610   3.066   2.499
 2181TIP3    H2 6508   6.683   3.060   2.367
 2182TIP3   OH2 6509   0.856   6.620   4.489
 2182TIP3    H1 6510   0.771   6.586   4.459
 2182TIP3    H2 6511   0.833   6.694   4.545
 2183TIP3   OH2 6512   4.465   4.251   1.215
 2183TIP3    H1 6513   4.375   4.278   1.232
 2183TIP3    H2 6514   4.518   4.325   1.242
 2184TIP3   OH2 6515   5.725   1.780   1.678
 2184TIP3    H1 6516   5.709   1.863   1.634
 2184TIP3    H2 6517   5.750   1.720   1.608
 2185TIP3   OH2 6518   5.554   2.116   0.076
 2185TIP3    H1 6519   5.549   2.042   0.015
 2185TIP3    H2 6520   5.570   2.192   0.021
 2186TIP3   OH2 6521   6.172   6.498   4.094
 2186TIP3    H1 6522   6.218   6.452   4.024
 2186TIP3    H2 6523   6.149   6.429   4.156
 2187TIP3   OH2 6524   1.481   0.164   5.739
 2187TIP3    H1 6525   1.559   0.216   5.759
 2187TIP3    H2 6526   1.441   0.148   5.825
 2188TIP3   OH2 6527   0.544   5.702   5.810
 2188TIP3    H1 6528   0.471   5.742   5.858
 2188TIP3    H2 6529   0.515   5.703   5.719
 2189TIP3   OH2 6530   6.757   1.061   5.787
 2189TIP3    H1 6531   6.670   1.044   5.752
 2189TIP3    H2 6532   6.779   1.149   5.756
 2190TIP3   OH2 6533   6.753   3.893   2.827
 2190TIP3    H1 6534   6.774   3.943   2.906
 2190TIP3    H2 6535   6.698   3.821   2.857
 2191TIP3   OH2 6536   7.116   0.537   3.482
 2191TIP3    H1 6537   7.071   0.515   3.564
 2191TIP3    H2 6538   7.207   0.552   3.508
 2192TIP3   OH2 6539   6.777   4.056   3.075
 2192TIP3    H1 6540   6.692   4.041   3.116
 2192TIP3    H2 6541   6.840   4.040   3.145
 2193TIP3   OH2 6542   2.987   1.104   3.889
 2193TIP3    H1 6543   3.061   1.144   3.934
 2193TIP3    H2 6544   2.961   1.031   3.945
 2194TIP3   OH2 6545   6.501   5.725   2.338
 2194TIP3    H1 6546   6.461   5.680   2.263
 2194TIP3    H2 6547   6.540   5.804   2.301
 2195TIP3   OH2 6548   5.273   3.597   0.448
 2195TIP3    H1 6549   5.345   3.644   0.489
 2195TIP3    H2 6550   5.311   3.514   0.420
 2196TIP3   OH2 6551   5.935   5.718   1.821
 2196TIP3    H1 6552   5.908   5.654   1.755
 2196TIP3    H2 6553   5.909   5.679   1.905
 2197TIP3   OH2 6554   2.311   3.427   2.112
 2197TIP3    H1 6555   2.226   3.424   2.068
 2197TIP3    H2 6556   2.303   3.363   2.182
 2198TIP3   OH2 6557   2.761   5.869   1.587
 2198TIP3    H1 6558   2.818   5.907   1.653
 2198TIP3    H2 6559   2.802   5.786   1.563
 2199TIP3   OH2 6560   3.895   1.004   1.381
 2199TIP3    H1 6561   3.900   0.912   1.408
 2199TIP3    H2 6562   3.981   1.040   1.403
 2200TIP3   OH2 6563   0.732   6.039   0.970
 2200TIP3    H1 6564   0.767   5.986   0.898
 2200TIP3    H2 6565   0.688   6.113   0.927
 2201TIP3   OH2 6566   0.576   2.776   3.926
 2201TIP3    H1 6567   0.610   2.815   3.846
 2201TIP3    H2 6568   0.611   2.830   3.997
 2202TIP3   OH2 6569   4.208   5.814   1.155
 2202TIP3    H1 6570   4.184   5.727   1.123
 2202TIP3    H2 6571   4.130   5.867   1.141
 2203TIP3   OH2 6572   3.999   3.944   4.487
 2203TIP3    H1 6573   3.918   3.916   4.445
 2203TIP3    H2 6574   4.066   3.931   4.420
 2204TIP3   OH2 6575   3.192   1.528   1.467
 2204TIP3    H1 6576   3.242   1.490   1.395
 2204TIP3    H2 6577   3.116   1.567   1.425
 2205TIP3   OH2 6578   0.796   4.390   0.049
 2205TIP3    H1 6579   0.870   4.378  -0.010
 2205TIP3    H2 6580   0.751   4.305   0.049
 2206TIP3   OH2 6581   3.723   5.065   1.457
 2206TIP3    H1 6582   3.662   4.994   1.440
 2206TIP3    H2 6583   3.748   5.054   1.549
 2207TIP3   OH2 6584   3.030   4.854   1.460
 2207TIP3    H1 6585   3.093   4.825   1.526
 2207TIP3    H2 6586   3.072   4.928   1.417
 2208TIP3   OH2 6587   2.438   4.196   2.705
 2208TIP3    H1 6588   2.531   4.174   2.709
 2208TIP3    H2 6589   2.393   4.112   2.705
 2209TIP3   OH2 6590   6.917   4.086   5.404
 2209TIP3    H1 6591   6.881   4.150   5.466
 2209TIP3    H2 6592   6.986   4.042   5.452
 2210TIP3   OH2 6593   3.084   2.094   2.047
 2210TIP3    H1 6594   3.140   2.169   2.028
 2210TIP3    H2 6595   3.013   2.100   1.983
 2211TIP3   OH2 6596   0.387   2.891   5.135
 2211TIP3    H1 6597   0.363   2.905   5.043
 2211TIP3    H2 6598   0.422   2.802   5.137
 2212TIP3   OH2 6599   2.759   1.213   0.347
 2212TIP3    H1 6600   2.802   1.147   0.292
 2212TIP3    H2 6601   2.718   1.274   0.285
 2213TIP3   OH2 6602   6.289   0.735   0.740
 2213TIP3    H1 6603   6.263   0.815   0.784
 2213TIP3    H2 6604   6.333   0.765   0.660
 2214TIP3   OH2 6605   3.336   6.586   5.803
 2214TIP3    H1 6606   3.292   6.578   5.718
 2214TIP3    H2 6607   3.307   6.671   5.837
 2215TIP3   OH2 6608   6.293   2.657   2.672
 2215TIP3    H1 6609   6.329   2.603   2.602
 2215TIP3    H2 6610   6.267   2.594   2.739
 2216TIP3   OH2 6611   1.504   0.341   0.886
 2216TIP3    H1 6612   1.480   0.359   0.977
 2216TIP3    H2 6613   1.557   0.417   0.860
 2217TIP3   OH2 6614   0.012   4.995   1.186
 2217TIP3    H1 6615   0.062   4.949   1.119
 2217TIP3    H2 6616   0.078   5.032   1.245
 2218TIP3   OH2 6617   5.607   4.510   2.210
 2218TIP3    H1 6618   5.597   4.475   2.299
 2218TIP3    H2 6619   5.657   4.591   2.222
 2219TIP3   OH2 6620   2.288   0.828   2.930
 2219TIP3    H1 6621   2.200   0.798   2.955
 2219TIP3    H2 6622   2.275   0.870   2.844
 2220TIP3   OH2 6623   0.969   3.726   3.183
 2220TIP3    H1 6624   0.919   3.762   3.256
 2220TIP3    H2 6625   1.053   3.702   3.221
 2221TIP3   OH2 6626   5.842   0.047   5.053
 2221TIP3    H1 6627   5.823   0.034   4.960
 2221TIP3    H2 6628   5.901  -0.025   5.075
 2222TIP3   OH2 6629   4.653   2.989   2.205
 2222TIP3    H1 6630   4.600   2.916   2.235
 2222TIP3    H2 6631   4.705   2.954   2.132
 2223TIP3   OH2 6632   0.852   1.386   5.670
 2223TIP3    H1 6633   0.936   1.348   5.643
 2223TIP3    H2 6634   0.789   1.352   5.606
 2224TIP3   OH2 6635   6.314   3.760   3.747
 2224TIP3    H1 6636   6.296   3.832   3.808
 2224TIP3    H2 6637   6.230   3.713   3.741
 2225TIP3   OH2 6638   3.537   2.074   0.045
 2225TIP3    H1 6639   3.509   2.147  -0.010
 2225TIP3    H2 6640   3.455   2.041   0.084
 2226TIP3   OH2 6641   7.000   6.180   2.478
 2226TIP3    H1 6642   6.966   6.225   2.556
 2226TIP3    H2 6643   7.093   6.203   2.476
 2227TIP3   OH2 6644   5.189   1.837   0.048
 2227TIP3    H1 6645   5.159   1.831  -0.042
 2227TIP3    H2 6646   5.212   1.929   0.060
 2228TIP3   OH2 6647   4.308   6.541   4.281
 2228TIP3    H1 6648   4.301   6.453   4.243
 2228TIP3    H2 6649   4.272   6.599   4.214
 2229TIP3   OH2 6650   6.144   6.626   4.496
 2229TIP3    H1 6651   6.197   6.546   4.493
 2229TIP3    H2 6652   6.107   6.625   4.584
 2230TIP3   OH2 6653   4.092   6.117   4.053
 2230TIP3    H1 6654   4.078   6.043   4.111
 2230TIP3    H2 6655   4.157   6.087   3.990
 2231TIP3   OH2 6656   0.875   5.584   5.104
 2231TIP3    H1 6657   0.795   5.537   5.081
 2231TIP3    H2 6658   0.859   5.674   5.073
 2232TIP3   OH2 6659   0.625   3.399   4.039
 2232TIP3    H1 6660   0.594   3.487   4.016
 2232TIP3    H2 6661   0.560   3.340   4.002
 2233TIP3   OH2 6662   4.019   1.726   4.423
 2233TIP3    H1 6663   4.010   1.631   4.417
 2233TIP3    H2 6664   4.070   1.751   4.346
 2234TIP3   OH2 6665   0.493   1.826   4.046
 2234TIP3    H1 6666   0.553   1.840   4.119
 2234TIP3    H2 6667   0.472   1.915   4.016
 2235TIP3   OH2 6668   6.333   2.489   0.734
 2235TIP3    H1 6669   6.351   2.411   0.787
 2235TIP3    H2 6670   6.270   2.539   0.786
 2236TIP3   OH2 6671   0.608   1.255   5.425
 2236TIP3    H1 6672   0.580   1.347   5.432
 2236TIP3    H2 6673   0.688   1.259   5.372
 2237TIP3   OH2 6674   5.219   5.252   4.522
 2237TIP3    H1 6675   5.309   5.236   4.549
 2237TIP3    H2 6676   5.190   5.325   4.576
 2238TIP3   OH2 6677   0.127   3.693   3.247
 2238TIP3    H1 6678   0.111   3.674   3.339
 2238TIP3    H2 6679   0.053   3.746   3.219
 2239TIP3   OH2 6680   1.516   4.812   4.783
 2239TIP3    H1 6681   1.575   4.751   4.827
 2239TIP3    H2 6682   1.471   4.760   4.718
 2240TIP3   OH2 6683   4.079   1.181   5.298
 2240TIP3    H1 6684   4.029   1.145   5.372
 2240TIP3    H2 6685   4.030   1.154   5.221
 2241TIP3   OH2 6686   0.728   3.220   2.671
 2241TIP3    H1 6687   0.697   3.284   2.735
 2241TIP3    H2 6688   0.798   3.266   2.623
 2242TIP3   OH2 6689   4.092   2.811   3.529
 2242TIP3    H1 6690   4.162   2.783   3.471
 2242TIP3    H2 6691   4.015   2.819   3.472
 2243TIP3   OH2 6692   0.373   4.746   1.105
 2243TIP3    H1 6693   0.440   4.743   1.037
 2243TIP3    H2 6694   0.355   4.839   1.119
 2244TIP3   OH2 6695   1.247   2.602   5.717
 2244TIP3    H1 6696   1.223   2.540   5.785
 2244TIP3    H2 6697   1.280   2.679   5.764
 2245TIP3   OH2 6698   7.238   5.134   3.676
 2245TIP3    H1 6699   7.150   5.158   3.646
 2245TIP3    H2 6700   7.251   5.045   3.643
 2246TIP3   OH2 6701   3.927   5.232   4.317
 2246TIP3    H1 6702   3.912   5.180   4.239
 2246TIP3    H2 6703   4.004   5.192   4.359
 2247TIP3   OH2 6704   6.388   0.092   2.371
 2247TIP3    H1 6705   6.378   0.117   2.279
 2247TIP3    H2 6706   6.299   0.097   2.406
 2248TIP3   OH2 6707   0.222   3.224   2.210
 2248TIP3    H1 6708   0.242   3.274   2.132
 2248TIP3    H2 6709   0.140   3.179   2.189
 2249TIP3   OH2 6710   5.336   3.865   5.230
 2249TIP3    H1 6711   5.322   3.782   5.184
 2249TIP3    H2 6712   5.430   3.871   5.242
 2250TIP3   OH2 6713   1.238   3.261   3.228
 2250TIP3    H1 6714   1.288   3.180   3.220
 2250TIP3    H2 6715   1.272   3.302   3.308
 2251TIP3   OH2 6716   1.478   4.893   2.730
 2251TIP3    H1 6717   1.555   4.846   2.762
 2251TIP3    H2 6718   1.512   4.955   2.666
 2252TIP3   OH2 6719   5.278   0.287   4.105
 2252TIP3    H1 6720   5.210   0.241   4.154
 2252TIP3    H2 6721   5.360   0.252   4.138
 2253TIP3   OH2 6722   0.507   1.572   3.185
 2253TIP3    H1 6723   0.519   1.592   3.092
 2253TIP3    H2 6724   0.416   1.545   3.192
 2254TIP3   OH2 6725   1.985   0.717   1.001
 2254TIP3    H1 6726   2.075   0.684   0.997
 2254TIP3    H2 6727   1.930   0.639   0.996
 2255TIP3   OH2 6728   6.296   1.989   4.776
 2255TIP3    H1 6729   6.391   1.987   4.788
 2255TIP3    H2 6730   6.272   1.897   4.763
 2256TIP3   OH2 6731   4.016   3.837   4.890
 2256TIP3    H1 6732   3.974   3.922   4.873
 2256TIP3    H2 6733   3.975   3.778   4.827
 2257TIP3   OH2 6734   2.013   6.553   3.501
 2257TIP3    H1 6735   1.985   6.467   3.533
 2257TIP3    H2 6736   1.993   6.551   3.407
 2258TIP3   OH2 6737   0.569   5.977   0.174
 2258TIP3    H1 6738   0.526   6.016   0.098
 2258TIP3    H2 6739   0.563   6.044   0.242
 2259TIP3   OH2 6740   6.673   4.800   5.761
 2259TIP3    H1 6741   6.617   4.772   5.689
 2259TIP3    H2 6742   6.619   4.861   5.811
 2260TIP3   OH2 6743   2.742   1.088   3.523
 2260TIP3    H1 6744   2.780   1.153   3.582
 2260TIP3    H2 6745   2.728   1.011   3.579
 2261TIP3   OH2 6746   3.622   3.248   1.359
 2261TIP3    H1 6747   3.567   3.323   1.381
 2261TIP3    H2 6748   3.640   3.258   1.265
 2262TIP3   OH2 6749   0.214   5.713   2.916
 2262TIP3    H1 6750   0.213   5.639   2.855
 2262TIP3    H2 6751   0.302   5.750   2.907
 2263TIP3   OH2 6752   1.781   2.874   2.660
 2263TIP3    H1 6753   1.871   2.866   2.692
 2263TIP3    H2 6754   1.730   2.902   2.737
 2264TIP3   OH2 6755   1.146   1.769   1.368
 2264TIP3    H1 6756   1.118   1.758   1.459
 2264TIP3    H2 6757   1.200   1.848   1.369
 2265TIP3   OH2 6758   4.925   3.660   1.023
 2265TIP3    H1 6759   4.951   3.704   1.104
 2265TIP3    H2 6760   4.911   3.569   1.050
 2266TIP3   OH2 6761   0.112   0.392   0.233
 2266TIP3    H1 6762   0.105   0.404   0.138
 2266TIP3    H2 6763   0.021   0.379   0.262
 2267TIP3   OH2 6764   6.008   5.447   4.439
 2267TIP3    H1 6765   5.938   5.382   4.429
 2267TIP3    H2 6766   6.057   5.418   4.516
 2268TIP3   OH2 6767   3.650   6.807   3.479
 2268TIP3    H1 6768   3.578   6.834   3.422
 2268TIP3    H2 6769   3.612   6.742   3.537
 2269TIP3   OH2 6770   0.233   4.200   3.123
 2269TIP3    H1 6771   0.323   4.197   3.155
 2269TIP3    H2 6772   0.241   4.182   3.029
 2270TIP3   OH2 6773   5.454   4.447   2.673
 2270TIP3    H1 6774   5.438   4.535   2.639
 2270TIP3    H2 6775   5.439   4.455   2.767
 2271TIP3   OH2 6776   0.158   4.570   1.106
 2271TIP3    H1 6777   0.225   4.639   1.104
 2271TIP3    H2 6778   0.183   4.514   1.179
 2272TIP3   OH2 6779   6.310   2.800   0.280
 2272TIP3    H1 6780   6.287   2.742   0.353
 2272TIP3    H2 6781   6.247   2.779   0.211
 2273TIP3   OH2 6782   0.932   1.678   4.378
 2273TIP3    H1 6783   0.935   1.689   4.282
 2273TIP3    H2 6784   1.024   1.686   4.405
 2274TIP3   OH2 6785   5.599   3.941   5.233
 2274TIP3    H1 6786   5.651   3.967   5.308
 2274TIP3    H2 6787   5.647   3.975   5.157
 2275TIP3   OH2 6788   3.099   5.368   5.300
 2275TIP3    H1 6789   3.135   5.440   5.352
 2275TIP3    H2 6790   3.007   5.363   5.326
 2276TIP3   OH2 6791   5.992   2.629   5.332
 2276TIP3    H1 6792   5.904   2.613   5.299
 2276TIP3    H2 6793   5.996   2.724   5.345
 2277TIP3   OH2 6794   7.113   5.073   1.637
 2277TIP3    H1 6795   7.117   4.990   1.591
 2277TIP3    H2 6796   7.091   5.049   1.727
 2278TIP3   OH2 6797   3.990   3.192   4.278
 2278TIP3    H1 6798   3.984   3.117   4.337
 2278TIP3    H2 6799   3.942   3.261   4.323
 2279TIP3   OH2 6800   6.431   3.411   2.203
 2279TIP3    H1 6801   6.379   3.331   2.204
 2279TIP3    H2 6802   6.421   3.446   2.115
 2280TIP3   OH2 6803   4.413   0.451   4.407
 2280TIP3    H1 6804   4.493   0.413   4.443
 2280TIP3    H2 6805   4.374   0.380   4.355
 2281TIP3   OH2 6806   0.931   4.724   1.388
 2281TIP3    H1 6807   0.865   4.660   1.361
 2281TIP3    H2 6808   0.920   4.732   1.482
 2282TIP3   OH2 6809   6.657   2.566   2.556
 2282TIP3    H1 6810   6.667   2.659   2.572
 2282TIP3    H2 6811   6.644   2.528   2.643
 2283TIP3   OH2 6812   3.630   5.868   5.838
 2283TIP3    H1 6813   3.648   5.817   5.917
 2283TIP3    H2 6814   3.668   5.817   5.767
 2284TIP3   OH2 6815   4.766   3.414   2.767
 2284TIP3    H1 6816   4.763   3.347   2.698
 2284TIP3    H2 6817   4.726   3.371   2.843
 2285TIP3   OH2 6818   1.803   6.155   0.652
 2285TIP3    H1 6819   1.726   6.165   0.596
 2285TIP3    H2 6820   1.769   6.166   0.741
 2286TIP3   OH2 6821   3.581   1.919   4.801
 2286TIP3    H1 6822   3.563   1.959   4.716
 2286TIP3    H2 6823   3.596   1.994   4.859
 2287TIP3   OH2 6824   3.157   0.579   2.051
 2287TIP3    H1 6825   3.193   0.601   1.965
 2287TIP3    H2 6826   3.063   0.590   2.041
 2288TIP3   OH2 6827   4.269   6.014   3.810
 2288TIP3    H1 6828   4.273   6.067   3.730
 2288TIP3    H2 6829   4.213   5.940   3.787
 2289TIP3   OH2 6830   0.192   6.094   4.304
 2289TIP3    H1 6831   0.229   6.068   4.219
 2289TIP3    H2 6832   0.140   6.018   4.331
 2290TIP3   OH2 6833   4.112   0.730   3.302
 2290TIP3    H1 6834   4.133   0.784   3.377
 2290TIP3    H2 6835   4.131   0.640   3.330
 2291TIP3   OH2 6836   5.144   1.061   2.584
 2291TIP3    H1 6837   5.087   0.989   2.611
 2291TIP3    H2 6838   5.169   1.039   2.494
 2292TIP3   OH2 6839   5.847   4.804   0.335
 2292TIP3    H1 6840   5.789   4.771   0.404
 2292TIP3    H2 6841   5.800   4.879   0.299
 2293TIP3   OH2 6842   5.806   5.029   0.802
 2293TIP3    H1 6843   5.776   4.947   0.843
 2293TIP3    H2 6844   5.875   5.002   0.742
 2294TIP3   OH2 6845   3.896   3.240   0.178
 2294TIP3    H1 6846   3.809   3.210   0.203
 2294TIP3    H2 6847   3.906   3.214   0.087
 2295TIP3   OH2 6848   6.299   1.249   4.686
 2295TIP3    H1 6849   6.233   1.185   4.712
 2295TIP3    H2 6850   6.312   1.304   4.764
 2296TIP3   OH2 6851   1.202   4.757   4.805
 2296TIP3    H1 6852   1.200   4.809   4.724
 2296TIP3    H2 6853   1.201   4.822   4.875
 2297TIP3   OH2 6854   6.147   5.728   4.132
 2297TIP3    H1 6855   6.084   5.772   4.189
 2297TIP3    H2 6856   6.097   5.708   4.053
 2298TIP3   OH2 6857   0.405   1.481   3.553
 2298TIP3    H1 6858   0.389   1.391   3.583
 2298TIP3    H2 6859   0.486   1.506   3.597
 2299TIP3   OH2 6860   0.882   3.362   1.924
 2299TIP3    H1 6861   0.799   3.338   1.965
 2299TIP3    H2 6862   0.881   3.318   1.839
 2300TIP3   OH2 6863   1.904   0.748   3.290
 2300TIP3    H1 6864   1.886   0.733   3.197
 2300TIP3    H2 6865   1.936   0.664   3.322
 2301TIP3   OH2 6866   5.988   4.005   5.782
 2301TIP3    H1 6867   6.041   4.082   5.803
 2301TIP3    H2 6868   5.984   3.955   5.863
 2302TIP3   OH2 6869   2.321   3.853   4.080
 2302TIP3    H1 6870   2.348   3.769   4.042
 2302TIP3    H2 6871   2.270   3.895   4.011
 2303TIP3   OH2 6872   2.777   3.809   1.519
 2303TIP3    H1 6873   2.732   3.794   1.435
 2303TIP3    H2 6874   2.708   3.843   1.577
 2304TIP3   OH2 6875   0.950   3.856   5.255
 2304TIP3    H1 6876   1.013   3.888   5.320
 2304TIP3    H2 6877   0.912   3.936   5.218
 2305TIP3   OH2 6878   4.571   2.220   4.905
 2305TIP3    H1 6879   4.604   2.182   4.823
 2305TIP3    H2 6880   4.615   2.304   4.912
 2306TIP3   OH2 6881   6.595   0.089   1.680
 2306TIP3    H1 6882   6.531   0.140   1.630
 2306TIP3    H2 6883   6.541   0.036   1.739
 2307TIP3   OH2 6884   6.358   1.611   4.316
 2307TIP3    H1 6885   6.367   1.535   4.259
 2307TIP3    H2 6886   6.433   1.666   4.294
 2308TIP3   OH2 6887   5.357   4.333   3.147
 2308TIP3    H1 6888   5.293   4.266   3.124
 2308TIP3    H2 6889   5.433   4.283   3.180
 2309TIP3   OH2 6890   6.933   4.892   5.850
 2309TIP3    H1 6891   6.897   4.946   5.921
 2309TIP3    H2 6892   6.862   4.832   5.828
 2310TIP3   OH2 6893   0.755   2.899   2.302
 2310TIP3    H1 6894   0.779   2.938   2.386
 2310TIP3    H2 6895   0.809   2.946   2.238
 2311TIP3   OH2 6896   6.229   4.606   4.746
 2311TIP3    H1 6897   6.266   4.547   4.812
 2311TIP3    H2 6898   6.306   4.649   4.707
 2312TIP3   OH2 6899   2.590   0.905   5.841
 2312TIP3    H1 6900   2.682   0.922   5.860
 2312TIP3    H2 6901   2.544   0.983   5.873
 2313TIP3   OH2 6902   1.362   6.432   5.825
 2313TIP3    H1 6903   1.271   6.453   5.847
 2313TIP3    H2 6904   1.364   6.431   5.729
 2314TIP3   OH2 6905   3.928   2.001   2.586
 2314TIP3    H1 6906   3.915   2.036   2.674
 2314TIP3    H2 6907   3.997   1.936   2.596
 2315TIP3   OH2 6908   5.707   5.946   1.462
 2315TIP3    H1 6909   5.793   5.962   1.423
 2315TIP3    H2 6910   5.653   6.020   1.434
 2316TIP3   OH2 6911   3.652   3.285   1.081
 2316TIP3    H1 6912   3.738   3.307   1.045
 2316TIP3    H2 6913   3.599   3.263   1.005
 2317TIP3   OH2 6914   2.091   2.569   1.021
 2317TIP3    H1 6915   2.130   2.494   0.978
 2317TIP3    H2 6916   1.997   2.560   1.005
 2318TIP3   OH2 6917   0.374   4.704   4.049
 2318TIP3    H1 6918   0.305   4.769   4.035
 2318TIP3    H2 6919   0.442   4.725   3.985
 2319TIP3   OH2 6920   3.786   4.959   0.564
 2319TIP3    H1 6921   3.836   4.887   0.527
 2319TIP3    H2 6922   3.702   4.921   0.589
 2320TIP3   OH2 6923   1.121   0.683   1.469
 2320TIP3    H1 6924   1.152   0.750   1.529
 2320TIP3    H2 6925   1.050   0.725   1.421
 2321TIP3   OH2 6926   2.555   2.108   3.416
 2321TIP3    H1 6927   2.531   2.017   3.400
 2321TIP3    H2 6928   2.477   2.146   3.458
 2322TIP3   OH2 6929   0.299   1.351   2.229
 2322TIP3    H1 6930   0.332   1.437   2.205
 2322TIP3    H2 6931   0.358   1.289   2.185
 2323TIP3   OH2 6932   5.544   2.068   2.984
 2323TIP3    H1 6933   5.599   2.035   2.913
 2323TIP3    H2 6934   5.476   2.002   2.995
 2324TIP3   OH2 6935   2.645   0.856   1.182
 2324TIP3    H1 6936   2.597   0.906   1.249
 2324TIP3    H2 6937   2.703   0.920   1.141
 2325TIP3   OH2 6938   4.987   3.346   0.678
 2325TIP3    H1 6939   4.959   3.438   0.671
 2325TIP3    H2 6940   5.024   3.339   0.766
 2326TIP3   OH2 6941   1.164   4.911   1.611
 2326TIP3    H1 6942   1.223   4.986   1.610
 2326TIP3    H2 6943   1.079   4.948   1.631
 2327TIP3   OH2 6944   0.590   3.754   1.031
 2327TIP3    H1 6945   0.647   3.710   1.094
 2327TIP3    H2 6946   0.550   3.825   1.082
 2328TIP3   OH2 6947   5.660   1.922   5.352
 2328TIP3    H1 6948   5.576   1.941   5.394
 2328TIP3    H2 6949   5.725   1.937   5.421
 2329TIP3   OH2 6950   1.693   1.097   0.692
 2329TIP3    H1 6951   1.676   1.064   0.604
 2329TIP3    H2 6952   1.731   1.023   0.739
 2330TIP3   OH2 6953   5.348   6.164   1.546
 2330TIP3    H1 6954   5.322   6.255   1.532
 2330TIP3    H2 6955   5.336   6.122   1.461
 2331TIP3   OH2 6956   4.369   0.217   5.036
 2331TIP3    H1 6957   4.290   0.172   5.005
 2331TIP3    H2 6958   4.423   0.147   5.072
 2332TIP3   OH2 6959   7.146   4.637   2.037
 2332TIP3    H1 6960   7.114   4.636   2.127
 2332TIP3    H2 6961   7.199   4.716   2.031
 2333TIP3   OH2 6962   1.534   4.031   2.251
 2333TIP3    H1 6963   1.548   3.954   2.197
 2333TIP3    H2 6964   1.584   4.015   2.330
 2334TIP3   OH2 6965   0.668   5.488   1.358
 2334TIP3    H1 6966   0.627   5.452   1.279
 2334TIP3    H2 6967   0.758   5.454   1.356
 2335TIP3   OH2 6968   6.949   2.791   2.092
 2335TIP3    H1 6969   7.030   2.756   2.055
 2335TIP3    H2 6970   6.879   2.750   2.042
 2336TIP3   OH2 6971   3.451   1.504   0.325
 2336TIP3    H1 6972   3.411   1.589   0.344
 2336TIP3    H2 6973   3.454   1.460   0.410
 2337TIP3   OH2 6974   3.669   2.635   0.894
 2337TIP3    H1 6975   3.627   2.635   0.808
 2337TIP3    H2 6976   3.689   2.543   0.911
 2338TIP3   OH2 6977   5.658   5.736   4.644
 2338TIP3    H1 6978   5.654   5.654   4.595
 2338TIP3    H2 6979   5.747   5.737   4.680
 2339TIP3   OH2 6980   2.097   3.054   1.076
 2339TIP3    H1 6981   2.175   3.000   1.067
 2339TIP3    H2 6982   2.084   3.093   0.989
 2340TIP3   OH2 6983   2.330   3.018   4.346
 2340TIP3    H1 6984   2.399   3.078   4.374
 2340TIP3    H2 6985   2.257   3.036   4.406
 2341TIP3   OH2 6986   5.549   2.680   3.321
 2341TIP3    H1 6987   5.528   2.663   3.413
 2341TIP3    H2 6988   5.635   2.722   3.323
 2342TIP3   OH2 6989   3.514   5.005   1.791
 2342TIP3    H1 6990   3.429   5.029   1.755
 2342TIP3    H2 6991   3.561   5.088   1.802
 2343TIP3   OH2 6992   7.157   5.961   5.730
 2343TIP3    H1 6993   7.235   6.015   5.738
 2343TIP3    H2 6994   7.178   5.881   5.778
 2344TIP3   OH2 6995   4.525   1.502   0.573
 2344TIP3    H1 6996   4.506   1.433   0.509
 2344TIP3    H2 6997   4.464   1.485   0.645
 2345TIP3   OH2 6998   2.860   1.672   4.201
 2345TIP3    H1 6999   2.821   1.637   4.121
 2345TIP3    H2 7000   2.941   1.624   4.212
 2346TIP3   OH2 7001   5.844   3.663   0.545
 2346TIP3    H1 7002   5.845   3.648   0.451
 2346TIP3    H2 7003   5.751   3.666   0.568
 2347TIP3   OH2 7004   2.474   6.415   2.348
 2347TIP3    H1 7005   2.460   6.320   2.348
 2347TIP3    H2 7006   2.472   6.439   2.256
 2348TIP3   OH2 7007   1.475   0.301   5.221
 2348TIP3    H1 7008   1.486   0.207   5.207
 2348TIP3    H2 7009   1.546   0.325   5.281
 2349TIP3   OH2 7010   5.812   5.550   3.683
 2349TIP3    H1 7011   5.902   5.516   3.683
 2349TIP3    H2 7012   5.782   5.538   3.593
 2350TIP3   OH2 7013   3.608   0.469   4.378
 2350TIP3    H1 7014   3.584   0.478   4.285
 2350TIP3    H2 7015   3.638   0.378   4.386
 2351TIP3   OH2 7016   3.179   1.211   0.198
 2351TIP3    H1 7017   3.267   1.218   0.161
 2351TIP3    H2 7018   3.173   1.120   0.228
 2352TIP3   OH2 7019   1.978   4.380   5.743
 2352TIP3    H1 7020   2.056   4.371   5.798
 2352TIP3    H2 7021   1.927   4.300   5.760
 2353TIP3   OH2 7022   0.731   6.205   3.997
 2353TIP3    H1 7023   0.778   6.286   4.016
 2353TIP3    H2 7024   0.730   6.198   3.902
 2354TIP3   OH2 7025   2.029   1.085   2.287
 2354TIP3    H1 7026   2.036   1.160   2.346
 2354TIP3    H2 7027   1.936   1.062   2.288
 2355TIP3   OH2 7028   6.146   2.963   2.343
 2355TIP3    H1 7029   6.203   2.917   2.281
 2355TIP3    H2 7030   6.165   2.922   2.428
 2356TIP3   OH2 7031   0.377   1.419   1.241
 2356TIP3    H1 7032   0.351   1.507   1.265
 2356TIP3    H2 7033   0.472   1.417   1.254
 2357TIP3   OH2 7034   6.094   0.785   1.961
 2357TIP3    H1 7035   6.083   0.728   2.037
 2357TIP3    H2 7036   6.084   0.727   1.886
 2358TIP3   OH2 7037   0.833   1.489   2.586
 2358TIP3    H1 7038   0.785   1.417   2.628
 2358TIP3    H2 7039   0.765   1.538   2.540
 2359TIP3   OH2 7040   4.775   6.177   1.448
 2359TIP3    H1 7041   4.753   6.177   1.542
 2359TIP3    H2 7042   4.723   6.249   1.412
 2360TIP3   OH2 7043   6.207   2.286   5.680
 2360TIP3    H1 7044   6.192   2.378   5.662
 2360TIP3    H2 7045   6.229   2.248   5.594
 2361TIP3   OH2 7046   3.093   0.190   4.329
 2361TIP3    H1 7047   3.144   0.202   4.408
 2361TIP3    H2 7048   3.003   0.210   4.355
 2362TIP3   OH2 7049   4.174   0.519   4.526
 2362TIP3    H1 7050   4.099   0.514   4.468
 2362TIP3    H2 7051   4.250   0.520   4.468
 2363TIP3   OH2 7052   3.339   0.310   3.873
 2363TIP3    H1 7053   3.272   0.281   3.934
 2363TIP3    H2 7054   3.292   0.329   3.792
 2364TIP3   OH2 7055   3.424   4.637   5.903
 2364TIP3    H1 7056   3.515   4.665   5.892
 2364TIP3    H2 7057   3.382   4.658   5.820
 2365TIP3   OH2 7058   3.825   5.110   3.504
 2365TIP3    H1 7059   3.863   5.198   3.501
 2365TIP3    H2 7060   3.734   5.123   3.478
 2366TIP3   OH2 7061   1.317   0.313   1.679
 2366TIP3    H1 7062   1.228   0.299   1.711
 2366TIP3    H2 7063   1.306   0.320   1.584
 2367TIP3   OH2 7064   0.754   6.370   3.413
 2367TIP3    H1 7065   0.782   6.291   3.366
 2367TIP3    H2 7066   0.804   6.440   3.372
 2368TIP3   OH2 7067   1.470   2.035   5.763
 2368TIP3    H1 7068   1.550   2.072   5.727
 2368TIP3    H2 7069   1.405   2.047   5.693
 2369TIP3   OH2 7070   1.457   1.271   3.816
 2369TIP3    H1 7071   1.400   1.266   3.739
 2369TIP3    H2 7072   1.432   1.353   3.858
 2370TIP3   OH2 7073   5.608   0.932   1.119
 2370TIP3    H1 7074   5.535   0.955   1.060
 2370TIP3    H2 7075   5.603   0.997   1.189
 2371TIP3   OH2 7076   2.421   5.254   1.660
 2371TIP3    H1 7077   2.447   5.254   1.568
 2371TIP3    H2 7078   2.332   5.288   1.660
 2372TIP3   OH2 7079   6.070   1.304   5.644
 2372TIP3    H1 7080   6.061   1.242   5.572
 2372TIP3    H2 7081   6.120   1.377   5.607
 2373TIP3   OH2 7082   5.691   1.669   2.256
 2373TIP3    H1 7083   5.644   1.743   2.218
 2373TIP3    H2 7084   5.649   1.656   2.341
 2374TIP3   OH2 7085   6.296   1.525   4.850
 2374TIP3    H1 7086   6.310   1.601   4.906
 2374TIP3    H2 7087   6.213   1.488   4.881
 2375TIP3   OH2 7088   5.166   4.098   5.770
 2375TIP3    H1 7089   5.084   4.145   5.755
 2375TIP3    H2 7090   5.223   4.126   5.698
 2376TIP3   OH2 7091   5.299   0.805   3.609
 2376TIP3    H1 7092   5.345   0.775   3.530
 2376TIP3    H2 7093   5.209   0.819   3.581
 2377TIP3   OH2 7094   3.768   4.574   4.455
 2377TIP3    H1 7095   3.804   4.603   4.539
 2377TIP3    H2 7096   3.809   4.632   4.391
 2378TIP3   OH2 7097   4.484   5.477   2.006
 2378TIP3    H1 7098   4.522   5.398   1.965
 2378TIP3    H2 7099   4.390   5.462   2.001
 2379TIP3   OH2 7100   6.597   5.673   0.078
 2379TIP3    H1 7101   6.615   5.589   0.035
 2379TIP3    H2 7102   6.564   5.729   0.008
 2380TIP3   OH2 7103   2.702   1.657   2.188
 2380TIP3    H1 7104   2.786   1.697   2.211
 2380TIP3    H2 7105   2.647   1.729   2.159
 2381TIP3   OH2 7106   5.979   0.476   3.913
 2381TIP3    H1 7107   5.994   0.427   3.832
 2381TIP3    H2 7108   5.921   0.420   3.964
 2382TIP3   OH2 7109   5.917   4.389   3.343
 2382TIP3    H1 7110   5.881   4.476   3.362
 2382TIP3    H2 7111   5.958   4.362   3.426
 2383TIP3   OH2 7112   6.917   3.870   4.930
 2383TIP3    H1 7113   6.955   3.802   4.875
 2383TIP3    H2 7114   6.844   3.905   4.880
 2384TIP3   OH2 7115   6.392   5.520   2.786
 2384TIP3    H1 7116   6.455   5.568   2.732
 2384TIP3    H2 7117   6.319   5.503   2.726
 2385TIP3   OH2 7118   3.561   1.134   0.631
 2385TIP3    H1 7119   3.621   1.200   0.597
 2385TIP3    H2 7120   3.596   1.112   0.718
 2386TIP3   OH2 7121   1.067   2.760   1.963
 2386TIP3    H1 7122   1.002   2.726   1.902
 2386TIP3    H2 7123   1.028   2.748   2.049
 2387TIP3   OH2 7124   0.453   3.295   4.391
 2387TIP3    H1 7125   0.382   3.237   4.421
 2387TIP3    H2 7126   0.433   3.379   4.433
 2388TIP3   OH2 7127   1.924   1.275   5.541
 2388TIP3    H1 7128   1.888   1.311   5.460
 2388TIP3    H2 7129   1.996   1.219   5.512
 2389TIP3   OH2 7130   0.924   5.968   5.733
 2389TIP3    H1 7131   0.998   5.908   5.735
 2389TIP3    H2 7132   0.858   5.928   5.790
 2390TIP3   OH2 7133   5.595   2.687   0.561
 2390TIP3    H1 7134   5.559   2.644   0.639
 2390TIP3    H2 7135   5.520   2.696   0.502
 2391TIP3   OH2 7136   2.617   6.052   3.371
 2391TIP3    H1 7137   2.581   6.130   3.330
 2391TIP3    H2 7138   2.653   6.001   3.299
 2392TIP3   OH2 7139   0.954   0.177   2.905
 2392TIP3    H1 7140   0.884   0.200   2.967
 2392TIP3    H2 7141   0.961   0.082   2.912
 2393TIP3   OH2 7142   4.335   6.208   2.844
 2393TIP3    H1 7143   4.278   6.271   2.888
 2393TIP3    H2 7144   4.420   6.252   2.839
 2394TIP3   OH2 7145   0.975   6.228   1.114
 2394TIP3    H1 7146   0.942   6.143   1.084
 2394TIP3    H2 7147   1.008   6.211   1.202
 2395TIP3   OH2 7148   2.943   1.083   1.295
 2395TIP3    H1 7149   2.928   1.073   1.200
 2395TIP3    H2 7150   2.881   1.151   1.322
 2396TIP3   OH2 7151   3.794   3.147   5.021
 2396TIP3    H1 7152   3.878   3.192   5.029
 2396TIP3    H2 7153   3.759   3.176   4.936
 2397TIP3   OH2 7154   0.989   5.415   2.662
 2397TIP3    H1 7155   1.052   5.359   2.707
 2397TIP3    H2 7156   0.926   5.439   2.729
 2398TIP3   OH2 7157   3.593   5.989   4.893
 2398TIP3    H1 7158   3.528   5.999   4.962
 2398TIP3    H2 7159   3.646   5.914   4.921
 2399TIP3   OH2 7160   4.946   4.847   1.128
 2399TIP3    H1 7161   5.026   4.823   1.174
 2399TIP3    H2 7162   4.967   4.932   1.088
 2400TIP3   OH2 7163   6.069   5.328   5.740
 2400TIP3    H1 7164   6.021   5.385   5.801
 2400TIP3    H2 7165   6.007   5.258   5.719
 2401TIP3   OH2 7166   1.433   3.051   1.975
 2401TIP3    H1 7167   1.483   3.130   1.994
 2401TIP3    H2 7168   1.419   3.010   2.061
 2402TIP3   OH2 7169   1.185   5.034   1.129
 2402TIP3    H1 7170   1.125   5.005   1.197
 2402TIP3    H2 7171   1.270   5.041   1.173
 2403TIP3   OH2 7172   0.763   0.224   3.130
 2403TIP3    H1 7173   0.787   0.138   3.164
 2403TIP3    H2 7174   0.669   0.219   3.115
 2404TIP3   OH2 7175   1.402   4.045   5.826
 2404TIP3    H1 7176   1.420   4.138   5.840
 2404TIP3    H2 7177   1.486   4.002   5.843
 2405TIP3   OH2 7178   4.604   4.094   4.397
 2405TIP3    H1 7179   4.590   4.002   4.418
 2405TIP3    H2 7180   4.600   4.139   4.481
 2406TIP3   OH2 7181   0.674   0.699   1.555
 2406TIP3    H1 7182   0.751   0.752   1.532
 2406TIP3    H2 7183   0.600   0.757   1.542
 2407TIP3   OH2 7184   1.431   4.590   4.467
 2407TIP3    H1 7185   1.514   4.575   4.421
 2407TIP3    H2 7186   1.365   4.550   4.411
 2408TIP3   OH2 7187   6.924   4.993   4.281
 2408TIP3    H1 7188   6.838   4.999   4.239
 2408TIP3    H2 7189   6.909   4.941   4.359
 2409TIP3   OH2 7190   0.796   0.645   0.902
 2409TIP3    H1 7191   0.715   0.666   0.855
 2409TIP3    H2 7192   0.810   0.552   0.885
 2410TIP3   OH2 7193   5.768   2.267   4.748
 2410TIP3    H1 7194   5.777   2.179   4.712
 2410TIP3    H2 7195   5.795   2.259   4.839
 2411TIP3   OH2 7196   5.976   6.752   0.343
 2411TIP3    H1 7197   5.932   6.829   0.305
 2411TIP3    H2 7198   6.031   6.788   0.412
 2412TIP3   OH2 7199   5.919   3.546   3.185
 2412TIP3    H1 7200   5.937   3.469   3.132
 2412TIP3    H2 7201   5.831   3.532   3.220
 2413TIP3   OH2 7202   0.544   2.400   4.636
 2413TIP3    H1 7203   0.482   2.403   4.708
 2413TIP3    H2 7204   0.622   2.444   4.669
 2414TIP3   OH2 7205   3.202   2.041   4.652
 2414TIP3    H1 7206   3.254   2.085   4.585
 2414TIP3    H2 7207   3.212   2.096   4.730
 2415TIP3   OH2 7208   7.175   2.121   2.981
 2415TIP3    H1 7209   7.142   2.077   3.060
 2415TIP3    H2 7210   7.098   2.129   2.925
 2416TIP3   OH2 7211   6.722   6.694   5.869
 2416TIP3    H1 7212   6.695   6.654   5.787
 2416TIP3    H2 7213   6.790   6.636   5.903
 2417TIP3   OH2 7214   0.979   5.006   4.466
 2417TIP3    H1 7215   0.917   4.966   4.405
 2417TIP3    H2 7216   0.930   5.076   4.508
 2418TIP3   OH2 7217   5.639   6.157   1.293
 2418TIP3    H1 7218   5.548   6.169   1.266
 2418TIP3    H2 7219   5.685   6.232   1.256
 2419TIP3   OH2 7220   6.305   4.943   0.604
 2419TIP3    H1 7221   6.284   4.850   0.610
 2419TIP3    H2 7222   6.365   4.949   0.529
 2420TIP3   OH2 7223   4.190   5.965   1.532
 2420TIP3    H1 7224   4.171   6.009   1.449
 2420TIP3    H2 7225   4.165   5.874   1.517
 2421TIP3   OH2 7226   0.703   4.276   5.569
 2421TIP3    H1 7227   0.672   4.366   5.556
 2421TIP3    H2 7228   0.634   4.221   5.534
 2422TIP3   OH2 7229   0.917   6.144   4.270
 2422TIP3    H1 7230   0.911   6.198   4.349
 2422TIP3    H2 7231   0.949   6.204   4.202
 2423TIP3   OH2 7232   4.872   5.500   4.180
 2423TIP3    H1 7233   4.931   5.522   4.108
 2423TIP3    H2 7234   4.863   5.581   4.229
 2424TIP3   OH2 7235   4.236   6.504   3.524
 2424TIP3    H1 7236   4.243   6.521   3.430
 2424TIP3    H2 7237   4.170   6.566   3.555
 2425TIP3   OH2 7238   4.053   2.560   3.792
 2425TIP3    H1 7239   4.140   2.568   3.831
 2425TIP3    H2 7240   4.070   2.524   3.705
 2426TIP3   OH2 7241   1.228   1.389   3.519
 2426TIP3    H1 7242   1.135   1.406   3.536
 2426TIP3    H2 7243   1.264   1.475   3.496
 2427TIP3   OH2 7244   2.229   4.689   2.557
 2427TIP3    H1 7245   2.271   4.763   2.600
 2427TIP3    H2 7246   2.235   4.708   2.463
 2428TIP3   OH2 7247   0.167   5.137   1.735
 2428TIP3    H1 7248   0.132   5.201   1.673
 2428TIP3    H2 7249   0.106   5.063   1.730
 2429TIP3   OH2 7250   0.702   4.794   0.974
 2429TIP3    H1 7251   0.672   4.711   1.010
 2429TIP3    H2 7252   0.788   4.809   1.014
 2430TIP3   OH2 7253   3.464   0.810   1.948
 2430TIP3    H1 7254   3.450   0.741   2.013
 2430TIP3    H2 7255   3.400   0.793   1.880
 2431TIP3   OH2 7256   7.098   4.320   3.082
 2431TIP3    H1 7257   7.185   4.287   3.103
 2431TIP3    H2 7258   7.065   4.259   3.016
 2432TIP3   OH2 7259   2.048   1.736   3.123
 2432TIP3    H1 7260   2.027   1.643   3.115
 2432TIP3    H2 7261   1.964   1.780   3.110
 2433TIP3   OH2 7262   5.089   2.349   3.761
 2433TIP3    H1 7263   5.000   2.312   3.755
 2433TIP3    H2 7264   5.122   2.343   3.671
 2434TIP3   OH2 7265   3.356   5.127   2.239
 2434TIP3    H1 7266   3.350   5.212   2.283
 2434TIP3    H2 7267   3.327   5.144   2.149
 2435TIP3   OH2 7268   0.835   1.973   1.166
 2435TIP3    H1 7269   0.807   1.962   1.257
 2435TIP3    H2 7270   0.878   1.890   1.144
 2436TIP3   OH2 7271   6.347   2.186   5.446
 2436TIP3    H1 7272   6.378   2.276   5.442
 2436TIP3    H2 7273   6.419   2.134   5.410
 2437TIP3   OH2 7274   3.203   1.206   2.261
 2437TIP3    H1 7275   3.116   1.229   2.294
 2437TIP3    H2 7276   3.264   1.258   2.314
 2438TIP3   OH2 7277   1.622   5.186   1.779
 2438TIP3    H1 7278   1.646   5.161   1.690
 2438TIP3    H2 7279   1.695   5.157   1.833
 2439TIP3   OH2 7280   1.857   4.228   3.925
 2439TIP3    H1 7281   1.913   4.250   3.850
 2439TIP3    H2 7282   1.891   4.282   3.997
 2440TIP3   OH2 7283   7.048   2.153   4.920
 2440TIP3    H1 7284   7.001   2.072   4.935
 2440TIP3    H2 7285   7.140   2.127   4.916
 2441TIP3   OH2 7286   2.443   2.910   3.109
 2441TIP3    H1 7287   2.355   2.881   3.086
 2441TIP3    H2 7288   2.501   2.844   3.072
 2442TIP3   OH2 7289   3.620   6.266   0.459
 2442TIP3    H1 7290   3.597   6.343   0.408
 2442TIP3    H2 7291   3.619   6.194   0.396
 2443TIP3   OH2 7292   0.157   4.719   4.385
 2443TIP3    H1 7293   0.174   4.628   4.362
 2443TIP3    H2 7294   0.100   4.751   4.315
 2444TIP3   OH2 7295   4.393   6.698   4.671
 2444TIP3    H1 7296   4.321   6.699   4.735
 2444TIP3    H2 7297   4.368   6.763   4.606
 2445TIP3   OH2 7298   6.895   3.856   5.798
 2445TIP3    H1 7299   6.814   3.901   5.823
 2445TIP3    H2 7300   6.964   3.900   5.847
 2446TIP3   OH2 7301   3.287   5.711   2.744
 2446TIP3    H1 7302   3.284   5.698   2.650
 2446TIP3    H2 7303   3.354   5.650   2.775
 2447TIP3   OH2 7304   5.407   5.632   0.430
 2447TIP3    H1 7305   5.340   5.587   0.482
 2447TIP3    H2 7306   5.391   5.725   0.444
 2448TIP3   OH2 7307   6.840   3.858   4.009
 2448TIP3    H1 7308   6.901   3.929   3.992
 2448TIP3    H2 7309   6.804   3.877   4.095
 2449TIP3   OH2 7310   1.485   4.700   3.064
 2449TIP3    H1 7311   1.580   4.688   3.072
 2449TIP3    H2 7312   1.471   4.792   3.082
 2450TIP3   OH2 7313   3.981   5.787   2.535
 2450TIP3    H1 7314   4.010   5.803   2.625
 2450TIP3    H2 7315   3.939   5.868   2.509
 2451TIP3   OH2 7316   7.038   4.209   2.806
 2451TIP3    H1 7317   7.016   4.189   2.715
 2451TIP3    H2 7318   7.084   4.293   2.801
 2452TIP3   OH2 7319   5.649   3.354   3.531
 2452TIP3    H1 7320   5.559   3.375   3.554
 2452TIP3    H2 7321   5.700   3.382   3.607
 2453TIP3   OH2 7322   7.049   2.158   4.067
 2453TIP3    H1 7323   6.988   2.178   4.138
 2453TIP3    H2 7324   7.036   2.064   4.050
 2454TIP3   OH2 7325   0.305   5.827   5.892
 2454TIP3    H1 7326   0.298   5.917   5.859
 2454TIP3    H2 7327   0.241   5.778   5.842
 2455TIP3   OH2 7328   1.640   0.998   0.431
 2455TIP3    H1 7329   1.545   0.996   0.434
 2455TIP3    H2 7330   1.660   1.042   0.348
 2456TIP3   OH2 7331   6.776   4.374   3.353
 2456TIP3    H1 7332   6.737   4.367   3.266
 2456TIP3    H2 7333   6.763   4.288   3.392
 2457TIP3   OH2 7334   2.815   0.471   3.545
 2457TIP3    H1 7335   2.723   0.456   3.527
 2457TIP3    H2 7336   2.816   0.507   3.634
 2458TIP3   OH2 7337   6.788   4.148   0.143
 2458TIP3    H1 7338   6.755   4.096   0.216
 2458TIP3    H2 7339   6.728   4.222   0.136
 2459TIP3   OH2 7340   4.376   0.538   5.113
 2459TIP3    H1 7341   4.364   0.449   5.148
 2459TIP3    H2 7342   4.449   0.574   5.162
 2460TIP3   OH2 7343   3.880   3.645   5.750
 2460TIP3    H1 7344   3.801   3.623   5.700
 2460TIP3    H2 7345   3.869   3.600   5.834
 2461TIP3   OH2 7346   3.285   1.246   2.591
 2461TIP3    H1 7347   3.216   1.311   2.583
 2461TIP3    H2 7348   3.245   1.172   2.637
 2462TIP3   OH2 7349   2.202   2.798   3.042
 2462TIP3    H1 7350   2.214   2.727   2.979
 2462TIP3    H2 7351   2.130   2.850   3.006
 2463TIP3   OH2 7352   3.192   3.553   0.742
 2463TIP3    H1 7353   3.233   3.467   0.741
 2463TIP3    H2 7354   3.128   3.551   0.671
 2464TIP3   OH2 7355   3.397   6.551   4.637
 2464TIP3    H1 7356   3.351   6.498   4.573
 2464TIP3    H2 7357   3.471   6.497   4.666
 2465TIP3   OH2 7358   3.209   1.039   1.425
 2465TIP3    H1 7359   3.194   0.996   1.341
 2465TIP3    H2 7360   3.277   1.105   1.407
 2466TIP3   OH2 7361   0.820   2.566   2.569
 2466TIP3    H1 7362   0.792   2.475   2.557
 2466TIP3    H2 7363   0.916   2.562   2.570
 2467TIP3   OH2 7364   2.614   3.090   3.311
 2467TIP3    H1 7365   2.551   3.054   3.249
 2467TIP3    H2 7366   2.633   3.178   3.278
 2468TIP3   OH2 7367   3.999   2.795   0.958
 2468TIP3    H1 7368   3.999   2.782   1.053
 2468TIP3    H2 7369   3.990   2.889   0.946
 2469TIP3   OH2 7370   4.485   3.457   3.429
 2469TIP3    H1 7371   4.556   3.506   3.470
 2469TIP3    H2 7372   4.457   3.511   3.355
 2470TIP3   OH2 7373   6.538   4.251   0.968
 2470TIP3    H1 7374   6.601   4.316   0.937
 2470TIP3    H2 7375   6.514   4.201   0.889
 2471TIP3   OH2 7376   4.876   3.337   3.801
 2471TIP3    H1 7377   4.914   3.375   3.722
 2471TIP3    H2 7378   4.852   3.248   3.777
 2472TIP3   OH2 7379   1.856   2.220   0.511
 2472TIP3    H1 7380   1.854   2.125   0.518
 2472TIP3    H2 7381   1.889   2.237   0.422
 2473TIP3   OH2 7382   4.789   3.717   4.625
 2473TIP3    H1 7383   4.785   3.787   4.690
 2473TIP3    H2 7384   4.848   3.750   4.558
 2474TIP3   OH2 7385   3.326   0.896   5.757
 2474TIP3    H1 7386   3.251   0.846   5.724
 2474TIP3    H2 7387   3.366   0.839   5.823
 2475TIP3   OH2 7388   4.977   2.795   3.222
 2475TIP3    H1 7389   5.039   2.728   3.253
 2475TIP3    H2 7390   4.909   2.797   3.289
 2476TIP3   OH2 7391   2.005   1.761   5.254
 2476TIP3    H1 7392   2.096   1.791   5.252
 2476TIP3    H2 7393   1.959   1.826   5.306
 2477TIP3   OH2 7394   0.966   2.547   0.024
 2477TIP3    H1 7395   0.912   2.470   0.004
 2477TIP3    H2 7396   1.056   2.519   0.005
 2478TIP3   OH2 7397   1.439   6.796   0.108
 2478TIP3    H1 7398   1.482   6.840   0.181
 2478TIP3    H2 7399   1.355   6.767   0.142
 2479TIP3   OH2 7400   3.272   4.871   5.099
 2479TIP3    H1 7401   3.192   4.895   5.146
 2479TIP3    H2 7402   3.252   4.785   5.061
 2480TIP3   OH2 7403   2.141   1.758   0.598
 2480TIP3    H1 7404   2.149   1.853   0.604
 2480TIP3    H2 7405   2.153   1.738   0.505
 2481TIP3   OH2 7406   4.449   0.964   3.229
 2481TIP3    H1 7407   4.537   0.990   3.202
 2481TIP3    H2 7408   4.397   0.970   3.149
 2482TIP3   OH2 7409   6.820   0.763   4.064
 2482TIP3    H1 7410   6.809   0.854   4.039
 2482TIP3    H2 7411   6.731   0.728   4.069
 2483TIP3   OH2 7412   5.545   0.369   0.261
 2483TIP3    H1 7413   5.520   0.290   0.308
 2483TIP3    H2 7414   5.524   0.440   0.322
 2484TIP3   OH2 7415   1.735   4.868   2.946
 2484TIP3    H1 7416   1.691   4.863   3.031
 2484TIP3    H2 7417   1.824   4.837   2.963
 2485TIP3   OH2 7418   6.520   0.320   1.239
 2485TIP3    H1 7419   6.602   0.304   1.286
 2485TIP3    H2 7420   6.491   0.233   1.212
 2486TIP3   OH2 7421   3.923   0.362   3.612
 2486TIP3    H1 7422   3.898   0.443   3.570
 2486TIP3    H2 7423   3.969   0.312   3.544
 2487TIP3   OH2 7424   0.065   3.883   4.464
 2487TIP3    H1 7425   0.014   3.801   4.466
 2487TIP3    H2 7426   0.138   3.863   4.406
 2488TIP3   OH2 7427   5.492   4.281   4.016
 2488TIP3    H1 7428   5.550   4.251   4.086
 2488TIP3    H2 7429   5.433   4.207   4.001
 2489TIP3   OH2 7430   4.637   6.264   2.043
 2489TIP3    H1 7431   4.569   6.270   1.977
 2489TIP3    H2 7432   4.670   6.354   2.052
 2490TIP3   OH2 7433   6.727   4.422   5.038
 2490TIP3    H1 7434   6.782   4.415   5.116
 2490TIP3    H2 7435   6.720   4.332   5.005
 2491TIP3   OH2 7436   5.512   5.885   0.922
 2491TIP3    H1 7437   5.539   5.928   1.004
 2491TIP3    H2 7438   5.576   5.814   0.910
 2492TIP3   OH2 7439   6.589   6.095   1.379
 2492TIP3    H1 7440   6.635   6.132   1.304
 2492TIP3    H2 7441   6.646   6.113   1.454
 2493TIP3   OH2 7442   3.993   6.584   0.039
 2493TIP3    H1 7443   3.959   6.628  -0.039
 2493TIP3    H2 7444   3.937   6.507   0.049
 2494TIP3   OH2 7445   4.821   1.499   1.094
 2494TIP3    H1 7446   4.844   1.517   1.185
 2494TIP3    H2 7447   4.783   1.411   1.095
 2495TIP3   OH2 7448   1.319   2.924   0.727
 2495TIP3    H1 7449   1.393   2.908   0.785
 2495TIP3    H2 7450   1.282   3.007   0.758
 2496TIP3   OH2 7451   5.127   4.100   1.081
 2496TIP3    H1 7452   5.142   4.154   1.159
 2496TIP3    H2 7453   5.200   4.121   1.023
 2497TIP3   OH2 7454   5.871   5.666   2.925
 2497TIP3    H1 7455   5.865   5.663   2.830
 2497TIP3    H2 7456   5.887   5.758   2.945
 2498TIP3   OH2 7457   6.063   4.732   5.644
 2498TIP3    H1 7458   6.105   4.745   5.730
 2498TIP3    H2 7459   6.126   4.767   5.581
 2499TIP3   OH2 7460   0.439   1.000   2.353
 2499TIP3    H1 7461   0.494   1.040   2.286
 2499TIP3    H2 7462   0.495   0.935   2.395
 2500TIP3   OH2 7463   4.962   1.054   2.126
 2500TIP3    H1 7464   5.023   1.030   2.195
 2500TIP3    H2 7465   4.927   1.139   2.153
 2501TIP3   OH2 7466   4.297   1.609   0.913
 2501TIP3    H1 7467   4.276   1.685   0.859
 2501TIP3    H2 7468   4.389   1.622   0.937
 2502TIP3   OH2 7469   3.686   5.712   0.556
 2502TIP3    H1 7470   3.760   5.655   0.537
 2502TIP3    H2 7471   3.609   5.660   0.531
 2503TIP3   OH2 7472   4.464   3.600   0.841
 2503TIP3    H1 7473   4.478   3.687   0.802
 2503TIP3    H2 7474   4.535   3.547   0.806
 2504TIP3   OH2 7475   6.364   6.642   5.801
 2504TIP3    H1 7476   6.409   6.708   5.748
 2504TIP3    H2 7477   6.427   6.571   5.809
 2505TIP3   OH2 7478   0.052   2.983   3.746
 2505TIP3    H1 7479  -0.015   2.915   3.746
 2505TIP3    H2 7480   0.025   3.043   3.815
 2506TIP3   OH2 7481   5.588   3.200   1.914
 2506TIP3    H1 7482   5.547   3.279   1.950
 2506TIP3    H2 7483   5.658   3.179   1.976
 2507TIP3   OH2 7484   4.895   2.358   0.222
 2507TIP3    H1 7485   4.891   2.453   0.226
 2507TIP3    H2 7486   4.926   2.332   0.309
 2508TIP3   OH2 7487   6.242   4.685   0.644
 2508TIP3    H1 7488   6.338   4.683   0.647
 2508TIP3    H2 7489   6.219   4.620   0.577
 2509TIP3   OH2 7490   4.568   6.111   5.311
 2509TIP3    H1 7491   4.640   6.098   5.373
 2509TIP3    H2 7492   4.493   6.067   5.351
 2510TIP3   OH2 7493   6.463   6.522   3.679
 2510TIP3    H1 7494   6.378   6.512   3.636
 2510TIP3    H2 7495   6.526   6.520   3.608
 2511TIP3   OH2 7496   2.360   6.163   2.358
 2511TIP3    H1 7497   2.289   6.213   2.318
 2511TIP3    H2 7498   2.337   6.157   2.450
 2512TIP3   OH2 7499   3.864   1.793   1.305
 2512TIP3    H1 7500   3.855   1.878   1.263
 2512TIP3    H2 7501   3.958   1.776   1.306
 2513TIP3   OH2 7502   3.286   0.510   4.199
 2513TIP3    H1 7503   3.240   0.589   4.172
 2513TIP3    H2 7504   3.364   0.507   4.144
 2514TIP3   OH2 7505   6.006   0.827   0.824
 2514TIP3    H1 7506   5.925   0.825   0.875
 2514TIP3    H2 7507   6.074   0.796   0.884
 2515TIP3   OH2 7508   0.783   0.445   4.105
 2515TIP3    H1 7509   0.838   0.522   4.124
 2515TIP3    H2 7510   0.779   0.441   4.010
 2516TIP3   OH2 7511   2.480   5.017   3.760
 2516TIP3    H1 7512   2.428   4.973   3.827
 2516TIP3    H2 7513   2.536   4.948   3.724
 2517TIP3   OH2 7514   4.634   1.123   3.945
 2517TIP3    H1 7515   4.619   1.030   3.930
 2517TIP3    H2 7516   4.639   1.161   3.857
 2518TIP3   OH2 7517   4.298   0.611   0.010
 2518TIP3    H1 7518   4.239   0.539   0.032
 2518TIP3    H2 7519   4.269   0.683   0.064
 2519TIP3   OH2 7520   6.250   3.194   2.229
 2519TIP3    H1 7521   6.191   3.269   2.229
 2519TIP3    H2 7522   6.201   3.126   2.275
 2520TIP3   OH2 7523   6.347   0.944   1.360
 2520TIP3    H1 7524   6.375   0.915   1.447
 2520TIP3    H2 7525   6.259   0.908   1.349
 2521TIP3   OH2 7526   2.649   4.529   3.539
 2521TIP3    H1 7527   2.600   4.610   3.528
 2521TIP3    H2 7528   2.681   4.508   3.452
 2522TIP3   OH2 7529   4.429   5.768   5.284
 2522TIP3    H1 7530   4.344   5.770   5.239
 2522TIP3    H2 7531   4.488   5.815   5.225
 2523TIP3   OH2 7532   3.850   5.408   4.984
 2523TIP3    H1 7533   3.760   5.414   4.953
 2523TIP3    H2 7534   3.878   5.319   4.959
 2524TIP3   OH2 7535   4.847   3.034   1.077
 2524TIP3    H1 7536   4.884   3.055   1.162
 2524TIP3    H2 7537   4.895   2.956   1.048
 2525TIP3   OH2 7538   2.103   4.043   5.607
 2525TIP3    H1 7539   2.042   4.071   5.539
 2525TIP3    H2 7540   2.176   4.104   5.602
 2526TIP3   OH2 7541   2.646   3.569   3.941
 2526TIP3    H1 7542   2.686   3.514   4.008
 2526TIP3    H2 7543   2.651   3.516   3.861
 2527TIP3   OH2 7544   2.702   4.669   4.833
 2527TIP3    H1 7545   2.607   4.667   4.827
 2527TIP3    H2 7546   2.729   4.582   4.802
 2528TIP3   OH2 7547   0.126   4.509   1.861
 2528TIP3    H1 7548   0.055   4.533   1.920
 2528TIP3    H2 7549   0.200   4.489   1.919
 2529TIP3   OH2 7550   2.744   6.484   3.288
 2529TIP3    H1 7551   2.805   6.545   3.246
 2529TIP3    H2 7552   2.723   6.526   3.371
 2530TIP3   OH2 7553   6.654   2.914   3.312
 2530TIP3    H1 7554   6.682   3.002   3.286
 2530TIP3    H2 7555   6.735   2.870   3.338
 2531TIP3   OH2 7556   4.237   2.643   0.599
 2531TIP3    H1 7557   4.153   2.608   0.629
 2531TIP3    H2 7558   4.218   2.733   0.574
 2532TIP3   OH2 7559   6.082   5.038   4.440
 2532TIP3    H1 7560   6.079   5.108   4.375
 2532TIP3    H2 7561   6.058   5.079   4.522
 2533TIP3   OH2 7562   6.164   5.889   4.808
 2533TIP3    H1 7563   6.117   5.815   4.846
 2533TIP3    H2 7564   6.118   5.966   4.841
 2534TIP3   OH2 7565   6.091   4.553   2.347
 2534TIP3    H1 7566   6.164   4.602   2.385
 2534TIP3    H2 7567   6.100   4.464   2.383
 2535TIP3   OH2 7568   4.977   5.614   2.090
 2535TIP3    H1 7569   4.904   5.606   2.030
 2535TIP3    H2 7570   5.027   5.689   2.058
 2536TIP3   OH2 7571   0.880   4.859   3.764
 2536TIP3    H1 7572   0.900   4.766   3.771
 2536TIP3    H2 7573   0.886   4.892   3.853
 2537TIP3   OH2 7574   3.529   2.626   3.487
 2537TIP3    H1 7575   3.436   2.627   3.510
 2537TIP3    H2 7576   3.560   2.714   3.506
 2538TIP3   OH2 7577   0.710   2.165   0.608
 2538TIP3    H1 7578   0.735   2.241   0.556
 2538TIP3    H2 7579   0.618   2.180   0.630
 2539TIP3   OH2 7580   1.936   3.929   4.093
 2539TIP3    H1 7581   1.867   3.978   4.050
 2539TIP3    H2 7582   1.916   3.837   4.075
 2540TIP3   OH2 7583   0.431   3.702   3.999
 2540TIP3    H1 7584   0.375   3.634   4.036
 2540TIP3    H2 7585   0.381   3.783   4.009
 2541TIP3   OH2 7586   2.691   1.860   3.311
 2541TIP3    H1 7587   2.742   1.910   3.375
 2541TIP3    H2 7588   2.745   1.859   3.232
 2542TIP3   OH2 7589   1.836   2.511   2.510
 2542TIP3    H1 7590   1.774   2.441   2.533
 2542TIP3    H2 7591   1.918   2.465   2.494
 2543TIP3   OH2 7592   1.727   3.773   3.144
 2543TIP3    H1 7593   1.785   3.713   3.193
 2543TIP3    H2 7594   1.660   3.798   3.207
 2544TIP3   OH2 7595   3.388   1.887   3.750
 2544TIP3    H1 7596   3.329   1.958   3.725
 2544TIP3    H2 7597   3.444   1.925   3.818
 2545TIP3   OH2 7598   5.399   0.834   5.200
 2545TIP3    H1 7599   5.459   0.855   5.128
 2545TIP3    H2 7600   5.456   0.800   5.269
 2546TIP3   OH2 7601   1.166   0.726   3.203
 2546TIP3    H1 7602   1.072   0.739   3.212
 2546TIP3    H2 7603   1.177   0.693   3.113
 2547TIP3   OH2 7604   3.133   4.483   1.361
 2547TIP3    H1 7605   3.154   4.398   1.322
 2547TIP3    H2 7606   3.040   4.496   1.342
 2548TIP3   OH2 7607   0.432   0.873   0.331
 2548TIP3    H1 7608   0.506   0.863   0.391
 2548TIP3    H2 7609   0.383   0.791   0.340
 2549TIP3   OH2 7610   2.970   4.302   5.340
 2549TIP3    H1 7611   2.983   4.394   5.363
 2549TIP3    H2 7612   2.879   4.297   5.309
 2550TIP3   OH2 7613   6.970   5.077   2.853
 2550TIP3    H1 7614   6.937   4.994   2.819
 2550TIP3    H2 7615   6.912   5.098   2.925
 2551TIP3   OH2 7616   3.665   3.482   5.129
 2551TIP3    H1 7617   3.681   3.455   5.039
 2551TIP3    H2 7618   3.595   3.425   5.160
 2552TIP3   OH2 7619   2.804   0.642   5.712
 2552TIP3    H1 7620   2.789   0.625   5.805
 2552TIP3    H2 7621   2.803   0.555   5.672
 2553TIP3   OH2 7622   4.773   2.417   2.862
 2553TIP3    H1 7623   4.824   2.396   2.783
 2553TIP3    H2 7624   4.834   2.469   2.916
 2554TIP3   OH2 7625   2.047   0.828   5.775
 2554TIP3    H1 7626   2.023   0.775   5.851
 2554TIP3    H2 7627   2.085   0.908   5.812
 2555TIP3   OH2 7628   3.892   2.292   3.689
 2555TIP3    H1 7629   3.945   2.342   3.751
 2555TIP3    H2 7630   3.806   2.335   3.693
 2556TIP3   OH2 7631   2.906   6.265   4.515
 2556TIP3    H1 7632   2.945   6.178   4.524
 2556TIP3    H2 7633   2.960   6.321   4.571
 2557TIP3   OH2 7634   0.274   1.562   0.782
 2557TIP3    H1 7635   0.295   1.476   0.744
 2557TIP3    H2 7636   0.359   1.601   0.801
 2558TIP3   OH2 7637   1.992   3.760   0.135
 2558TIP3    H1 7638   1.916   3.786   0.083
 2558TIP3    H2 7639   2.058   3.826   0.114
 2559TIP3   OH2 7640   1.617   0.523   4.812
 2559TIP3    H1 7641   1.531   0.542   4.851
 2559TIP3    H2 7642   1.601   0.453   4.749
 2560TIP3   OH2 7643   5.198   0.427   1.674
 2560TIP3    H1 7644   5.151   0.459   1.751
 2560TIP3    H2 7645   5.225   0.506   1.628
 2561TIP3   OH2 7646   3.418   6.410   0.633
 2561TIP3    H1 7647   3.490   6.388   0.573
 2561TIP3    H2 7648   3.348   6.439   0.575
 2562TIP3   OH2 7649   0.988   2.405   4.586
 2562TIP3    H1 7650   1.056   2.446   4.533
 2562TIP3    H2 7651   0.994   2.312   4.565
 2563TIP3   OH2 7652   2.512   1.855   1.763
 2563TIP3    H1 7653   2.484   1.935   1.719
 2563TIP3    H2 7654   2.442   1.792   1.746
 2564TIP3   OH2 7655   4.940   0.824   1.465
 2564TIP3    H1 7656   4.896   0.807   1.382
 2564TIP3    H2 7657   4.873   0.810   1.531
 2565TIP3   OH2 7658   3.060   6.439   0.759
 2565TIP3    H1 7659   3.112   6.460   0.837
 2565TIP3    H2 7660   3.104   6.363   0.721
 2566TIP3   OH2 7661   0.273   1.814   0.429
 2566TIP3    H1 7662   0.203   1.775   0.481
 2566TIP3    H2 7663   0.238   1.899   0.402
 2567TIP3   OH2 7664   6.738   2.171   3.838
 2567TIP3    H1 7665   6.724   2.093   3.891
 2567TIP3    H2 7666   6.775   2.235   3.899
 2568TIP3   OH2 7667   0.483   1.743   0.980
 2568TIP3    H1 7668   0.531   1.782   0.907
 2568TIP3    H2 7669   0.454   1.818   1.032
 2569TIP3   OH2 7670   1.055   3.192   1.513
 2569TIP3    H1 7671   1.040   3.131   1.441
 2569TIP3    H2 7672   1.076   3.275   1.471
 2570TIP3   OH2 7673   5.674   2.523   2.791
 2570TIP3    H1 7674   5.658   2.448   2.849
 2570TIP3    H2 7675   5.761   2.506   2.753
 2571TIP3   OH2 7676   3.137   0.741   4.195
 2571TIP3    H1 7677   3.080   0.815   4.175
 2571TIP3    H2 7678   3.078   0.675   4.233
 2572TIP3   OH2 7679   5.027   4.787   3.206
 2572TIP3    H1 7680   5.086   4.711   3.200
 2572TIP3    H2 7681   4.942   4.750   3.230
 2573TIP3   OH2 7682   6.872   0.258   3.949
 2573TIP3    H1 7683   6.801   0.252   3.885
 2573TIP3    H2 7684   6.892   0.351   3.954
 2574TIP3   OH2 7685   0.911   2.384   3.682
 2574TIP3    H1 7686   0.998   2.348   3.665
 2574TIP3    H2 7687   0.855   2.307   3.694
 2575TIP3   OH2 7688   5.825   2.970   0.541
 2575TIP3    H1 7689   5.917   2.990   0.521
 2575TIP3    H2 7690   5.795   2.920   0.465
 2576TIP3   OH2 7691   6.203   0.287   4.223
 2576TIP3    H1 7692   6.293   0.269   4.195
 2576TIP3    H2 7693   6.167   0.200   4.242
 2577TIP3   OH2 7694   1.577   5.404   3.059
 2577TIP3    H1 7695   1.566   5.348   3.136
 2577TIP3    H2 7696   1.560   5.346   2.985
 2578TIP3   OH2 7697   6.539   2.897   0.131
 2578TIP3    H1 7698   6.612   2.854   0.175
 2578TIP3    H2 7699   6.461   2.858   0.171
 2579TIP3   OH2 7700   2.091   4.879   2.038
 2579TIP3    H1 7701   2.015   4.924   2.000
 2579TIP3    H2 7702   2.166   4.933   2.013
 2580TIP3   OH2 7703   5.722   2.969   1.005
 2580TIP3    H1 7704   5.767   3.010   0.931
 2580TIP3    H2 7705   5.641   2.936   0.967
 2581TIP3   OH2 7706   2.236   0.076   4.263
 2581TIP3    H1 7707   2.330   0.097   4.258
 2581TIP3    H2 7708   2.220   0.057   4.355
 2582TIP3   OH2 7709   4.091   4.722   4.482
 2582TIP3    H1 7710   4.123   4.656   4.421
 2582TIP3    H2 7711   4.081   4.801   4.429
 2583TIP3   OH2 7712   1.638   4.609   0.361
 2583TIP3    H1 7713   1.547   4.588   0.338
 2583TIP3    H2 7714   1.646   4.702   0.343
 2584TIP3   OH2 7715   4.111   6.233   2.301
 2584TIP3    H1 7716   4.205   6.247   2.293
 2584TIP3    H2 7717   4.090   6.170   2.232
 2585TIP3   OH2 7718   4.285   0.399   3.054
 2585TIP3    H1 7719   4.334   0.324   3.085
 2585TIP3    H2 7720   4.193   0.376   3.069
 2586TIP3   OH2 7721   5.814   4.637   1.394
 2586TIP3    H1 7722   5.852   4.559   1.353
 2586TIP3    H2 7723   5.863   4.647   1.476
 2587TIP3   OH2 7724   4.351   3.279   3.747
 2587TIP3    H1 7725   4.430   3.332   3.740
 2587TIP3    H2 7726   4.331   3.252   3.657
 2588TIP3   OH2 7727   1.916   1.517   4.613
 2588TIP3    H1 7728   1.979   1.481   4.675
 2588TIP3    H2 7729   1.838   1.462   4.623
 2589TIP3   OH2 7730   5.712   2.360   2.304
 2589TIP3    H1 7731   5.804   2.349   2.328
 2589TIP3    H2 7732   5.663   2.332   2.382
 2590TIP3   OH2 7733   6.550   0.280   3.421
 2590TIP3    H1 7734   6.480   0.259   3.360
 2590TIP3    H2 7735   6.530   0.367   3.453
 2591TIP3   OH2 7736   5.872   6.176   4.327
 2591TIP3    H1 7737   5.891   6.144   4.239
 2591TIP3    H2 7738   5.867   6.097   4.380
 2592TIP3   OH2 7739   5.674   3.558   3.317
 2592TIP3    H1 7740   5.612   3.610   3.266
 2592TIP3    H2 7741   5.620   3.498   3.369
 2593TIP3   OH2 7742   1.333   6.329   5.562
 2593TIP3    H1 7743   1.353   6.401   5.502
 2593TIP3    H2 7744   1.419   6.300   5.594
 2594TIP3   OH2 7745   5.682   4.242   0.193
 2594TIP3    H1 7746   5.778   4.250   0.199
 2594TIP3    H2 7747   5.648   4.314   0.245
 2595TIP3   OH2 7748   1.844   5.475   3.302
 2595TIP3    H1 7749   1.914   5.416   3.274
 2595TIP3    H2 7750   1.814   5.517   3.221
 2596TIP3   OH2 7751   2.708   2.914   5.161
 2596TIP3    H1 7752   2.671   2.893   5.075
 2596TIP3    H2 7753   2.795   2.875   5.160
 2597TIP3   OH2 7754   4.529   1.925   3.774
 2597TIP3    H1 7755   4.561   2.003   3.820
 2597TIP3    H2 7756   4.569   1.931   3.687
 2598TIP3   OH2 7757   6.008   5.908   0.379
 2598TIP3    H1 7758   6.054   5.869   0.454
 2598TIP3    H2 7759   6.042   5.861   0.303
 2599TIP3   OH2 7760   0.046   2.667   0.153
 2599TIP3    H1 7761   0.070   2.673   0.061
 2599TIP3    H2 7762  -0.041   2.626   0.152
 2600TIP3   OH2 7763   4.191   2.214   1.731
 2600TIP3    H1 7764   4.121   2.175   1.783
 2600TIP3    H2 7765   4.272   2.181   1.770
 2601TIP3   OH2 7766   5.826   0.361   0.874
 2601TIP3    H1 7767   5.884   0.349   0.799
 2601TIP3    H2 7768   5.867   0.311   0.945
 2602TIP3   OH2 7769   2.403   1.590   2.883
 2602TIP3    H1 7770   2.329   1.641   2.850
 2602TIP3    H2 7771   2.389   1.585   2.977
 2603TIP3   OH2 7772   0.920   0.079   4.957
 2603TIP3    H1 7773   0.949   0.147   4.897
 2603TIP3    H2 7774   0.871   0.127   5.024
 2604TIP3   OH2 7775   4.946   4.810   2.813
 2604TIP3    H1 7776   4.970   4.886   2.865
 2604TIP3    H2 7777   4.923   4.743   2.878
 2605TIP3   OH2 7778   5.843   5.225   4.365
 2605TIP3    H1 7779   5.828   5.260   4.277
 2605TIP3    H2 7780   5.763   5.176   4.385
 2606TIP3   OH2 7781   5.416   5.923   0.412
 2606TIP3    H1 7782   5.494   5.970   0.441
 2606TIP3    H2 7783   5.417   5.930   0.317
 2607TIP3   OH2 7784   6.944   2.102   0.621
 2607TIP3    H1 7785   6.959   2.160   0.695
 2607TIP3    H2 7786   6.851   2.113   0.600
 2608TIP3   OH2 7787   2.376   3.221   1.392
 2608TIP3    H1 7788   2.369   3.136   1.347
 2608TIP3    H2 7789   2.403   3.199   1.481
 2609TIP3   OH2 7790   1.208   5.164   5.202
 2609TIP3    H1 7791   1.155   5.242   5.186
 2609TIP3    H2 7792   1.298   5.193   5.192
 2610TIP3   OH2 7793   4.190   2.575   4.688
 2610TIP3    H1 7794   4.138   2.514   4.740
 2610TIP3    H2 7795   4.273   2.529   4.673
 2611TIP3   OH2 7796   3.570   2.300   0.540
 2611TIP3    H1 7797   3.644   2.295   0.480
 2611TIP3    H2 7798   3.496   2.265   0.491
 2612TIP3   OH2 7799   1.296   1.990   1.409
 2612TIP3    H1 7800   1.388   1.974   1.428
 2612TIP3    H2 7801   1.296   2.069   1.355
 2613TIP3   OH2 7802   0.402   3.463   5.856
 2613TIP3    H1 7803   0.346   3.539   5.844
 2613TIP3    H2 7804   0.429   3.439   5.767
 2614TIP3   OH2 7805   0.341   0.964   3.201
 2614TIP3    H1 7806   0.287   1.028   3.154
 2614TIP3    H2 7807   0.295   0.949   3.283
 2615TIP3   OH2 7808   5.810   1.292   0.810
 2615TIP3    H1 7809   5.841   1.312   0.898
 2615TIP3    H2 7810   5.734   1.235   0.824
 2616TIP3   OH2 7811   0.472   4.809   5.041
 2616TIP3    H1 7812   0.527   4.861   4.982
 2616TIP3    H2 7813   0.383   4.834   5.017
 2617TIP3   OH2 7814   1.786   0.498   1.753
 2617TIP3    H1 7815   1.722   0.502   1.825
 2617TIP3    H2 7816   1.738   0.460   1.680
 2618TIP3   OH2 7817   4.675   1.557   0.263
 2618TIP3    H1 7818   4.704   1.483   0.210
 2618TIP3    H2 7819   4.755   1.595   0.298
 2619TIP3   OH2 7820   4.188   2.165   3.831
 2619TIP3    H1 7821   4.166   2.187   3.740
 2619TIP3    H2 7822   4.167   2.071   3.838
 2620TIP3   OH2 7823   7.061   2.107   1.420
 2620TIP3    H1 7824   7.078   2.138   1.331
 2620TIP3    H2 7825   7.146   2.107   1.463
 2621TIP3   OH2 7826   4.876   2.013   0.524
 2621TIP3    H1 7827   4.916   2.048   0.444
 2621TIP3    H2 7828   4.949   1.998   0.583
 2622TIP3   OH2 7829   6.766   2.493   1.625
 2622TIP3    H1 7830   6.686   2.450   1.594
 2622TIP3    H2 7831   6.817   2.423   1.665
 2623TIP3   OH2 7832   0.651   2.116   1.880
 2623TIP3    H1 7833   0.737   2.110   1.922
 2623TIP3    H2 7834   0.596   2.057   1.932
 2624TIP3   OH2 7835   2.485   5.424   1.902
 2624TIP3    H1 7836   2.546   5.491   1.933
 2624TIP3    H2 7837   2.536   5.372   1.841
 2625TIP3   OH2 7838   6.800   2.681   3.026
 2625TIP3    H1 7839   6.720   2.731   3.040
 2625TIP3    H2 7840   6.799   2.613   3.093
 2626TIP3   OH2 7841   2.617   2.114   3.117
 2626TIP3    H1 7842   2.616   2.098   3.211
 2626TIP3    H2 7843   2.639   2.207   3.108
 2627TIP3   OH2 7844   0.791   5.926   4.075
 2627TIP3    H1 7845   0.831   6.013   4.078
 2627TIP3    H2 7846   0.852   5.870   4.122
 2628TIP3   OH2 7847   0.944   0.672   5.591
 2628TIP3    H1 7848   0.940   0.730   5.515
 2628TIP3    H2 7849   0.917   0.727   5.664
 2629TIP3   OH2 7850   2.417   3.808   1.872
 2629TIP3    H1 7851   2.442   3.719   1.899
 2629TIP3    H2 7852   2.420   3.859   1.953
 2630TIP3   OH2 7853   2.010   6.152   0.208
 2630TIP3    H1 7854   1.969   6.199   0.281
 2630TIP3    H2 7855   2.038   6.068   0.246
 2631TIP3   OH2 7856   1.098   0.706   5.217
 2631TIP3    H1 7857   1.061   0.688   5.131
 2631TIP3    H2 7858   1.175   0.649   5.222
 2632TIP3   OH2 7859   3.987   2.001   4.668
 2632TIP3    H1 7860   4.011   2.079   4.718
 2632TIP3    H2 7861   4.038   2.007   4.587
 2633TIP3   OH2 7862   7.155   1.300   4.256
 2633TIP3    H1 7863   7.234   1.249   4.238
 2633TIP3    H2 7864   7.187   1.389   4.273
 2634TIP3   OH2 7865   6.654   5.850   1.053
 2634TIP3    H1 7866   6.708   5.783   1.011
 2634TIP3    H2 7867   6.636   5.913   0.983
 2635TIP3   OH2 7868   0.159   0.850   5.417
 2635TIP3    H1 7869   0.243   0.813   5.446
 2635TIP3    H2 7870   0.095   0.816   5.479
 2636TIP3   OH2 7871   0.238   3.307   3.467
 2636TIP3    H1 7872   0.258   3.314   3.373
 2636TIP3    H2 7873   0.240   3.214   3.485
 2637TIP3   OH2 7874   7.083   6.567   4.257
 2637TIP3    H1 7875   7.159   6.546   4.203
 2637TIP3    H2 7876   7.120   6.601   4.339
 2638TIP3   OH2 7877   5.465   3.469   2.499
 2638TIP3    H1 7878   5.539   3.434   2.549
 2638TIP3    H2 7879   5.401   3.398   2.497
 2639TIP3   OH2 7880   1.829   2.632   3.406
 2639TIP3    H1 7881   1.795   2.662   3.322
 2639TIP3    H2 7882   1.922   2.614   3.388
 2640TIP3   OH2 7883   0.134   4.552   0.375
 2640TIP3    H1 7884   0.082   4.628   0.351
 2640TIP3    H2 7885   0.158   4.568   0.466
 2641TIP3   OH2 7886   5.426   5.344   0.106
 2641TIP3    H1 7887   5.493   5.336   0.174
 2641TIP3    H2 7888   5.344   5.328   0.151
 2642TIP3   OH2 7889   0.552   2.490   1.137
 2642TIP3    H1 7890   0.512   2.420   1.188
 2642TIP3    H2 7891   0.623   2.522   1.192
 2643TIP3   OH2 7892   2.597   6.769   1.642
 2643TIP3    H1 7893   2.567   6.737   1.557
 2643TIP3    H2 7894   2.678   6.816   1.623
 2644TIP3   OH2 7895   6.307   0.600   4.412
 2644TIP3    H1 7896   6.220   0.572   4.440
 2644TIP3    H2 7897   6.298   0.617   4.318
 2645TIP3   OH2 7898   4.219   4.968   2.566
 2645TIP3    H1 7899   4.236   4.884   2.608
 2645TIP3    H2 7900   4.302   5.015   2.571
 2646TIP3   OH2 7901   3.428   1.867   2.831
 2646TIP3    H1 7902   3.477   1.868   2.913
 2646TIP3    H2 7903   3.494   1.852   2.763
 2647TIP3   OH2 7904   3.626   4.061   1.422
 2647TIP3    H1 7905   3.695   4.059   1.488
 2647TIP3    H2 7906   3.657   4.001   1.354
 2648TIP3   OH2 7907   4.635   1.368   5.196
 2648TIP3    H1 7908   4.698   1.303   5.228
 2648TIP3    H2 7909   4.565   1.366   5.262
 2649TIP3   OH2 7910   4.724   6.531   2.022
 2649TIP3    H1 7911   4.637   6.570   2.028
 2649TIP3    H2 7912   4.781   6.594   2.067
 2650TIP3   OH2 7913   3.850   5.355   0.471
 2650TIP3    H1 7914   3.917   5.400   0.420
 2650TIP3    H2 7915   3.897   5.284   0.514
 2651TIP3   OH2 7916   5.633   0.486   3.212
 2651TIP3    H1 7917   5.567   0.417   3.215
 2651TIP3    H2 7918   5.673   0.486   3.299
 2652TIP3   OH2 7919   6.058   3.040   2.004
 2652TIP3    H1 7920   6.004   3.088   2.067
 2652TIP3    H2 7921   6.070   3.101   1.931
 2653TIP3   OH2 7922   6.365   6.431   0.202
 2653TIP3    H1 7923   6.304   6.392   0.140
 2653TIP3    H2 7924   6.408   6.356   0.243
 2654TIP3   OH2 7925   2.835   3.696   3.414
 2654TIP3    H1 7926   2.769   3.643   3.369
 2654TIP3    H2 7927   2.823   3.676   3.507
 2655TIP3   OH2 7928   6.836   4.038   1.573
 2655TIP3    H1 7929   6.790   4.027   1.657
 2655TIP3    H2 7930   6.928   4.023   1.594
 2656TIP3   OH2 7931   0.426   3.713   2.089
 2656TIP3    H1 7932   0.379   3.630   2.085
 2656TIP3    H2 7933   0.444   3.725   2.183
 2657TIP3   OH2 7934   0.662   5.902   3.641
 2657TIP3    H1 7935   0.715   5.829   3.673
 2657TIP3    H2 7936   0.603   5.923   3.713
 2658TIP3   OH2 7937   7.009   6.697   4.839
 2658TIP3    H1 7938   6.962   6.683   4.921
 2658TIP3    H2 7939   6.956   6.761   4.792
 2659TIP3   OH2 7940   1.670   3.328   1.671
 2659TIP3    H1 7941   1.584   3.339   1.713
 2659TIP3    H2 7942   1.669   3.392   1.599
 2660TIP3   OH2 7943   5.373   1.928   0.721
 2660TIP3    H1 7944   5.402   1.869   0.790
 2660TIP3    H2 7945   5.373   1.874   0.642
 2661TIP3   OH2 7946   1.356   3.902   0.649
 2661TIP3    H1 7947   1.306   3.946   0.718
 2661TIP3    H2 7948   1.445   3.936   0.659
 2662TIP3   OH2 7949   5.371   2.502   4.799
 2662TIP3    H1 7950   5.334   2.465   4.879
 2662TIP3    H2 7951   5.437   2.565   4.829
 2663TIP3   OH2 7952   3.350   5.724   3.855
 2663TIP3    H1 7953   3.416   5.737   3.924
 2663TIP3    H2 7954   3.375   5.642   3.814
 2664TIP3   OH2 7955   6.020   0.657   1.264
 2664TIP3    H1 7956   6.065   0.727   1.313
 2664TIP3    H2 7957   6.000   0.698   1.179
 2665TIP3   OH2 7958   2.626   6.261   5.770
 2665TIP3    H1 7959   2.634   6.187   5.710
 2665TIP3    H2 7960   2.710   6.306   5.765
 2666TIP3   OH2 7961   5.531   0.253   5.365
 2666TIP3    H1 7962   5.471   0.183   5.390
 2666TIP3    H2 7963   5.618   0.213   5.369
 2667TIP3   OH2 7964   4.268   0.755   4.315
 2667TIP3    H1 7965   4.202   0.690   4.338
 2667TIP3    H2 7966   4.351   0.706   4.312
 2668TIP3   OH2 7967   6.914   2.807   4.213
 2668TIP3    H1 7968   7.007   2.831   4.213
 2668TIP3    H2 7969   6.913   2.720   4.253
 2669TIP3   OH2 7970   5.807   5.797   0.021
 2669TIP3    H1 7971   5.758   5.775   0.100
 2669TIP3    H2 7972   5.869   5.725   0.010
 2670TIP3   OH2 7973   2.538   0.622   1.287
 2670TIP3    H1 7974   2.553   0.708   1.249
 2670TIP3    H2 7975   2.625   0.591   1.314
 2671TIP3   OH2 7976   1.131   3.458   1.426
 2671TIP3    H1 7977   1.085   3.537   1.454
 2671TIP3    H2 7978   1.199   3.489   1.366
 2672TIP3   OH2 7979   1.095   6.637   3.400
 2672TIP3    H1 7980   1.117   6.617   3.490
 2672TIP3    H2 7981   1.169   6.605   3.349
 2673TIP3   OH2 7982   5.025   5.002   3.427
 2673TIP3    H1 7983   4.932   5.017   3.413
 2673TIP3    H2 7984   5.053   4.951   3.351
 2674TIP3   OH2 7985   3.266   0.681   3.265
 2674TIP3    H1 7986   3.223   0.742   3.326
 2674TIP3    H2 7987   3.356   0.674   3.298
 2675TIP3   OH2 7988   1.049   1.732   5.807
 2675TIP3    H1 7989   1.024   1.641   5.822
 2675TIP3    H2 7990   1.106   1.754   5.881
 2676TIP3   OH2 7991   6.779   6.172   4.087
 2676TIP3    H1 7992   6.810   6.260   4.108
 2676TIP3    H2 7993   6.784   6.124   4.171
 2677TIP3   OH2 7994   6.040   3.703   4.863
 2677TIP3    H1 7995   5.999   3.710   4.777
 2677TIP3    H2 7996   5.966   3.684   4.922
 2678TIP3   OH2 7997   6.442   1.347   0.338
 2678TIP3    H1 7998   6.480   1.418   0.390
 2678TIP3    H2 7999   6.392   1.295   0.401
 2679TIP3   OH2 8000   6.086   0.044   4.747
 2679TIP3    H1 8001   6.091   0.041   4.652
 2679TIP3    H2 8002   5.993   0.034   4.767
 2680TIP3   OH2 8003   5.953   4.043   1.391
 2680TIP3    H1 8004   6.049   4.036   1.390
 2680TIP3    H2 8005   5.932   4.093   1.312
 2681TIP3   OH2 8006   3.005   5.144   0.210
 2681TIP3    H1 8007   3.048   5.071   0.256
 2681TIP3    H2 8008   3.077   5.202   0.187
 2682TIP3   OH2 8009   1.623   3.634   1.602
 2682TIP3    H1 8010   1.610   3.727   1.584
 2682TIP3    H2 8011   1.578   3.619   1.685
 2683TIP3   OH2 8012   1.140   0.087   1.788
 2683TIP3    H1 8013   1.171   0.003   1.753
 2683TIP3    H2 8014   1.135   0.073   1.882
 2684TIP3   OH2 8015   6.577   0.497   5.317
 2684TIP3    H1 8016   6.593   0.544   5.235
 2684TIP3    H2 8017   6.658   0.507   5.367
 2685TIP3   OH2 8018   3.901   6.484   3.135
 2685TIP3    H1 8019   3.805   6.480   3.140
 2685TIP3    H2 8020   3.928   6.392   3.141
 2686TIP3   OH2 8021   3.897   5.901   5.328
 2686TIP3    H1 8022   3.964   5.962   5.298
 2686TIP3    H2 8023   3.875   5.848   5.250
 2687TIP3   OH2 8024   3.166   1.478   3.070
 2687TIP3    H1 8025   3.183   1.569   3.044
 2687TIP3    H2 8026   3.251   1.435   3.067
 2688TIP3   OH2 8027   5.740   3.084   4.427
 2688TIP3    H1 8028   5.686   3.012   4.458
 2688TIP3    H2 8029   5.700   3.111   4.344
 2689TIP3   OH2 8030   2.881   5.477   2.551
 2689TIP3    H1 8031   2.973   5.452   2.543
 2689TIP3    H2 8032   2.872   5.504   2.642
 2690TIP3   OH2 8033   2.877   5.417   4.665
 2690TIP3    H1 8034   2.852   5.348   4.727
 2690TIP3    H2 8035   2.875   5.497   4.716
 2691TIP3   OH2 8036   7.086   1.830   4.741
 2691TIP3    H1 8037   7.133   1.914   4.744
 2691TIP3    H2 8038   7.155   1.764   4.741
 2692TIP3   OH2 8039   5.443   1.740   0.911
 2692TIP3    H1 8040   5.417   1.651   0.934
 2692TIP3    H2 8041   5.535   1.746   0.933
 2693TIP3   OH2 8042   2.737   2.301   3.411
 2693TIP3    H1 8043   2.682   2.223   3.408
 2693TIP3    H2 8044   2.826   2.267   3.414
 2694TIP3   OH2 8045   4.996   6.303   5.507
 2694TIP3    H1 8046   4.931   6.363   5.544
 2694TIP3    H2 8047   5.080   6.336   5.540
 2695TIP3   OH2 8048   2.893   0.159   5.168
 2695TIP3    H1 8049   2.965   0.177   5.228
 2695TIP3    H2 8050   2.846   0.242   5.160
 2696TIP3   OH2 8051   4.790   5.182   4.098
 2696TIP3    H1 8052   4.774   5.275   4.116
 2696TIP3    H2 8053   4.877   5.181   4.056
 2697TIP3   OH2 8054   5.301   3.951   2.072
 2697TIP3    H1 8055   5.246   3.900   2.131
 2697TIP3    H2 8056   5.344   4.015   2.129
 2698TIP3   OH2 8057   2.680   1.094   4.732
 2698TIP3    H1 8058   2.709   1.088   4.640
 2698TIP3    H2 8059   2.760   1.084   4.783
 2699TIP3   OH2 8060   5.209   0.158   1.633
 2699TIP3    H1 8061   5.235   0.143   1.542
 2699TIP3    H2 8062   5.202   0.253   1.640
 2700TIP3   OH2 8063   0.233   5.998   2.706
 2700TIP3    H1 8064   0.312   5.992   2.760
 2700TIP3    H2 8065   0.172   6.049   2.759
 2701TIP3   OH2 8066   1.085   3.471   2.563
 2701TIP3    H1 8067   1.063   3.431   2.647
 2701TIP3    H2 8068   1.001   3.484   2.520
 2702TIP3   OH2 8069   0.178   2.413   0.276
 2702TIP3    H1 8070   0.178   2.504   0.245
 2702TIP3    H2 8071   0.093   2.402   0.318
 2703TIP3   OH2 8072   1.920   3.104   1.331
 2703TIP3    H1 8073   1.985   3.138   1.269
 2703TIP3    H2 8074   1.971   3.048   1.389
 2704TIP3   OH2 8075   4.829   1.727   1.580
 2704TIP3    H1 8076   4.738   1.698   1.587
 2704TIP3    H2 8077   4.863   1.680   1.504
 2705TIP3   OH2 8078   6.944   2.542   3.456
 2705TIP3    H1 8079   6.880   2.472   3.450
 2705TIP3    H2 8080   7.001   2.517   3.529
 2706TIP3   OH2 8081   5.893   4.063   1.848
 2706TIP3    H1 8082   5.943   4.104   1.777
 2706TIP3    H2 8083   5.932   3.975   1.856
 2707TIP3   OH2 8084   5.767   5.250   3.641
 2707TIP3    H1 8085   5.852   5.256   3.684
 2707TIP3    H2 8086   5.770   5.318   3.574
 2708TIP3   OH2 8087   6.629   0.354   3.023
 2708TIP3    H1 8088   6.637   0.310   3.108
 2708TIP3    H2 8089   6.720   0.364   2.993
 2709TIP3   OH2 8090   4.290   5.719   2.604
 2709TIP3    H1 8091   4.246   5.674   2.532
 2709TIP3    H2 8092   4.297   5.654   2.673
 2710TIP3   OH2 8093   3.147   5.418   4.812
 2710TIP3    H1 8094   3.128   5.348   4.750
 2710TIP3    H2 8095   3.166   5.373   4.894
 2711TIP3   OH2 8096   4.502   2.026   4.161
 2711TIP3    H1 8097   4.481   2.017   4.254
 2711TIP3    H2 8098   4.418   2.011   4.116
 2712TIP3   OH2 8099   4.825   2.792   2.362
 2712TIP3    H1 8100   4.827   2.735   2.438
 2712TIP3    H2 8101   4.732   2.812   2.349
 2713TIP3   OH2 8102   0.239   6.011   1.326
 2713TIP3    H1 8103   0.281   5.925   1.333
 2713TIP3    H2 8104   0.256   6.039   1.236
 2714TIP3   OH2 8105   1.386   5.107   1.874
 2714TIP3    H1 8106   1.382   5.061   1.957
 2714TIP3    H2 8107   1.478   5.134   1.866
 2715TIP3   OH2 8108   5.713   4.582   2.568
 2715TIP3    H1 8109   5.647   4.563   2.635
 2715TIP3    H2 8110   5.713   4.678   2.562
 2716TIP3   OH2 8111   2.753   5.501   0.270
 2716TIP3    H1 8112   2.838   5.506   0.312
 2716TIP3    H2 8113   2.731   5.408   0.270
 2717TIP3   OH2 8114   5.698   0.539   2.780
 2717TIP3    H1 8115   5.787   0.573   2.774
 2717TIP3    H2 8116   5.709   0.444   2.787
 2718TIP3   OH2 8117   3.432   6.458   2.644
 2718TIP3    H1 8118   3.386   6.375   2.659
 2718TIP3    H2 8119   3.485   6.442   2.566
 2719TIP3   OH2 8120   2.924   0.150   3.661
 2719TIP3    H1 8121   3.010   0.125   3.628
 2719TIP3    H2 8122   2.940   0.228   3.714
 2720TIP3   OH2 8123   5.091   6.140   5.317
 2720TIP3    H1 8124   5.019   6.152   5.255
 2720TIP3    H2 8125   5.075   6.206   5.385
 2721TIP3   OH2 8126   4.507   1.333   2.721
 2721TIP3    H1 8127   4.447   1.395   2.681
 2721TIP3    H2 8128   4.451   1.261   2.750
 2722TIP3   OH2 8129   1.626   3.452   2.261
 2722TIP3    H1 8130   1.607   3.418   2.348
 2722TIP3    H2 8131   1.711   3.416   2.238
 2723TIP3   OH2 8132   3.252   4.307   4.652
 2723TIP3    H1 8133   3.331   4.358   4.674
 2723TIP3    H2 8134   3.234   4.256   4.731
 2724TIP3   OH2 8135   6.280   6.327   3.897
 2724TIP3    H1 8136   6.369   6.363   3.897
 2724TIP3    H2 8137   6.276   6.274   3.818
 2725TIP3   OH2 8138   0.226   1.549   3.215
 2725TIP3    H1 8139   0.239   1.589   3.301
 2725TIP3    H2 8140   0.148   1.591   3.180
 2726TIP3   OH2 8141   4.974   3.176   3.243
 2726TIP3    H1 8142   4.948   3.093   3.283
 2726TIP3    H2 8143   4.924   3.242   3.290
 2727TIP3   OH2 8144   3.401   4.627   4.502
 2727TIP3    H1 8145   3.467   4.558   4.491
 2727TIP3    H2 8146   3.319   4.587   4.471
 2728TIP3   OH2 8147   6.420   4.007   4.279
 2728TIP3    H1 8148   6.456   3.919   4.290
 2728TIP3    H2 8149   6.408   4.016   4.184
 2729TIP3   OH2 8150   4.742   5.254   2.360
 2729TIP3    H1 8151   4.772   5.228   2.447
 2729TIP3    H2 8152   4.667   5.197   2.343
 2730TIP3   OH2 8153   4.748   5.096   1.847
 2730TIP3    H1 8154   4.660   5.132   1.863
 2730TIP3    H2 8155   4.733   5.023   1.787
 2731TIP3   OH2 8156   6.339   6.795   2.983
 2731TIP3    H1 8157   6.381   6.833   2.906
 2731TIP3    H2 8158   6.253   6.767   2.951
 2732TIP3   OH2 8159   5.799   6.604   3.228
 2732TIP3    H1 8160   5.868   6.622   3.291
 2732TIP3    H2 8161   5.764   6.519   3.253
 2733TIP3   OH2 8162   6.562   6.014   2.623
 2733TIP3    H1 8163   6.475   5.979   2.604
 2733TIP3    H2 8164   6.548   6.076   2.694
 2734TIP3   OH2 8165   6.982   4.238   4.412
 2734TIP3    H1 8166   6.915   4.305   4.396
 2734TIP3    H2 8167   6.932   4.161   4.437
 2735TIP3   OH2 8168   3.205   3.264   0.676
 2735TIP3    H1 8169   3.110   3.276   0.673
 2735TIP3    H2 8170   3.217   3.183   0.725
 2736TIP3   OH2 8171   3.814   4.456   2.570
 2736TIP3    H1 8172   3.770   4.521   2.625
 2736TIP3    H2 8173   3.806   4.491   2.481
 2737TIP3   OH2 8174   7.146   5.823   0.383
 2737TIP3    H1 8175   7.079   5.760   0.410
 2737TIP3    H2 8176   7.110   5.908   0.409
 2738TIP3   OH2 8177   3.974   5.760   0.945
 2738TIP3    H1 8178   3.892   5.795   0.910
 2738TIP3    H2 8179   3.947   5.681   0.992
 2739TIP3   OH2 8180   6.106   1.083   3.153
 2739TIP3    H1 8181   6.112   0.990   3.131
 2739TIP3    H2 8182   6.052   1.121   3.084
 2740TIP3   OH2 8183   0.612   5.305   4.388
 2740TIP3    H1 8184   0.569   5.327   4.305
 2740TIP3    H2 8185   0.607   5.386   4.440
 2741TIP3   OH2 8186   4.582   5.455   3.894
 2741TIP3    H1 8187   4.675   5.450   3.915
 2741TIP3    H2 8188   4.543   5.505   3.966
 2742TIP3   OH2 8189   1.022   6.107   1.739
 2742TIP3    H1 8190   0.971   6.027   1.746
 2742TIP3    H2 8191   1.095   6.095   1.799
 2743TIP3   OH2 8192   0.319   4.501   1.659
 2743TIP3    H1 8193   0.233   4.509   1.702
 2743TIP3    H2 8194   0.338   4.589   1.628
 2744TIP3   OH2 8195   1.493   6.582   3.056
 2744TIP3    H1 8196   1.466   6.630   2.977
 2744TIP3    H2 8197   1.588   6.594   3.060
 2745TIP3   OH2 8198   0.580   4.704   4.329
 2745TIP3    H1 8199   0.608   4.776   4.273
 2745TIP3    H2 8200   0.602   4.625   4.280
 2746TIP3   OH2 8201   7.124   0.040   4.721
 2746TIP3    H1 8202   7.091   0.032   4.631
 2746TIP3    H2 8203   7.170   0.124   4.722
 2747TIP3   OH2 8204   0.436   0.330   2.710
 2747TIP3    H1 8205   0.387   0.382   2.773
 2747TIP3    H2 8206   0.368   0.290   2.654
 2748TIP3   OH2 8207   0.282   2.434   0.668
 2748TIP3    H1 8208   0.350   2.443   0.734
 2748TIP3    H2 8209   0.200   2.441   0.716
 2749TIP3   OH2 8210   2.822   3.844   5.747
 2749TIP3    H1 8211   2.741   3.846   5.799
 2749TIP3    H2 8212   2.877   3.911   5.787
 2750TIP3   OH2 8213   0.987   6.292   5.823
 2750TIP3    H1 8214   1.032   6.374   5.844
 2750TIP3    H2 8215   1.054   6.239   5.779
 2751TIP3   OH2 8216   0.720   1.246   1.966
 2751TIP3    H1 8217   0.700   1.257   1.873
 2751TIP3    H2 8218   0.734   1.335   1.998
 2752TIP3   OH2 8219   5.369   2.967   4.127
 2752TIP3    H1 8220   5.414   2.916   4.059
 2752TIP3    H2 8221   5.335   2.901   4.187
 2753TIP3   OH2 8222   0.477   1.664   2.523
 2753TIP3    H1 8223   0.508   1.754   2.532
 2753TIP3    H2 8224   0.534   1.625   2.456
 2754TIP3   OH2 8225   0.302   6.756   1.115
 2754TIP3    H1 8226   0.215   6.717   1.124
 2754TIP3    H2 8227   0.333   6.725   1.030
 2755TIP3   OH2 8228   4.030   6.011   2.792
 2755TIP3    H1 8229   4.111   5.983   2.835
 2755TIP3    H2 8230   3.966   6.016   2.863
 2756TIP3   OH2 8231   4.917   2.987   3.462
 2756TIP3    H1 8232   4.951   2.969   3.550
 2756TIP3    H2 8233   4.858   2.914   3.444
 2757TIP3   OH2 8234   1.775   5.091   2.792
 2757TIP3    H1 8235   1.757   5.021   2.855
 2757TIP3    H2 8236   1.778   5.047   2.708
 2758TIP3   OH2 8237   6.860   2.277   4.545
 2758TIP3    H1 8238   6.952   2.278   4.571
 2758TIP3    H2 8239   6.831   2.188   4.565
 2759TIP3   OH2 8240   4.223   1.955   1.065
 2759TIP3    H1 8241   4.182   1.871   1.087
 2759TIP3    H2 8242   4.192   2.015   1.133
 2760TIP3   OH2 8243   1.605   0.325   1.575
 2760TIP3    H1 8244   1.524   0.334   1.626
 2760TIP3    H2 8245   1.625   0.232   1.580
 2761TIP3   OH2 8246   6.727   1.594   0.295
 2761TIP3    H1 8247   6.751   1.566   0.207
 2761TIP3    H2 8248   6.806   1.636   0.329
 2762TIP3   OH2 8249   0.255   6.704   4.496
 2762TIP3    H1 8250   0.329   6.706   4.555
 2762TIP3    H2 8251   0.182   6.740   4.547
 2763TIP3   OH2 8252   5.727   1.569   4.569
 2763TIP3    H1 8253   5.741   1.547   4.660
 2763TIP3    H2 8254   5.703   1.487   4.527
 2764TIP3   OH2 8255   0.339   4.833   1.869
 2764TIP3    H1 8256   0.396   4.836   1.792
 2764TIP3    H2 8257   0.391   4.785   1.935
 2765TIP3   OH2 8258   2.690   2.979   2.696
 2765TIP3    H1 8259   2.719   2.893   2.665
 2765TIP3    H2 8260   2.762   3.038   2.675
 2766TIP3   OH2 8261   3.107   0.864   3.414
 2766TIP3    H1 8262   3.085   0.957   3.408
 2766TIP3    H2 8263   3.099   0.843   3.507
 2767TIP3   OH2 8264   2.232   3.621   1.494
 2767TIP3    H1 8265   2.310   3.615   1.439
 2767TIP3    H2 8266   2.224   3.534   1.534
 2768TIP3   OH2 8267   1.757   2.292   4.405
 2768TIP3    H1 8268   1.667   2.321   4.417
 2768TIP3    H2 8269   1.799   2.362   4.356
 2769TIP3   OH2 8270   3.116   0.171   0.461
 2769TIP3    H1 8271   3.025   0.180   0.435
 2769TIP3    H2 8272   3.166   0.199   0.384
 2770TIP3   OH2 8273   6.570   4.675   4.308
 2770TIP3    H1 8274   6.514   4.742   4.348
 2770TIP3    H2 8275   6.586   4.612   4.378
 2771TIP3   OH2 8276   4.056   0.785   2.050
 2771TIP3    H1 8277   4.072   0.880   2.051
 2771TIP3    H2 8278   3.969   0.776   2.090
 2772TIP3   OH2 8279   4.822   5.350   2.112
 2772TIP3    H1 8280   4.773   5.303   2.179
 2772TIP3    H2 8281   4.861   5.425   2.158
 2773TIP3   OH2 8282   0.614   5.542   4.520
 2773TIP3    H1 8283   0.523   5.565   4.536
 2773TIP3    H2 8284   0.654   5.540   4.606
 2774TIP3   OH2 8285   1.446   3.205   4.656
 2774TIP3    H1 8286   1.488   3.240   4.735
 2774TIP3    H2 8287   1.402   3.126   4.686
 2775TIP3   OH2 8288   3.536   4.326   1.631
 2775TIP3    H1 8289   3.445   4.327   1.661
 2775TIP3    H2 8290   3.548   4.239   1.592
 2776TIP3   OH2 8291   2.442   6.760   4.745
 2776TIP3    H1 8292   2.408   6.831   4.799
 2776TIP3    H2 8293   2.480   6.698   4.808
 2777TIP3   OH2 8294   6.802   5.047   2.159
 2777TIP3    H1 8295   6.790   4.989   2.084
 2777TIP3    H2 8296   6.896   5.045   2.176
 2778TIP3   OH2 8297   6.172   2.692   3.698
 2778TIP3    H1 8298   6.227   2.756   3.743
 2778TIP3    H2 8299   6.185   2.710   3.605
 2779TIP3   OH2 8300   6.373   0.217   3.224
 2779TIP3    H1 8301   6.331   0.133   3.206
 2779TIP3    H2 8302   6.315   0.282   3.184
 2780TIP3   OH2 8303   1.319   0.232   2.509
 2780TIP3    H1 8304   1.379   0.161   2.534
 2780TIP3    H2 8305   1.273   0.254   2.590
 2781TIP3   OH2 8306   2.330   1.074   4.991
 2781TIP3    H1 8307   2.315   1.045   4.901
 2781TIP3    H2 8308   2.397   1.015   5.025
 2782TIP3   OH2 8309   6.218   4.417   3.776
 2782TIP3    H1 8310   6.147   4.387   3.720
 2782TIP3    H2 8311   6.285   4.449   3.715
 2783TIP3   OH2 8312   0.681   4.917   0.711
 2783TIP3    H1 8313   0.761   4.968   0.722
 2783TIP3    H2 8314   0.677   4.862   0.789
 2784TIP3   OH2 8315   4.010   3.140   1.985
 2784TIP3    H1 8316   4.082   3.193   1.953
 2784TIP3    H2 8317   4.004   3.068   1.922
 2785TIP3   OH2 8318   1.337   2.923   2.456
 2785TIP3    H1 8319   1.285   2.971   2.520
 2785TIP3    H2 8320   1.295   2.837   2.450
 2786TIP3   OH2 8321   1.813   1.971   1.020
 2786TIP3    H1 8322   1.858   2.055   1.007
 2786TIP3    H2 8323   1.809   1.933   0.932
 2787TIP3   OH2 8324   3.697   2.217   2.171
 2787TIP3    H1 8325   3.689   2.191   2.079
 2787TIP3    H2 8326   3.616   2.186   2.212
 2788TIP3   OH2 8327   6.922   2.305   0.797
 2788TIP3    H1 8328   6.887   2.334   0.881
 2788TIP3    H2 8329   6.981   2.375   0.770
 2789TIP3   OH2 8330   0.598   5.344   2.756
 2789TIP3    H1 8331   0.639   5.381   2.834
 2789TIP3    H2 8332   0.561   5.420   2.710
 2790TIP3   OH2 8333   1.947   6.749   4.852
 2790TIP3    H1 8334   1.988   6.754   4.938
 2790TIP3    H2 8335   1.878   6.816   4.854
 2791TIP3   OH2 8336   1.652   5.715   3.764
 2791TIP3    H1 8337   1.610   5.634   3.793
 2791TIP3    H2 8338   1.737   5.688   3.731
 2792TIP3   OH2 8339   5.099   0.234   1.124
 2792TIP3    H1 8340   5.146   0.316   1.111
 2792TIP3    H2 8341   5.017   0.246   1.075
 2793TIP3   OH2 8342   5.060   2.129   4.637
 2793TIP3    H1 8343   5.079   2.214   4.679
 2793TIP3    H2 8344   5.076   2.065   4.706
 2794TIP3   OH2 8345   6.725   6.698   3.261
 2794TIP3    H1 8346   6.802   6.690   3.204
 2794TIP3    H2 8347   6.757   6.745   3.338
 2795TIP3   OH2 8348   2.768   5.995   0.280
 2795TIP3    H1 8349   2.701   6.034   0.337
 2795TIP3    H2 8350   2.738   5.905   0.267
 2796TIP3   OH2 8351   1.060   2.989   5.706
 2796TIP3    H1 8352   0.999   2.930   5.662
 2796TIP3    H2 8353   1.143   2.942   5.707
 2797TIP3   OH2 8354   4.768   0.080   4.305
 2797TIP3    H1 8355   4.756   0.034   4.388
 2797TIP3    H2 8356   4.802   0.014   4.245
 2798TIP3   OH2 8357   0.901   4.405   3.155
 2798TIP3    H1 8358   0.992   4.432   3.157
 2798TIP3    H2 8359   0.855   4.478   3.112
 2799TIP3   OH2 8360   6.574   5.045   5.032
 2799TIP3    H1 8361   6.504   4.995   5.074
 2799TIP3    H2 8362   6.565   5.133   5.066
 2800TIP3   OH2 8363   3.354   4.507   4.173
 2800TIP3    H1 8364   3.285   4.565   4.142
 2800TIP3    H2 8365   3.433   4.534   4.126
 2801TIP3   OH2 8366   6.956   3.548   5.280
 2801TIP3    H1 8367   6.912   3.483   5.226
 2801TIP3    H2 8368   6.919   3.535   5.368
 2802TIP3   OH2 8369   5.743   1.912   0.433
 2802TIP3    H1 8370   5.665   1.947   0.390
 2802TIP3    H2 8371   5.714   1.828   0.470
 2803TIP3   OH2 8372   0.863   4.416   1.041
 2803TIP3    H1 8373   0.822   4.330   1.025
 2803TIP3    H2 8374   0.947   4.410   0.996
 2804TIP3   OH2 8375   4.462   3.780   4.840
 2804TIP3    H1 8376   4.404   3.755   4.912
 2804TIP3    H2 8377   4.459   3.875   4.839
 2805TIP3   OH2 8378   5.725   2.371   5.853
 2805TIP3    H1 8379   5.704   2.335   5.940
 2805TIP3    H2 8380   5.764   2.457   5.872
 2806TIP3   OH2 8381   4.941   5.925   0.294
 2806TIP3    H1 8382   4.999   5.927   0.370
 2806TIP3    H2 8383   4.971   5.849   0.243
 2807TIP3   OH2 8384   3.391   3.883   1.984
 2807TIP3    H1 8385   3.433   3.835   2.055
 2807TIP3    H2 8386   3.298   3.874   2.001
 2808TIP3   OH2 8387   3.719   5.531   1.306
 2808TIP3    H1 8388   3.731   5.543   1.400
 2808TIP3    H2 8389   3.683   5.442   1.298
 2809TIP3   OH2 8390   2.467   6.342   0.776
 2809TIP3    H1 8391   2.478   6.258   0.820
 2809TIP3    H2 8392   2.497   6.327   0.686
 2810TIP3   OH2 8393   2.851   4.321   4.084
 2810TIP3    H1 8394   2.828   4.395   4.027
 2810TIP3    H2 8395   2.946   4.314   4.077
 2811TIP3   OH2 8396   0.381   5.283   1.374
 2811TIP3    H1 8397   0.329   5.359   1.348
 2811TIP3    H2 8398   0.436   5.265   1.298
 2812TIP3   OH2 8399   0.896   1.839   0.037
 2812TIP3    H1 8400   0.894   1.761   0.092
 2812TIP3    H2 8401   0.869   1.910   0.096
 2813TIP3   OH2 8402   2.133   3.269   5.123
 2813TIP3    H1 8403   2.175   3.245   5.041
 2813TIP3    H2 8404   2.041   3.282   5.100
 2814TIP3   OH2 8405   3.118   1.837   3.395
 2814TIP3    H1 8406   3.139   1.908   3.455
 2814TIP3    H2 8407   3.141   1.871   3.308
 2815TIP3   OH2 8408   3.386   1.171   3.422
 2815TIP3    H1 8409   3.296   1.192   3.446
 2815TIP3    H2 8410   3.412   1.102   3.482
 2816TIP3   OH2 8411   1.377   2.094   4.123
 2816TIP3    H1 8412   1.449   2.155   4.141
 2816TIP3    H2 8413   1.310   2.148   4.082
 2817TIP3   OH2 8414   6.608   2.100   3.301
 2817TIP3    H1 8415   6.535   2.163   3.305
 2817TIP3    H2 8416   6.629   2.094   3.207
 2818TIP3   OH2 8417   6.028   5.085   4.908
 2818TIP3    H1 8418   5.996   5.048   4.826
 2818TIP3    H2 8419   5.997   5.175   4.907
 2819TIP3   OH2 8420   2.542   4.858   2.075
 2819TIP3    H1 8421   2.623   4.890   2.114
 2819TIP3    H2 8422   2.535   4.767   2.106
 2820TIP3   OH2 8423   1.955   0.660   2.206
 2820TIP3    H1 8424   1.957   0.583   2.150
 2820TIP3    H2 8425   2.044   0.696   2.201
 2821TIP3   OH2 8426   5.567   5.345   5.763
 2821TIP3    H1 8427   5.547   5.439   5.766
 2821TIP3    H2 8428   5.485   5.302   5.785
 2822TIP3   OH2 8429   6.877   0.398   2.937
 2822TIP3    H1 8430   6.854   0.422   2.848
 2822TIP3    H2 8431   6.893   0.481   2.982
 2823TIP3   OH2 8432   3.016   3.345   0.368
 2823TIP3    H1 8433   3.008   3.381   0.279
 2823TIP3    H2 8434   3.049   3.418   0.420
 2824TIP3   OH2 8435   5.748   0.733   5.009
 2824TIP3    H1 8436   5.702   0.662   4.965
 2824TIP3    H2 8437   5.839   0.722   4.985
 2825TIP3   OH2 8438   6.239   5.821   1.704
 2825TIP3    H1 8439   6.206   5.816   1.794
 2825TIP3    H2 8440   6.317   5.876   1.710
 2826TIP3   OH2 8441   4.709   0.987   3.114
 2826TIP3    H1 8442   4.796   0.968   3.078
 2826TIP3    H2 8443   4.652   0.991   3.037
 2827TIP3   OH2 8444   4.297   3.748   1.379
 2827TIP3    H1 8445   4.366   3.731   1.315
 2827TIP3    H2 8446   4.244   3.817   1.340
 2828TIP3   OH2 8447   5.080   1.390   0.903
 2828TIP3    H1 8448   5.016   1.422   0.967
 2828TIP3    H2 8449   5.158   1.442   0.918
 2829TIP3   OH2 8450   0.471   1.533   4.463
 2829TIP3    H1 8451   0.516   1.525   4.379
 2829TIP3    H2 8452   0.542   1.548   4.526
 2830TIP3   OH2 8453   5.946   6.205   0.360
 2830TIP3    H1 8454   5.995   6.125   0.379
 2830TIP3    H2 8455   6.004   6.276   0.389
 2831TIP3   OH2 8456   4.188   1.146   4.878
 2831TIP3    H1 8457   4.281   1.143   4.856
 2831TIP3    H2 8458   4.182   1.104   4.964
 2832TIP3   OH2 8459   2.909   2.715   0.531
 2832TIP3    H1 8460   2.980   2.777   0.513
 2832TIP3    H2 8461   2.893   2.673   0.446
 2833TIP3   OH2 8462   3.544   3.586   2.859
 2833TIP3    H1 8463   3.562   3.680   2.869
 2833TIP3    H2 8464   3.629   3.543   2.876
 2834TIP3   OH2 8465   4.022   3.701   2.149
 2834TIP3    H1 8466   4.087   3.711   2.079
 2834TIP3    H2 8467   3.987   3.789   2.161
 2835TIP3   OH2 8468   0.091   3.171   1.559
 2835TIP3    H1 8469   0.181   3.201   1.563
 2835TIP3    H2 8470   0.044   3.226   1.621
 2836TIP3   OH2 8471   6.549   4.724   5.265
 2836TIP3    H1 8472   6.638   4.713   5.229
 2836TIP3    H2 8473   6.497   4.657   5.220
 2837TIP3   OH2 8474   0.622   4.955   4.897
 2837TIP3    H1 8475   0.613   5.040   4.855
 2837TIP3    H2 8476   0.682   4.906   4.841
 2838TIP3   OH2 8477   2.659   5.988   2.107
 2838TIP3    H1 8478   2.687   6.043   2.181
 2838TIP3    H2 8479   2.580   6.031   2.075
 2839TIP3   OH2 8480   0.529   6.461   4.155
 2839TIP3    H1 8481   0.497   6.371   4.156
 2839TIP3    H2 8482   0.497   6.498   4.073
 2840TIP3   OH2 8483   3.353   6.261   1.399
 2840TIP3    H1 8484   3.432   6.312   1.415
 2840TIP3    H2 8485   3.342   6.208   1.478
 2841TIP3   OH2 8486   5.026   3.801   4.468
 2841TIP3    H1 8487   5.043   3.739   4.396
 2841TIP3    H2 8488   5.002   3.882   4.424
 2842TIP3   OH2 8489   3.646   2.916   4.659
 2842TIP3    H1 8490   3.669   2.901   4.568
 2842TIP3    H2 8491   3.552   2.900   4.663
 2843TIP3   OH2 8492   0.804   4.599   5.354
 2843TIP3    H1 8493   0.764   4.513   5.345
 2843TIP3    H2 8494   0.836   4.621   5.266
 2844TIP3   OH2 8495   7.130   5.468   5.472
 2844TIP3    H1 8496   7.137   5.373   5.480
 2844TIP3    H2 8497   7.126   5.484   5.378
 2845TIP3   OH2 8498   1.630   6.192   2.688
 2845TIP3    H1 8499   1.679   6.181   2.607
 2845TIP3    H2 8500   1.563   6.257   2.667
 2846TIP3   OH2 8501   5.786   5.246   5.644
 2846TIP3    H1 8502   5.712   5.277   5.696
 2846TIP3    H2 8503   5.791   5.306   5.570
 2847TIP3   OH2 8504   2.601   4.020   4.846
 2847TIP3    H1 8505   2.530   4.077   4.818
 2847TIP3    H2 8506   2.641   3.990   4.764
 2848TIP3   OH2 8507   2.519   0.587   2.154
 2848TIP3    H1 8508   2.551   0.502   2.184
 2848TIP3    H2 8509   2.475   0.569   2.071
 2849TIP3   OH2 8510   2.384   1.470   3.682
 2849TIP3    H1 8511   2.475   1.456   3.656
 2849TIP3    H2 8512   2.384   1.558   3.721
 2850TIP3   OH2 8513   1.759   2.625   3.110
 2850TIP3    H1 8514   1.754   2.539   3.068
 2850TIP3    H2 8515   1.668   2.654   3.117
 2851TIP3   OH2 8516   4.270   0.238   2.273
 2851TIP3    H1 8517   4.181   0.225   2.304
 2851TIP3    H2 8518   4.319   0.268   2.349
 2852TIP3   OH2 8519   6.789   5.076   1.121
 2852TIP3    H1 8520   6.713   5.134   1.115
 2852TIP3    H2 8521   6.858   5.130   1.160
 2853TIP3   OH2 8522   6.391   1.118   4.436
 2853TIP3    H1 8523   6.355   1.035   4.467
 2853TIP3    H2 8524   6.378   1.178   4.510
 2854TIP3   OH2 8525   6.664   6.157   1.767
 2854TIP3    H1 8526   6.608   6.233   1.750
 2854TIP3    H2 8527   6.710   6.180   1.848
 2855TIP3   OH2 8528   4.291   6.784   5.853
 2855TIP3    H1 8529   4.223   6.787   5.786
 2855TIP3    H2 8530   4.370   6.757   5.806
 2856TIP3   OH2 8531   6.110   1.765   5.644
 2856TIP3    H1 8532   6.150   1.683   5.616
 2856TIP3    H2 8533   6.035   1.738   5.698
 2857TIP3   OH2 8534   1.599   3.845   2.493
 2857TIP3    H1 8535   1.578   3.790   2.418
 2857TIP3    H2 8536   1.528   3.830   2.555
 2858TIP3   OH2 8537   1.275   1.688   2.495
 2858TIP3    H1 8538   1.363   1.712   2.467
 2858TIP3    H2 8539   1.258   1.745   2.570
 2859TIP3   OH2 8540   2.523   2.700   2.980
 2859TIP3    H1 8541   2.447   2.691   2.923
 2859TIP3    H2 8542   2.577   2.623   2.961
 2860TIP3   OH2 8543   3.520   3.991   2.660
 2860TIP3    H1 8544   3.550   4.062   2.603
 2860TIP3    H2 8545   3.567   3.913   2.628
 2861TIP3   OH2 8546   2.054   1.462   3.092
 2861TIP3    H1 8547   2.093   1.375   3.079
 2861TIP3    H2 8548   2.027   1.489   3.005
 2862TIP3   OH2 8549   6.782   1.021   3.964
 2862TIP3    H1 8550   6.801   1.079   4.037
 2862TIP3    H2 8551   6.690   1.040   3.942
 2863TIP3   OH2 8552   4.963   5.916   3.664
 2863TIP3    H1 8553   5.022   5.975   3.711
 2863TIP3    H2 8554   5.021   5.855   3.619
 2864TIP3   OH2 8555   0.114   2.577   5.440
 2864TIP3    H1 8556   0.124   2.636   5.514
 2864TIP3    H2 8557   0.064   2.628   5.375
 2865TIP3   OH2 8558   0.657   1.551   1.057
 2865TIP3    H1 8559   0.596   1.615   1.021
 2865TIP3    H2 8560   0.698   1.596   1.131
 2866TIP3   OH2 8561   0.879   3.945   4.669
 2866TIP3    H1 8562   0.815   3.995   4.618
 2866TIP3    H2 8563   0.830   3.913   4.745
 2867TIP3   OH2 8564   2.884   3.341   5.115
 2867TIP3    H1 8565   2.923   3.295   5.041
 2867TIP3    H2 8566   2.926   3.428   5.114
 2868TIP3   OH2 8567   0.771   0.116   0.216
 2868TIP3    H1 8568   0.717   0.182   0.172
 2868TIP3    H2 8569   0.715   0.038   0.219
 2869TIP3   OH2 8570   1.856   1.082   1.826
 2869TIP3    H1 8571   1.822   1.146   1.888
 2869TIP3    H2 8572   1.785   1.017   1.818
 2870TIP3   OH2 8573   5.478   2.906   4.460
 2870TIP3    H1 8574   5.533   2.835   4.495
 2870TIP3    H2 8575   5.391   2.867   4.454
 2871TIP3   OH2 8576   6.037   2.467   4.810
 2871TIP3    H1 8577   5.981   2.496   4.882
 2871TIP3    H2 8578   6.068   2.381   4.837
 2872TIP3   OH2 8579   3.757   3.304   3.352
 2872TIP3    H1 8580   3.787   3.220   3.316
 2872TIP3    H2 8581   3.814   3.320   3.427
 2873TIP3   OH2 8582   3.828   6.214   2.345
 2873TIP3    H1 8583   3.857   6.190   2.433
 2873TIP3    H2 8584   3.908   6.231   2.296
 2874TIP3   OH2 8585   7.130   3.822   0.515
 2874TIP3    H1 8586   7.066   3.757   0.543
 2874TIP3    H2 8587   7.108   3.840   0.424
 2875TIP3   OH2 8588   2.395   0.708   0.956
 2875TIP3    H1 8589   2.485   0.681   0.941
 2875TIP3    H2 8590   2.391   0.798   0.923
 2876TIP3   OH2 8591   0.305   2.162  -0.014
 2876TIP3    H1 8592   0.379   2.217   0.013
 2876TIP3    H2 8593   0.248   2.159   0.062
 2877TIP3   OH2 8594   2.233   4.494   3.815
 2877TIP3    H1 8595   2.205   4.579   3.779
 2877TIP3    H2 8596   2.328   4.496   3.807
 2878TIP3   OH2 8597   6.350   5.265   5.847
 2878TIP3    H1 8598   6.268   5.292   5.805
 2878TIP3    H2 8599   6.405   5.343   5.843
 2879TIP3   OH2 8600   2.452   4.645   4.501
 2879TIP3    H1 8601   2.478   4.732   4.531
 2879TIP3    H2 8602   2.361   4.656   4.472
 2880TIP3   OH2 8603   4.494   1.618   3.938
 2880TIP3    H1 8604   4.586   1.616   3.966
 2880TIP3    H2 8605   4.497   1.593   3.846
 2881TIP3   OH2 8606   0.908   2.389   5.219
 2881TIP3    H1 8607   0.942   2.467   5.263
 2881TIP3    H2 8608   0.843   2.423   5.158
 2882TIP3   OH2 8609   6.977   0.123   4.946
 2882TIP3    H1 8610   6.990   0.088   4.857
 2882TIP3    H2 8611   7.061   0.160   4.970
 2883TIP3   OH2 8612   3.626   4.114   4.387
 2883TIP3    H1 8613   3.594   4.127   4.298
 2883TIP3    H2 8614   3.599   4.193   4.434
 2884TIP3   OH2 8615   2.656   2.794   5.399
 2884TIP3    H1 8616   2.578   2.751   5.433
 2884TIP3    H2 8617   2.638   2.808   5.306
 2885TIP3   OH2 8618   4.623   5.042   3.874
 2885TIP3    H1 8619   4.700   5.044   3.931
 2885TIP3    H2 8620   4.643   5.103   3.804
 2886TIP3   OH2 8621   3.185   4.148   3.514
 2886TIP3    H1 8622   3.120   4.196   3.464
 2886TIP3    H2 8623   3.222   4.086   3.451
 2887TIP3   OH2 8624   3.817   0.792   1.663
 2887TIP3    H1 8625   3.912   0.801   1.653
 2887TIP3    H2 8626   3.799   0.829   1.750
 2888TIP3   OH2 8627   5.720   2.430   0.598
 2888TIP3    H1 8628   5.712   2.426   0.693
 2888TIP3    H2 8629   5.710   2.523   0.577
 2889TIP3   OH2 8630   2.486   0.272   0.902
 2889TIP3    H1 8631   2.459   0.279   0.994
 2889TIP3    H2 8632   2.567   0.221   0.905
 2890TIP3   OH2 8633   3.740   1.500   5.739
 2890TIP3    H1 8634   3.742   1.514   5.644
 2890TIP3    H2 8635   3.657   1.537   5.767
 2891TIP3   OH2 8636   1.547   2.559   5.866
 2891TIP3    H1 8637   1.630   2.520   5.892
 2891TIP3    H2 8638   1.495   2.486   5.835
 2892TIP3   OH2 8639   6.355   1.206   1.659
 2892TIP3    H1 8640   6.289   1.236   1.721
 2892TIP3    H2 8641   6.341   1.111   1.654
 2893TIP3   OH2 8642   1.003   3.080   3.214
 2893TIP3    H1 8643   1.040   3.165   3.192
 2893TIP3    H2 8644   0.914   3.082   3.177
 2894TIP3   OH2 8645   3.254   5.995   4.297
 2894TIP3    H1 8646   3.258   5.974   4.203
 2894TIP3    H2 8647   3.186   5.936   4.331
 2895TIP3   OH2 8648   4.724   5.612   1.967
 2895TIP3    H1 8649   4.699   5.644   1.881
 2895TIP3    H2 8650   4.651   5.556   1.994
 2896TIP3   OH2 8651   3.061   5.715   3.731
 2896TIP3    H1 8652   3.029   5.795   3.773
 2896TIP3    H2 8653   3.157   5.723   3.735
 2897TIP3   OH2 8654   4.034   3.169   5.864
 2897TIP3    H1 8655   3.978   3.107   5.910
 2897TIP3    H2 8656   4.054   3.127   5.781
 2898TIP3   OH2 8657   1.577   4.263   4.077
 2898TIP3    H1 8658   1.616   4.349   4.087
 2898TIP3    H2 8659   1.554   4.258   3.984
 2899TIP3   OH2 8660   4.675   0.005   0.854
 2899TIP3    H1 8661   4.690  -0.006   0.760
 2899TIP3    H2 8662   4.758   0.038   0.888
 2900TIP3   OH2 8663   2.348   2.884   4.114
 2900TIP3    H1 8664   2.332   2.944   4.187
 2900TIP3    H2 8665   2.308   2.802   4.142
 2901TIP3   OH2 8666   5.514   6.098   2.087
 2901TIP3    H1 8667   5.489   6.190   2.086
 2901TIP3    H2 8668   5.594   6.094   2.034
 2902TIP3   OH2 8669   5.793   4.826   3.663
 2902TIP3    H1 8670   5.699   4.809   3.670
 2902TIP3    H2 8671   5.818   4.859   3.750
 2903TIP3   OH2 8672   6.269   4.057   4.891
 2903TIP3    H1 8673   6.198   4.121   4.892
 2903TIP3    H2 8674   6.346   4.106   4.920
 2904TIP3   OH2 8675   0.688   2.519   1.573
 2904TIP3    H1 8676   0.636   2.489   1.499
 2904TIP3    H2 8677   0.666   2.612   1.581
 2905TIP3   OH2 8678   6.973   4.726   0.078
 2905TIP3    H1 8679   6.931   4.676   0.008
 2905TIP3    H2 8680   6.902   4.777   0.117
 2906TIP3   OH2 8681   1.838   3.881   1.216
 2906TIP3    H1 8682   1.855   3.827   1.293
 2906TIP3    H2 8683   1.742   3.884   1.210
 2907TIP3   OH2 8684   6.591   5.982   0.134
 2907TIP3    H1 8685   6.627   5.896   0.112
 2907TIP3    H2 8686   6.513   5.991   0.079
 2908TIP3   OH2 8687   1.746   3.478   3.624
 2908TIP3    H1 8688   1.751   3.457   3.531
 2908TIP3    H2 8689   1.697   3.404   3.662
 2909TIP3   OH2 8690   3.662   1.511   1.948
 2909TIP3    H1 8691   3.653   1.601   1.977
 2909TIP3    H2 8692   3.593   1.500   1.882
 2910TIP3   OH2 8693   6.168   6.712   1.168
 2910TIP3    H1 8694   6.141   6.736   1.079
 2910TIP3    H2 8695   6.222   6.786   1.197
 2911TIP3   OH2 8696   2.913   1.440   1.700
 2911TIP3    H1 8697   2.973   1.369   1.676
 2911TIP3    H2 8698   2.953   1.481   1.776
 2912TIP3   OH2 8699   0.979   1.232   1.750
 2912TIP3    H1 8700   1.027   1.227   1.667
 2912TIP3    H2 8701   0.963   1.326   1.763
 2913TIP3   OH2 8702   4.511   1.723   5.826
 2913TIP3    H1 8703   4.516   1.665   5.749
 2913TIP3    H2 8704   4.465   1.801   5.795
 2914TIP3   OH2 8705   6.836   1.876   5.838
 2914TIP3    H1 8706   6.900   1.931   5.882
 2914TIP3    H2 8707   6.762   1.934   5.819
 2915TIP3   OH2 8708   3.070   5.931   2.259
 2915TIP3    H1 8709   3.028   5.915   2.343
 2915TIP3    H2 8710   3.161   5.954   2.281
 2916TIP3   OH2 8711   3.183   2.044   4.369
 2916TIP3    H1 8712   3.125   1.978   4.331
 2916TIP3    H2 8713   3.125   2.100   4.420
 2917TIP3   OH2 8714   3.741   0.222   2.489
 2917TIP3    H1 8715   3.693   0.301   2.466
 2917TIP3    H2 8716   3.806   0.213   2.419
 2918TIP3   OH2 8717   2.354   5.256   3.760
 2918TIP3    H1 8718   2.259   5.244   3.755
 2918TIP3    H2 8719   2.388   5.167   3.773
 2919TIP3   OH2 8720   2.821   1.409   2.883
 2919TIP3    H1 8721   2.827   1.315   2.898
 2919TIP3    H2 8722   2.799   1.446   2.968
 2920TIP3   OH2 8723   5.379   5.774   5.491
 2920TIP3    H1 8724   5.295   5.790   5.533
 2920TIP3    H2 8725   5.429   5.855   5.505
 2921TIP3   OH2 8726   0.652   3.754   3.550
 2921TIP3    H1 8727   0.618   3.694   3.484
 2921TIP3    H2 8728   0.579   3.812   3.570
 2922TIP3   OH2 8729   5.560   3.318   5.866
 2922TIP3    H1 8730   5.570   3.240   5.811
 2922TIP3    H2 8731   5.543   3.284   5.954
 2923TIP3   OH2 8732   2.110   5.099   4.268
 2923TIP3    H1 8733   2.015   5.113   4.267
 2923TIP3    H2 8734   2.131   5.078   4.359
 2924TIP3   OH2 8735   5.130   5.633   3.818
 2924TIP3    H1 8736   5.042   5.631   3.856
 2924TIP3    H2 8737   5.176   5.559   3.858
 2925TIP3   OH2 8738   0.522   5.529   2.212
 2925TIP3    H1 8739   0.552   5.459   2.269
 2925TIP3    H2 8740   0.435   5.502   2.184
 2926TIP3   OH2 8741   4.212   5.669   5.567
 2926TIP3    H1 8742   4.178   5.632   5.485
 2926TIP3    H2 8743   4.295   5.625   5.581
 2927TIP3   OH2 8744   2.949   5.159   3.644
 2927TIP3    H1 8745   3.026   5.208   3.614
 2927TIP3    H2 8746   2.977   5.120   3.727
 2928TIP3   OH2 8747   6.532   5.245   3.632
 2928TIP3    H1 8748   6.440   5.255   3.657
 2928TIP3    H2 8749   6.533   5.167   3.576
 2929TIP3   OH2 8750   4.141   5.449   4.246
 2929TIP3    H1 8751   4.171   5.489   4.327
 2929TIP3    H2 8752   4.098   5.368   4.273
 2930TIP3   OH2 8753   1.224   2.472   4.475
 2930TIP3    H1 8754   1.221   2.441   4.384
 2930TIP3    H2 8755   1.307   2.437   4.509
 2931TIP3   OH2 8756   1.982   3.198   2.352
 2931TIP3    H1 8757   1.902   3.146   2.352
 2931TIP3    H2 8758   1.973   3.255   2.276
 2932TIP3   OH2 8759   1.186   4.542   1.865
 2932TIP3    H1 8760   1.263   4.590   1.898
 2932TIP3    H2 8761   1.187   4.460   1.912
 2933TIP3   OH2 8762   1.703   4.517   5.600
 2933TIP3    H1 8763   1.662   4.433   5.578
 2933TIP3    H2 8764   1.645   4.556   5.666
 2934TIP3   OH2 8765   0.880   5.673   4.434
 2934TIP3    H1 8766   0.931   5.742   4.391
 2934TIP3    H2 8767   0.835   5.718   4.505
 2935TIP3   OH2 8768   6.468   3.061   2.609
 2935TIP3    H1 8769   6.464   3.045   2.704
 2935TIP3    H2 8770   6.402   3.003   2.572
 2936TIP3   OH2 8771   1.727   5.549   2.538
 2936TIP3    H1 8772   1.640   5.577   2.563
 2936TIP3    H2 8773   1.784   5.583   2.607
 2937TIP3   OH2 8774   6.192   0.172   1.903
 2937TIP3    H1 8775   6.117   0.113   1.910
 2937TIP3    H2 8776   6.179   0.234   1.975
 2938TIP3   OH2 8777   0.447   2.463   5.708
 2938TIP3    H1 8778   0.425   2.536   5.765
 2938TIP3    H2 8779   0.395   2.390   5.742
 2939TIP3   OH2 8780   4.942   4.238   5.734
 2939TIP3    H1 8781   4.963   4.304   5.800
 2939TIP3    H2 8782   4.925   4.287   5.654
 2940TIP3   OH2 8783   0.614   1.333   1.335
 2940TIP3    H1 8784   0.672   1.259   1.315
 2940TIP3    H2 8785   0.633   1.354   1.427
 2941TIP3   OH2 8786   3.823   4.144   5.466
 2941TIP3    H1 8787   3.821   4.218   5.406
 2941TIP3    H2 8788   3.819   4.067   5.410
 2942TIP3   OH2 8789   3.205   3.173   2.157
 2942TIP3    H1 8790   3.133   3.144   2.100
 2942TIP3    H2 8791   3.269   3.211   2.097
 2943TIP3   OH2 8792   2.188   0.504   0.960
 2943TIP3    H1 8793   2.180   0.471   1.049
 2943TIP3    H2 8794   2.264   0.562   0.962
 2944TIP3   OH2 8795   3.646   0.694   1.472
 2944TIP3    H1 8796   3.585   0.767   1.464
 2944TIP3    H2 8797   3.706   0.720   1.542
 2945TIP3   OH2 8798   6.366   0.977   5.372
 2945TIP3    H1 8799   6.433   1.039   5.344
 2945TIP3    H2 8800   6.336   0.935   5.292
 2946TIP3   OH2 8801   6.170   1.532   5.524
 2946TIP3    H1 8802   6.105   1.542   5.454
 2946TIP3    H2 8803   6.247   1.497   5.480
 2947TIP3   OH2 8804   1.472   3.446   4.513
 2947TIP3    H1 8805   1.393   3.500   4.508
 2947TIP3    H2 8806   1.442   3.362   4.547
 2948TIP3   OH2 8807   1.873   5.463   2.041
 2948TIP3    H1 8808   1.851   5.472   1.948
 2948TIP3    H2 8809   1.922   5.380   2.045
 2949TIP3   OH2 8810   0.061   6.578   0.665
 2949TIP3    H1 8811   0.051   6.483   0.670
 2949TIP3    H2 8812  -0.021   6.613   0.698
 2950TIP3   OH2 8813   6.031   6.678   2.751
 2950TIP3    H1 8814   6.038   6.616   2.823
 2950TIP3    H2 8815   6.105   6.657   2.694
 2951TIP3   OH2 8816   1.750   5.933   0.994
 2951TIP3    H1 8817   1.662   5.907   1.022
 2951TIP3    H2 8818   1.788   5.853   0.959
 2952TIP3   OH2 8819   4.943   0.880   0.345
 2952TIP3    H1 8820   5.015   0.919   0.393
 2952TIP3    H2 8821   4.932   0.793   0.383
 2953TIP3   OH2 8822   5.756   6.717   2.967
 2953TIP3    H1 8823   5.773   6.681   3.054
 2953TIP3    H2 8824   5.772   6.645   2.907
 2954TIP3   OH2 8825   4.685   4.051   4.144
 2954TIP3    H1 8826   4.650   4.131   4.105
 2954TIP3    H2 8827   4.645   4.046   4.230
 2955TIP3   OH2 8828   3.161   4.550   5.713
 2955TIP3    H1 8829   3.212   4.480   5.672
 2955TIP3    H2 8830   3.157   4.526   5.805
 2956TIP3   OH2 8831   3.020   4.445   2.007
 2956TIP3    H1 8832   3.003   4.470   1.916
 2956TIP3    H2 8833   3.112   4.418   2.008
 2957TIP3   OH2 8834   6.815   6.682   0.304
 2957TIP3    H1 8835   6.907   6.707   0.291
 2957TIP3    H2 8836   6.806   6.674   0.399
 2958TIP3   OH2 8837   3.788   1.749   4.146
 2958TIP3    H1 8838   3.804   1.768   4.239
 2958TIP3    H2 8839   3.694   1.760   4.135
 2959TIP3   OH2 8840   6.212   0.949   2.580
 2959TIP3    H1 8841   6.196   0.912   2.666
 2959TIP3    H2 8842   6.251   0.878   2.530
 2960TIP3   OH2 8843   2.199   6.592   1.741
 2960TIP3    H1 8844   2.170   6.550   1.660
 2960TIP3    H2 8845   2.210   6.519   1.803
 2961TIP3   OH2 8846   5.042   3.990   0.557
 2961TIP3    H1 8847   5.019   3.912   0.506
 2961TIP3    H2 8848   5.005   4.063   0.507
 2962TIP3   OH2 8849   1.754   0.680   2.419
 2962TIP3    H1 8850   1.755   0.632   2.502
 2962TIP3    H2 8851   1.838   0.660   2.379
 2963TIP3   OH2 8852   4.094   3.043   2.232
 2963TIP3    H1 8853   4.136   3.127   2.251
 2963TIP3    H2 8854   4.057   3.055   2.144
 2964TIP3   OH2 8855   0.099   0.304   4.018
 2964TIP3    H1 8856   0.190   0.313   4.045
 2964TIP3    H2 8857   0.101   0.312   3.922
 2965TIP3   OH2 8858   0.576   6.666   2.661
 2965TIP3    H1 8859   0.492   6.622   2.675
 2965TIP3    H2 8860   0.637   6.595   2.643
 2966TIP3   OH2 8861   1.999   1.298   0.371
 2966TIP3    H1 8862   1.924   1.358   0.377
 2966TIP3    H2 8863   2.042   1.306   0.456
 2967TIP3   OH2 8864   4.227   2.361   0.061
 2967TIP3    H1 8865   4.184   2.329  -0.019
 2967TIP3    H2 8866   4.316   2.383   0.033
 2968TIP3   OH2 8867   1.982   1.064   0.162
 2968TIP3    H1 8868   2.047   1.107   0.218
 2968TIP3    H2 8869   2.020   1.068   0.074
 2969TIP3   OH2 8870   0.185   2.749   4.521
 2969TIP3    H1 8871   0.236   2.758   4.441
 2969TIP3    H2 8872   0.189   2.655   4.542
 2970TIP3   OH2 8873   3.895   6.277   4.104
 2970TIP3    H1 8874   3.910   6.353   4.047
 2970TIP3    H2 8875   3.959   6.212   4.075
 2971TIP3   OH2 8876   4.626   5.013   4.711
 2971TIP3    H1 8877   4.642   4.940   4.651
 2971TIP3    H2 8878   4.625   4.973   4.798
 2972TIP3   OH2 8879   6.486   4.234   3.405
 2972TIP3    H1 8880   6.563   4.189   3.440
 2972TIP3    H2 8881   6.425   4.164   3.382
 2973TIP3   OH2 8882   3.818   3.944   1.845
 2973TIP3    H1 8883   3.792   3.856   1.870
 2973TIP3    H2 8884   3.844   3.986   1.928
 2974TIP3   OH2 8885   3.889   2.697   3.172
 2974TIP3    H1 8886   3.813   2.648   3.204
 2974TIP3    H2 8887   3.865   2.721   3.082
 2975TIP3   OH2 8888   2.866   1.803   2.739
 2975TIP3    H1 8889   2.803   1.761   2.798
 2975TIP3    H2 8890   2.825   1.798   2.653
 2976TIP3   OH2 8891   1.336   2.677   4.721
 2976TIP3    H1 8892   1.366   2.586   4.723
 2976TIP3    H2 8893   1.264   2.678   4.659
 2977TIP3   OH2 8894   3.373   4.690   2.688
 2977TIP3    H1 8895   3.389   4.785   2.686
 2977TIP3    H2 8896   3.415   4.658   2.608
 2978TIP3   OH2 8897   5.647   1.664   5.232
 2978TIP3    H1 8898   5.553   1.678   5.246
 2978TIP3    H2 8899   5.687   1.748   5.255
 2979TIP3   OH2 8900   1.741   4.370   5.337
 2979TIP3    H1 8901   1.693   4.320   5.403
 2979TIP3    H2 8902   1.828   4.382   5.375
 2980TIP3   OH2 8903   1.550   4.028   5.540
 2980TIP3    H1 8904   1.591   3.950   5.502
 2980TIP3    H2 8905   1.475   3.994   5.589
 2981TIP3   OH2 8906   6.516   6.431   1.167
 2981TIP3    H1 8907   6.575   6.361   1.140
 2981TIP3    H2 8908   6.494   6.476   1.085
 2982TIP3   OH2 8909  -0.005   2.744   2.009
 2982TIP3    H1 8910   0.023   2.836   2.013
 2982TIP3    H2 8911   0.043   2.708   1.935
 2983TIP3   OH2 8912   6.338   1.792   3.607
 2983TIP3    H1 8913   6.352   1.859   3.540
 2983TIP3    H2 8914   6.244   1.793   3.623
 2984TIP3   OH2 8915   5.820   5.282   1.588
 2984TIP3    H1 8916   5.862   5.209   1.541
 2984TIP3    H2 8917   5.734   5.291   1.546
 2985TIP3   OH2 8918   0.646   5.877   1.959
 2985TIP3    H1 8919   0.660   5.796   2.008
 2985TIP3    H2 8920   0.684   5.860   1.873
 2986TIP3   OH2 8921   4.413   5.265   3.422
 2986TIP3    H1 8922   4.345   5.220   3.373
 2986TIP3    H2 8923   4.378   5.270   3.511
 2987TIP3   OH2 8924   6.732   0.923   3.172
 2987TIP3    H1 8925   6.824   0.913   3.149
 2987TIP3    H2 8926   6.689   0.953   3.092
 2988TIP3   OH2 8927   0.607   0.008   3.919
 2988TIP3    H1 8928   0.696   0.018   3.887
 2988TIP3    H2 8929   0.588   0.090   3.963
 2989TIP3   OH2 8930   5.322   3.069   1.836
 2989TIP3    H1 8931   5.389   3.131   1.863
 2989TIP3    H2 8932   5.318   3.078   1.740
 2990TIP3   OH2 8933   4.448   5.423   4.489
 2990TIP3    H1 8934   4.367   5.474   4.495
 2990TIP3    H2 8935   4.456   5.402   4.396
 2991TIP3   OH2 8936   1.128   2.426   1.891
 2991TIP3    H1 8937   1.173   2.501   1.852
 2991TIP3    H2 8938   1.039   2.431   1.857
 2992TIP3   OH2 8939   4.472   1.061   5.235
 2992TIP3    H1 8940   4.530   1.081   5.162
 2992TIP3    H2 8941   4.393   1.026   5.195
 2993TIP3   OH2 8942   2.092   5.369   1.393
 2993TIP3    H1 8943   2.147   5.328   1.326
 2993TIP3    H2 8944   2.055   5.296   1.442
 2994TIP3   OH2 8945   6.386   0.030   3.849
 2994TIP3    H1 8946   6.332   0.087   3.793
 2994TIP3    H2 8947   6.465   0.015   3.798
 2995TIP3   OH2 8948   0.417   6.129   2.354
 2995TIP3    H1 8949   0.415   6.085   2.269
 2995TIP3    H2 8950   0.341   6.094   2.400
 2996TIP3   OH2 8951   5.203   5.740   3.587
 2996TIP3    H1 8952   5.159   5.679   3.646
 2996TIP3    H2 8953   5.224   5.687   3.510
 2997TIP3   OH2 8954   3.067   3.404   0.091
 2997TIP3    H1 8955   3.135   3.356   0.044
 2997TIP3    H2 8956   3.074   3.494   0.060
 2998TIP3   OH2 8957   1.533   6.232   0.191
 2998TIP3    H1 8958   1.514   6.321   0.161
 2998TIP3    H2 8959   1.449   6.198   0.221
 2999TIP3   OH2 8960   3.003   2.802   3.020
 2999TIP3    H1 8961   2.932   2.863   3.042
 2999TIP3    H2 8962   2.959   2.721   2.997
 3000TIP3   OH2 8963   5.604   3.250   0.691
 3000TIP3    H1 8964   5.683   3.304   0.686
 3000TIP3    H2 8965   5.554   3.274   0.613
 3001TIP3   OH2 8966   6.799   1.709   2.537
 3001TIP3    H1 8967   6.804   1.800   2.507
 3001TIP3    H2 8968   6.719   1.675   2.498
 3002TIP3   OH2 8969   0.353   5.429   1.707
 3002TIP3    H1 8970   0.414   5.479   1.653
 3002TIP3    H2 8971   0.336   5.349   1.658
 3003TIP3   OH2 8972   2.915   1.895   5.314
 3003TIP3    H1 8973   2.848   1.930   5.256
 3003TIP3    H2 8974   2.933   1.807   5.280
 3004TIP3   OH2 8975   1.492   3.111   0.930
 3004TIP3    H1 8976   1.543   3.139   1.006
 3004TIP3    H2 8977   1.512   3.018   0.921
 3005TIP3   OH2 8978   2.229   5.282   0.865
 3005TIP3    H1 8979   2.303   5.343   0.863
 3005TIP3    H2 8980   2.154   5.335   0.892
 3006TIP3   OH2 8981   6.263   4.549   5.345
 3006TIP3    H1 8982   6.191   4.541   5.283
 3006TIP3    H2 8983   6.341   4.523   5.296
 3007TIP3   OH2 8984   3.184   0.947   2.706
 3007TIP3    H1 8985   3.219   0.971   2.792
 3007TIP3    H2 8986   3.261   0.917   2.657
 3008TIP3   OH2 8987   7.194   0.370   2.669
 3008TIP3    H1 8988   7.163   0.341   2.754
 3008TIP3    H2 8989   7.198   0.466   2.677
 3009TIP3   OH2 8990   1.759   0.813   2.093
 3009TIP3    H1 8991   1.798   0.754   2.156
 3009TIP3    H2 8992   1.830   0.833   2.032
 3010TIP3   OH2 8993   5.066   6.337   4.910
 3010TIP3    H1 8994   5.126   6.273   4.873
 3010TIP3    H2 8995   5.121   6.394   4.964
 3011TIP3   OH2 8996   1.317   2.949   4.462
 3011TIP3    H1 8997   1.388   2.885   4.463
 3011TIP3    H2 8998   1.277   2.941   4.375
 3012TIP3   OH2 8999   1.786   3.349   3.354
 3012TIP3    H1 9000   1.832   3.273   3.317
 3012TIP3    H2 9001   1.714   3.366   3.293
 3013TIP3   OH2 9002   5.685   4.952   4.676
 3013TIP3    H1 9003   5.664   4.886   4.743
 3013TIP3    H2 9004   5.718   5.026   4.726
 3014TIP3   OH2 9005   2.230   5.757   1.468
 3014TIP3    H1 9006   2.314   5.730   1.505
 3014TIP3    H2 9007   2.170   5.755   1.542
 3015TIP3   OH2 9008   3.448   1.716   0.979
 3015TIP3    H1 9009   3.391   1.709   0.903
 3015TIP3    H2 9010   3.425   1.640   1.033
 3016TIP3   OH2 9011   0.952   5.406   0.892
 3016TIP3    H1 9012   0.987   5.381   0.977
 3016TIP3    H2 9013   0.914   5.492   0.906
 3017TIP3   OH2 9014   2.062   2.770   5.186
 3017TIP3    H1 9015   2.153   2.782   5.161
 3017TIP3    H2 9016   2.059   2.683   5.226
 3018TIP3   OH2 9017   5.946   3.120   0.015
 3018TIP3    H1 9018   5.927   3.213   0.010
 3018TIP3    H2 9019   5.977   3.107   0.105
 3019TIP3   OH2 9020   2.316   3.981   2.564
 3019TIP3    H1 9021   2.411   3.967   2.564
 3019TIP3    H2 9022   2.280   3.897   2.593
 3020TIP3   OH2 9023   7.036   0.868   1.034
 3020TIP3    H1 9024   7.019   0.860   0.940
 3020TIP3    H2 9025   7.121   0.825   1.046
 3021TIP3   OH2 9026   3.949   2.922   1.574
 3021TIP3    H1 9027   3.888   2.969   1.516
 3021TIP3    H2 9028   3.985   2.852   1.520
 3022TIP3   OH2 9029   5.677   3.657   2.150
 3022TIP3    H1 9030   5.635   3.685   2.068
 3022TIP3    H2 9031   5.610   3.669   2.217
 3023TIP3   OH2 9032   3.527   2.490   4.172
 3023TIP3    H1 9033   3.442   2.446   4.186
 3023TIP3    H2 9034   3.559   2.508   4.260
 3024TIP3   OH2 9035   4.924   1.994   0.137
 3024TIP3    H1 9036   4.966   2.028   0.057
 3024TIP3    H2 9037   4.995   1.992   0.201
 3025TIP3   OH2 9038   0.286   1.439   2.649
 3025TIP3    H1 9039   0.206   1.466   2.603
 3025TIP3    H2 9040   0.327   1.375   2.591
 3026TIP3   OH2 9041   6.019   6.445   0.862
 3026TIP3    H1 9042   6.008   6.489   0.946
 3026TIP3    H2 9043   5.931   6.419   0.836
 3027TIP3   OH2 9044   6.335   1.958   0.444
 3027TIP3    H1 9045   6.293   1.891   0.391
 3027TIP3    H2 9046   6.421   1.923   0.464
 3028TIP3   OH2 9047   5.880   1.767   5.856
 3028TIP3    H1 9048   5.937   1.752   5.931
 3028TIP3    H2 9049   5.821   1.838   5.884
 3029TIP3   OH2 9050   4.225   3.245   2.651
 3029TIP3    H1 9051   4.218   3.152   2.673
 3029TIP3    H2 9052   4.232   3.247   2.556
 3030TIP3   OH2 9053   7.051   3.524   3.339
 3030TIP3    H1 9054   7.089   3.488   3.259
 3030TIP3    H2 9055   7.114   3.501   3.407
 3031TIP3   OH2 9056   6.386   4.993   3.805
 3031TIP3    H1 9057   6.469   4.947   3.797
 3031TIP3    H2 9058   6.320   4.924   3.802
 3032TIP3   OH2 9059   0.244   4.236   5.491
 3032TIP3    H1 9060   0.181   4.305   5.474
 3032TIP3    H2 9061   0.234   4.176   5.416
 3033TIP3   OH2 9062   4.916   0.045   2.138
 3033TIP3    H1 9063   4.852   0.111   2.166
 3033TIP3    H2 9064   4.977   0.093   2.082
 3034TIP3   OH2 9065   7.211   0.131   3.800
 3034TIP3    H1 9066   7.189   0.071   3.729
 3034TIP3    H2 9067   7.236   0.073   3.873
 3035TIP3   OH2 9068   0.431   5.304   4.720
 3035TIP3    H1 9069   0.522   5.274   4.711
 3035TIP3    H2 9070   0.400   5.313   4.630
 3036TIP3   OH2 9071   6.989   1.581   4.009
 3036TIP3    H1 9072   6.952   1.554   4.094
 3036TIP3    H2 9073   7.068   1.528   4.000
 3037TIP3   OH2 9074   3.158   3.507   4.963
 3037TIP3    H1 9075   3.130   3.522   4.873
 3037TIP3    H2 9076   3.090   3.548   5.017
 3038TIP3   OH2 9077   5.506   5.497   0.909
 3038TIP3    H1 9078   5.412   5.489   0.923
 3038TIP3    H2 9079   5.544   5.429   0.964
 3039TIP3   OH2 9080   4.945   5.048   4.901
 3039TIP3    H1 9081   4.926   5.092   4.984
 3039TIP3    H2 9082   4.933   4.955   4.920
 3040TIP3   OH2 9083   1.223   5.817   0.382
 3040TIP3    H1 9084   1.284   5.807   0.308
 3040TIP3    H2 9085   1.273   5.862   0.449
 3041TIP3   OH2 9086   1.781   4.170   5.028
 3041TIP3    H1 9087   1.773   4.108   4.955
 3041TIP3    H2 9088   1.731   4.128   5.099
 3042TIP3   OH2 9089   1.821   3.009   1.682
 3042TIP3    H1 9090   1.734   2.976   1.708
 3042TIP3    H2 9091   1.807   3.102   1.664
 3043TIP3   OH2 9092   6.834   0.050   1.527
 3043TIP3    H1 9093   6.773   0.069   1.598
 3043TIP3    H2 9094   6.858  -0.042   1.538
 3044TIP3   OH2 9095   4.270   2.905   0.050
 3044TIP3    H1 9096   4.241   2.842  -0.016
 3044TIP3    H2 9097   4.231   2.988   0.024
 3045TIP3   OH2 9098   6.998   2.083   0.042
 3045TIP3    H1 9099   6.990   2.167  -0.003
 3045TIP3    H2 9100   6.994   2.018  -0.029
 3046TIP3   OH2 9101   1.973   4.611   0.218
 3046TIP3    H1 9102   1.968   4.679   0.150
 3046TIP3    H2 9103   2.066   4.587   0.221
 3047TIP3   OH2 9104   5.010   0.924   5.450
 3047TIP3    H1 9105   4.929   0.939   5.401
 3047TIP3    H2 9106   4.986   0.944   5.541
 3048TIP3   OH2 9107   7.034   6.634   5.581
 3048TIP3    H1 9108   6.949   6.672   5.558
 3048TIP3    H2 9109   7.039   6.554   5.529
 3049TIP3   OH2 9110   2.814   6.349   5.440
 3049TIP3    H1 9111   2.837   6.386   5.525
 3049TIP3    H2 9112   2.892   6.302   5.412
 3050TIP3   OH2 9113   5.548   0.554   4.062
 3050TIP3    H1 9114   5.590   0.574   4.146
 3050TIP3    H2 9115   5.527   0.461   4.067
 3051TIP3   OH2 9116   0.657   5.489   0.319
 3051TIP3    H1 9117   0.618   5.569   0.285
 3051TIP3    H2 9118   0.609   5.418   0.277
 3052TIP3   OH2 9119   3.497   3.563   3.637
 3052TIP3    H1 9120   3.540   3.648   3.629
 3052TIP3    H2 9121   3.529   3.513   3.561
 3053TIP3   OH2 9122   5.187   0.985   5.676
 3053TIP3    H1 9123   5.250   1.003   5.606
 3053TIP3    H2 9124   5.198   1.056   5.738
 3054TIP3   OH2 9125   0.909   6.519   1.682
 3054TIP3    H1 9126   0.919   6.566   1.765
 3054TIP3    H2 9127   0.839   6.564   1.636
 3055TIP3   OH2 9128   0.853   1.137   0.509
 3055TIP3    H1 9129   0.828   1.178   0.592
 3055TIP3    H2 9130   0.780   1.156   0.450
 3056TIP3   OH2 9131   1.122   0.270   0.408
 3056TIP3    H1 9132   1.205   0.256   0.454
 3056TIP3    H2 9133   1.140   0.244   0.318
 3057TIP3   OH2 9134   1.606   2.203   4.188
 3057TIP3    H1 9135   1.616   2.285   4.140
 3057TIP3    H2 9136   1.675   2.206   4.255
 3058TIP3   OH2 9137   4.982   5.367   1.038
 3058TIP3    H1 9138   4.910   5.389   1.097
 3058TIP3    H2 9139   4.970   5.423   0.962
 3059TIP3   OH2 9140   3.071   1.133   3.465
 3059TIP3    H1 9141   3.092   1.183   3.386
 3059TIP3    H2 9142   3.035   1.198   3.525
 3060TIP3   OH2 9143   4.695   0.116   3.528
 3060TIP3    H1 9144   4.695   0.156   3.441
 3060TIP3    H2 9145   4.604   0.088   3.541
 3061TIP3   OH2 9146   6.415   1.617   2.695
 3061TIP3    H1 9147   6.445   1.538   2.740
 3061TIP3    H2 9148   6.477   1.685   2.722
 3062TIP3   OH2 9149   5.147   2.163   2.085
 3062TIP3    H1 9150   5.076   2.174   2.147
 3062TIP3    H2 9151   5.195   2.246   2.088
 3063TIP3   OH2 9152   3.252   1.724   2.981
 3063TIP3    H1 9153   3.234   1.809   3.022
 3063TIP3    H2 9154   3.313   1.744   2.910
 3064TIP3   OH2 9155   3.851   3.074   1.378
 3064TIP3    H1 9156   3.832   3.168   1.386
 3064TIP3    H2 9157   3.774   3.037   1.334
 3065TIP3   OH2 9158   0.468   3.924   1.227
 3065TIP3    H1 9159   0.389   3.872   1.216
 3065TIP3    H2 9160   0.514   3.881   1.300
 3066TIP3   OH2 9161   6.566   0.457   0.443
 3066TIP3    H1 9162   6.548   0.548   0.468
 3066TIP3    H2 9163   6.499   0.437   0.378
 3067TIP3   OH2 9164   5.793   1.934   1.928
 3067TIP3    H1 9165   5.716   1.924   1.985
 3067TIP3    H2 9166   5.766   1.893   1.845
 3068TIP3   OH2 9167   1.830   0.945   2.528
 3068TIP3    H1 9168   1.788   0.873   2.480
 3068TIP3    H2 9169   1.773   1.020   2.512
 3069TIP3   OH2 9170   5.736   3.164   5.727
 3069TIP3    H1 9171   5.797   3.132   5.660
 3069TIP3    H2 9172   5.779   3.241   5.763
 3070TIP3   OH2 9173   4.054   3.421   0.479
 3070TIP3    H1 9174   4.078   3.437   0.387
 3070TIP3    H2 9175   4.038   3.327   0.484
 3071TIP3   OH2 9176   3.352   4.967   2.727
 3071TIP3    H1 9177   3.278   4.973   2.667
 3071TIP3    H2 9178   3.361   5.055   2.763
 3072TIP3   OH2 9179   0.119   0.778   5.130
 3072TIP3    H1 9180   0.199   0.790   5.080
 3072TIP3    H2 9181   0.148   0.765   5.220
 3073TIP3   OH2 9182   1.077   5.234   0.404
 3073TIP3    H1 9183   1.052   5.320   0.437
 3073TIP3    H2 9184   0.994   5.187   0.395
 3074TIP3   OH2 9185   3.729   3.275   5.346
 3074TIP3    H1 9186   3.766   3.359   5.321
 3074TIP3    H2 9187   3.695   3.238   5.264
 3075TIP3   OH2 9188   1.672   3.450   1.399
 3075TIP3    H1 9189   1.669   3.539   1.435
 3075TIP3    H2 9190   1.588   3.411   1.424
 3076TIP3   OH2 9191   4.504   5.376   3.177
 3076TIP3    H1 9192   4.461   5.333   3.251
 3076TIP3    H2 9193   4.438   5.436   3.143
 3077TIP3   OH2 9194   0.060   1.690   0.929
 3077TIP3    H1 9195   0.138   1.649   0.892
 3077TIP3    H2 9196  -0.004   1.619   0.935
 3078TIP3   OH2 9197   2.977   2.214   4.477
 3078TIP3    H1 9198   2.914   2.211   4.405
 3078TIP3    H2 9199   2.997   2.307   4.488
 3079TIP3   OH2 9200   6.020   4.233   0.509
 3079TIP3    H1 9201   5.945   4.187   0.547
 3079TIP3    H2 9202   6.094   4.175   0.527
 3080TIP3   OH2 9203   0.904   2.663   5.846
 3080TIP3    H1 9204   0.850   2.725   5.895
 3080TIP3    H2 9205   0.911   2.702   5.758
 3081TIP3   OH2 9206   3.446   6.557   3.870
 3081TIP3    H1 9207   3.534   6.594   3.882
 3081TIP3    H2 9208   3.459   6.463   3.882
 3082TIP3   OH2 9209   4.337   1.552   3.370
 3082TIP3    H1 9210   4.251   1.590   3.352
 3082TIP3    H2 9211   4.376   1.610   3.435
 3083TIP3   OH2 9212   3.023   5.212   2.278
 3083TIP3    H1 9213   2.927   5.204   2.281
 3083TIP3    H2 9214   3.054   5.123   2.266
 3084TIP3   OH2 9215   5.439   5.464   5.436
 3084TIP3    H1 9216   5.486   5.452   5.519
 3084TIP3    H2 9217   5.446   5.558   5.417
 3085TIP3   OH2 9218   5.670   1.941   2.480
 3085TIP3    H1 9219   5.649   1.854   2.514
 3085TIP3    H2 9220   5.766   1.946   2.486
 3086TIP3   OH2 9221   6.351   3.446   5.262
 3086TIP3    H1 9222   6.423   3.509   5.271
 3086TIP3    H2 9223   6.311   3.468   5.178
 3087TIP3   OH2 9224   6.087   5.626   4.909
 3087TIP3    H1 9225   6.110   5.583   4.991
 3087TIP3    H2 9226   6.141   5.583   4.843
 3088TIP3   OH2 9227   1.849   0.827   0.501
 3088TIP3    H1 9228   1.782   0.893   0.488
 3088TIP3    H2 9229   1.913   0.868   0.559
 3089TIP3   OH2 9230   5.949   2.763   4.445
 3089TIP3    H1 9231   6.011   2.696   4.414
 3089TIP3    H2 9232   5.959   2.761   4.541
 3090TIP3   OH2 9233   6.323   4.274   2.154
 3090TIP3    H1 9234   6.249   4.224   2.120
 3090TIP3    H2 9235   6.315   4.360   2.113
 3091TIP3   OH2 9236   4.674   3.575   1.290
 3091TIP3    H1 9237   4.613   3.548   1.221
 3091TIP3    H2 9238   4.672   3.670   1.288
 3092TIP3   OH2 9239   4.771   4.698   5.141
 3092TIP3    H1 9240   4.736   4.730   5.058
 3092TIP3    H2 9241   4.800   4.777   5.186
 3093TIP3   OH2 9242   6.561   1.088   0.892
 3093TIP3    H1 9243   6.623   1.144   0.940
 3093TIP3    H2 9244   6.524   1.031   0.960
 3094TIP3   OH2 9245   6.408   2.492   3.500
 3094TIP3    H1 9246   6.452   2.431   3.560
 3094TIP3    H2 9247   6.405   2.444   3.417
 3095TIP3   OH2 9248   2.767   5.056   1.084
 3095TIP3    H1 9249   2.725   5.092   1.005
 3095TIP3    H2 9250   2.853   5.098   1.086
 3096TIP3   OH2 9251   5.487   6.637   2.847
 3096TIP3    H1 9252   5.455   6.725   2.867
 3096TIP3    H2 9253   5.563   6.651   2.790
 3097TIP3   OH2 9254   6.944   0.606   1.168
 3097TIP3    H1 9255   6.917   0.535   1.110
 3097TIP3    H2 9256   6.923   0.686   1.119
 3098TIP3   OH2 9257   3.601   2.790   2.566
 3098TIP3    H1 9258   3.520   2.741   2.558
 3098TIP3    H2 9259   3.576   2.873   2.607
 3099TIP3   OH2 9260   0.871   3.401   1.066
 3099TIP3    H1 9261   0.885   3.484   1.019
 3099TIP3    H2 9262   0.782   3.375   1.041
 3100TIP3   OH2 9263   0.516   2.127   3.031
 3100TIP3    H1 9264   0.461   2.100   2.957
 3100TIP3    H2 9265   0.455   2.168   3.092
 3101TIP3   OH2 9266   5.018   3.637   1.927
 3101TIP3    H1 9267   5.076   3.566   1.900
 3101TIP3    H2 9268   5.010   3.627   2.022
 3102TIP3   OH2 9269   1.198   6.137   5.680
 3102TIP3    H1 9270   1.238   6.066   5.630
 3102TIP3    H2 9271   1.226   6.216   5.635
 3103TIP3   OH2 9272   2.870   3.638   3.693
 3103TIP3    H1 9273   2.887   3.598   3.778
 3103TIP3    H2 9274   2.864   3.732   3.711
 3104TIP3   OH2 9275   4.400   0.327   1.191
 3104TIP3    H1 9276   4.319   0.344   1.144
 3104TIP3    H2 9277   4.465   0.310   1.123
 3105TIP3   OH2 9278   5.755   6.591   4.409
 3105TIP3    H1 9279   5.696   6.642   4.465
 3105TIP3    H2 9280   5.701   6.566   4.334
 3106TIP3   OH2 9281   3.653   6.405   2.114
 3106TIP3    H1 9282   3.590   6.462   2.069
 3106TIP3    H2 9283   3.693   6.353   2.045
 3107TIP3   OH2 9284   2.286   1.369   2.279
 3107TIP3    H1 9285   2.283   1.417   2.196
 3107TIP3    H2 9286   2.317   1.281   2.255
 3108TIP3   OH2 9287   2.088   4.315   0.929
 3108TIP3    H1 9288   1.994   4.327   0.939
 3108TIP3    H2 9289   2.103   4.224   0.953
 3109TIP3   OH2 9290   0.078   6.274   2.130
 3109TIP3    H1 9291   0.039   6.251   2.045
 3109TIP3    H2 9292   0.151   6.213   2.140
 3110TIP3   OH2 9293   4.249   4.393   3.453
 3110TIP3    H1 9294   4.195   4.353   3.384
 3110TIP3    H2 9295   4.219   4.483   3.457
 3111TIP3   OH2 9296   4.250   1.804   4.567
 3111TIP3    H1 9297   4.305   1.729   4.587
 3111TIP3    H2 9298   4.170   1.767   4.529
 3112TIP3   OH2 9299   2.457   6.650   4.117
 3112TIP3    H1 9300   2.473   6.695   4.034
 3112TIP3    H2 9301   2.540   6.607   4.138
 3113TIP3   OH2 9302   2.783   1.796   1.057
 3113TIP3    H1 9303   2.799   1.737   0.984
 3113TIP3    H2 9304   2.750   1.739   1.127
 3114TIP3   OH2 9305   4.624   0.314   5.021
 3114TIP3    H1 9306   4.672   0.239   4.985
 3114TIP3    H2 9307   4.532   0.287   5.016
 3115TIP3   OH2 9308   7.073   4.900   1.864
 3115TIP3    H1 9309   7.137   4.850   1.814
 3115TIP3    H2 9310   6.989   4.859   1.844
 3116TIP3   OH2 9311   6.248   1.327   3.815
 3116TIP3    H1 9312   6.189   1.394   3.779
 3116TIP3    H2 9313   6.219   1.317   3.906
 3117TIP3   OH2 9314   1.371   5.119   1.599
 3117TIP3    H1 9315   1.377   5.100   1.693
 3117TIP3    H2 9316   1.461   5.117   1.568
 3118TIP3   OH2 9317   5.554   3.391   0.459
 3118TIP3    H1 9318   5.642   3.356   0.446
 3118TIP3    H2 9319   5.567   3.478   0.495
 3119TIP3   OH2 9320   3.385   1.733   4.597
 3119TIP3    H1 9321   3.457   1.706   4.540
 3119TIP3    H2 9322   3.424   1.797   4.656
 3120TIP3   OH2 9323   2.427   3.557   3.575
 3120TIP3    H1 9324   2.499   3.617   3.558
 3120TIP3    H2 9325   2.355   3.588   3.520
 3121TIP3   OH2 9326   3.904   4.659   5.816
 3121TIP3    H1 9327   3.996   4.643   5.798
 3121TIP3    H2 9328   3.893   4.636   5.908
 3122TIP3   OH2 9329   3.940   1.983   3.383
 3122TIP3    H1 9330   3.903   1.912   3.435
 3122TIP3    H2 9331   3.871   2.005   3.321
 3123TIP3   OH2 9332   3.467   5.539   0.434
 3123TIP3    H1 9333   3.444   5.499   0.518
 3123TIP3    H2 9334   3.507   5.468   0.384
 3124TIP3   OH2 9335   4.714   4.802   2.637
 3124TIP3    H1 9336   4.796   4.796   2.687
 3124TIP3    H2 9337   4.647   4.817   2.703
 3125TIP3   OH2 9338   5.247   0.452   3.657
 3125TIP3    H1 9339   5.244   0.459   3.752
 3125TIP3    H2 9340   5.156   0.440   3.630
 3126TIP3   OH2 9341   0.879   6.428   4.839
 3126TIP3    H1 9342   0.838   6.493   4.895
 3126TIP3    H2 9343   0.966   6.463   4.820
 3127TIP3   OH2 9344   0.961   2.108   4.855
 3127TIP3    H1 9345   0.894   2.176   4.856
 3127TIP3    H2 9346   1.005   2.116   4.939
 3128TIP3   OH2 9347   1.578   5.160   5.433
 3128TIP3    H1 9348   1.573   5.240   5.485
 3128TIP3    H2 9349   1.498   5.112   5.455
 3129TIP3   OH2 9350   3.411   6.050   1.210
 3129TIP3    H1 9351   3.498   6.038   1.174
 3129TIP3    H2 9352   3.418   6.127   1.266
 3130TIP3   OH2 9353   5.366   0.274   4.526
 3130TIP3    H1 9354   5.379   0.194   4.576
 3130TIP3    H2 9355   5.285   0.259   4.477
 3131TIP3   OH2 9356   3.144   4.143   0.378
 3131TIP3    H1 9357   3.168   4.235   0.379
 3131TIP3    H2 9358   3.105   4.127   0.464
 3132TIP3   OH2 9359   5.597   1.416   2.062
 3132TIP3    H1 9360   5.667   1.376   2.113
 3132TIP3    H2 9361   5.547   1.467   2.125
 3133TIP3   OH2 9362   2.115   1.298   5.193
 3133TIP3    H1 9363   2.087   1.211   5.163
 3133TIP3    H2 9364   2.175   1.329   5.125
 3134TIP3   OH2 9365   4.594   4.743   5.518
 3134TIP3    H1 9366   4.565   4.689   5.592
 3134TIP3    H2 9367   4.611   4.679   5.448
 3135TIP3   OH2 9368   7.072   3.300   1.641
 3135TIP3    H1 9369   7.054   3.273   1.551
 3135TIP3    H2 9370   6.986   3.321   1.677
 3136TIP3   OH2 9371   1.713   6.414   3.605
 3136TIP3    H1 9372   1.697   6.323   3.579
 3136TIP3    H2 9373   1.682   6.418   3.696
 3137TIP3   OH2 9374   7.121   4.437   1.054
 3137TIP3    H1 9375   7.156   4.356   1.017
 3137TIP3    H2 9376   7.197   4.493   1.066
 3138TIP3   OH2 9377   3.149   5.663   2.470
 3138TIP3    H1 9378   3.243   5.664   2.453
 3138TIP3    H2 9379   3.121   5.753   2.453
 3139TIP3   OH2 9380   0.191   4.913   5.797
 3139TIP3    H1 9381   0.153   4.967   5.867
 3139TIP3    H2 9382   0.209   4.829   5.838
 3140TIP3   OH2 9383   2.187   3.490   2.456
 3140TIP3    H1 9384   2.202   3.395   2.455
 3140TIP3    H2 9385   2.223   3.521   2.373
 3141TIP3   OH2 9386   1.943   3.731   1.419
 3141TIP3    H1 9387   2.032   3.747   1.449
 3141TIP3    H2 9388   1.931   3.637   1.426
 3142TIP3   OH2 9389   4.013   2.656   0.075
 3142TIP3    H1 9390   3.934   2.680   0.124
 3142TIP3    H2 9391   4.079   2.641   0.143
 3143TIP3   OH2 9392   5.074   3.250   2.522
 3143TIP3    H1 9393   5.052   3.341   2.502
 3143TIP3    H2 9394   5.092   3.211   2.436
 3144TIP3   OH2 9395   6.743   2.337   3.468
 3144TIP3    H1 9396   6.744   2.253   3.421
 3144TIP3    H2 9397   6.667   2.330   3.526
 3145TIP3   OH2 9398   0.354   0.682   2.583
 3145TIP3    H1 9399   0.426   0.710   2.526
 3145TIP3    H2 9400   0.290   0.753   2.577
 3146TIP3   OH2 9401   0.636   2.444   0.055
 3146TIP3    H1 9402   0.712   2.404   0.014
 3146TIP3    H2 9403   0.571   2.450  -0.015
 3147TIP3   OH2 9404   6.622   4.491   1.971
 3147TIP3    H1 9405   6.701   4.491   2.025
 3147TIP3    H2 9406   6.648   4.536   1.891
 3148TIP3   OH2 9407   2.586   6.391   2.599
 3148TIP3    H1 9408   2.572   6.438   2.517
 3148TIP3    H2 9409   2.583   6.298   2.573
 3149TIP3   OH2 9410   5.431   3.585   4.898
 3149TIP3    H1 9411   5.510   3.634   4.874
 3149TIP3    H2 9412   5.462   3.498   4.920
 3150TIP3   OH2 9413   6.808   3.614   3.878
 3150TIP3    H1 9414   6.844   3.600   3.790
 3150TIP3    H2 9415   6.847   3.697   3.907
 3151TIP3   OH2 9416   5.579   4.762   1.287
 3151TIP3    H1 9417   5.551   4.827   1.351
 3151TIP3    H2 9418   5.649   4.714   1.330
 3152TIP3   OH2 9419   1.409   6.480   1.621
 3152TIP3    H1 9420   1.372   6.397   1.592
 3152TIP3    H2 9421   1.442   6.462   1.709
 3153TIP3   OH2 9422   1.086   6.754  -0.004
 3153TIP3    H1 9423   1.172   6.749  -0.047
 3153TIP3    H2 9424   1.102   6.718   0.084
 3154TIP3   OH2 9425   2.511   2.517   2.352
 3154TIP3    H1 9426   2.591   2.469   2.332
 3154TIP3    H2 9427   2.507   2.587   2.287
 3155TIP3   OH2 9428   3.702   0.080   4.921
 3155TIP3    H1 9429   3.712   0.016   4.850
 3155TIP3    H2 9430   3.609   0.102   4.921
 3156TIP3   OH2 9431   2.975   4.897   4.090
 3156TIP3    H1 9432   2.993   4.804   4.078
 3156TIP3    H2 9433   2.941   4.904   4.180
 3157TIP3   OH2 9434   2.650   0.637   0.210
 3157TIP3    H1 9435   2.655   0.728   0.180
 3157TIP3    H2 9436   2.599   0.593   0.142
 3158TIP3   OH2 9437   6.861   3.690   3.316
 3158TIP3    H1 9438   6.813   3.660   3.239
 3158TIP3    H2 9439   6.927   3.622   3.331
 3159TIP3   OH2 9440   2.003   4.407   3.529
 3159TIP3    H1 9441   1.917   4.449   3.523
 3159TIP3    H2 9442   2.036   4.408   3.439
 3160TIP3   OH2 9443   7.111   1.103   2.279
 3160TIP3    H1 9444   7.017   1.110   2.261
 3160TIP3    H2 9445   7.122   1.017   2.319
 3161TIP3   OH2 9446   3.144   1.488   0.474
 3161TIP3    H1 9447   3.229   1.523   0.503
 3161TIP3    H2 9448   3.166   1.410   0.423
 3162TIP3   OH2 9449   3.925   3.618   2.795
 3162TIP3    H1 9450   4.000   3.560   2.778
 3162TIP3    H2 9451   3.872   3.611   2.716
 3163TIP3   OH2 9452   0.963   4.228   5.611
 3163TIP3    H1 9453   0.872   4.234   5.580
 3163TIP3    H2 9454   1.011   4.287   5.553
 3164TIP3   OH2 9455   4.254   2.484   1.357
 3164TIP3    H1 9456   4.225   2.396   1.380
 3164TIP3    H2 9457   4.336   2.496   1.405
 3165TIP3   OH2 9458   6.990   2.491   5.618
 3165TIP3    H1 9459   7.016   2.501   5.709
 3165TIP3    H2 9460   7.012   2.574   5.577
 3166TIP3   OH2 9461   6.366   4.767   0.233
 3166TIP3    H1 9462   6.396   4.857   0.223
 3166TIP3    H2 9463   6.279   4.767   0.193
 3167TIP3   OH2 9464   3.214   0.343   1.775
 3167TIP3    H1 9465   3.151   0.272   1.785
 3167TIP3    H2 9466   3.277   0.330   1.846
 3168TIP3   OH2 9467   2.484   1.864   2.409
 3168TIP3    H1 9468   2.571   1.880   2.445
 3168TIP3    H2 9469   2.446   1.798   2.468
 3169TIP3   OH2 9470   1.789   0.146   5.573
 3169TIP3    H1 9471   1.724   0.078   5.554
 3169TIP3    H2 9472   1.791   0.151   5.669
 3170TIP3   OH2 9473   5.499   5.675   2.403
 3170TIP3    H1 9474   5.522   5.768   2.404
 3170TIP3    H2 9475   5.404   5.675   2.391
 3171TIP3   OH2 9476   0.919   2.275   2.281
 3171TIP3    H1 9477   0.871   2.198   2.249
 3171TIP3    H2 9478   0.876   2.298   2.363
 3172TIP3   OH2 9479   4.623   2.973   5.155
 3172TIP3    H1 9480   4.582   3.030   5.089
 3172TIP3    H2 9481   4.627   2.887   5.114
 3173TIP3   OH2 9482   4.298   2.406   1.098
 3173TIP3    H1 9483   4.275   2.451   1.180
 3173TIP3    H2 9484   4.270   2.466   1.029
 3174TIP3   OH2 9485   2.855   1.073   4.528
 3174TIP3    H1 9486   2.939   1.028   4.522
 3174TIP3    H2 9487   2.822   1.075   4.439
 3175TIP3   OH2 9488   6.884   6.040   2.831
 3175TIP3    H1 9489   6.859   6.097   2.757
 3175TIP3    H2 9490   6.858   5.952   2.803
 3176TIP3   OH2 9491   5.119   4.965   4.186
 3176TIP3    H1 9492   5.159   4.962   4.099
 3176TIP3    H2 9493   5.118   5.058   4.209
 3177TIP3   OH2 9494   1.690   6.412   1.087
 3177TIP3    H1 9495   1.627   6.484   1.079
 3177TIP3    H2 9496   1.728   6.424   1.174
 3178TIP3   OH2 9497   5.065   2.722   1.590
 3178TIP3    H1 9498   5.107   2.691   1.510
 3178TIP3    H2 9499   4.972   2.728   1.568
 3179TIP3   OH2 9500   0.017   3.803   2.639
 3179TIP3    H1 9501   0.067   3.725   2.664
 3179TIP3    H2 9502  -0.007   3.843   2.722
 3180TIP3   OH2 9503   3.875   5.684   5.152
 3180TIP3    H1 9504   3.810   5.642   5.208
 3180TIP3    H2 9505   3.872   5.636   5.070
 3181TIP3   OH2 9506   3.095   1.256   3.210
 3181TIP3    H1 9507   3.105   1.349   3.190
 3181TIP3    H2 9508   3.144   1.211   3.141
 3182TIP3   OH2 9509   6.766   4.612   4.848
 3182TIP3    H1 9510   6.847   4.659   4.868
 3182TIP3    H2 9511   6.754   4.551   4.920
 3183TIP3   OH2 9512   6.400   6.142   0.317
 3183TIP3    H1 9513   6.450   6.087   0.257
 3183TIP3    H2 9514   6.396   6.092   0.398
 3184TIP3   OH2 9515   0.349   0.460   4.112
 3184TIP3    H1 9516   0.407   0.529   4.079
 3184TIP3    H2 9517   0.375   0.450   4.204
 3185TIP3   OH2 9518   3.714   3.362   0.732
 3185TIP3    H1 9519   3.738   3.291   0.672
 3185TIP3    H2 9520   3.652   3.416   0.681
 3186TIP3   OH2 9521   4.102   4.074   3.196
 3186TIP3    H1 9522   4.022   4.034   3.163
 3186TIP3    H2 9523   4.072   4.152   3.243
 3187TIP3   OH2 9524   0.260   6.396   0.876
 3187TIP3    H1 9525   0.207   6.336   0.824
 3187TIP3    H2 9526   0.206   6.415   0.953
 3188TIP3   OH2 9527   0.307   2.335   5.331
 3188TIP3    H1 9528   0.368   2.353   5.260
 3188TIP3    H2 9529   0.246   2.409   5.330
 3189TIP3   OH2 9530   6.665   5.652   3.606
 3189TIP3    H1 9531   6.648   5.724   3.667
 3189TIP3    H2 9532   6.582   5.639   3.560
 3190TIP3   OH2 9533   5.512   6.116   4.265
 3190TIP3    H1 9534   5.573   6.059   4.313
 3190TIP3    H2 9535   5.501   6.192   4.321
 3191TIP3   OH2 9536   2.556   0.115   1.304
 3191TIP3    H1 9537   2.571   0.179   1.235
 3191TIP3    H2 9538   2.643   0.087   1.331
 3192TIP3   OH2 9539   3.624   1.126   5.119
 3192TIP3    H1 9540   3.569   1.072   5.061
 3192TIP3    H2 9541   3.680   1.175   5.059
 3193TIP3   OH2 9542   4.835   2.794   5.351
 3193TIP3    H1 9543   4.771   2.725   5.370
 3193TIP3    H2 9544   4.847   2.790   5.256
 3194TIP3   OH2 9545   4.569   6.355   5.178
 3194TIP3    H1 9546   4.593   6.281   5.233
 3194TIP3    H2 9547   4.629   6.350   5.104
 3195TIP3   OH2 9548   5.828   4.223   2.520
 3195TIP3    H1 9549   5.912   4.180   2.508
 3195TIP3    H2 9550   5.849   4.309   2.557
 3196TIP3   OH2 9551   0.383   5.726   4.188
 3196TIP3    H1 9552   0.473   5.730   4.218
 3196TIP3    H2 9553   0.387   5.678   4.105
 3197TIP3   OH2 9554   0.964   4.167   0.583
 3197TIP3    H1 9555   0.883   4.218   0.575
 3197TIP3    H2 9556   1.009   4.206   0.658
 3198TIP3   OH2 9557   0.677   6.530   0.172
 3198TIP3    H1 9558   0.630   6.590   0.229
 3198TIP3    H2 9559   0.615   6.458   0.155
 3199TIP3   OH2 9560   6.589   2.664   3.809
 3199TIP3    H1 9561   6.573   2.697   3.721
 3199TIP3    H2 9562   6.520   2.599   3.823
 3200TIP3   OH2 9563   3.719   2.227   2.802
 3200TIP3    H1 9564   3.740   2.281   2.878
 3200TIP3    H2 9565   3.649   2.275   2.757
 3201TIP3   OH2 9566   1.171   0.741   2.709
 3201TIP3    H1 9567   1.178   0.806   2.778
 3201TIP3    H2 9568   1.228   0.669   2.737
 3202TIP3   OH2 9569   3.933   4.012   5.703
 3202TIP3    H1 9570   3.964   4.085   5.756
 3202TIP3    H2 9571   3.911   4.051   5.619
 3203TIP3   OH2 9572   1.628   2.859   3.940
 3203TIP3    H1 9573   1.546   2.902   3.966
 3203TIP3    H2 9574   1.642   2.887   3.850
 3204TIP3   OH2 9575   7.101   4.825   5.534
 3204TIP3    H1 9576   7.115   4.872   5.616
 3204TIP3    H2 9577   7.006   4.826   5.522
 3205TIP3   OH2 9578   1.522   1.989   3.486
 3205TIP3    H1 9579   1.434   1.992   3.523
 3205TIP3    H2 9580   1.569   2.062   3.527
 3206TIP3   OH2 9581   3.654   2.581   4.411
 3206TIP3    H1 9582   3.734   2.629   4.431
 3206TIP3    H2 9583   3.655   2.505   4.470
 3207TIP3   OH2 9584   2.277   5.734   4.863
 3207TIP3    H1 9585   2.215   5.730   4.790
 3207TIP3    H2 9586   2.356   5.772   4.824
 3208TIP3   OH2 9587   4.199   4.061   5.471
 3208TIP3    H1 9588   4.231   4.021   5.553
 3208TIP3    H2 9589   4.159   3.988   5.424
 3209TIP3   OH2 9590   2.430   2.088   5.771
 3209TIP3    H1 9591   2.509   2.049   5.809
 3209TIP3    H2 9592   2.376   2.014   5.745
 3210TIP3   OH2 9593   4.193   0.117   0.225
 3210TIP3    H1 9594   4.200   0.141   0.318
 3210TIP3    H2 9595   4.171   0.024   0.227
 3211TIP3   OH2 9596   5.624   4.639   0.136
 3211TIP3    H1 9597   5.552   4.696   0.110
 3211TIP3    H2 9598   5.614   4.631   0.231
 3212TIP3   OH2 9599   4.433   6.530   3.715
 3212TIP3    H1 9600   4.367   6.500   3.652
 3212TIP3    H2 9601   4.382   6.558   3.791
 3213TIP3   OH2 9602   2.724   4.780   0.933
 3213TIP3    H1 9603   2.637   4.745   0.952
 3213TIP3    H2 9604   2.734   4.854   0.993
 3214TIP3   OH2 9605   0.062   1.089   2.678
 3214TIP3    H1 9606   0.061   1.134   2.594
 3214TIP3    H2 9607   0.147   1.113   2.717
 3215TIP3   OH2 9608   0.346   5.766   1.299
 3215TIP3    H1 9609   0.334   5.763   1.394
 3215TIP3    H2 9610   0.334   5.675   1.271
 3216TIP3   OH2 9611   0.713   2.895   4.129
 3216TIP3    H1 9612   0.726   2.817   4.183
 3216TIP3    H2 9613   0.676   2.960   4.188
 3217TIP3   OH2 9614   3.268   3.021   0.787
 3217TIP3    H1 9615   3.212   2.946   0.808
 3217TIP3    H2 9616   3.335   2.985   0.729
 3218TIP3   OH2 9617   3.023   4.008  -0.007
 3218TIP3    H1 9618   3.044   3.915  -0.007
 3218TIP3    H2 9619   3.087   4.047   0.052
 3219TIP3   OH2 9620   2.365   5.638   2.215
 3219TIP3    H1 9621   2.384   5.729   2.237
 3219TIP3    H2 9622   2.297   5.643   2.148
 3220TIP3   OH2 9623   4.756   3.456   4.485
 3220TIP3    H1 9624   4.822   3.508   4.531
 3220TIP3    H2 9625   4.806   3.405   4.421
 3221TIP3   OH2 9626   3.747   5.856   3.399
 3221TIP3    H1 9627   3.691   5.842   3.323
 3221TIP3    H2 9628   3.830   5.815   3.376
 3222TIP3   OH2 9629   3.524   2.594   5.428
 3222TIP3    H1 9630   3.489   2.532   5.492
 3222TIP3    H2 9631   3.448   2.648   5.403
 3223TIP3   OH2 9632   3.448   4.587   1.139
 3223TIP3    H1 9633   3.353   4.598   1.144
 3223TIP3    H2 9634   3.473   4.554   1.226
 3224TIP3   OH2 9635   4.874   3.479   4.095
 3224TIP3    H1 9636   4.903   3.448   4.010
 3224TIP3    H2 9637   4.907   3.414   4.157
 3225TIP3   OH2 9638   6.801   5.178   3.056
 3225TIP3    H1 9639   6.797   5.193   3.150
 3225TIP3    H2 9640   6.776   5.261   3.017
 3226TIP3   OH2 9641   0.557   0.179   5.671
 3226TIP3    H1 9642   0.581   0.092   5.639
 3226TIP3    H2 9643   0.461   0.177   5.675
 3227TIP3   OH2 9644   6.760   2.590   0.599
 3227TIP3    H1 9645   6.800   2.588   0.685
 3227TIP3    H2 9646   6.818   2.536   0.544
 3228TIP3   OH2 9647   0.826   4.633   3.038
 3228TIP3    H1 9648   0.904   4.683   3.014
 3228TIP3    H2 9649   0.752   4.687   3.009
 3229TIP3   OH2 9650   5.677   5.519   0.583
 3229TIP3    H1 9651   5.601   5.541   0.529
 3229TIP3    H2 9652   5.727   5.600   0.588
 3230TIP3   OH2 9653   5.070   2.635   0.532
 3230TIP3    H1 9654   5.055   2.697   0.603
 3230TIP3    H2 9655   5.021   2.557   0.558
 3231TIP3   OH2 9656   6.576   3.293   0.292
 3231TIP3    H1 9657   6.666   3.286   0.260
 3231TIP3    H2 9658   6.550   3.383   0.271
 3232TIP3   OH2 9659   5.032   1.309   2.513
 3232TIP3    H1 9660   5.079   1.227   2.528
 3232TIP3    H2 9661   4.952   1.283   2.468
 3233TIP3   OH2 9662   5.979   4.786   3.451
 3233TIP3    H1 9663   5.919   4.805   3.522
 3233TIP3    H2 9664   5.924   4.747   3.383
 3234TIP3   OH2 9665   3.179   0.476   3.682
 3234TIP3    H1 9666   3.162   0.440   3.595
 3234TIP3    H2 9667   3.099   0.459   3.731
 3235TIP3   OH2 9668   4.567   1.167   2.336
 3235TIP3    H1 9669   4.596   1.120   2.414
 3235TIP3    H2 9670   4.479   1.199   2.359
 3236TIP3   OH2 9671   2.608   3.623   3.276
 3236TIP3    H1 9672   2.659   3.685   3.224
 3236TIP3    H2 9673   2.518   3.655   3.270
 3237TIP3   OH2 9674   0.139   4.098   1.159
 3237TIP3    H1 9675   0.220   4.109   1.109
 3237TIP3    H2 9676   0.069   4.103   1.094
 3238TIP3   OH2 9677   0.035   6.718   5.337
 3238TIP3    H1 9678  -0.060   6.706   5.331
 3238TIP3    H2 9679   0.071   6.650   5.281
 3239TIP3   OH2 9680   2.356   3.173   1.668
 3239TIP3    H1 9681   2.291   3.103   1.679
 3239TIP3    H2 9682   2.406   3.173   1.750
 3240TIP3   OH2 9683   3.972   2.397   0.203
 3240TIP3    H1 9684   3.929   2.391   0.118
 3240TIP3    H2 9685   4.062   2.371   0.185
 3241TIP3   OH2 9686   2.545   4.388   4.885
 3241TIP3    H1 9687   2.498   4.306   4.871
 3241TIP3    H2 9688   2.477   4.455   4.882
 3242TIP3   OH2 9689   6.553   2.824   3.085
 3242TIP3    H1 9690   6.599   2.849   3.165
 3242TIP3    H2 9691   6.475   2.778   3.116
 3243TIP3   OH2 9692   0.160   2.452   1.548
 3243TIP3    H1 9693   0.176   2.404   1.467
 3243TIP3    H2 9694   0.064   2.460   1.553
 3244TIP3   OH2 9695   3.274   6.074   2.443
 3244TIP3    H1 9696   3.263   6.148   2.503
 3244TIP3    H2 9697   3.364   6.045   2.458
 3245TIP3   OH2 9698   4.879   4.561   3.520
 3245TIP3    H1 9699   4.829   4.482   3.537
 3245TIP3    H2 9700   4.964   4.545   3.562
 3246TIP3   OH2 9701   4.396   5.134   3.998
 3246TIP3    H1 9702   4.330   5.139   3.929
 3246TIP3    H2 9703   4.463   5.074   3.964
 3247TIP3   OH2 9704   2.515   3.586   2.011
 3247TIP3    H1 9705   2.435   3.545   2.043
 3247TIP3    H2 9706   2.532   3.658   2.073
 3248TIP3   OH2 9707   0.971   3.637   5.026
 3248TIP3    H1 9708   0.898   3.576   5.035
 3248TIP3    H2 9709   0.971   3.686   5.109
 3249TIP3   OH2 9710   3.148   3.009   2.761
 3249TIP3    H1 9711   3.112   2.922   2.743
 3249TIP3    H2 9712   3.084   3.051   2.818
 3250TIP3   OH2 9713   2.243   3.351   4.269
 3250TIP3    H1 9714   2.313   3.288   4.251
 3250TIP3    H2 9715   2.169   3.319   4.218
 3251TIP3   OH2 9716   5.172   4.787   4.706
 3251TIP3    H1 9717   5.141   4.862   4.655
 3251TIP3    H2 9718   5.267   4.787   4.693
 3252TIP3   OH2 9719   2.365   3.786   4.996
 3252TIP3    H1 9720   2.413   3.798   4.914
 3252TIP3    H2 9721   2.427   3.741   5.054
 3253TIP3   OH2 9722   7.161   5.963   2.711
 3253TIP3    H1 9723   7.139   5.905   2.637
 3253TIP3    H2 9724   7.095   6.032   2.707
 3254TIP3   OH2 9725   3.380   6.575   2.229
 3254TIP3    H1 9726   3.458   6.529   2.259
 3254TIP3    H2 9727   3.359   6.533   2.145
 3255TIP3   OH2 9728   3.961   0.494   0.185
 3255TIP3    H1 9729   3.962   0.558   0.114
 3255TIP3    H2 9730   3.959   0.547   0.265
 3256TIP3   OH2 9731   4.218   3.559   5.665
 3256TIP3    H1 9732   4.132   3.524   5.641
 3256TIP3    H2 9733   4.202   3.652   5.682
 3257TIP3   OH2 9734   4.308   2.538   3.927
 3257TIP3    H1 9735   4.343   2.471   3.867
 3257TIP3    H2 9736   4.281   2.488   4.004
 3258TIP3   OH2 9737   3.681   4.461   2.238
 3258TIP3    H1 9738   3.672   4.397   2.308
 3258TIP3    H2 9739   3.660   4.413   2.158
 3259TIP3   OH2 9740   1.367   5.501   3.586
 3259TIP3    H1 9741   1.317   5.425   3.557
 3259TIP3    H2 9742   1.429   5.517   3.514
 3260TIP3   OH2 9743   0.187   6.455   5.339
 3260TIP3    H1 9744   0.107   6.427   5.293
 3260TIP3    H2 9745   0.245   6.487   5.269
 3261TIP3   OH2 9746   5.307   3.406   5.335
 3261TIP3    H1 9747   5.220   3.422   5.298
 3261TIP3    H2 9748   5.297   3.423   5.429
 3262TIP3   OH2 9749   1.079   4.068   4.979
 3262TIP3    H1 9750   1.091   4.154   4.939
 3262TIP3    H2 9751   1.121   4.074   5.064
 3263TIP3   OH2 9752   3.084   0.930   4.525
 3263TIP3    H1 9753   3.080   0.843   4.565
 3263TIP3    H2 9754   3.177   0.943   4.507
 3264TIP3   OH2 9755   4.466   4.272   4.121
 3264TIP3    H1 9756   4.415   4.202   4.163
 3264TIP3    H2 9757   4.461   4.345   4.183
 3265TIP3   OH2 9758   5.560   6.113   4.687
 3265TIP3    H1 9759   5.546   6.051   4.758
 3265TIP3    H2 9760   5.540   6.064   4.607
 3266TIP3   OH2 9761   2.178   1.161   4.247
 3266TIP3    H1 9762   2.216   1.239   4.207
 3266TIP3    H2 9763   2.136   1.192   4.327
 3267TIP3   OH2 9764   1.691   5.569   5.754
 3267TIP3    H1 9765   1.632   5.641   5.732
 3267TIP3    H2 9766   1.739   5.552   5.673
 3268TIP3   OH2 9767   1.022   3.512   5.354
 3268TIP3    H1 9768   0.979   3.592   5.382
 3268TIP3    H2 9769   0.971   3.483   5.278
 3269TIP3   OH2 9770   4.856   6.648   3.717
 3269TIP3    H1 9771   4.945   6.630   3.746
 3269TIP3    H2 9772   4.811   6.564   3.723
 3270TIP3   OH2 9773   2.843   3.626   4.731
 3270TIP3    H1 9774   2.788   3.673   4.668
 3270TIP3    H2 9775   2.791   3.623   4.811
 3271TIP3   OH2 9776   6.281   4.913   1.291
 3271TIP3    H1 9777   6.274   4.844   1.226
 3271TIP3    H2 9778   6.375   4.925   1.304
 3272TIP3   OH2 9779   0.412   1.344   0.676
 3272TIP3    H1 9780   0.405   1.293   0.595
 3272TIP3    H2 9781   0.506   1.356   0.689
 3273TIP3   OH2 9782   4.748   3.850   0.083
 3273TIP3    H1 9783   4.802   3.927   0.067
 3273TIP3    H2 9784   4.758   3.797   0.004
 3274TIP3   OH2 9785   4.303   1.036   4.350
 3274TIP3    H1 9786   4.223   0.983   4.356
 3274TIP3    H2 9787   4.371   0.974   4.325
 3275TIP3   OH2 9788   6.809   6.618   0.038
 3275TIP3    H1 9789   6.799   6.712   0.020
 3275TIP3    H2 9790   6.811   6.612   0.133
 3276TIP3   OH2 9791   2.984   6.504   3.990
 3276TIP3    H1 9792   2.990   6.522   4.084
 3276TIP3    H2 9793   2.952   6.585   3.952
 3277TIP3   OH2 9794   1.873   1.968   0.737
 3277TIP3    H1 9795   1.858   1.933   0.649
 3277TIP3    H2 9796   1.963   2.000   0.734
 3278TIP3   OH2 9797   3.195   1.275   4.766
 3278TIP3    H1 9798   3.259   1.343   4.745
 3278TIP3    H2 9799   3.202   1.264   4.861
 3279TIP3   OH2 9800   2.262   1.587   2.079
 3279TIP3    H1 9801   2.307   1.662   2.117
 3279TIP3    H2 9802   2.332   1.533   2.043
 3280TIP3   OH2 9803   1.063   4.662   5.827
 3280TIP3    H1 9804   1.072   4.756   5.812
 3280TIP3    H2 9805   0.973   4.642   5.801
 3281TIP3   OH2 9806   1.625   1.379   4.945
 3281TIP3    H1 9807   1.650   1.287   4.934
 3281TIP3    H2 9808   1.658   1.422   4.866
 3282TIP3   OH2 9809   6.827   2.393   3.979
 3282TIP3    H1 9810   6.815   2.487   3.968
 3282TIP3    H2 9811   6.745   2.363   4.020
 3283TIP3   OH2 9812   2.730   1.745   0.229
 3283TIP3    H1 9813   2.714   1.695   0.149
 3283TIP3    H2 9814   2.664   1.714   0.291
 3284TIP3   OH2 9815   2.636   3.326   5.028
 3284TIP3    H1 9816   2.714   3.343   5.082
 3284TIP3    H2 9817   2.615   3.234   5.045
 3285TIP3   OH2 9818   4.334   6.498   5.802
 3285TIP3    H1 9819   4.259   6.447   5.834
 3285TIP3    H2 9820   4.321   6.586   5.838
 3286TIP3   OH2 9821   2.636   2.388   3.176
 3286TIP3    H1 9822   2.554   2.416   3.217
 3286TIP3    H2 9823   2.695   2.370   3.250
 3287TIP3   OH2 9824   6.724   5.766   5.388
 3287TIP3    H1 9825   6.748   5.683   5.349
 3287TIP3    H2 9826   6.773   5.832   5.340
 3288TIP3   OH2 9827   1.298   3.467   2.267
 3288TIP3    H1 9828   1.265   3.392   2.217
 3288TIP3    H2 9829   1.364   3.430   2.325
 3289TIP3   OH2 9830   4.910   4.612   5.403
 3289TIP3    H1 9831   4.980   4.547   5.413
 3289TIP3    H2 9832   4.955   4.692   5.377
 3290TIP3   OH2 9833   6.405   1.606   2.389
 3290TIP3    H1 9834   6.450   1.679   2.346
 3290TIP3    H2 9835   6.430   1.614   2.481
 3291TIP3   OH2 9836   7.164   1.412   0.922
 3291TIP3    H1 9837   7.116   1.381   0.845
 3291TIP3    H2 9838   7.236   1.349   0.932
 3292TIP3   OH2 9839   3.841   0.488   2.632
 3292TIP3    H1 9840   3.762   0.527   2.596
 3292TIP3    H2 9841   3.810   0.412   2.681
 3293TIP3   OH2 9842   2.766   3.870   0.991
 3293TIP3    H1 9843   2.839   3.895   1.047
 3293TIP3    H2 9844   2.773   3.775   0.982
 3294TIP3   OH2 9845   1.050   2.646   4.286
 3294TIP3    H1 9846   1.035   2.553   4.275
 3294TIP3    H2 9847   0.976   2.688   4.243
 3295TIP3   OH2 9848   1.433   2.928   1.364
 3295TIP3    H1 9849   1.363   2.992   1.349
 3295TIP3    H2 9850   1.507   2.980   1.394
 3296TIP3   OH2 9851   0.577   6.169   4.247
 3296TIP3    H1 9852   0.587   6.080   4.282
 3296TIP3    H2 9853   0.611   6.163   4.158
 3297TIP3   OH2 9854   3.906   4.350   1.947
 3297TIP3    H1 9855   3.835   4.371   2.008
 3297TIP3    H2 9856   3.867   4.357   1.860
 3298TIP3   OH2 9857   4.907   3.864   5.909
 3298TIP3    H1 9858   4.887   3.774   5.881
 3298TIP3    H2 9859   4.831   3.915   5.880
 3299TIP3   OH2 9860   2.048   0.836   1.500
 3299TIP3    H1 9861   2.032   0.811   1.409
 3299TIP3    H2 9862   1.966   0.877   1.529
 3300TIP3   OH2 9863   1.733   1.206   0.253
 3300TIP3    H1 9864   1.737   1.141   0.182
 3300TIP3    H2 9865   1.824   1.219   0.280
 3301TIP3   OH2 9866   1.787   6.819   5.611
 3301TIP3    H1 9867   1.879   6.797   5.596
 3301TIP3    H2 9868   1.744   6.734   5.622
 3302TIP3   OH2 9869   3.186   6.396   4.470
 3302TIP3    H1 9870   3.167   6.391   4.376
 3302TIP3    H2 9871   3.195   6.304   4.497
 3303TIP3   OH2 9872   3.481   1.387   0.890
 3303TIP3    H1 9873   3.575   1.405   0.894
 3303TIP3    H2 9874   3.447   1.417   0.974
 3304TIP3   OH2 9875   6.732   0.133   0.175
 3304TIP3    H1 9876   6.793   0.088   0.234
 3304TIP3    H2 9877   6.766   0.116   0.087
 3305TIP3   OH2 9878   3.447   5.220   3.726
 3305TIP3    H1 9879   3.463   5.135   3.684
 3305TIP3    H2 9880   3.388   5.266   3.666
 3306TIP3   OH2 9881   3.375   1.400   2.368
 3306TIP3    H1 9882   3.451   1.393   2.309
 3306TIP3    H2 9883   3.408   1.371   2.453
 3307TIP3   OH2 9884   5.567   0.294   4.244
 3307TIP3    H1 9885   5.540   0.209   4.280
 3307TIP3    H2 9886   5.549   0.356   4.315
 3308TIP3   OH2 9887   1.193   0.173   2.755
 3308TIP3    H1 9888   1.102   0.177   2.784
 3308TIP3    H2 9889   1.205   0.082   2.729
 3309TIP3   OH2 9890   7.023   5.597   0.750
 3309TIP3    H1 9891   7.098   5.549   0.715
 3309TIP3    H2 9892   6.947   5.545   0.724
 3310TIP3   OH2 9893   6.657   6.415   0.705
 3310TIP3    H1 9894   6.581   6.469   0.682
 3310TIP3    H2 9895   6.641   6.331   0.661
 3311TIP3   OH2 9896   6.425   5.974   3.198
 3311TIP3    H1 9897   6.432   5.949   3.106
 3311TIP3    H2 9898   6.502   5.935   3.240
 3312TIP3   OH2 9899   6.400   6.620   3.316
 3312TIP3    H1 9900   6.487   6.614   3.355
 3312TIP3    H2 9901   6.382   6.714   3.309
 3313TIP3   OH2 9902   3.373   5.791   0.419
 3313TIP3    H1 9903   3.390   5.698   0.433
 3313TIP3    H2 9904   3.451   5.823   0.374
 3314TIP3   OH2 9905   6.292   3.504   1.995
 3314TIP3    H1 9906   6.227   3.467   2.054
 3314TIP3    H2 9907   6.259   3.483   1.907
 3315TIP3   OH2 9908   7.080   4.147   0.223
 3315TIP3    H1 9909   7.046   4.060   0.243
 3315TIP3    H2 9910   7.009   4.192   0.177
 3316TIP3   OH2 9911   4.446   4.976   2.022
 3316TIP3    H1 9912   4.434   4.953   1.930
 3316TIP3    H2 9913   4.442   4.892   2.068
 3317TIP3   OH2 9914   1.160   1.117   2.473
 3317TIP3    H1 9915   1.126   1.027   2.469
 3317TIP3    H2 9916   1.247   1.107   2.512
 3318TIP3   OH2 9917   4.274   0.840   1.426
 3318TIP3    H1 9918   4.244   0.807   1.510
 3318TIP3    H2 9919   4.194   0.860   1.378
 3319TIP3   OH2 9920   3.909   4.972   5.538
 3319TIP3    H1 9921   3.822   4.983   5.500
 3319TIP3    H2 9922   3.931   4.880   5.521
 3320TIP3   OH2 9923   0.895   3.482   0.559
 3320TIP3    H1 9924   0.804   3.464   0.535
 3320TIP3    H2 9925   0.925   3.545   0.493
 3321TIP3   OH2 9926   6.240   3.689   4.179
 3321TIP3    H1 9927   6.251   3.599   4.149
 3321TIP3    H2 9928   6.319   3.707   4.231
 3322TIP3   OH2 9929   3.561   6.554   1.628
 3322TIP3    H1 9930   3.533   6.643   1.608
 3322TIP3    H2 9931   3.646   6.565   1.672
 3323TIP3   OH2 9932   6.110   6.487   2.505
 3323TIP3    H1 9933   6.132   6.413   2.561
 3323TIP3    H2 9934   6.187   6.543   2.508
 3324TIP3   OH2 9935   2.462   5.963   0.545
 3324TIP3    H1 9936   2.531   5.898   0.532
 3324TIP3    H2 9937   2.400   5.921   0.605
 3325TIP3   OH2 9938   6.276   4.316   1.381
 3325TIP3    H1 9939   6.304   4.353   1.297
 3325TIP3    H2 9940   6.346   4.339   1.442
 3326TIP3   OH2 9941   5.685   0.297   2.483
 3326TIP3    H1 9942   5.598   0.265   2.460
 3326TIP3    H2 9943   5.702   0.368   2.422
 3327TIP3   OH2 9944   2.565   3.193   1.031
 3327TIP3    H1 9945   2.587   3.135   0.958
 3327TIP3    H2 9946   2.562   3.281   0.991
 3328TIP3   OH2 9947   1.413   2.115   3.270
 3328TIP3    H1 9948   1.424   2.054   3.343
 3328TIP3    H2 9949   1.483   2.091   3.208
 3329TIP3   OH2 9950   2.629   1.325   4.861
 3329TIP3    H1 9951   2.663   1.388   4.798
 3329TIP3    H2 9952   2.633   1.241   4.815
 3330TIP3   OH2 9953   3.944   3.475   5.287
 3330TIP3    H1 9954   3.932   3.542   5.219
 3330TIP3    H2 9955   4.023   3.503   5.334
 3331TIP3   OH2 9956   5.027   4.202   1.879
 3331TIP3    H1 9957   5.107   4.210   1.931
 3331TIP3    H2 9958   4.974   4.138   1.927
 3332TIP3   OH2 9959   1.488   5.837   3.561
 3332TIP3    H1 9960   1.434   5.762   3.537
 3332TIP3    H2 9961   1.566   5.799   3.599
 3333TIP3   OH2 9962   7.083   1.726   2.591
 3333TIP3    H1 9963   7.072   1.635   2.563
 3333TIP3    H2 9964   7.011   1.741   2.651
 3334TIP3   OH2 9965   3.827   3.600   0.470
 3334TIP3    H1 9966   3.899   3.538   0.481
 3334TIP3    H2 9967   3.793   3.612   0.559
 3335TIP3   OH2 9968   0.058   1.207   3.824
 3335TIP3    H1 9969   0.111   1.165   3.892
 3335TIP3    H2 9970   0.053   1.143   3.754
 3336TIP3   OH2 9971   0.077   1.640   0.531
 3336TIP3    H1 9972  -0.016   1.635   0.550
 3336TIP3    H2 9973   0.120   1.603   0.609
 3337TIP3   OH2 9974   5.472   1.993   0.326
 3337TIP3    H1 9975   5.479   1.909   0.279
 3337TIP3    H2 9976   5.486   2.059   0.259
 3338TIP3   OH2 9977   5.802   1.871   5.068
 3338TIP3    H1 9978   5.841   1.851   4.983
 3338TIP3    H2 9979   5.729   1.809   5.077
 3339TIP3   OH2 9980   2.845   6.638   4.672
 3339TIP3    H1 9981   2.886   6.561   4.710
 3339TIP3    H2 9982   2.798   6.679   4.745
 3340TIP3   OH2 9983   3.645   2.592   0.500
 3340TIP3    H1 9984   3.711   2.540   0.546
 3340TIP3    H2 9985   3.569   2.534   0.494
 3341TIP3   OH2 9986   3.723   2.145   1.915
 3341TIP3    H1 9987   3.764   2.077   1.862
 3341TIP3    H2 9988   3.668   2.195   1.854
 3342TIP3   OH2 9989   5.236   6.374   3.830
 3342TIP3    H1 9990   5.319   6.370   3.783
 3342TIP3    H2 9991   5.171   6.397   3.764
 3343TIP3   OH2 9992   3.991   1.736   4.760
 3343TIP3    H1 9993   3.996   1.681   4.682
 3343TIP3    H2 9994   3.986   1.825   4.727
 3344TIP3   OH2 9995   2.805   3.153   4.691
 3344TIP3    H1 9996   2.732   3.215   4.701
 3344TIP3    H2 9997   2.779   3.098   4.618
 3345TIP3   OH2 9998   6.721   1.714   4.013
 3345TIP3    H1 9999   6.789   1.649   3.995
 3345TIP3    H210000   6.674   1.723   3.931
 3346TIP3   OH210001   0.253   6.003   0.317
 3346TIP3    H110002   0.248   5.909   0.301
 3346TIP3    H210003   0.254   6.043   0.230
 3347TIP3   OH210004   1.587   4.424   2.594
 3347TIP3    H110005   1.616   4.450   2.506
 3347TIP3    H210006   1.539   4.342   2.580
 3348TIP3   OH210007   6.329   0.488   1.041
 3348TIP3    H110008   6.315   0.416   0.979
 3348TIP3    H210009   6.304   0.566   0.992
 3349TIP3   OH210010   1.243   2.835   0.449
 3349TIP3    H110011   1.249   2.810   0.541
 3349TIP3    H210012   1.328   2.874   0.428
 3350TIP3   OH210013   2.573   3.295   4.744
 3350TIP3    H110014   2.510   3.353   4.701
 3350TIP3    H210015   2.551   3.303   4.838
 3351TIP3   OH210016   6.845   1.528   0.842
 3351TIP3    H110017   6.749   1.526   0.848
 3351TIP3    H210018   6.872   1.591   0.910
 3352TIP3   OH210019   0.861   1.003   1.825
 3352TIP3    H110020   0.907   1.086   1.832
 3352TIP3    H210021   0.925   0.938   1.855
 3353TIP3   OH210022   6.557   0.871   3.527
 3353TIP3    H110023   6.599   0.948   3.565
 3353TIP3    H210024   6.489   0.907   3.470
 3354TIP3   OH210025   1.119   3.050   3.482
 3354TIP3    H110026   1.111   3.054   3.386
 3354TIP3    H210027   1.063   3.122   3.513
 3355TIP3   OH210028   3.139   4.958   3.618
 3355TIP3    H110029   3.148   5.053   3.624
 3355TIP3    H210030   3.228   4.927   3.601
 3356TIP3   OH210031   1.077   6.351   1.905
 3356TIP3    H110032   1.035   6.326   1.822
 3356TIP3    H210033   1.078   6.447   1.903
 3357TIP3   OH210034   3.114   0.233   1.099
 3357TIP3    H110035   3.171   0.265   1.029
 3357TIP3    H210036   3.049   0.179   1.054
 3358TIP3   OH210037   3.812   4.302   1.035
 3358TIP3    H110038   3.892   4.333   0.994
 3358TIP3    H210039   3.813   4.207   1.020
 3359TIP3   OH210040   0.896   2.763   3.764
 3359TIP3    H110041   0.828   2.804   3.710
 3359TIP3    H210042   0.978   2.805   3.736
 3360TIP3   OH210043   0.404   3.236   0.299
 3360TIP3    H110044   0.333   3.181   0.335
 3360TIP3    H210045   0.412   3.307   0.363
 3361TIP3   OH210046   5.360   4.985   0.281
 3361TIP3    H110047   5.434   5.002   0.339
 3361TIP3    H210048   5.397   4.933   0.210
 3362TIP3   OH210049   5.728   4.743   5.535
 3362TIP3    H110050   5.710   4.822   5.585
 3362TIP3    H210051   5.682   4.756   5.452
 3363TIP3   OH210052   1.543   0.015   0.440
 3363TIP3    H110053   1.608   0.063   0.492
 3363TIP3    H210054   1.595  -0.035   0.377
 3364TIP3   OH210055   6.861   3.460   4.093
 3364TIP3    H110056   6.863   3.524   4.022
 3364TIP3    H210057   6.828   3.380   4.052
 3365TIP3   OH210058   6.092   1.382   2.202
 3365TIP3    H110059   6.122   1.439   2.131
 3365TIP3    H210060   6.140   1.300   2.190
 3366TIP3   OH210061   1.412   1.749   5.043
 3366TIP3    H110062   1.326   1.779   5.070
 3366TIP3    H210063   1.395   1.669   4.994
 3367TIP3   OH210064   3.911   6.441   3.876
 3367TIP3    H110065   3.821   6.475   3.878
 3367TIP3    H210066   3.912   6.380   3.802
 3368TIP3   OH210067   3.780   5.032   3.843
 3368TIP3    H110068   3.807   5.088   3.770
 3368TIP3    H210069   3.771   4.945   3.804
 3369TIP3   OH210070   2.291   0.826   5.632
 3369TIP3    H110071   2.205   0.803   5.667
 3369TIP3    H210072   2.342   0.745   5.640
 3370TIP3   OH210073   5.777   5.990   0.834
 3370TIP3    H110074   5.770   5.952   0.922
 3370TIP3    H210075   5.707   5.948   0.784
 3371TIP3   OH210076   6.276   3.973   0.657
 3371TIP3    H110077   6.202   3.912   0.659
 3371TIP3    H210078   6.273   4.011   0.569
 3372TIP3   OH210079   2.417   1.047   4.131
 3372TIP3    H110080   2.476   1.083   4.197
 3372TIP3    H210081   2.329   1.062   4.166
 3373TIP3   OH210082   0.728   1.965   2.936
 3373TIP3    H110083   0.800   2.004   2.986
 3373TIP3    H210084   0.663   2.035   2.930
 3374TIP3   OH210085   5.687   6.630   2.650
 3374TIP3    H110086   5.731   6.579   2.582
 3374TIP3    H210087   5.662   6.712   2.608
 3375TIP3   OH210088   5.418   4.041   0.679
 3375TIP3    H110089   5.398   3.977   0.610
 3375TIP3    H210090   5.334   4.056   0.722
 3376TIP3   OH210091   4.493   3.547   2.954
 3376TIP3    H110092   4.558   3.616   2.949
 3376TIP3    H210093   4.490   3.509   2.866
 3377TIP3   OH210094   6.794   6.281   5.575
 3377TIP3    H110095   6.877   6.320   5.547
 3377TIP3    H210096   6.815   6.189   5.590
 3378TIP3   OH210097   6.368   2.618   4.827
 3378TIP3    H110098   6.360   2.526   4.852
 3378TIP3    H210099   6.407   2.660   4.903
 3379TIP3   OH210100   0.654   0.776   1.240
 3379TIP3    H110101   0.618   0.831   1.170
 3379TIP3    H210102   0.633   0.823   1.321
 3380TIP3   OH210103   6.142   2.313   5.136
 3380TIP3    H110104   6.166   2.406   5.135
 3380TIP3    H210105   6.098   2.301   5.220
 3381TIP3   OH210106   0.291   4.301   2.599
 3381TIP3    H110107   0.229   4.371   2.621
 3381TIP3    H210108   0.376   4.338   2.621
 3382TIP3   OH210109   1.381   3.393   0.914
 3382TIP3    H110110   1.390   3.301   0.939
 3382TIP3    H210111   1.430   3.440   0.981
 3383TIP3   OH210112   2.784   5.226   3.006
 3383TIP3    H110113   2.847   5.206   3.076
 3383TIP3    H210114   2.723   5.287   3.047
 3384TIP3   OH210115   6.970   0.179   0.727
 3384TIP3    H110116   6.881   0.168   0.691
 3384TIP3    H210117   7.000   0.090   0.742
 3385TIP3   OH210118   1.847   2.360   1.250
 3385TIP3    H110119   1.920   2.410   1.286
 3385TIP3    H210120   1.886   2.309   1.179
 3386TIP3   OH210121   2.374   1.125   0.851
 3386TIP3    H110122   2.282   1.109   0.828
 3386TIP3    H210123   2.383   1.220   0.844
 3387TIP3   OH210124   7.189   1.450   5.044
 3387TIP3    H110125   7.230   1.532   5.019
 3387TIP3    H210126   7.110   1.476   5.092
 3388TIP3   OH210127   7.044   4.656   2.283
 3388TIP3    H110128   7.101   4.637   2.358
 3388TIP3    H210129   6.975   4.711   2.320
 3389TIP3   OH210130   0.047   0.583   4.951
 3389TIP3    H110131   0.070   0.662   5.001
 3389TIP3    H210132   0.042   0.613   4.860
 3390TIP3   OH210133   1.417   2.344   5.801
 3390TIP3    H110134   1.346   2.341   5.737
 3390TIP3    H210135   1.392   2.280   5.867
 3391TIP3   OH210136   2.568   1.258   0.551
 3391TIP3    H110137   2.631   1.226   0.487
 3391TIP3    H210138   2.516   1.322   0.503
 3392TIP3   OH210139   5.555   6.226   1.747
 3392TIP3    H110140   5.505   6.199   1.670
 3392TIP3    H210141   5.587   6.144   1.785
 3393TIP3   OH210142   1.371   5.976   4.793
 3393TIP3    H110143   1.457   6.003   4.761
 3393TIP3    H210144   1.361   6.021   4.877
 3394TIP3   OH210145   0.538   1.325   5.753
 3394TIP3    H110146   0.538   1.360   5.664
 3394TIP3    H210147   0.507   1.398   5.807
 3395TIP3   OH210148   4.308   0.695   5.739
 3395TIP3    H110149   4.353   0.645   5.807
 3395TIP3    H210150   4.220   0.710   5.774
 3396TIP3   OH210151   1.605   5.106   5.159
 3396TIP3    H110152   1.583   5.103   5.252
 3396TIP3    H210153   1.556   5.034   5.120
 3397TIP3   OH210154   3.452   3.719   1.765
 3397TIP3    H110155   3.381   3.655   1.768
 3397TIP3    H210156   3.427   3.785   1.830
 3398TIP3   OH210157   0.679   6.707   4.236
 3398TIP3    H110158   0.633   6.784   4.269
 3398TIP3    H210159   0.629   6.633   4.269
 3399TIP3   OH210160   5.198   6.507   5.549
 3399TIP3    H110161   5.195   6.574   5.481
 3399TIP3    H210162   5.286   6.514   5.586
 3400TIP3   OH210163   0.954   0.448   1.521
 3400TIP3    H110164   1.003   0.366   1.513
 3400TIP3    H210165   1.014   0.515   1.490
 3401TIP3   OH210166   2.701   4.146   5.040
 3401TIP3    H110167   2.656   4.087   4.979
 3401TIP3    H210168   2.790   4.153   5.005
 3402TIP3   OH210169   2.094   5.629   2.988
 3402TIP3    H110170   2.025   5.694   3.001
 3402TIP3    H210171   2.063   5.551   3.035
 3403TIP3   OH210172   6.683   0.003   3.388
 3403TIP3    H110173   6.722   0.090   3.383
 3403TIP3    H210174   6.591   0.016   3.364
 3404TIP3   OH210175   5.371   6.557   1.569
 3404TIP3    H110176   5.384   6.508   1.650
 3404TIP3    H210177   5.433   6.630   1.574
 3405TIP3   OH210178   4.691   1.716   0.596
 3405TIP3    H110179   4.653   1.765   0.669
 3405TIP3    H210180   4.637   1.637   0.590
 3406TIP3   OH210181   0.796   3.529   2.578
 3406TIP3    H110182   0.718   3.582   2.595
 3406TIP3    H210183   0.856   3.550   2.649
 3407TIP3   OH210184   1.815   2.338   3.595
 3407TIP3    H110185   1.747   2.369   3.535
 3407TIP3    H210186   1.787   2.369   3.681
 3408TIP3   OH210187   6.003   1.874   0.345
 3408TIP3    H110188   6.034   1.965   0.347
 3408TIP3    H210189   5.910   1.880   0.365
 3409TIP3   OH210190   2.430   0.092   0.697
 3409TIP3    H110191   2.442   0.145   0.776
 3409TIP3    H210192   2.412   0.004   0.730
 3410TIP3   OH210193   2.273   3.353   5.762
 3410TIP3    H110194   2.246   3.262   5.760
 3410TIP3    H210195   2.307   3.371   5.674
 3411TIP3   OH210196   6.923   3.076   4.965
 3411TIP3    H110197   6.922   2.995   4.914
 3411TIP3    H210198   7.016   3.099   4.972
 3412TIP3   OH210199   4.495   1.568   3.126
 3412TIP3    H110200   4.477   1.641   3.066
 3412TIP3    H210201   4.447   1.589   3.206
 3413TIP3   OH210202   1.362   0.690   0.810
 3413TIP3    H110203   1.353   0.688   0.905
 3413TIP3    H210204   1.273   0.705   0.778
 3414TIP3   OH210205   6.525   6.706   2.686
 3414TIP3    H110206   6.577   6.731   2.610
 3414TIP3    H210207   6.562   6.757   2.758
 3415TIP3   OH210208   7.210   0.820   4.307
 3415TIP3    H110209   7.163   0.744   4.272
 3415TIP3    H210210   7.149   0.893   4.298
 3416TIP3   OH210211   0.991   4.293   4.014
 3416TIP3    H110212   1.076   4.329   3.991
 3416TIP3    H210213   0.992   4.289   4.110
 3417TIP3   OH210214   6.773   4.759   1.302
 3417TIP3    H110215   6.724   4.701   1.360
 3417TIP3    H210216   6.864   4.749   1.330
 3418TIP3   OH210217   5.421   1.622   5.820
 3418TIP3    H110218   5.495   1.668   5.779
 3418TIP3    H210219   5.410   1.543   5.767
 3419TIP3   OH210220   5.246   1.631   3.958
 3419TIP3    H110221   5.310   1.561   3.947
 3419TIP3    H210222   5.182   1.618   3.888
 3420TIP3   OH210223   6.301   1.760   1.926
 3420TIP3    H110224   6.339   1.847   1.910
 3420TIP3    H210225   6.207   1.772   1.911
 3421TIP3   OH210226   6.170   0.561   1.816
 3421TIP3    H110227   6.199   0.488   1.761
 3421TIP3    H210228   6.132   0.520   1.893
 3422TIP3   OH210229   3.476   2.807   1.906
 3422TIP3    H110230   3.524   2.759   1.973
 3422TIP3    H210231   3.542   2.861   1.863
 3423TIP3   OH210232   2.596   1.793   1.275
 3423TIP3    H110233   2.633   1.818   1.360
 3423TIP3    H210234   2.579   1.699   1.283
 3424TIP3   OH210235   1.266   2.213   1.264
 3424TIP3    H110236   1.176   2.236   1.286
 3424TIP3    H210237   1.314   2.296   1.271
 3425TIP3   OH210238   2.286   1.307   5.427
 3425TIP3    H110239   2.223   1.265   5.369
 3425TIP3    H210240   2.349   1.349   5.367
 3426TIP3   OH210241   6.712   2.451   5.679
 3426TIP3    H110242   6.800   2.485   5.662
 3426TIP3    H210243   6.662   2.474   5.601
 3427TIP3   OH210244   5.667   5.398   4.871
 3427TIP3    H110245   5.663   5.415   4.777
 3427TIP3    H210246   5.588   5.440   4.906
 3428TIP3   OH210247   2.604   3.981   5.466
 3428TIP3    H110248   2.623   4.027   5.548
 3428TIP3    H210249   2.611   4.049   5.399
 3429TIP3   OH210250   3.231   2.064   5.209
 3429TIP3    H110251   3.290   1.992   5.188
 3429TIP3    H210252   3.164   2.061   5.140
 3430TIP3   OH210253   1.062   6.288   0.071
 3430TIP3    H110254   1.020   6.354   0.127
 3430TIP3    H210255   1.110   6.338   0.006
 3431TIP3   OH210256   0.031   0.289   4.694
 3431TIP3    H110257   0.013   0.378   4.665
 3431TIP3    H210258   0.109   0.263   4.646
 3432TIP3   OH210259   2.291   2.642   2.821
 3432TIP3    H110260   2.218   2.587   2.792
 3432TIP3    H210261   2.338   2.665   2.741
 3433TIP3   OH210262   4.817   1.906   2.983
 3433TIP3    H110263   4.810   1.936   3.073
 3433TIP3    H210264   4.743   1.846   2.971
 3434TIP3   OH210265   4.452   1.612   4.447
 3434TIP3    H110266   4.546   1.605   4.437
 3434TIP3    H210267   4.417   1.586   4.362
 3435TIP3   OH210268   4.868   0.947   1.879
 3435TIP3    H110269   4.852   0.939   1.973
 3435TIP3    H210270   4.922   1.025   1.870
 3436TIP3   OH210271   5.412   3.278   3.989
 3436TIP3    H110272   5.384   3.191   4.019
 3436TIP3    H210273   5.496   3.292   4.032
 3437TIP3   OH210274   1.412   5.786   1.013
 3437TIP3    H110275   1.423   5.872   0.971
 3437TIP3    H210276   1.317   5.779   1.027
 3438TIP3   OH210277   3.772   6.004   2.659
 3438TIP3    H110278   3.734   6.045   2.737
 3438TIP3    H210279   3.862   6.035   2.657
 3439TIP3   OH210280   2.772   0.250   4.898
 3439TIP3    H110281   2.860   0.216   4.917
 3439TIP3    H210282   2.780   0.345   4.908
 3440TIP3   OH210283   1.590   4.712   3.459
 3440TIP3    H110284   1.611   4.621   3.437
 3440TIP3    H210285   1.640   4.729   3.539
 3441TIP3   OH210286   3.542   2.043   3.926
 3441TIP3    H110287   3.636   2.044   3.907
 3441TIP3    H210288   3.520   2.136   3.936
 3442TIP3   OH210289   7.090   5.250   2.004
 3442TIP3    H110290   7.004   5.233   1.966
 3442TIP3    H210291   7.135   5.303   1.938
 3443TIP3   OH210292   3.321   1.643   2.513
 3443TIP3    H110293   3.258   1.649   2.585
 3443TIP3    H210294   3.308   1.556   2.477
 3444TIP3   OH210295   1.380   3.494   5.141
 3444TIP3    H110296   1.394   3.568   5.082
 3444TIP3    H210297   1.379   3.533   5.229
 3445TIP3   OH210298   4.105   0.303   2.830
 3445TIP3    H110299   4.181   0.292   2.772
 3445TIP3    H210300   4.109   0.395   2.856
 3446TIP3   OH210301   4.111   1.448   2.927
 3446TIP3    H110302   4.145   1.480   3.011
 3446TIP3    H210303   4.085   1.527   2.880
 3447TIP3   OH210304   4.963   0.966   4.299
 3447TIP3    H110305   4.940   0.873   4.297
 3447TIP3    H210306   4.944   0.997   4.210
 3448TIP3   OH210307   3.918   4.847   2.019
 3448TIP3    H110308   3.909   4.942   2.023
 3448TIP3    H210309   3.872   4.815   2.096
 3449TIP3   OH210310   0.057   3.813   0.087
 3449TIP3    H110311   0.070   3.747   0.156
 3449TIP3    H210312  -0.036   3.806   0.064
 3450TIP3   OH210313   6.555   1.869   4.808
 3450TIP3    H110314   6.648   1.859   4.788
 3450TIP3    H210315   6.515   1.788   4.777
 3451TIP3   OH210316   7.112   3.476   5.806
 3451TIP3    H110317   7.155   3.520   5.879
 3451TIP3    H210318   7.142   3.385   5.811
 3452TIP3   OH210319   0.660   1.953   1.609
 3452TIP3    H110320   0.665   2.025   1.672
 3452TIP3    H210321   0.651   1.875   1.663
 3453TIP3   OH210322   6.904   1.702   2.791
 3453TIP3    H110323   6.895   1.618   2.836
 3453TIP3    H210324   6.843   1.696   2.718
 3454TIP3   OH210325   2.232   2.660   3.533
 3454TIP3    H110326   2.176   2.598   3.486
 3454TIP3    H210327   2.265   2.719   3.465
 3455TIP3   OH210328   4.090   2.532   5.074
 3455TIP3    H110329   4.039   2.600   5.030
 3455TIP3    H210330   4.074   2.546   5.168
 3456TIP3   OH210331   6.524   0.741   4.693
 3456TIP3    H110332   6.484   0.670   4.743
 3456TIP3    H210333   6.618   0.725   4.701
 3457TIP3   OH210334   2.040   2.391   3.292
 3457TIP3    H110335   2.017   2.336   3.217
 3457TIP3    H210336   2.112   2.446   3.260
 3458TIP3   OH210337   3.816   0.193   5.271
 3458TIP3    H110338   3.878   0.143   5.325
 3458TIP3    H210339   3.731   0.158   5.295
 3459TIP3   OH210340   3.008   4.379   3.439
 3459TIP3    H110341   2.949   4.306   3.456
 3459TIP3    H210342   2.963   4.431   3.372
 3460TIP3   OH210343   1.591   5.725   4.474
 3460TIP3    H110344   1.590   5.818   4.499
 3460TIP3    H210345   1.566   5.725   4.382
 3461TIP3   OH210346   6.438   2.336   2.057
 3461TIP3    H110347   6.475   2.423   2.073
 3461TIP3    H210348   6.356   2.336   2.107
 3462TIP3   OH210349   7.040   0.254   5.620
 3462TIP3    H110350   6.950   0.279   5.641
 3462TIP3    H210351   7.070   0.319   5.556
 3463TIP3   OH210352   5.316   2.664   2.455
 3463TIP3    H110353   5.288   2.723   2.524
 3463TIP3    H210354   5.289   2.706   2.373
 3464TIP3   OH210355   5.964   1.318   4.744
 3464TIP3    H110356   5.877   1.357   4.753
 3464TIP3    H210357   6.012   1.350   4.821
 3465TIP3   OH210358   0.895   3.010   0.999
 3465TIP3    H110359   0.819   2.960   0.970
 3465TIP3    H210360   0.926   3.055   0.920
 3466TIP3   OH210361   1.922   5.207   3.553
 3466TIP3    H110362   1.967   5.193   3.469
 3466TIP3    H210363   1.869   5.285   3.539
 3467TIP3   OH210364   1.395   0.218   0.238
 3467TIP3    H110365   1.421   0.127   0.220
 3467TIP3    H210366   1.479   0.264   0.250
 3468TIP3   OH210367   3.843   0.124   3.739
 3468TIP3    H110368   3.907   0.193   3.724
 3468TIP3    H210369   3.761   0.170   3.756
 3469TIP3   OH210370   2.764   6.176   0.918
 3469TIP3    H110371   2.787   6.125   0.996
 3469TIP3    H210372   2.668   6.176   0.917
 3470TIP3   OH210373   2.873   6.463   2.413
 3470TIP3    H110374   2.817   6.517   2.357
 3470TIP3    H210375   2.945   6.436   2.357
 3471TIP3   OH210376   3.381   1.521   5.496
 3471TIP3    H110377   3.412   1.443   5.542
 3471TIP3    H210378   3.439   1.528   5.420
 3472TIP3   OH210379   5.186   0.610   0.690
 3472TIP3    H110380   5.270   0.635   0.727
 3472TIP3    H210381   5.167   0.525   0.730
 3473TIP3   OH210382   2.694   1.408   3.813
 3473TIP3    H110383   2.699   1.485   3.870
 3473TIP3    H210384   2.664   1.442   3.729
 3474TIP3   OH210385   0.866   1.494   1.781
 3474TIP3    H110386   0.949   1.486   1.734
 3474TIP3    H210387   0.892   1.522   1.869
 3475TIP3   OH210388   6.450   1.776   1.622
 3475TIP3    H110389   6.415   1.861   1.595
 3475TIP3    H210390   6.373   1.727   1.651
 3476TIP3   OH210391   4.983   3.802   3.463
 3476TIP3    H110392   4.945   3.769   3.382
 3476TIP3    H210393   5.074   3.822   3.441
 3477TIP3   OH210394   1.881   4.750   4.336
 3477TIP3    H110395   1.907   4.657   4.331
 3477TIP3    H210396   1.945   4.795   4.281
 3478TIP3   OH210397   6.838   2.111   4.248
 3478TIP3    H110398   6.783   2.055   4.192
 3478TIP3    H210399   6.849   2.061   4.329
 3479TIP3   OH210400   3.697   2.529   3.268
 3479TIP3    H110401   3.615   2.538   3.317
 3479TIP3    H210402   3.728   2.441   3.289
 3480TIP3   OH210403   5.379   2.905   5.615
 3480TIP3    H110404   5.419   2.961   5.548
 3480TIP3    H210405   5.447   2.893   5.681
 3481TIP3   OH210406   6.638   5.495   1.286
 3481TIP3    H110407   6.607   5.413   1.246
 3481TIP3    H210408   6.560   5.549   1.294
 3482TIP3   OH210409   0.677   2.283   4.432
 3482TIP3    H110410   0.651   2.322   4.515
 3482TIP3    H210411   0.594   2.264   4.388
 3483TIP3   OH210412   3.190   5.736   5.184
 3483TIP3    H110413   3.146   5.821   5.181
 3483TIP3    H210414   3.249   5.736   5.108
 3484TIP3   OH210415   6.748   5.386   3.579
 3484TIP3    H110416   6.671   5.335   3.604
 3484TIP3    H210417   6.729   5.475   3.608
 3485TIP3   OH210418   7.116   2.283   3.707
 3485TIP3    H110419   7.081   2.336   3.779
 3485TIP3    H210420   7.097   2.193   3.733
 3486TIP3   OH210421   6.892   3.434   0.481
 3486TIP3    H110422   6.973   3.470   0.517
 3486TIP3    H210423   6.836   3.418   0.557
 3487TIP3   OH210424   3.117   3.085   5.382
 3487TIP3    H110425   3.100   3.039   5.465
 3487TIP3    H210426   3.030   3.100   5.345
 3488TIP3   OH210427   0.463   2.805   0.096
 3488TIP3    H110428   0.501   2.882   0.054
 3488TIP3    H210429   0.375   2.833   0.122
 3489TIP3   OH210430   6.024   2.573   2.462
 3489TIP3    H110431   5.978   2.650   2.430
 3489TIP3    H210432   6.025   2.513   2.388
 3490TIP3   OH210433   3.329   5.194   1.971
 3490TIP3    H110434   3.316   5.157   1.884
 3490TIP3    H210435   3.321   5.288   1.960
 3491TIP3   OH210436   1.315   1.169   5.835
 3491TIP3    H110437   1.391   1.113   5.819
 3491TIP3    H210438   1.277   1.136   5.916
 3492TIP3   OH210439   6.157   3.061   4.819
 3492TIP3    H110440   6.236   3.106   4.848
 3492TIP3    H210441   6.163   2.975   4.861
 3493TIP3   OH210442   2.906   4.627   1.832
 3493TIP3    H110443   2.975   4.676   1.875
 3493TIP3    H210444   2.832   4.688   1.827
 3494TIP3   OH210445   4.414   5.278   3.709
 3494TIP3    H110446   4.360   5.356   3.719
 3494TIP3    H210447   4.489   5.293   3.765
 3495TIP3   OH210448   5.880   1.505   2.902
 3495TIP3    H110449   5.808   1.464   2.951
 3495TIP3    H210450   5.951   1.441   2.905
 3496TIP3   OH210451   0.731   5.724   2.190
 3496TIP3    H110452   0.687   5.640   2.194
 3496TIP3    H210453   0.824   5.703   2.201
 3497TIP3   OH210454   1.640   4.829   4.453
 3497TIP3    H110455   1.713   4.807   4.395
 3497TIP3    H210456   1.682   4.865   4.531
 3498TIP3   OH210457   6.349   5.524   4.137
 3498TIP3    H110458   6.329   5.494   4.225
 3498TIP3    H210459   6.283   5.591   4.118
 3499TIP3   OH210460   6.299   6.593   4.795
 3499TIP3    H110461   6.351   6.520   4.760
 3499TIP3    H210462   6.262   6.559   4.876
 3500TIP3   OH210463   1.669   0.888   4.455
 3500TIP3    H110464   1.685   0.843   4.373
 3500TIP3    H210465   1.725   0.844   4.519
 3501TIP3   OH210466   1.726   4.517   2.996
 3501TIP3    H110467   1.787   4.521   2.921
 3501TIP3    H210468   1.783   4.500   3.071
 3502TIP3   OH210469   6.548   5.233   1.199
 3502TIP3    H110470   6.524   5.150   1.239
 3502TIP3    H210471   6.522   5.223   1.107
 3503TIP3   OH210472   4.110   3.913   2.811
 3503TIP3    H110473   4.108   3.954   2.725
 3503TIP3    H210474   4.066   3.829   2.799
 3504TIP3   OH210475   2.683   0.195   3.812
 3504TIP3    H110476   2.591   0.170   3.809
 3504TIP3    H210477   2.707   0.210   3.721
 3505TIP3   OH210478   3.871   6.181   4.920
 3505TIP3    H110479   3.906   6.203   4.833
 3505TIP3    H210480   3.790   6.135   4.902
 3506TIP3   OH210481   5.368   3.197   2.194
 3506TIP3    H110482   5.448   3.244   2.219
 3506TIP3    H210483   5.300   3.264   2.194
 3507TIP3   OH210484   2.582   5.885   2.496
 3507TIP3    H110485   2.635   5.806   2.484
 3507TIP3    H210486   2.537   5.872   2.579
 3508TIP3   OH210487   5.319   5.595   4.707
 3508TIP3    H110488   5.377   5.671   4.705
 3508TIP3    H210489   5.281   5.592   4.620
 3509TIP3   OH210490   6.647   6.368   3.008
 3509TIP3    H110491   6.740   6.389   3.011
 3509TIP3    H210492   6.604   6.450   2.982
 3510TIP3   OH210493   1.048   4.060  -0.009
 3510TIP3    H110494   1.016   4.003   0.061
 3510TIP3    H210495   1.140   4.036  -0.020
 3511TIP3   OH210496   0.346   5.073   0.062
 3511TIP3    H110497   0.340   5.149   0.120
 3511TIP3    H210498   0.431   5.084   0.017
 3512TIP3   OH210499   4.648   4.740   2.083
 3512TIP3    H110500   4.722   4.683   2.063
 3512TIP3    H210501   4.687   4.820   2.119
 3513TIP3   OH210502   4.133   0.122   4.872
 3513TIP3    H110503   4.101   0.106   4.783
 3513TIP3    H210504   4.075   0.190   4.907
 3514TIP3   OH210505   1.475   0.741   5.462
 3514TIP3    H110506   1.535   0.668   5.475
 3514TIP3    H210507   1.432   0.752   5.547
 3515TIP3   OH210508   6.984   4.872   1.122
 3515TIP3    H110509   6.912   4.933   1.137
 3515TIP3    H210510   7.047   4.893   1.191
 3516TIP3   OH210511   5.810   1.466   0.576
 3516TIP3    H110512   5.776   1.391   0.527
 3516TIP3    H210513   5.814   1.437   0.666
 3517TIP3   OH210514   6.216   6.074   0.117
 3517TIP3    H110515   6.182   5.985   0.120
 3517TIP3    H210516   6.222   6.101   0.209
 3518TIP3   OH210517   5.284   3.233   4.454
 3518TIP3    H110518   5.297   3.235   4.549
 3518TIP3    H210519   5.295   3.141   4.430
 3519TIP3   OH210520   4.720   3.646   2.650
 3519TIP3    H110521   4.731   3.723   2.705
 3519TIP3    H210522   4.701   3.575   2.711
 3520TIP3   OH210523   5.447   0.822   4.065
 3520TIP3    H110524   5.474   0.856   3.979
 3520TIP3    H210525   5.491   0.737   4.072
 3521TIP3   OH210526   1.246   3.460   5.865
 3521TIP3    H110527   1.183   3.396   5.830
 3521TIP3    H210528   1.201   3.544   5.858
 3522TIP3   OH210529   2.437   3.077   2.473
 3522TIP3    H110530   2.381   3.143   2.433
 3522TIP3    H210531   2.523   3.120   2.480
 3523TIP3   OH210532   6.637   0.498   0.750
 3523TIP3    H110533   6.608   0.562   0.685
 3523TIP3    H210534   6.637   0.414   0.703
 3524TIP3   OH210535   1.025   4.044   3.675
 3524TIP3    H110536   0.961   3.973   3.678
 3524TIP3    H210537   1.034   4.065   3.582
 3525TIP3   OH210538   7.027   4.642   4.476
 3525TIP3    H110539   7.106   4.654   4.529
 3525TIP3    H210540   7.054   4.664   4.387
 3526TIP3   OH210541   0.183   5.848   5.542
 3526TIP3    H110542   0.160   5.916   5.605
 3526TIP3    H210543   0.122   5.863   5.469
 3527TIP3   OH210544   6.081   0.377   0.186
 3527TIP3    H110545   6.078   0.401   0.278
 3527TIP3    H210546   6.017   0.307   0.178
 3528TIP3   OH210547   2.147   4.212   2.576
 3528TIP3    H110548   2.119   4.232   2.665
 3528TIP3    H210549   2.211   4.142   2.586
 3529TIP3   OH210550   5.512   1.665   3.796
 3529TIP3    H110551   5.602   1.633   3.805
 3529TIP3    H210552   5.491   1.700   3.883
 3530TIP3   OH210553   0.127   0.323   4.947
 3530TIP3    H110554   0.091   0.304   4.861
 3530TIP3    H210555   0.098   0.412   4.967
 3531TIP3   OH210556   7.052   2.738   1.741
 3531TIP3    H110557   7.048   2.676   1.814
 3531TIP3    H210558   7.096   2.815   1.777
 3532TIP3   OH210559   4.245   5.067   0.630
 3532TIP3    H110560   4.276   5.156   0.647
 3532TIP3    H210561   4.301   5.011   0.684
 3533TIP3   OH210562   5.954   2.826   2.164
 3533TIP3    H110563   5.984   2.869   2.084
 3533TIP3    H210564   6.003   2.869   2.234
 3534TIP3   OH210565   4.737   1.271   0.400
 3534TIP3    H110566   4.653   1.281   0.355
 3534TIP3    H210567   4.797   1.241   0.332
 3535TIP3   OH210568   4.525   3.686   2.469
 3535TIP3    H110569   4.586   3.694   2.543
 3535TIP3    H210570   4.526   3.592   2.449
 3536TIP3   OH210571   1.783   2.890   4.406
 3536TIP3    H110572   1.777   2.970   4.459
 3536TIP3    H210573   1.775   2.819   4.469
 3537TIP3   OH210574   7.161   2.360   5.403
 3537TIP3    H110575   7.092   2.393   5.460
 3537TIP3    H210576   7.235   2.418   5.419
 3538TIP3   OH210577   4.064   4.712   4.895
 3538TIP3    H110578   4.092   4.796   4.932
 3538TIP3    H210579   4.013   4.671   4.965
 3539TIP3   OH210580   2.022   3.463   5.822
 3539TIP3    H110581   2.104   3.448   5.777
 3539TIP3    H210582   1.954   3.437   5.759
 3540TIP3   OH210583   2.171   2.376   0.865
 3540TIP3    H110584   2.143   2.407   0.779
 3540TIP3    H210585   2.257   2.337   0.850
 3541TIP3   OH210586   1.498   2.657   1.455
 3541TIP3    H110587   1.590   2.685   1.452
 3541TIP3    H210588   1.448   2.736   1.434
 3542TIP3   OH210589   3.619   0.259   1.292
 3542TIP3    H110590   3.697   0.222   1.332
 3542TIP3    H210591   3.553   0.258   1.362
 3543TIP3   OH210592   0.877   0.060   3.882
 3543TIP3    H110593   0.954   0.005   3.880
 3543TIP3    H210594   0.910   0.149   3.870
 3544TIP3   OH210595   2.715   5.977   1.335
 3544TIP3    H110596   2.729   5.973   1.430
 3544TIP3    H210597   2.661   5.901   1.315
 3545TIP3   OH210598   4.124   4.482   1.244
 3545TIP3    H110599   4.128   4.576   1.226
 3545TIP3    H210600   4.043   4.469   1.292
 3546TIP3   OH210601   5.656   2.413   2.015
 3546TIP3    H110602   5.692   2.501   2.003
 3546TIP3    H210603   5.645   2.403   2.109
 3547TIP3   OH210604   4.533   2.769   2.398
 3547TIP3    H110605   4.506   2.791   2.487
 3547TIP3    H210606   4.452   2.748   2.352
 3548TIP3   OH210607   3.535   1.780   2.548
 3548TIP3    H110608   3.464   1.717   2.544
 3548TIP3    H210609   3.611   1.733   2.515
 3549TIP3   OH210610   0.986   2.668   3.355
 3549TIP3    H110611   0.939   2.594   3.393
 3549TIP3    H210612   0.952   2.745   3.400
 3550TIP3   OH210613   3.017   5.981   4.771
 3550TIP3    H110614   3.052   5.895   4.751
 3550TIP3    H210615   3.084   6.042   4.741
 3551TIP3   OH210616   5.291   4.738   0.468
 3551TIP3    H110617   5.310   4.820   0.423
 3551TIP3    H210618   5.196   4.730   0.466
 3552TIP3   OH210619   5.926   3.294   2.661
 3552TIP3    H110620   5.977   3.220   2.696
 3552TIP3    H210621   5.991   3.360   2.639
 3553TIP3   OH210622   1.201   4.263   0.693
 3553TIP3    H110623   1.243   4.226   0.771
 3553TIP3    H210624   1.219   4.357   0.700
 3554TIP3   OH210625   6.710   1.534   3.712
 3554TIP3    H110626   6.741   1.538   3.621
 3554TIP3    H210627   6.747   1.453   3.746
 3555TIP3   OH210628   4.156   4.519   4.319
 3555TIP3    H110629   4.248   4.500   4.302
 3555TIP3    H210630   4.122   4.548   4.234
 3556TIP3   OH210631   4.712   3.735   3.044
 3556TIP3    H110632   4.672   3.755   2.960
 3556TIP3    H210633   4.669   3.795   3.106
 3557TIP3   OH210634   6.432   6.342   2.205
 3557TIP3    H110635   6.501   6.385   2.154
 3557TIP3    H210636   6.356   6.342   2.146
 3558TIP3   OH210637   5.193   3.954   5.439
 3558TIP3    H110638   5.260   3.919   5.380
 3558TIP3    H210639   5.110   3.932   5.398
 3559TIP3   OH210640   2.182   2.503   4.474
 3559TIP3    H110641   2.093   2.509   4.509
 3559TIP3    H210642   2.206   2.594   4.454
 3560TIP3   OH210643   1.485   0.668   3.446
 3560TIP3    H110644   1.534   0.642   3.523
 3560TIP3    H210645   1.484   0.591   3.389
 3561TIP3   OH210646   0.267   2.214   2.241
 3561TIP3    H110647   0.239   2.165   2.163
 3561TIP3    H210648   0.306   2.294   2.206
 3562TIP3   OH210649   6.063   1.799   0.031
 3562TIP3    H110650   6.126   1.871   0.037
 3562TIP3    H210651   5.980   1.838   0.058
 3563TIP3   OH210652   6.995   0.472   4.924
 3563TIP3    H110653   6.996   0.407   4.855
 3563TIP3    H210654   7.087   0.491   4.942
 3564TIP3   OH210655   2.213   5.799   2.816
 3564TIP3    H110656   2.179   5.732   2.876
 3564TIP3    H210657   2.215   5.879   2.867
 3565TIP3   OH210658   5.992   4.142   3.914
 3565TIP3    H110659   6.016   4.192   3.992
 3565TIP3    H210660   5.909   4.101   3.936
 3566TIP3   OH210661   4.617   3.148   5.676
 3566TIP3    H110662   4.590   3.103   5.595
 3566TIP3    H210663   4.538   3.193   5.706
 3567TIP3   OH210664   0.805   1.779   0.797
 3567TIP3    H110665   0.895   1.813   0.794
 3567TIP3    H210666   0.750   1.857   0.803
 3568TIP3   OH210667   3.967   3.064   0.912
 3568TIP3    H110668   4.033   3.078   0.844
 3568TIP3    H210669   3.931   3.151   0.929
 3569TIP3   OH210670   3.024   4.145   1.686
 3569TIP3    H110671   2.934   4.160   1.658
 3569TIP3    H210672   3.023   4.157   1.781
 3570TIP3   OH210673   0.208   1.752   4.475
 3570TIP3    H110674   0.253   1.829   4.510
 3570TIP3    H210675   0.258   1.729   4.396
 3571TIP3   OH210676   3.802   1.808   5.020
 3571TIP3    H110677   3.821   1.789   4.928
 3571TIP3    H210678   3.823   1.727   5.067
 3572TIP3   OH210679   2.970   5.047   2.854
 3572TIP3    H110680   2.925   5.108   2.912
 3572TIP3    H210681   3.047   5.019   2.905
 3573TIP3   OH210682   1.003   3.269   5.472
 3573TIP3    H110683   1.015   3.349   5.422
 3573TIP3    H210684   1.069   3.209   5.438
 3574TIP3   OH210685   3.974   5.343   1.427
 3574TIP3    H110686   3.998   5.412   1.488
 3574TIP3    H210687   3.981   5.262   1.477
 3575TIP3   OH210688   0.340   4.160   3.787
 3575TIP3    H110689   0.395   4.131   3.860
 3575TIP3    H210690   0.344   4.256   3.790
 3576TIP3   OH210691   1.622   6.051   4.736
 3576TIP3    H110692   1.706   6.058   4.782
 3576TIP3    H210693   1.647   6.033   4.645
 3577TIP3   OH210694   1.297   0.942   3.571
 3577TIP3    H110695   1.256   0.858   3.552
 3577TIP3    H210696   1.227   0.996   3.607
 3578TIP3   OH210697   0.868   1.246   2.919
 3578TIP3    H110698   0.952   1.279   2.888
 3578TIP3    H210699   0.802   1.292   2.867
 3579TIP3   OH210700  -0.025   0.852   2.852
 3579TIP3    H110701  -0.028   0.940   2.815
 3579TIP3    H210702   0.055   0.852   2.906
 3580TIP3   OH210703   1.450   1.337   1.822
 3580TIP3    H110704   1.515   1.407   1.818
 3580TIP3    H210705   1.380   1.373   1.878
 3581TIP3   OH210706   7.009   1.185   2.729
 3581TIP3    H110707   7.104   1.185   2.720
 3581TIP3    H210708   6.994   1.209   2.821
 3582TIP3   OH210709   4.931   2.425   0.687
 3582TIP3    H110710   5.021   2.406   0.714
 3582TIP3    H210711   4.896   2.479   0.758
 3583TIP3   OH210712   0.614   0.275   1.068
 3583TIP3    H110713   0.668   0.199   1.046
 3583TIP3    H210714   0.652   0.308   1.149
 3584TIP3   OH210715   5.014   1.627   1.852
 3584TIP3    H110716   5.011   1.579   1.769
 3584TIP3    H210717   5.092   1.681   1.846
 3585TIP3   OH210718   7.155   6.343   0.779
 3585TIP3    H110719   7.113   6.357   0.863
 3585TIP3    H210720   7.169   6.249   0.774
 3586TIP3   OH210721   5.204   3.112   5.570
 3586TIP3    H110722   5.241   3.035   5.613
 3586TIP3    H210723   5.155   3.077   5.496
 3587TIP3   OH210724   5.229   4.920   5.566
 3587TIP3    H110725   5.175   4.882   5.497
 3587TIP3    H210726   5.172   4.985   5.607
 3588TIP3   OH210727   5.127   1.891   5.328
 3588TIP3    H110728   5.065   1.874   5.257
 3588TIP3    H210729   5.212   1.894   5.286
 3589TIP3   OH210730   3.309   1.810   2.315
 3589TIP3    H110731   3.285   1.752   2.387
 3589TIP3    H210732   3.257   1.889   2.329
 3590TIP3   OH210733   0.902   1.533   0.868
 3590TIP3    H110734   0.860   1.502   0.948
 3590TIP3    H210735   0.859   1.616   0.848
 3591TIP3   OH210736   5.183   5.583   0.585
 3591TIP3    H110737   5.176   5.524   0.660
 3591TIP3    H210738   5.128   5.658   0.608
 3592TIP3   OH210739   6.689   4.342   5.411
 3592TIP3    H110740   6.594   4.337   5.409
 3592TIP3    H210741   6.715   4.282   5.482
 3593TIP3   OH210742   1.904   2.858   1.172
 3593TIP3    H110743   1.928   2.889   1.084
 3593TIP3    H210744   1.888   2.938   1.221
 3594TIP3   OH210745   2.667   3.137   4.200
 3594TIP3    H110746   2.664   3.061   4.142
 3594TIP3    H210747   2.596   3.193   4.171
 3595TIP3   OH210748   6.867   5.218   4.859
 3595TIP3    H110749   6.853   5.210   4.765
 3595TIP3    H210750   6.862   5.129   4.892
 3596TIP3   OH210751   0.445   2.327   0.199
 3596TIP3    H110752   0.363   2.368   0.228
 3596TIP3    H210753   0.499   2.400   0.170
 3597TIP3   OH210754   4.033   6.693   3.551
 3597TIP3    H110755   3.980   6.615   3.565
 3597TIP3    H210756   3.972   6.766   3.556
 3598TIP3   OH210757   3.276   4.476   3.521
 3598TIP3    H110758   3.302   4.559   3.481
 3598TIP3    H210759   3.190   4.458   3.484
 3599TIP3   OH210760   0.560   2.298   1.720
 3599TIP3    H110761   0.644   2.336   1.692
 3599TIP3    H210762   0.584   2.235   1.788
 3600TIP3   OH210763   2.684   2.793   1.847
 3600TIP3    H110764   2.759   2.826   1.799
 3600TIP3    H210765   2.609   2.811   1.790
 3601TIP3   OH210766   1.562   2.482   2.126
 3601TIP3    H110767   1.647   2.477   2.081
 3601TIP3    H210768   1.550   2.575   2.145
 3602TIP3   OH210769   0.354   4.876   0.648
 3602TIP3    H110770   0.443   4.886   0.682
 3602TIP3    H210771   0.360   4.898   0.556
 3603TIP3   OH210772   7.223   1.499   0.258
 3603TIP3    H110773   7.138   1.542   0.265
 3603TIP3    H210774   7.272   1.530   0.335
 3604TIP3   OH210775   0.862   3.059   2.884
 3604TIP3    H110776   0.839   3.130   2.824
 3604TIP3    H210777   0.951   3.034   2.858
 3605TIP3   OH210778   6.265   3.429   3.120
 3605TIP3    H110779   6.239   3.353   3.068
 3605TIP3    H210780   6.191   3.489   3.113
 3606TIP3   OH210781   4.691   1.704   2.256
 3606TIP3    H110782   4.764   1.744   2.210
 3606TIP3    H210783   4.646   1.776   2.300
 3607TIP3   OH210784   2.998   1.911   2.254
 3607TIP3    H110785   2.968   1.950   2.335
 3607TIP3    H210786   3.054   1.977   2.213
 3608TIP3   OH210787   2.622   0.747   3.245
 3608TIP3    H110788   2.550   0.792   3.200
 3608TIP3    H210789   2.603   0.760   3.338
 3609TIP3   OH210790   0.115   2.777   5.661
 3609TIP3    H110791   0.195   2.815   5.697
 3609TIP3    H210792   0.054   2.850   5.654
 3610TIP3   OH210793   3.969   1.438   4.403
 3610TIP3    H110794   3.900   1.382   4.365
 3610TIP3    H210795   3.936   1.460   4.490
 3611TIP3   OH210796   6.808   0.305   1.845
 3611TIP3    H110797   6.859   0.312   1.765
 3611TIP3    H210798   6.873   0.298   1.915
 3612TIP3   OH210799   6.090   1.376   4.993
 3612TIP3    H110800   6.139   1.306   5.036
 3612TIP3    H210801   6.061   1.433   5.064
 3613TIP3   OH210802   6.669   6.531   5.399
 3613TIP3    H110803   6.708   6.443   5.404
 3613TIP3    H210804   6.657   6.546   5.306
 3614TIP3   OH210805   1.304   4.114   3.659
 3614TIP3    H110806   1.349   4.029   3.661
 3614TIP3    H210807   1.279   4.126   3.567
 3615TIP3   OH210808   4.714   4.142   4.959
 3615TIP3    H110809   4.791   4.196   4.975
 3615TIP3    H210810   4.688   4.111   5.045
 3616TIP3   OH210811   4.659   5.345   2.880
 3616TIP3    H110812   4.666   5.408   2.952
 3616TIP3    H210813   4.621   5.267   2.921
 3617TIP3   OH210814   0.806   1.034   2.477
 3617TIP3    H110815   0.852   0.982   2.542
 3617TIP3    H210816   0.770   1.108   2.526
 3618TIP3   OH210817   5.164   1.123   0.863
 3618TIP3    H110818   5.136   1.214   0.875
 3618TIP3    H210819   5.089   1.079   0.824
 3619TIP3   OH210820   5.115   2.535   1.771
 3619TIP3    H110821   5.181   2.479   1.730
 3619TIP3    H210822   5.106   2.609   1.711
 3620TIP3   OH210823   4.453   5.981   1.185
 3620TIP3    H110824   4.379   5.929   1.154
 3620TIP3    H210825   4.507   5.995   1.107
 3621TIP3   OH210826   4.481   6.577   1.566
 3621TIP3    H110827   4.560   6.545   1.610
 3621TIP3    H210828   4.409   6.535   1.613
 3622TIP3   OH210829   6.855   6.656   1.539
 3622TIP3    H110830   6.793   6.593   1.502
 3622TIP3    H210831   6.918   6.671   1.469
 3623TIP3   OH210832   3.112   0.492   0.167
 3623TIP3    H110833   3.113   0.431   0.093
 3623TIP3    H210834   3.044   0.555   0.145
 3624TIP3   OH210835   0.689   0.146   3.461
 3624TIP3    H110836   0.635   0.086   3.514
 3624TIP3    H210837   0.720   0.092   3.388
 3625TIP3   OH210838   0.473   4.061   5.531
 3625TIP3    H110839   0.391   4.111   5.533
 3625TIP3    H210840   0.453   3.985   5.476
 3626TIP3   OH210841   3.719   4.872   4.465
 3626TIP3    H110842   3.688   4.937   4.528
 3626TIP3    H210843   3.651   4.868   4.398
 3627TIP3   OH210844   2.746   2.345   4.651
 3627TIP3    H110845   2.817   2.311   4.706
 3627TIP3    H210846   2.742   2.284   4.578
 3628TIP3   OH210847   3.822   2.032   3.798
 3628TIP3    H110848   3.825   1.973   3.722
 3628TIP3    H210849   3.859   2.114   3.766
 3629TIP3   OH210850   1.189   4.329   3.785
 3629TIP3    H110851   1.215   4.238   3.769
 3629TIP3    H210852   1.137   4.353   3.708
 3630TIP3   OH210853   0.094   3.179   4.375
 3630TIP3    H110854   0.156   3.150   4.442
 3630TIP3    H210855   0.014   3.198   4.423
 3631TIP3   OH210856   5.251   1.280   3.286
 3631TIP3    H110857   5.275   1.323   3.204
 3631TIP3    H210858   5.233   1.352   3.347
 3632TIP3   OH210859   0.527   2.012   4.963
 3632TIP3    H110860   0.473   2.022   5.041
 3632TIP3    H210861   0.616   2.032   4.993
 3633TIP3   OH210862   3.048   5.869   4.453
 3633TIP3    H110863   3.049   5.838   4.544
 3633TIP3    H210864   2.956   5.889   4.435
 3634TIP3   OH210865   0.349   4.751   2.888
 3634TIP3    H110866   0.356   4.837   2.930
 3634TIP3    H210867   0.437   4.734   2.855
 3635TIP3   OH210868   0.363   2.669   4.817
 3635TIP3    H110869   0.308   2.606   4.863
 3635TIP3    H210870   0.438   2.683   4.875
 3636TIP3   OH210871   5.815   2.913   2.671
 3636TIP3    H110872   5.847   2.993   2.631
 3636TIP3    H210873   5.806   2.851   2.598
 3637TIP3   OH210874   2.965   4.833   5.441
 3637TIP3    H110875   2.907   4.905   5.464
 3637TIP3    H210876   3.024   4.824   5.517
 3638TIP3   OH210877   2.351   1.486   0.149
 3638TIP3    H110878   2.279   1.471   0.088
 3638TIP3    H210879   2.364   1.581   0.149
 3639TIP3   OH210880   4.912   5.314   4.997
 3639TIP3    H110881   4.939   5.388   4.942
 3639TIP3    H210882   4.955   5.330   5.081
 3640TIP3   OH210883   1.393   3.382   0.278
 3640TIP3    H110884   1.440   3.301   0.296
 3640TIP3    H210885   1.427   3.444   0.343
 3641TIP3   OH210886   3.296   2.254   3.369
 3641TIP3    H110887   3.244   2.334   3.374
 3641TIP3    H210888   3.233   2.184   3.387
 3642TIP3   OH210889   0.180   0.993   3.425
 3642TIP3    H110890   0.222   1.059   3.481
 3642TIP3    H210891   0.093   1.028   3.408
 3643TIP3   OH210892   5.166   3.092   0.982
 3643TIP3    H110893   5.242   3.066   1.034
 3643TIP3    H210894   5.095   3.036   1.013
 3644TIP3   OH210895   2.317   3.048   2.042
 3644TIP3    H110896   2.305   2.955   2.061
 3644TIP3    H210897   2.270   3.062   1.960
 3645TIP3   OH210898   3.139   1.276   0.986
 3645TIP3    H110899   3.225   1.314   1.003
 3645TIP3    H210900   3.113   1.313   0.901
 3646TIP3   OH210901   1.876   4.239   4.248
 3646TIP3    H110902   1.901   4.147   4.261
 3646TIP3    H210903   1.781   4.238   4.246
 3647TIP3   OH210904   6.591   3.691   2.917
 3647TIP3    H110905   6.503   3.718   2.943
 3647TIP3    H210906   6.628   3.651   2.995
 3648TIP3   OH210907   0.155   0.791   3.061
 3648TIP3    H110908   0.111   0.778   3.144
 3648TIP3    H210909   0.242   0.825   3.084
 3649TIP3   OH210910   2.789   0.425   5.179
 3649TIP3    H110911   2.748   0.371   5.246
 3649TIP3    H210912   2.717   0.477   5.143
 3650TIP3   OH210913   5.007   4.844   5.284
 3650TIP3    H110914   5.066   4.870   5.213
 3650TIP3    H210915   4.951   4.921   5.297
 3651TIP3   OH210916   0.439   2.227   0.521
 3651TIP3    H110917   0.388   2.308   0.511
 3651TIP3    H210918   0.388   2.174   0.582
 3652TIP3   OH210919   2.683   1.179   2.215
 3652TIP3    H110920   2.606   1.225   2.249
 3652TIP3    H210921   2.647   1.100   2.175
 3653TIP3   OH210922   6.412   1.369   2.264
 3653TIP3    H110923   6.449   1.310   2.330
 3653TIP3    H210924   6.410   1.455   2.306
 3654TIP3   OH210925   2.382   2.690   3.799
 3654TIP3    H110926   2.307   2.726   3.847
 3654TIP3    H210927   2.352   2.683   3.708
 3655TIP3   OH210928   3.690   5.384   4.320
 3655TIP3    H110929   3.779   5.349   4.326
 3655TIP3    H210930   3.635   5.313   4.355
 3656TIP3   OH210931   2.732   1.474   4.629
 3656TIP3    H110932   2.819   1.488   4.667
 3656TIP3    H210933   2.748   1.470   4.534
 3657TIP3   OH210934   4.978   1.343   3.274
 3657TIP3    H110935   4.925   1.324   3.351
 3657TIP3    H210936   5.051   1.396   3.307
 3658TIP3   OH210937  -0.014   2.905   4.160
 3658TIP3    H110938   0.053   2.961   4.200
 3658TIP3    H210939   0.021   2.816   4.169
 3659TIP3   OH210940   3.136   0.322   4.073
 3659TIP3    H110941   3.106   0.253   4.132
 3659TIP3    H210942   3.178   0.387   4.130
 3660TIP3   OH210943   3.788   6.715   1.025
 3660TIP3    H110944   3.866   6.762   0.996
 3660TIP3    H210945   3.768   6.752   1.111
 3661TIP3   OH210946   1.622   0.432   2.341
 3661TIP3    H110947   1.664   0.501   2.393
 3661TIP3    H210948   1.659   0.441   2.253
 3662TIP3   OH210949   0.476   5.006   2.985
 3662TIP3    H110950   0.567   5.033   2.977
 3662TIP3    H210951   0.441   5.059   3.056
 3663TIP3   OH210952   2.577   1.823   4.157
 3663TIP3    H110953   2.644   1.879   4.116
 3663TIP3    H210954   2.501   1.880   4.167
 3664TIP3   OH210955   3.036   2.250   0.374
 3664TIP3    H110956   3.085   2.320   0.417
 3664TIP3    H210957   3.018   2.284   0.287
 3665TIP3   OH210958   0.673   0.426   1.534
 3665TIP3    H110959   0.625   0.503   1.503
 3665TIP3    H210960   0.765   0.450   1.524
 3666TIP3   OH210961   3.475   4.434   3.749
 3666TIP3    H110962   3.478   4.485   3.668
 3666TIP3    H210963   3.461   4.344   3.720
 3667TIP3   OH210964   4.890   0.952   1.005
 3667TIP3    H110965   4.884   0.879   0.943
 3667TIP3    H210966   4.873   1.030   0.953
 3668TIP3   OH210967   5.036   4.289   2.620
 3668TIP3    H110968   5.096   4.362   2.609
 3668TIP3    H210969   4.949   4.326   2.607
 3669TIP3   OH210970   0.289   3.439   0.093
 3669TIP3    H110971   0.364   3.398   0.137
 3669TIP3    H210972   0.326   3.516   0.051
 3670TIP3   OH210973   3.166   1.008   5.045
 3670TIP3    H110974   3.131   1.002   5.134
 3670TIP3    H210975   3.147   0.922   5.007
 3671TIP3   OH210976   4.916   2.004   4.301
 3671TIP3    H110977   5.005   1.971   4.308
 3671TIP3    H210978   4.869   1.938   4.251
 3672TIP3   OH210979   4.387   5.012   0.245
 3672TIP3    H110980   4.326   5.069   0.292
 3672TIP3    H210981   4.367   5.027   0.153
 3673TIP3   OH210982   2.018   3.393   4.775
 3673TIP3    H110983   1.934   3.407   4.732
 3673TIP3    H210984   2.001   3.411   4.868
 3674TIP3   OH210985   2.888   0.563   2.076
 3674TIP3    H110986   2.885   0.657   2.093
 3674TIP3    H210987   2.829   0.524   2.140
 3675TIP3   OH210988   2.689   2.352   5.339
 3675TIP3    H110989   2.742   2.289   5.387
 3675TIP3    H210990   2.622   2.380   5.401
 3676TIP3   OH210991   1.961   0.000   3.537
 3676TIP3    H110992   1.895   0.066   3.517
 3676TIP3    H210993   1.950  -0.018   3.630
 3677TIP3   OH210994   1.306   4.788   1.862
 3677TIP3    H110995   1.262   4.864   1.824
 3677TIP3    H210996   1.379   4.824   1.912
 3678TIP3   OH210997   6.161   6.574   3.138
 3678TIP3    H110998   6.245   6.593   3.180
 3678TIP3    H210999   6.134   6.490   3.177
 3679TIP3   OH211000   1.809   4.155   5.539
 3679TIP3    H111001   1.725   4.108   5.541
 3679TIP3    H211002   1.844   4.146   5.627
 3680TIP3   OH211003   6.083   0.539   2.432
 3680TIP3    H111004   6.041   0.461   2.395
 3680TIP3    H211005   6.134   0.506   2.506
 3681TIP3   OH211006   4.056   6.296   1.887
 3681TIP3    H111007   4.062   6.234   1.959
 3681TIP3    H211008   3.962   6.316   1.880
 3682TIP3   OH211009   6.453   5.910   0.530
 3682TIP3    H111010   6.425   5.968   0.601
 3682TIP3    H211011   6.520   5.854   0.569
 3683TIP3   OH211012   1.668   6.564   5.641
 3683TIP3    H111013   1.674   6.547   5.735
 3683TIP3    H211014   1.605   6.499   5.609
 3684TIP3   OH211015   5.410   1.387   3.972
 3684TIP3    H111016   5.464   1.308   3.987
 3684TIP3    H211017   5.384   1.381   3.880
 3685TIP3   OH211018   6.467   5.380   0.004
 3685TIP3    H111019   6.520   5.326  -0.054
 3685TIP3    H211020   6.489   5.351   0.092
 3686TIP3   OH211021   1.561   1.189   5.599
 3686TIP3    H111022   1.603   1.214   5.681
 3686TIP3    H211023   1.588   1.099   5.585
 3687TIP3   OH211024   0.454   0.122   4.760
 3687TIP3    H111025   0.453   0.216   4.740
 3687TIP3    H211026   0.468   0.080   4.675
 3688TIP3   OH211027   4.868   1.697   0.385
 3688TIP3    H111028   4.897   1.646   0.460
 3688TIP3    H211029   4.819   1.770   0.422
 3689TIP3   OH211030   3.177   3.004   3.070
 3689TIP3    H111031   3.112   2.974   3.007
 3689TIP3    H211032   3.177   2.938   3.139
 3690TIP3   OH211033   4.876   6.570   0.167
 3690TIP3    H111034   4.906   6.530   0.086
 3690TIP3    H211035   4.789   6.533   0.182
 3691TIP3   OH211036   3.382   2.875   0.517
 3691TIP3    H111037   3.439   2.951   0.521
 3691TIP3    H211038   3.427   2.808   0.568
 3692TIP3   OH211039   0.231   4.730   3.250
 3692TIP3    H111040   0.317   4.772   3.251
 3692TIP3    H211041   0.174   4.791   3.298
 3693TIP3   OH211042   3.834   2.318   3.405
 3693TIP3    H111043   3.822   2.289   3.496
 3693TIP3    H211044   3.857   2.239   3.357
 3694TIP3   OH211045   1.745   1.622   0.087
 3694TIP3    H111046   1.792   1.542   0.064
 3694TIP3    H211047   1.664   1.618   0.036
 3695TIP3   OH211048   6.567   3.255   5.102
 3695TIP3    H111049   6.556   3.312   5.177
 3695TIP3    H211050   6.624   3.185   5.132
 3696TIP3   OH211051   6.557   1.950   3.724
 3696TIP3    H111052   6.519   2.036   3.702
 3696TIP3    H211053   6.491   1.887   3.694
 3697TIP3   OH211054   4.582   0.173   4.499
 3697TIP3    H111055   4.636   0.239   4.541
 3697TIP3    H211056   4.541   0.127   4.573
 3698TIP3   OH211057   6.313   4.534   5.613
 3698TIP3    H111058   6.242   4.516   5.674
 3698TIP3    H211059   6.283   4.499   5.529
 3699TIP3   OH211060   0.736   4.969   0.165
 3699TIP3    H111061   0.682   4.895   0.189
 3699TIP3    H211062   0.681   5.021   0.106
 3700TIP3   OH211063   2.856   3.570   1.973
 3700TIP3    H111064   2.846   3.477   1.955
 3700TIP3    H211065   2.899   3.574   2.059
 3701TIP3   OH211066   2.195   4.139   1.796
 3701TIP3    H111067   2.200   4.211   1.859
 3701TIP3    H211068   2.272   4.151   1.741
 3702TIP3   OH211069   1.574   3.623   2.768
 3702TIP3    H111070   1.480   3.636   2.779
 3702TIP3    H211071   1.582   3.536   2.731
 3703TIP3   OH211072   2.044   3.952   2.476
 3703TIP3    H111073   2.137   3.973   2.480
 3703TIP3    H211074   2.005   4.027   2.432
 3704TIP3   OH211075   3.766   3.257   2.702
 3704TIP3    H111076   3.674   3.284   2.697
 3704TIP3    H211077   3.811   3.313   2.639
 3705TIP3   OH211078   6.477   1.363   0.069
 3705TIP3    H111079   6.562   1.319   0.058
 3705TIP3    H211080   6.461   1.361   0.163
 3706TIP3   OH211081   3.470   6.698   5.399
 3706TIP3    H111082   3.425   6.617   5.376
 3706TIP3    H211083   3.518   6.678   5.479
 3707TIP3   OH211084   3.850   3.100   4.044
 3707TIP3    H111085   3.917   3.146   4.094
 3707TIP3    H211086   3.767   3.131   4.080
 3708TIP3   OH211087   3.854   1.846   0.891
 3708TIP3    H111088   3.835   1.753   0.882
 3708TIP3    H211089   3.780   1.881   0.941
 3709TIP3   OH211090   1.528   4.544   1.731
 3709TIP3    H111091   1.527   4.527   1.825
 3709TIP3    H211092   1.562   4.463   1.692
 3710TIP3   OH211093   2.827   6.709   2.862
 3710TIP3    H111094   2.802   6.639   2.803
 3710TIP3    H211095   2.889   6.762   2.812
 3711TIP3   OH211096   6.698   2.841   2.661
 3711TIP3    H111097   6.700   2.900   2.736
 3711TIP3    H211098   6.715   2.897   2.586
 3712TIP3   OH211099   3.121   6.751   3.565
 3712TIP3    H111100   3.059   6.699   3.514
 3712TIP3    H211101   3.090   6.841   3.557
 3713TIP3   OH211102   2.967   2.799   5.864
 3713TIP3    H111103   2.910   2.779   5.790
 3713TIP3    H211104   3.056   2.785   5.831
 3714TIP3   OH211105   4.372   5.809   4.609
 3714TIP3    H111106   4.308   5.856   4.663
 3714TIP3    H211107   4.328   5.794   4.526
 3715TIP3   OH211108   3.895   3.037   5.423
 3715TIP3    H111109   3.922   3.129   5.418
 3715TIP3    H211110   3.827   3.035   5.489
 3716TIP3   OH211111   2.004   2.200   2.676
 3716TIP3    H111112   1.910   2.194   2.658
 3716TIP3    H211113   2.046   2.187   2.591
 3717TIP3   OH211114   6.491   3.802   4.561
 3717TIP3    H111115   6.552   3.865   4.597
 3717TIP3    H211116   6.410   3.817   4.610
 3718TIP3   OH211117   2.780   5.315   3.938
 3718TIP3    H111118   2.861   5.265   3.942
 3718TIP3    H211119   2.750   5.306   3.848
 3719TIP3   OH211120   3.074   1.729   5.721
 3719TIP3    H111121   3.117   1.734   5.635
 3719TIP3    H211122   3.027   1.812   5.728
 3720TIP3   OH211123   1.881   2.513   5.760
 3720TIP3    H111124   1.931   2.485   5.683
 3720TIP3    H211125   1.880   2.609   5.754
 3721TIP3   OH211126   4.385   1.863   3.201
 3721TIP3    H111127   4.343   1.834   3.120
 3721TIP3    H211128   4.319   1.916   3.245
 3722TIP3   OH211129   0.659   0.811   3.752
 3722TIP3    H111130   0.698   0.723   3.752
 3722TIP3    H211131   0.672   0.842   3.842
 3723TIP3   OH211132   6.813   0.489   2.686
 3723TIP3    H111133   6.829   0.583   2.680
 3723TIP3    H211134   6.834   0.456   2.599
 3724TIP3   OH211135   2.926   4.665   5.834
 3724TIP3    H111136   2.947   4.729   5.902
 3724TIP3    H211137   3.003   4.665   5.777
 3725TIP3   OH211138   4.684   6.024   4.417
 3725TIP3    H111139   4.642   6.104   4.387
 3725TIP3    H211140   4.656   6.014   4.508
 3726TIP3   OH211141   4.166   6.395   2.994
 3726TIP3    H111142   4.129   6.441   2.919
 3726TIP3    H211143   4.095   6.340   3.027
 3727TIP3   OH211144   6.555   2.092   5.309
 3727TIP3    H111145   6.617   2.027   5.344
 3727TIP3    H211146   6.545   2.068   5.217
 3728TIP3   OH211147   5.080   4.672   1.303
 3728TIP3    H111148   5.089   4.592   1.355
 3728TIP3    H211149   4.986   4.687   1.299
 3729TIP3   OH211150   3.940   0.886   3.711
 3729TIP3    H111151   4.035   0.874   3.706
 3729TIP3    H211152   3.922   0.965   3.659
 3730TIP3   OH211153   6.815   1.811   3.754
 3730TIP3    H111154   6.736   1.865   3.760
 3730TIP3    H211155   6.782   1.722   3.744
 3731TIP3   OH211156   3.280   3.837   0.789
 3731TIP3    H111157   3.373   3.843   0.771
 3731TIP3    H211158   3.263   3.743   0.797
 3732TIP3   OH211159   4.246   2.831   5.101
 3732TIP3    H111160   4.195   2.750   5.096
 3732TIP3    H211161   4.269   2.850   5.010
 3733TIP3   OH211162   1.678   6.098   5.080
 3733TIP3    H111163   1.695   6.069   4.991
 3733TIP3    H211164   1.613   6.168   5.071
 3734TIP3   OH211165   3.194   2.994   5.118
 3734TIP3    H111166   3.201   3.041   5.201
 3734TIP3    H211167   3.285   2.985   5.088
 3735TIP3   OH211168   3.615   5.111   5.836
 3735TIP3    H111169   3.581   5.056   5.766
 3735TIP3    H211170   3.641   5.049   5.905
 3736TIP3   OH211171   6.337   2.380   2.511
 3736TIP3    H111172   6.388   2.344   2.584
 3736TIP3    H211173   6.247   2.375   2.541
 3737TIP3   OH211174   4.056   4.572   1.644
 3737TIP3    H111175   3.961   4.583   1.647
 3737TIP3    H211176   4.069   4.477   1.641
 3738TIP3   OH211177   3.158   4.508   4.434
 3738TIP3    H111178   3.115   4.500   4.519
 3738TIP3    H211179   3.138   4.425   4.390
 3739TIP3   OH211180   4.639   3.988   5.176
 3739TIP3    H111181   4.550   3.963   5.199
 3739TIP3    H211182   4.668   3.922   5.113
 3740TIP3   OH211183   0.688   4.840   4.125
 3740TIP3    H111184   0.775   4.878   4.109
 3740TIP3    H211185   0.651   4.828   4.038
 3741TIP3   OH211186   2.941   5.180   1.637
 3741TIP3    H111187   2.863   5.200   1.689
 3741TIP3    H211188   2.920   5.099   1.592
 3742TIP3   OH211189   0.686   5.591   1.828
 3742TIP3    H111190   0.600   5.625   1.855
 3742TIP3    H211191   0.669   5.549   1.744
 3743TIP3   OH211192   2.817   4.772   0.683
 3743TIP3    H111193   2.769   4.766   0.766
 3743TIP3    H211194   2.824   4.866   0.666
 3744TIP3   OH211195   5.628   3.190   5.081
 3744TIP3    H111196   5.535   3.184   5.104
 3744TIP3    H211197   5.655   3.276   5.111
 3745TIP3   OH211198   4.135   5.853   4.077
 3745TIP3    H111199   4.079   5.777   4.096
 3745TIP3    H211200   4.130   5.863   3.982
 3746TIP3   OH211201   4.745   5.162   0.167
 3746TIP3    H111202   4.658   5.157   0.128
 3746TIP3    H211203   4.793   5.222   0.110
 3747TIP3   OH211204   1.843   4.513   2.186
 3747TIP3    H111205   1.915   4.465   2.145
 3747TIP3    H211206   1.793   4.447   2.233
 3748TIP3   OH211207   2.488   2.642   3.269
 3748TIP3    H111208   2.513   2.668   3.181
 3748TIP3    H211209   2.566   2.659   3.322
 3749TIP3   OH211210   3.037   1.785   0.220
 3749TIP3    H111211   2.943   1.803   0.222
 3749TIP3    H211212   3.042   1.690   0.203
 3750TIP3   OH211213   5.643   4.171   1.729
 3750TIP3    H111214   5.645   4.152   1.635
 3750TIP3    H211215   5.721   4.127   1.764
 3751TIP3   OH211216   2.947   4.146   2.015
 3751TIP3    H111217   2.989   4.079   2.069
 3751TIP3    H211218   2.995   4.227   2.035
 3752TIP3   OH211219   1.284   0.985   1.257
 3752TIP3    H111220   1.267   0.980   1.163
 3752TIP3    H211221   1.305   1.077   1.273
 3753TIP3   OH211222   4.695   3.616   3.548
 3753TIP3    H111223   4.713   3.638   3.639
 3753TIP3    H211224   4.639   3.687   3.516
 3754TIP3   OH211225   1.428   5.959   1.696
 3754TIP3    H111226   1.498   5.926   1.751
 3754TIP3    H211227   1.465   5.961   1.608
 3755TIP3   OH211228   0.498   6.383   4.934
 3755TIP3    H111229   0.536   6.468   4.908
 3755TIP3    H211230   0.533   6.322   4.870
 3756TIP3   OH211231   6.824   5.439   0.629
 3756TIP3    H111232   6.804   5.420   0.537
 3756TIP3    H211233   6.814   5.355   0.674
 3757TIP3   OH211234   3.319   3.750   2.336
 3757TIP3    H111235   3.232   3.790   2.338
 3757TIP3    H211236   3.305   3.660   2.366
 3758TIP3   OH211237   0.163   1.499   3.845
 3758TIP3    H111238   0.253   1.469   3.857
 3758TIP3    H211239   0.111   1.419   3.837
 3759TIP3   OH211240   1.529   4.731   2.459
 3759TIP3    H111241   1.595   4.720   2.527
 3759TIP3    H211242   1.445   4.729   2.506
 3760TIP3   OH211243   1.265   4.532   5.520
 3760TIP3    H111244   1.350   4.540   5.476
 3760TIP3    H211245   1.287   4.512   5.611
 3761TIP3   OH211246   6.567   1.800   2.813
 3761TIP3    H111247   6.636   1.785   2.879
 3761TIP3    H211248   6.601   1.872   2.760
 3762TIP3   OH211249   0.938   4.246   5.198
 3762TIP3    H111250   1.007   4.246   5.264
 3762TIP3    H211251   0.952   4.326   5.148
 3763TIP3   OH211252   5.290   1.957   5.898
 3763TIP3    H111253   5.270   2.049   5.916
 3763TIP3    H211254   5.362   1.959   5.836
 3764TIP3   OH211255   0.987   0.453   1.225
 3764TIP3    H111256   1.039   0.476   1.149
 3764TIP3    H211257   1.047   0.402   1.280
 3765TIP3   OH211258   6.144   3.032   5.505
 3765TIP3    H111259   6.225   3.002   5.546
 3765TIP3    H211260   6.168   3.046   5.413
 3766TIP3   OH211261   6.783   0.512   0.966
 3766TIP3    H111262   6.773   0.418   0.982
 3766TIP3    H211263   6.718   0.531   0.898
 3767TIP3   OH211264   6.148   5.253   4.280
 3767TIP3    H111265   6.111   5.342   4.288
 3767TIP3    H211266   6.243   5.266   4.280
 3768TIP3   OH211267   2.122   0.510   5.560
 3768TIP3    H111268   2.039   0.484   5.521
 3768TIP3    H211269   2.180   0.436   5.545
 3769TIP3   OH211270   6.762   5.210   1.892
 3769TIP3    H111271   6.741   5.222   1.800
 3769TIP3    H211272   6.679   5.187   1.934
 3770TIP3   OH211273   6.271   6.303   2.670
 3770TIP3    H111274   6.297   6.375   2.727
 3770TIP3    H211275   6.332   6.306   2.597
 3771TIP3   OH211276   3.182   0.203   5.620
 3771TIP3    H111277   3.138   0.218   5.703
 3771TIP3    H211278   3.271   0.235   5.633
 3772TIP3   OH211279   1.362   1.510   0.086
 3772TIP3    H111280   1.418   1.546   0.019
 3772TIP3    H211281   1.417   1.448   0.133
 3773TIP3   OH211282   6.340   5.014   4.634
 3773TIP3    H111283   6.249   4.984   4.634
 3773TIP3    H211284   6.385   4.951   4.577
 3774TIP3   OH211285   4.218   0.649   2.277
 3774TIP3    H111286   4.220   0.641   2.182
 3774TIP3    H211287   4.163   0.725   2.294
 3775TIP3   OH211288   1.106   0.101   5.321
 3775TIP3    H111289   1.151   0.114   5.237
 3775TIP3    H211290   1.064   0.016   5.313
 3776TIP3   OH211291   0.114   1.756   3.766
 3776TIP3    H111292   0.167   1.676   3.770
 3776TIP3    H211293   0.033   1.729   3.723
 3777TIP3   OH211294   0.097   0.372   1.961
 3777TIP3    H111295   0.091   0.285   2.002
 3777TIP3    H211296   0.179   0.370   1.912
 3778TIP3   OH211297   0.393   5.600   3.941
 3778TIP3    H111298   0.444   5.556   3.872
 3778TIP3    H211299   0.327   5.649   3.893
 3779TIP3   OH211300   4.139   4.318   2.958
 3779TIP3    H111301   4.157   4.225   2.975
 3779TIP3    H211302   4.207   4.364   3.006
 3780TIP3   OH211303   2.117   1.186   3.312
 3780TIP3    H111304   2.044   1.124   3.311
 3780TIP3    H211305   2.132   1.205   3.404
 3781TIP3   OH211306   3.368   5.581   4.844
 3781TIP3    H111307   3.334   5.668   4.866
 3781TIP3    H211308   3.290   5.529   4.825
 3782TIP3   OH211309   0.038   3.727   5.499
 3782TIP3    H111310  -0.005   3.788   5.439
 3782TIP3    H211311   0.111   3.776   5.536
 3783TIP3   OH211312   6.654   6.475   2.121
 3783TIP3    H111313   6.730   6.439   2.166
 3783TIP3    H211314   6.649   6.566   2.152
 3784TIP3   OH211315   2.100   0.631   4.573
 3784TIP3    H111316   2.081   0.640   4.480
 3784TIP3    H211317   2.030   0.681   4.617
 3785TIP3   OH211318   1.178   2.589   0.652
 3785TIP3    H111319   1.270   2.579   0.628
 3785TIP3    H211320   1.178   2.643   0.731
 3786TIP3   OH211321   0.231   0.881   4.625
 3786TIP3    H111322   0.203   0.936   4.699
 3786TIP3    H211323   0.285   0.939   4.572
 3787TIP3   OH211324   4.318   1.074   3.948
 3787TIP3    H111325   4.294   1.057   3.857
 3787TIP3    H211326   4.280   1.001   3.997
 3788TIP3   OH211327   3.005   3.972   3.115
 3788TIP3    H111328   2.957   4.050   3.088
 3788TIP3    H211329   3.094   4.004   3.132
 3789TIP3   OH211330   4.667   0.767   5.162
 3789TIP3    H111331   4.719   0.839   5.199
 3789TIP3    H211332   4.673   0.698   5.228
 3790TIP3   OH211333   0.965   4.767   1.106
 3790TIP3    H111334   1.028   4.701   1.076
 3790TIP3    H211335   0.957   4.751   1.200
 3791TIP3   OH211336   2.525   5.795   1.831
 3791TIP3    H111337   2.538   5.875   1.781
 3791TIP3    H211338   2.608   5.779   1.875
 3792TIP3   OH211339   2.387   0.339   2.864
 3792TIP3    H111340   2.467   0.370   2.906
 3792TIP3    H211341   2.318   0.357   2.928
 3793TIP3   OH211342   5.893   5.510   0.033
 3793TIP3    H111343   5.858   5.448  -0.031
 3793TIP3    H211344   5.870   5.474   0.118
 3794TIP3   OH211345   0.042   2.877   0.337
 3794TIP3    H111346   0.061   2.817   0.265
 3794TIP3    H211347   0.128   2.913   0.362
 3795TIP3   OH211348   6.411   0.191   2.129
 3795TIP3    H111349   6.364   0.149   2.057
 3795TIP3    H211350   6.503   0.192   2.100
 3796TIP3   OH211351   5.597   3.148   3.787
 3796TIP3    H111352   5.677   3.097   3.776
 3796TIP3    H211353   5.612   3.200   3.866
 3797TIP3   OH211354   6.161   6.739   4.236
 3797TIP3    H111355   6.105   6.732   4.313
 3797TIP3    H211356   6.200   6.652   4.227
 3798TIP3   OH211357   2.475   6.063   4.926
 3798TIP3    H111358   2.514   6.051   4.839
 3798TIP3    H211359   2.384   6.086   4.909
 3799TIP3   OH211360   7.059   1.878   1.628
 3799TIP3    H111361   7.111   1.930   1.689
 3799TIP3    H211362   7.050   1.934   1.550
 3800TIP3   OH211363   0.844   5.218   0.722
 3800TIP3    H111364   0.879   5.284   0.782
 3800TIP3    H211365   0.920   5.190   0.671
 3801TIP3   OH211366   6.079   3.968   0.241
 3801TIP3    H111367   6.129   3.903   0.291
 3801TIP3    H211368   5.989   3.936   0.243
 3802TIP3   OH211369   6.188   5.869   1.430
 3802TIP3    H111370   6.201   5.860   1.524
 3802TIP3    H211371   6.266   5.914   1.399
 3803TIP3   OH211372   0.387   1.708   4.743
 3803TIP3    H111373   0.399   1.690   4.650
 3803TIP3    H211374   0.474   1.692   4.782
 3804TIP3   OH211375   6.544   2.304   3.675
 3804TIP3    H111376   6.601   2.277   3.747
 3804TIP3    H211377   6.461   2.327   3.718
 3805TIP3   OH211378   5.162   3.088   0.309
 3805TIP3    H111379   5.202   3.173   0.325
 3805TIP3    H211380   5.226   3.025   0.343
 3806TIP3   OH211381   3.964   5.272   2.220
 3806TIP3    H111382   3.999   5.183   2.224
 3806TIP3    H211383   4.037   5.328   2.245
 3807TIP3   OH211384   1.437   0.405   5.587
 3807TIP3    H111385   1.411   0.334   5.646
 3807TIP3    H211386   1.355   0.444   5.558
 3808TIP3   OH211387   5.290   3.984   1.665
 3808TIP3    H111388   5.205   4.016   1.635
 3808TIP3    H211389   5.318   4.049   1.730
 3809TIP3   OH211390   5.555   0.061   2.769
 3809TIP3    H111391   5.470   0.103   2.757
 3809TIP3    H211392   5.555  -0.012   2.707
 3810TIP3   OH211393   2.850   0.139   0.402
 3810TIP3    H111394   2.823   0.222   0.364
 3810TIP3    H211395   2.789   0.126   0.476
 3811TIP3   OH211396   4.959   0.301   4.109
 3811TIP3    H111397   4.995   0.358   4.042
 3811TIP3    H211398   4.864   0.310   4.101
 3812TIP3   OH211399   6.166   0.117   2.547
 3812TIP3    H111400   6.095   0.151   2.492
 3812TIP3    H211401   6.144   0.149   2.635
 3813TIP3   OH211402   6.185   4.308   5.802
 3813TIP3    H111403   6.102   4.320   5.848
 3813TIP3    H211404   6.247   4.365   5.848
 3814TIP3   OH211405   1.781   1.337   3.183
 3814TIP3    H111406   1.872   1.338   3.213
 3814TIP3    H211407   1.756   1.245   3.186
 3815TIP3   OH211408   1.765   6.357   5.443
 3815TIP3    H111409   1.825   6.417   5.488
 3815TIP3    H211410   1.774   6.379   5.351
 3816TIP3   OH211411   6.093   2.660   0.448
 3816TIP3    H111412   6.133   2.709   0.520
 3816TIP3    H211413   6.001   2.686   0.449
 3817TIP3   OH211414   7.049   4.156   3.395
 3817TIP3    H111415   6.974   4.209   3.370
 3817TIP3    H211416   7.040   4.075   3.345
 3818TIP3   OH211417   3.918   6.351   2.674
 3818TIP3    H111418   3.939   6.272   2.623
 3818TIP3    H211419   3.839   6.327   2.723
 3819TIP3   OH211420   4.150   2.452   4.156
 3819TIP3    H111421   4.124   2.361   4.141
 3819TIP3    H211422   4.214   2.448   4.227
 3820TIP3   OH211423   0.635   4.716   2.838
 3820TIP3    H111424   0.661   4.702   2.747
 3820TIP3    H211425   0.677   4.798   2.862
 3821TIP3   OH211426   1.399   0.069   1.539
 3821TIP3    H111427   1.349  -0.005   1.574
 3821TIP3    H211428   1.335   0.121   1.492
 3822TIP3   OH211429   3.125   6.646   2.134
 3822TIP3    H111430   3.218   6.669   2.135
 3822TIP3    H211431   3.081   6.726   2.106
 3823TIP3   OH211432   5.592   4.188   4.312
 3823TIP3    H111433   5.586   4.098   4.344
 3823TIP3    H211434   5.505   4.225   4.329
 3824TIP3   OH211435   6.974   1.279   5.644
 3824TIP3    H111436   6.976   1.328   5.726
 3824TIP3    H211437   6.881   1.270   5.623
 3825TIP3   OH211438   1.301   2.855   3.011
 3825TIP3    H111439   1.225   2.818   3.056
 3825TIP3    H211440   1.304   2.808   2.927
 3826TIP3   OH211441   6.935   5.572   3.180
 3826TIP3    H111442   6.863   5.530   3.133
 3826TIP3    H211443   6.898   5.593   3.266
 3827TIP3   OH211444   0.456   5.746   1.022
 3827TIP3    H111445   0.428   5.750   1.114
 3827TIP3    H211446   0.478   5.654   1.007
 3828TIP3   OH211447   0.373   2.557   3.599
 3828TIP3    H111448   0.343   2.592   3.683
 3828TIP3    H211449   0.306   2.494   3.574
 3829TIP3   OH211450   1.250   0.838   4.884
 3829TIP3    H111451   1.180   0.823   4.822
 3829TIP3    H211452   1.316   0.886   4.835
 3830TIP3   OH211453   4.231   6.484   1.990
 3830TIP3    H111454   4.159   6.538   2.020
 3830TIP3    H211455   4.192   6.425   1.925
 3831TIP3   OH211456   1.945   3.267   2.911
 3831TIP3    H111457   1.882   3.262   2.838
 3831TIP3    H211458   1.982   3.355   2.904
 3832TIP3   OH211459   5.279   1.306   4.886
 3832TIP3    H111460   5.199   1.342   4.923
 3832TIP3    H211461   5.343   1.308   4.958
 3833TIP3   OH211462   3.453   1.491   5.084
 3833TIP3    H111463   3.461   1.397   5.066
 3833TIP3    H211464   3.397   1.524   5.014
 3834TIP3   OH211465   2.260   4.516   4.322
 3834TIP3    H111466   2.177   4.486   4.284
 3834TIP3    H211467   2.297   4.438   4.363
 3835TIP3   OH211468   0.889   2.741   5.589
 3835TIP3    H111469   0.813   2.799   5.585
 3835TIP3    H211470   0.874   2.677   5.520
 3836TIP3   OH211471   2.071   3.191   3.455
 3836TIP3    H111472   2.043   3.249   3.384
 3836TIP3    H211473   2.048   3.103   3.425
 3837TIP3   OH211474   5.460   4.181   2.189
 3837TIP3    H111475   5.491   4.240   2.257
 3837TIP3    H211476   5.536   4.166   2.133
 3838TIP3   OH211477   0.437   5.943   0.824
 3838TIP3    H111478   0.504   5.986   0.877
 3838TIP3    H211479   0.444   5.850   0.847
 3839TIP3   OH211480   0.154   4.095   4.611
 3839TIP3    H111481   0.213   4.131   4.546
 3839TIP3    H211482   0.121   4.014   4.572
 3840TIP3   OH211483   1.793   4.919   4.703
 3840TIP3    H111484   1.715   4.951   4.747
 3840TIP3    H211485   1.857   4.990   4.712
 3841TIP3   OH211486   4.632   4.033   0.507
 3841TIP3    H111487   4.651   4.049   0.414
 3841TIP3    H211488   4.706   3.979   0.537
 3842TIP3   OH211489   2.522   1.184   1.681
 3842TIP3    H111490   2.517   1.091   1.703
 3842TIP3    H211491   2.458   1.226   1.739
 3843TIP3   OH211492   7.211   1.863   5.318
 3843TIP3    H111493   7.170   1.890   5.400
 3843TIP3    H211494   7.170   1.780   5.296
 3844TIP3   OH211495   4.743   0.818   2.150
 3844TIP3    H111496   4.654   0.795   2.176
 3844TIP3    H211497   4.768   0.889   2.209
 3845TIP3   OH211498   1.468   1.730   3.195
 3845TIP3    H111499   1.405   1.757   3.128
 3845TIP3    H211500   1.554   1.748   3.156
 3846TIP3   OH211501   1.264   5.750   3.276
 3846TIP3    H111502   1.222   5.831   3.302
 3846TIP3    H211503   1.284   5.761   3.183
 3847TIP3   OH211504   0.022   0.142   5.114
 3847TIP3    H111505   0.066   0.177   5.036
 3847TIP3    H211506   0.072   0.178   5.187
 3848TIP3   OH211507   4.417   5.516   1.368
 3848TIP3    H111508   4.424   5.550   1.457
 3848TIP3    H211509   4.460   5.431   1.371
 3849TIP3   OH211510   5.241   1.700   4.980
 3849TIP3    H111511   5.194   1.617   4.991
 3849TIP3    H211512   5.304   1.683   4.910
 3850TIP3   OH211513   5.478   4.519   4.745
 3850TIP3    H111514   5.531   4.440   4.742
 3850TIP3    H211515   5.388   4.487   4.743
 3851TIP3   OH211516   5.285   0.998   5.414
 3851TIP3    H111517   5.196   0.970   5.395
 3851TIP3    H211518   5.337   0.969   5.339
 3852TIP3   OH211519   6.649   2.918   1.479
 3852TIP3    H111520   6.706   2.981   1.522
 3852TIP3    H211521   6.650   2.841   1.536
 3853TIP3   OH211522   2.360   0.636   1.513
 3853TIP3    H111523   2.408   0.658   1.433
 3853TIP3    H211524   2.272   0.612   1.483
 3854TIP3   OH211525   3.993   4.266   1.542
 3854TIP3    H111526   3.953   4.179   1.547
 3854TIP3    H211527   3.978   4.304   1.629
 3855TIP3   OH211528   1.473   3.560   1.851
 3855TIP3    H111529   1.451   3.467   1.839
 3855TIP3    H211530   1.389   3.605   1.849
 3856TIP3   OH211531   3.236   4.540   5.154
 3856TIP3    H111532   3.204   4.556   5.243
 3856TIP3    H211533   3.331   4.548   5.160
 3857TIP3   OH211534   6.008   3.358   2.990
 3857TIP3    H111535   6.000   3.411   2.911
 3857TIP3    H211536   6.093   3.314   2.981
 3858TIP3   OH211537   2.265   0.019   0.284
 3858TIP3    H111538   2.332   0.073   0.326
 3858TIP3    H211539   2.272   0.040   0.191
 3859TIP3   OH211540   1.098   4.044   3.933
 3859TIP3    H111541   1.095   4.055   3.838
 3859TIP3    H211542   1.048   4.118   3.968
 3860TIP3   OH211543   5.097   5.652   5.582
 3860TIP3    H111544   5.011   5.608   5.583
 3860TIP3    H211545   5.099   5.698   5.499
 3861TIP3   OH211546   2.497   1.869   5.056
 3861TIP3    H111547   2.524   1.933   5.123
 3861TIP3    H211548   2.550   1.891   4.980
 3862TIP3   OH211549   1.546   1.216   1.025
 3862TIP3    H111550   1.605   1.291   1.013
 3862TIP3    H211551   1.504   1.205   0.940
 3863TIP3   OH211552   0.373   4.191   1.038
 3863TIP3    H111553   0.376   4.280   1.003
 3863TIP3    H211554   0.362   4.136   0.960
 3864TIP3   OH211555   5.859   2.188   1.982
 3864TIP3    H111556   5.835   2.099   1.957
 3864TIP3    H211557   5.780   2.239   1.966
 3865TIP3   OH211558   0.895   2.924   4.551
 3865TIP3    H111559   0.902   2.888   4.639
 3865TIP3    H211560   0.805   2.905   4.524
 3866TIP3   OH211561   3.899   3.087   2.466
 3866TIP3    H111562   3.895   3.146   2.542
 3866TIP3    H211563   3.976   3.116   2.417
 3867TIP3   OH211564   5.200   5.225   0.243
 3867TIP3    H111565   5.271   5.256   0.299
 3867TIP3    H211566   5.225   5.135   0.221
 3868TIP3   OH211567   4.434   2.008   0.883
 3868TIP3    H111568   4.481   2.080   0.924
 3868TIP3    H211569   4.369   1.981   0.947
 3869TIP3   OH211570   4.558   4.430   2.318
 3869TIP3    H111571   4.515   4.489   2.256
 3869TIP3    H211572   4.642   4.471   2.336
 3870TIP3   OH211573   6.713   3.011   2.902
 3870TIP3    H111574   6.621   2.984   2.900
 3870TIP3    H211575   6.710   3.101   2.936
 3871TIP3   OH211576   1.862   6.018   5.428
 3871TIP3    H111577   1.888   6.060   5.347
 3871TIP3    H211578   1.870   6.087   5.494
 3872TIP3   OH211579   5.119   2.914   5.357
 3872TIP3    H111580   5.186   2.874   5.302
 3872TIP3    H211581   5.040   2.863   5.340
 3873TIP3   OH211582   3.619   4.693   5.070
 3873TIP3    H111583   3.576   4.735   4.996
 3873TIP3    H211584   3.555   4.630   5.103
 3874TIP3   OH211585   7.099   0.691   0.068
 3874TIP3    H111586   7.153   0.658   0.140
 3874TIP3    H211587   7.123   0.637  -0.007
 3875TIP3   OH211588   2.010   1.052   0.478
 3875TIP3    H111589   2.012   1.131   0.424
 3875TIP3    H211590   2.057   0.987   0.426
 3876TIP3   OH211591   6.689   1.277   5.624
 3876TIP3    H111592   6.667   1.369   5.611
 3876TIP3    H211593   6.607   1.237   5.652
 3877TIP3   OH211594   1.741   3.264   2.716
 3877TIP3    H111595   1.763   3.177   2.682
 3877TIP3    H211596   1.791   3.324   2.661
 3878TIP3   OH211597   0.649   6.169   3.741
 3878TIP3    H111598   0.565   6.145   3.780
 3878TIP3    H211599   0.671   6.094   3.685
 3879TIP3   OH211600   5.447   2.191   3.233
 3879TIP3    H111601   5.438   2.136   3.155
 3879TIP3    H211602   5.433   2.280   3.201
 3880TIP3   OH211603   1.048   1.440   2.813
 3880TIP3    H111604   1.049   1.450   2.717
 3880TIP3    H211605   0.989   1.509   2.843
 3881TIP3   OH211606   1.187   1.588   0.782
 3881TIP3    H111607   1.263   1.544   0.820
 3881TIP3    H211608   1.144   1.520   0.730
 3882TIP3   OH211609   4.092   1.683   1.105
 3882TIP3    H111610   4.142   1.699   1.185
 3882TIP3    H211611   4.152   1.637   1.047
 3883TIP3   OH211612   3.065   2.896   5.576
 3883TIP3    H111613   2.998   2.927   5.637
 3883TIP3    H211614   3.016   2.863   5.501
 3884TIP3   OH211615   6.250   0.168   5.334
 3884TIP3    H111616   6.284   0.257   5.322
 3884TIP3    H211617   6.327   0.112   5.326
 3885TIP3   OH211618   1.099   1.245   1.050
 3885TIP3    H111619   1.029   1.310   1.058
 3885TIP3    H211620   1.072   1.174   1.108
 3886TIP3   OH211621   0.589   0.916   5.886
 3886TIP3    H111622   0.543   0.968   5.820
 3886TIP3    H211623   0.539   0.834   5.890
 3887TIP3   OH211624   0.993   0.243   4.314
 3887TIP3    H111625   1.022   0.217   4.401
 3887TIP3    H211626   0.920   0.183   4.295
 3888TIP3   OH211627   0.498   0.660   3.984
 3888TIP3    H111628   0.539   0.651   3.898
 3888TIP3    H211629   0.563   0.709   4.035
 3889TIP3   OH211630   3.780   0.307   0.769
 3889TIP3    H111631   3.841   0.260   0.827
 3889TIP3    H211632   3.720   0.351   0.829
 3890TIP3   OH211633   4.532   4.071   3.129
 3890TIP3    H111634   4.464   4.091   3.194
 3890TIP3    H211635   4.488   4.084   3.044
 3891TIP3   OH211636   4.023   0.633   4.289
 3891TIP3    H111637   4.009   0.723   4.320
 3891TIP3    H211638   3.953   0.583   4.331
 3892TIP3   OH211639   4.262   1.719   3.004
 3892TIP3    H111640   4.291   1.672   2.927
 3892TIP3    H211641   4.239   1.806   2.972
 3893TIP3   OH211642   4.271   1.289   3.627
 3893TIP3    H111643   4.189   1.318   3.587
 3893TIP3    H211644   4.286   1.202   3.591
 3894TIP3   OH211645   4.982   1.306   2.816
 3894TIP3    H111646   4.953   1.217   2.798
 3894TIP3    H211647   4.935   1.360   2.753
 3895TIP3   OH211648   5.225   3.976   3.798
 3895TIP3    H111649   5.202   3.956   3.889
 3895TIP3    H211650   5.254   3.892   3.762
 3896TIP3   OH211651   6.486   4.941   2.547
 3896TIP3    H111652   6.510   4.850   2.531
 3896TIP3    H211653   6.400   4.937   2.589
 3897TIP3   OH211654   3.754   5.285   3.162
 3897TIP3    H111655   3.781   5.210   3.109
 3897TIP3    H211656   3.804   5.276   3.243
 3898TIP3   OH211657   1.395   0.345   4.030
 3898TIP3    H111658   1.301   0.337   4.046
 3898TIP3    H211659   1.436   0.292   4.098
 3899TIP3   OH211660   4.188   1.493   4.611
 3899TIP3    H111661   4.213   1.438   4.536
 3899TIP3    H211662   4.271   1.518   4.651
 3900TIP3   OH211663   4.328   2.697   3.376
 3900TIP3    H111664   4.395   2.652   3.325
 3900TIP3    H211665   4.255   2.708   3.316
 3901TIP3   OH211666   0.162   3.964   0.472
 3901TIP3    H111667   0.075   3.924   0.467
 3901TIP3    H211668   0.221   3.897   0.437
 3902TIP3   OH211669   7.122   0.608   4.157
 3902TIP3    H111670   7.040   0.636   4.199
 3902TIP3    H211671   7.157   0.541   4.216
 3903TIP3   OH211672   5.057   2.310   4.880
 3903TIP3    H111673   5.139   2.342   4.918
 3903TIP3    H211674   4.993   2.322   4.950
 3904TIP3   OH211675   6.701   3.989   4.235
 3904TIP3    H111676   6.771   3.977   4.300
 3904TIP3    H211677   6.629   4.027   4.285
 3905TIP3   OH211678   0.229   4.807   1.495
 3905TIP3    H111679   0.319   4.795   1.524
 3905TIP3    H211680   0.227   4.894   1.456
 3906TIP3   OH211681   0.899   2.812   4.807
 3906TIP3    H111682   0.880   2.897   4.845
 3906TIP3    H211683   0.979   2.783   4.851
 3907TIP3   OH211684   3.625   5.383   2.075
 3907TIP3    H111685   3.553   5.437   2.109
 3907TIP3    H211686   3.643   5.322   2.146
 3908TIP3   OH211687   6.614   4.890   0.549
 3908TIP3    H111688   6.630   4.972   0.502
 3908TIP3    H211689   6.612   4.915   0.641
 3909TIP3   OH211690   4.531   2.423   3.002
 3909TIP3    H111691   4.456   2.407   2.944
 3909TIP3    H211692   4.607   2.417   2.944
 3910TIP3   OH211693   5.065   4.508   4.659
 3910TIP3    H111694   5.118   4.583   4.686
 3910TIP3    H211695   5.035   4.530   4.571
 3911TIP3   OH211696   2.458   2.664   1.133
 3911TIP3    H111697   2.384   2.714   1.100
 3911TIP3    H211698   2.498   2.626   1.054
 3912TIP3   OH211699   5.272   1.414   5.287
 3912TIP3    H111700   5.336   1.394   5.219
 3912TIP3    H211701   5.191   1.429   5.239
 3913TIP3   OH211702   5.485   6.398   3.693
 3913TIP3    H111703   5.552   6.451   3.735
 3913TIP3    H211704   5.487   6.424   3.601
 3914TIP3   OH211705   2.302   5.486   5.501
 3914TIP3    H111706   2.220   5.497   5.549
 3914TIP3    H211707   2.370   5.510   5.563
 3915TIP3   OH211708   2.413   0.996   4.739
 3915TIP3    H111709   2.374   0.983   4.652
 3915TIP3    H211710   2.504   1.018   4.721
 3916TIP3   OH211711   1.721   6.434   4.004
 3916TIP3    H111712   1.815   6.447   3.989
 3916TIP3    H211713   1.717   6.379   4.082
 3917TIP3   OH211714   4.375   4.898   3.598
 3917TIP3    H111715   4.293   4.944   3.582
 3917TIP3    H211716   4.428   4.959   3.649
 3918TIP3   OH211717   3.133   0.647   0.441
 3918TIP3    H111718   3.111   0.586   0.512
 3918TIP3    H211719   3.119   0.596   0.361
 3919TIP3   OH211720   2.511   2.023   1.137
 3919TIP3    H111721   2.584   2.085   1.133
 3919TIP3    H211722   2.547   1.948   1.185
 3920TIP3   OH211723   2.177   0.866   5.208
 3920TIP3    H111724   2.248   0.864   5.272
 3920TIP3    H211725   2.192   0.788   5.154
 3921TIP3   OH211726   2.909   2.958   1.083
 3921TIP3    H111727   2.961   2.899   1.137
 3921TIP3    H211728   2.973   3.004   1.029
 3922TIP3   OH211729   2.507   2.496   0.880
 3922TIP3    H111730   2.562   2.549   0.822
 3922TIP3    H211731   2.499   2.412   0.834
 3923TIP3   OH211732   4.836   2.738   5.083
 3923TIP3    H111733   4.895   2.806   5.050
 3923TIP3    H211734   4.888   2.658   5.082
 3924TIP3   OH211735   0.027   3.819   5.197
 3924TIP3    H111736  -0.006   3.860   5.116
 3924TIP3    H211737   0.104   3.871   5.221
 3925TIP3   OH211738   6.793   0.397   5.135
 3925TIP3    H111739   6.818   0.457   5.205
 3925TIP3    H211740   6.852   0.419   5.063
 3926TIP3   OH211741   4.774   3.919   4.812
 3926TIP3    H111742   4.854   3.939   4.860
 3926TIP3    H211743   4.719   3.996   4.824
 3927TIP3   OH211744   6.343   1.954   4.077
 3927TIP3    H111745   6.345   2.022   4.010
 3927TIP3    H211746   6.348   2.001   4.160
 3928TIP3   OH211747   3.109   4.010   4.228
 3928TIP3    H111748   3.106   3.915   4.235
 3928TIP3    H211749   3.020   4.035   4.204
 3929TIP3   OH211750   0.507   3.968   1.987
 3929TIP3    H111751   0.459   3.887   2.004
 3929TIP3    H211752   0.599   3.942   1.984
 3930TIP3   OH211753   5.993   4.011   3.442
 3930TIP3    H111754   6.045   3.997   3.521
 3930TIP3    H211755   5.977   3.922   3.409
 3931TIP3   OH211756   5.071   0.853   0.700
 3931TIP3    H111757   5.104   0.905   0.626
 3931TIP3    H211758   5.134   0.782   0.709
 3932TIP3   OH211759   2.793   2.065   2.835
 3932TIP3    H111760   2.842   1.983   2.824
 3932TIP3    H211761   2.702   2.037   2.843
 3933TIP3   OH211762   0.742   6.525   0.874
 3933TIP3    H111763   0.823   6.554   0.832
 3933TIP3    H211764   0.693   6.481   0.805
 3934TIP3   OH211765   4.978   2.412   2.685
 3934TIP3    H111766   5.006   2.441   2.598
 3934TIP3    H211767   5.059   2.405   2.735
 3935TIP3   OH211768   2.408   0.684   3.750
 3935TIP3    H111769   2.447   0.706   3.665
 3935TIP3    H211770   2.434   0.757   3.806
 3936TIP3   OH211771   1.836   2.399   5.017
 3936TIP3    H111772   1.883   2.316   5.025
 3936TIP3    H211773   1.771   2.396   5.088
 3937TIP3   OH211774   5.669   5.781   3.717
 3937TIP3    H111775   5.742   5.734   3.676
 3937TIP3    H211776   5.638   5.722   3.786
 3938TIP3   OH211777   2.157   4.029   3.907
 3938TIP3    H111778   2.073   4.010   3.949
 3938TIP3    H211779   2.149   4.118   3.875
 3939TIP3   OH211780   6.249   5.843   3.388
 3939TIP3    H111781   6.306   5.920   3.392
 3939TIP3    H211782   6.309   5.768   3.400
 3940TIP3   OH211783   2.280   0.129   1.284
 3940TIP3    H111784   2.256   0.168   1.368
 3940TIP3    H211785   2.376   0.129   1.285
 3941TIP3   OH211786   5.193   6.786   5.788
 3941TIP3    H111787   5.259   6.721   5.764
 3941TIP3    H211788   5.165   6.760   5.875
 3942TIP3   OH211789   0.041   0.611   2.748
 3942TIP3    H111790  -0.022   0.679   2.771
 3942TIP3    H211791   0.102   0.653   2.687
 3943TIP3   OH211792   2.261   1.052   1.593
 3943TIP3    H111793   2.227   0.977   1.543
 3943TIP3    H211794   2.191   1.117   1.588
 3944TIP3   OH211795   0.662   3.802   4.463
 3944TIP3    H111796   0.695   3.868   4.403
 3944TIP3    H211797   0.671   3.719   4.416
 3945TIP3   OH211798   5.133   2.452   5.356
 3945TIP3    H111799   5.177   2.521   5.405
 3945TIP3    H211800   5.197   2.381   5.350
 3946TIP3   OH211801   2.718   3.068   0.371
 3946TIP3    H111802   2.686   2.982   0.401
 3946TIP3    H211803   2.737   3.116   0.451
 3947TIP3   OH211804   4.489   2.523   0.118
 3947TIP3    H111805   4.481   2.489   0.207
 3947TIP3    H211806   4.488   2.445   0.063
 3948TIP3   OH211807   3.815   0.128   4.619
 3948TIP3    H111808   3.892   0.073   4.632
 3948TIP3    H211809   3.741   0.068   4.625
 3949TIP3   OH211810   5.716   5.084   1.961
 3949TIP3    H111811   5.806   5.094   1.931
 3949TIP3    H211812   5.722   5.022   2.034
 3950TIP3   OH211813   5.784   5.440   3.414
 3950TIP3    H111814   5.814   5.360   3.370
 3950TIP3    H211815   5.784   5.506   3.345
 3951TIP3   OH211816   2.471   4.244   1.009
 3951TIP3    H111817   2.558   4.254   1.047
 3951TIP3    H211818   2.432   4.331   1.015
 3952TIP3   OH211819   5.355   0.051   5.075
 3952TIP3    H111820   5.398   0.130   5.041
 3952TIP3    H211821   5.385  -0.019   5.017
 3953TIP3   OH211822   4.549   0.697   4.439
 3953TIP3    H111823   4.543   0.728   4.530
 3953TIP3    H211824   4.487   0.624   4.435
 3954TIP3   OH211825   3.358   5.461   3.131
 3954TIP3    H111826   3.367   5.555   3.115
 3954TIP3    H211827   3.277   5.437   3.086
 3955TIP3   OH211828   5.280   5.853   2.937
 3955TIP3    H111829   5.277   5.873   3.031
 3955TIP3    H211830   5.188   5.844   2.911
 3956TIP3   OH211831   2.325   4.580   5.749
 3956TIP3    H111832   2.370   4.568   5.665
 3956TIP3    H211833   2.309   4.491   5.780
 3957TIP3   OH211834   0.838   3.861   3.718
 3957TIP3    H111835   0.760   3.840   3.666
 3957TIP3    H211836   0.866   3.777   3.754
 3958TIP3   OH211837   3.327   0.975   0.261
 3958TIP3    H111838   3.418   0.959   0.286
 3958TIP3    H211839   3.276   0.954   0.340
 3959TIP3   OH211840   1.026   0.704   0.698
 3959TIP3    H111841   0.969   0.691   0.773
 3959TIP3    H211842   0.991   0.646   0.630
 3960TIP3   OH211843   2.043   6.702   4.557
 3960TIP3    H111844   1.999   6.750   4.487
 3960TIP3    H211845   2.003   6.735   4.637
 3961TIP3   OH211846   6.639   4.696   2.530
 3961TIP3    H111847   6.711   4.703   2.594
 3961TIP3    H211848   6.610   4.605   2.538
 3962TIP3   OH211849   3.950   5.358   3.463
 3962TIP3    H111850   3.973   5.433   3.518
 3962TIP3    H211851   4.024   5.349   3.403
 3963TIP3   OH211852   0.089   6.713   3.779
 3963TIP3    H111853   0.107   6.763   3.700
 3963TIP3    H211854   0.044   6.774   3.837
 3964TIP3   OH211855   5.097   6.470   3.623
 3964TIP3    H111856   5.046   6.398   3.585
 3964TIP3    H211857   5.111   6.531   3.551
 3965TIP3   OH211858   3.087   4.017   2.195
 3965TIP3    H111859   3.164   4.053   2.238
 3965TIP3    H211860   3.066   3.939   2.246
 3966TIP3   OH211861   6.935   6.287   0.511
 3966TIP3    H111862   6.902   6.335   0.587
 3966TIP3    H211863   6.896   6.331   0.435
 3967TIP3   OH211864   4.410   4.844   2.345
 3967TIP3    H111865   4.360   4.793   2.280
 3967TIP3    H211866   4.378   4.812   2.430
 3968TIP3   OH211867   2.133   5.529   4.407
 3968TIP3    H111868   2.072   5.572   4.346
 3968TIP3    H211869   2.213   5.582   4.401
 3969TIP3   OH211870   2.193   3.108   5.706
 3969TIP3    H111871   2.273   3.066   5.675
 3969TIP3    H211872   2.125   3.040   5.699
 3970TIP3   OH211873   2.033   0.761   3.773
 3970TIP3    H111874   2.077   0.829   3.824
 3970TIP3    H211875   1.956   0.804   3.737
 3971TIP3   OH211876   6.382   4.533   1.767
 3971TIP3    H111877   6.404   4.625   1.752
 3971TIP3    H211878   6.314   4.514   1.702
 3972TIP3   OH211879   7.176   5.860   4.795
 3972TIP3    H111880   7.090   5.824   4.818
 3972TIP3    H211881   7.156   5.945   4.755
 3973TIP3   OH211882   5.281   5.117   3.837
 3973TIP3    H111883   5.251   5.030   3.861
 3973TIP3    H211884   5.366   5.126   3.880
 3974TIP3   OH211885   4.867   2.897   5.610
 3974TIP3    H111886   4.772   2.889   5.619
 3974TIP3    H211887   4.886   2.865   5.522
 3975TIP3   OH211888   5.325   6.579   4.865
 3975TIP3    H111889   5.275   6.515   4.916
 3975TIP3    H211890   5.274   6.590   4.785
 3976TIP3   OH211891   3.393   1.565   0.058
 3976TIP3    H111892   3.477   1.587   0.018
 3976TIP3    H211893   3.412   1.559   0.152
 3977TIP3   OH211894   2.236   4.909   2.707
 3977TIP3    H111895   2.183   4.833   2.731
 3977TIP3    H211896   2.242   4.960   2.788
 3978TIP3   OH211897   1.909   3.658   0.654
 3978TIP3    H111898   1.853   3.639   0.578
 3978TIP3    H211899   1.944   3.572   0.679
 3979TIP3   OH211900   1.382   4.787   5.730
 3979TIP3    H111901   1.299   4.806   5.686
 3979TIP3    H211902   1.440   4.756   5.660
 3980TIP3   OH211903   4.976   2.630   2.005
 3980TIP3    H111904   5.056   2.670   2.039
 3980TIP3    H211905   4.997   2.605   1.915
 3981TIP3   OH211906   4.351   5.307   0.708
 3981TIP3    H111907   4.438   5.325   0.671
 3981TIP3    H211908   4.344   5.366   0.783
 3982TIP3   OH211909   5.707   4.983   4.152
 3982TIP3    H111910   5.677   5.028   4.231
 3982TIP3    H211911   5.715   4.892   4.178
 3983TIP3   OH211912   0.536   0.760   4.335
 3983TIP3    H111913   0.586   0.816   4.394
 3983TIP3    H211914   0.449   0.798   4.334
 3984TIP3   OH211915   6.874   6.396   0.240
 3984TIP3    H111916   6.825   6.467   0.279
 3984TIP3    H211917   6.816   6.360   0.173
 3985TIP3   OH211918   4.657   5.574   3.033
 3985TIP3    H111919   4.626   5.664   3.017
 3985TIP3    H211920   4.614   5.549   3.115
 3986TIP3   OH211921   1.681   3.773   1.902
 3986TIP3    H111922   1.602   3.719   1.903
 3986TIP3    H211923   1.753   3.710   1.907
 3987TIP3   OH211924   3.582   1.919   1.077
 3987TIP3    H111925   3.523   1.853   1.040
 3987TIP3    H211926   3.569   1.911   1.172
 3988TIP3   OH211927   4.651   1.640   5.244
 3988TIP3    H111928   4.627   1.552   5.217
 3988TIP3    H211929   4.573   1.674   5.288
 3989TIP3   OH211930   4.171   1.434   0.745
 3989TIP3    H111931   4.248   1.475   0.783
 3989TIP3    H211932   4.105   1.504   0.742
 3990TIP3   OH211933   5.614   6.620   4.914
 3990TIP3    H111934   5.563   6.687   4.960
 3990TIP3    H211935   5.548   6.569   4.867
 3991TIP3   OH211936   5.446   3.906   2.645
 3991TIP3    H111937   5.428   3.833   2.705
 3991TIP3    H211938   5.542   3.910   2.640
 3992TIP3   OH211939   6.699   2.739   0.313
 3992TIP3    H111940   6.677   2.703   0.399
 3992TIP3    H211941   6.695   2.663   0.254
 3993TIP3   OH211942   3.432   1.609   3.868
 3993TIP3    H111943   3.413   1.685   3.813
 3993TIP3    H211944   3.470   1.646   3.948
 3994TIP3   OH211945   2.235   2.089   5.166
 3994TIP3    H111946   2.223   2.096   5.261
 3994TIP3    H211947   2.286   2.166   5.142
 3995TIP3   OH211948   2.227   0.356   2.655
 3995TIP3    H111949   2.291   0.375   2.723
 3995TIP3    H211950   2.210   0.441   2.614
 3996TIP3   OH211951   1.186   0.412   3.684
 3996TIP3    H111952   1.158   0.445   3.599
 3996TIP3    H211953   1.226   0.488   3.727
 3997TIP3   OH211954   0.626   1.577   4.696
 3997TIP3    H111955   0.664   1.648   4.645
 3997TIP3    H211956   0.697   1.549   4.755
 3998TIP3   OH211957   4.852   1.201   4.674
 3998TIP3    H111958   4.871   1.169   4.586
 3998TIP3    H211959   4.877   1.129   4.732
 3999TIP3   OH211960   5.315   2.621   4.089
 3999TIP3    H111961   5.274   2.657   4.168
 3999TIP3    H211962   5.241   2.589   4.036
 4000TIP3   OH211963   5.349   4.791   5.854
 4000TIP3    H111964   5.325   4.872   5.810
 4000TIP3    H211965   5.437   4.807   5.888
 4001TIP3   OH211966   0.926   1.556   5.293
 4001TIP3    H111967   0.923   1.640   5.247
 4001TIP3    H211968   0.889   1.575   5.379
 4002TIP3   OH211969   1.809   1.886   0.503
 4002TIP3    H111970   1.743   1.833   0.459
 4002TIP3    H211971   1.870   1.912   0.434
 4003TIP3   OH211972   3.693   5.981   0.389
 4003TIP3    H111973   3.638   5.948   0.318
 4003TIP3    H211974   3.720   5.903   0.438
 4004TIP3   OH211975   0.201   5.316   0.733
 4004TIP3    H111976   0.230   5.272   0.653
 4004TIP3    H211977   0.106   5.322   0.723
 4005TIP3   OH211978   4.306   6.046   5.398
 4005TIP3    H111979   4.299   5.976   5.333
 4005TIP3    H211980   4.285   6.126   5.350
 4006TIP3   OH211981   1.828   0.871   0.841
 4006TIP3    H111982   1.756   0.814   0.868
 4006TIP3    H211983   1.905   0.836   0.886
 4007TIP3   OH211984   1.575   3.364   4.882
 4007TIP3    H111985   1.501   3.389   4.937
 4007TIP3    H211986   1.648   3.417   4.914
 4008TIP3   OH211987   1.975   2.736   2.123
 4008TIP3    H111988   1.901   2.760   2.067
 4008TIP3    H211989   1.941   2.742   2.212
 4009TIP3   OH211990   5.982   1.052   0.470
 4009TIP3    H111991   5.975   0.957   0.483
 4009TIP3    H211992   6.031   1.062   0.389
 4010TIP3   OH211993   2.883   2.627   1.490
 4010TIP3    H111994   2.933   2.693   1.442
 4010TIP3    H211995   2.859   2.562   1.424
 4011TIP3   OH211996   5.147   5.922   0.490
 4011TIP3    H111997   5.223   5.910   0.433
 4011TIP3    H211998   5.164   6.003   0.536
 4012TIP3   OH211999   5.933   4.608   3.736
 4012TIP3    H112000   5.902   4.526   3.696
 4012TIP3    H212001   5.885   4.677   3.690
 4013TIP3   OH212002   1.366   6.384   4.182
 4013TIP3    H112003   1.309   6.422   4.249
 4013TIP3    H212004   1.412   6.314   4.227
 4014TIP3   OH212005   3.481   2.457   4.884
 4014TIP3    H112006   3.442   2.373   4.909
 4014TIP3    H212007   3.409   2.520   4.890
 4015TIP3   OH212008   0.596   2.993   2.914
 4015TIP3    H112009   0.587   2.950   2.999
 4015TIP3    H212010   0.687   3.020   2.910
 4016TIP3   OH212011   3.447   4.926   2.424
 4016TIP3    H112012   3.362   4.888   2.445
 4016TIP3    H212013   3.426   5.006   2.374
 4017TIP3   OH212014   1.611   1.442   0.656
 4017TIP3    H112015   1.622   1.348   0.650
 4017TIP3    H212016   1.534   1.461   0.601
 4018TIP3   OH212017   1.549   0.337   1.184
 4018TIP3    H112018   1.508   0.380   1.259
 4018TIP3    H212019   1.643   0.341   1.201
 4019TIP3   OH212020   5.626   5.403   4.175
 4019TIP3    H112021   5.608   5.404   4.081
 4019TIP3    H212022   5.552   5.356   4.214
 4020TIP3   OH212023   0.327   4.449   2.041
 4020TIP3    H112024   0.304   4.357   2.026
 4020TIP3    H212025   0.274   4.475   2.116
 4021TIP3   OH212026   3.234   3.645   3.034
 4021TIP3    H112027   3.275   3.712   2.979
 4021TIP3    H212028   3.308   3.597   3.072
 4022TIP3   OH212029   4.972   1.256   1.468
 4022TIP3    H112030   5.020   1.174   1.461
 4022TIP3    H212031   4.880   1.230   1.467
 4023TIP3   OH212032   0.887   0.232   0.639
 4023TIP3    H112033   0.980   0.225   0.659
 4023TIP3    H212034   0.882   0.282   0.558
 4024TIP3   OH212035   5.318   0.566   4.256
 4024TIP3    H112036   5.229   0.555   4.289
 4024TIP3    H212037   5.334   0.487   4.204
 4025TIP3   OH212038   1.461   4.208   1.172
 4025TIP3    H112039   1.498   4.222   1.260
 4025TIP3    H212040   1.379   4.258   1.173
 4026TIP3   OH212041   5.628   0.346   2.972
 4026TIP3    H112042   5.559   0.404   2.939
 4026TIP3    H212043   5.674   0.399   3.037
 4027TIP3   OH212044   0.455   0.004   0.162
 4027TIP3    H112045   0.375   0.037   0.203
 4027TIP3    H212046   0.431  -0.011   0.071
 4028TIP3   OH212047   2.363   3.327   3.359
 4028TIP3    H112048   2.342   3.420   3.361
 4028TIP3    H212049   2.284   3.283   3.392
 4029TIP3   OH212050   6.848   2.709   3.928
 4029TIP3    H112051   6.757   2.686   3.910
 4029TIP3    H212052   6.848   2.739   4.019
 4030TIP3   OH212053   4.054   6.555   5.419
 4030TIP3    H112054   4.042   6.644   5.451
 4030TIP3    H212055   4.104   6.564   5.338
 4031TIP3   OH212056   6.903   2.133   5.316
 4031TIP3    H112057   6.845   2.059   5.299
 4031TIP3    H212058   6.891   2.153   5.409
 4032TIP3   OH212059   0.825   1.479   4.860
 4032TIP3    H112060   0.869   1.407   4.814
 4032TIP3    H212061   0.768   1.436   4.924
 4033TIP3   OH212062   4.808   5.381   1.768
 4033TIP3    H112063   4.825   5.383   1.862
 4033TIP3    H212064   4.755   5.303   1.754
 4034TIP3   OH212065   3.277   1.928   3.143
 4034TIP3    H112066   3.361   1.922   3.187
 4034TIP3    H212067   3.291   1.992   3.072
 4035TIP3   OH212068   2.342   6.060   2.933
 4035TIP3    H112069   2.340   5.997   3.006
 4035TIP3    H212070   2.322   6.144   2.974
 4036TIP3   OH212071   0.868   5.836   2.523
 4036TIP3    H112072   0.947   5.889   2.511
 4036TIP3    H212073   0.848   5.844   2.616
 4037TIP3   OH212074   5.828   5.212   3.095
 4037TIP3    H112075   5.856   5.206   3.186
 4037TIP3    H212076   5.900   5.255   3.050
 4038TIP3   OH212077   0.798   2.978   2.550
 4038TIP3    H112078   0.806   2.924   2.628
 4038TIP3    H212079   0.734   3.046   2.572
 4039TIP3   OH212080   3.947   3.361   5.549
 4039TIP3    H112081   3.860   3.346   5.586
 4039TIP3    H212082   3.929   3.407   5.467
 4040TIP3   OH212083   2.656   2.851   3.769
 4040TIP3    H112084   2.662   2.944   3.746
 4040TIP3    H212085   2.657   2.806   3.685
 4041TIP3   OH212086   6.058   2.645   1.652
 4041TIP3    H112087   6.024   2.563   1.689
 4041TIP3    H212088   5.980   2.699   1.638
 4042TIP3   OH212089   4.680   2.678   0.681
 4042TIP3    H112090   4.674   2.676   0.586
 4042TIP3    H212091   4.591   2.698   0.711
 4043TIP3   OH212092   1.919   2.496   1.963
 4043TIP3    H112093   1.916   2.562   1.894
 4043TIP3    H212094   1.946   2.545   2.041
 4044TIP3   OH212095   5.960   6.780   2.055
 4044TIP3    H112096   5.901   6.849   2.086
 4044TIP3    H212097   5.936   6.703   2.107
 4045TIP3   OH212098   6.628   1.014   5.036
 4045TIP3    H112099   6.703   1.060   5.075
 4045TIP3    H212100   6.618   0.935   5.089
 4046TIP3   OH212101   5.904   1.907   4.269
 4046TIP3    H112102   5.971   1.850   4.309
 4046TIP3    H212103   5.949   1.949   4.196
 4047TIP3   OH212104   1.278   6.050   2.167
 4047TIP3    H112105   1.286   5.963   2.206
 4047TIP3    H212106   1.366   6.087   2.175
 4048TIP3   OH212107   0.029   1.403  -0.007
 4048TIP3    H112108   0.007   1.415   0.085
 4048TIP3    H212109  -0.016   1.323  -0.032
 4049TIP3   OH212110   5.760   1.222   0.456
 4049TIP3    H112111   5.781   1.224   0.363
 4049TIP3    H212112   5.821   1.158   0.493
 4050TIP3   OH212113   0.121   3.991   2.474
 4050TIP3    H112114   0.082   4.071   2.510
 4050TIP3    H212115   0.071   3.920   2.513
 4051TIP3   OH212116   1.829   0.708   5.596
 4051TIP3    H112117   1.908   0.750   5.632
 4051TIP3    H212118   1.862   0.629   5.553
 4052TIP3   OH212119   2.386   3.381   3.068
 4052TIP3    H112120   2.353   3.394   3.158
 4052TIP3    H212121   2.367   3.290   3.049
 4053TIP3   OH212122   6.684   2.175   5.817
 4053TIP3    H112123   6.639   2.258   5.827
 4053TIP3    H212124   6.615   2.110   5.805
 4054TIP3   OH212125   1.170   1.629   0.428
 4054TIP3    H112126   1.125   1.548   0.453
 4054TIP3    H212127   1.106   1.675   0.374
 4055TIP3   OH212128   5.001   0.461   0.944
 4055TIP3    H112129   5.011   0.524   1.014
 4055TIP3    H212130   4.916   0.420   0.959
 4056TIP3   OH212131   3.466   2.479   1.575
 4056TIP3    H112132   3.541   2.536   1.591
 4056TIP3    H212133   3.424   2.516   1.497
 4057TIP3   OH212134   3.693   3.051   2.093
 4057TIP3    H112135   3.772   3.054   2.038
 4057TIP3    H212136   3.659   2.962   2.081
 4058TIP3   OH212137   4.571   5.173   4.427
 4058TIP3    H112138   4.534   5.157   4.340
 4058TIP3    H212139   4.497   5.199   4.481
 4059TIP3   OH212140   5.361   5.308   5.191
 4059TIP3    H112141   5.362   5.216   5.216
 4059TIP3    H212142   5.405   5.353   5.263
 4060TIP3   OH212143   0.298   1.710   4.214
 4060TIP3    H112144   0.345   1.767   4.153
 4060TIP3    H212145   0.360   1.640   4.234
 4061TIP3   OH212146   3.972   0.194   4.359
 4061TIP3    H112147   4.026   0.139   4.416
 4061TIP3    H212148   3.998   0.171   4.270
 4062TIP3   OH212149   2.369   4.367   1.588
 4062TIP3    H112150   2.416   4.416   1.521
 4062TIP3    H212151   2.422   4.288   1.601
 4063TIP3   OH212152   4.323   4.822   5.563
 4063TIP3    H112153   4.386   4.791   5.498
 4063TIP3    H212154   4.252   4.758   5.562
 4064TIP3   OH212155   0.568   1.286   0.998
 4064TIP3    H112156   0.573   1.381   1.011
 4064TIP3    H212157   0.551   1.251   1.086
 4065TIP3   OH212158   5.226   1.170   4.630
 4065TIP3    H112159   5.185   1.108   4.691
 4065TIP3    H212160   5.257   1.241   4.686
 4066TIP3   OH212161   3.397   6.712   0.453
 4066TIP3    H112162   3.349   6.630   0.460
 4066TIP3    H212163   3.466   6.707   0.519
 4067TIP3   OH212164   2.874   5.753   5.383
 4067TIP3    H112165   2.860   5.846   5.405
 4067TIP3    H212166   2.814   5.737   5.310
 4068TIP3   OH212167   3.800   3.426   4.836
 4068TIP3    H112168   3.887   3.395   4.863
 4068TIP3    H212169   3.816   3.511   4.796
 4069TIP3   OH212170   1.414   5.015   4.454
 4069TIP3    H112171   1.492   4.958   4.455
 4069TIP3    H212172   1.449   5.103   4.444
 4070TIP3   OH212173   3.931   3.332   1.559
 4070TIP3    H112174   3.955   3.376   1.641
 4070TIP3    H212175   4.004   3.351   1.500
 4071TIP3   OH212176   6.342   6.531   2.816
 4071TIP3    H112177   6.334   6.567   2.904
 4071TIP3    H212178   6.396   6.594   2.769
 4072TIP3   OH212179   5.299   5.698   1.057
 4072TIP3    H112180   5.357   5.667   1.127
 4072TIP3    H212181   5.349   5.769   1.016
 4073TIP3   OH212182   5.114   5.514   0.336
 4073TIP3    H112183   5.145   5.425   0.317
 4073TIP3    H212184   5.152   5.535   0.422
 4074TIP3   OH212185   3.978   1.670   3.960
 4074TIP3    H112186   3.899   1.699   4.006
 4074TIP3    H212187   4.022   1.613   4.022
 4075TIP3   OH212188   6.527   1.938   5.757
 4075TIP3    H112189   6.442   1.958   5.717
 4075TIP3    H212190   6.507   1.877   5.827
 4076TIP3   OH212191   6.117   6.437   0.009
 4076TIP3    H112192   6.087   6.524   0.036
 4076TIP3    H212193   6.047   6.378   0.036
 4077TIP3   OH212194   5.585   4.840   1.843
 4077TIP3    H112195   5.577   4.809   1.933
 4077TIP3    H212196   5.512   4.900   1.831
 4078TIP3   OH212197   3.982   2.684   5.262
 4078TIP3    H112198   3.932   2.716   5.338
 4078TIP3    H212199   3.944   2.730   5.187
 4079TIP3   OH212200   6.575   4.066   5.014
 4079TIP3    H112201   6.652   4.063   5.072
 4079TIP3    H212202   6.610   4.055   4.926
 4080TIP3   OH212203   1.478   4.318   5.809
 4080TIP3    H112204   1.505   4.311   5.717
 4080TIP3    H212205   1.406   4.381   5.808
 4081TIP3   OH212206   0.899   5.829   1.771
 4081TIP3    H112207   0.904   5.791   1.684
 4081TIP3    H212208   0.938   5.764   1.828
 4082TIP3   OH212209   0.570   4.443   3.941
 4082TIP3    H112210   0.643   4.387   3.914
 4082TIP3    H212211   0.593   4.471   4.030
 4083TIP3   OH212212   5.994   5.945   4.485
 4083TIP3    H112213   6.082   5.976   4.460
 4083TIP3    H212214   5.986   5.860   4.442
 4084TIP3   OH212215   3.333   1.175   4.399
 4084TIP3    H112216   3.379   1.251   4.436
 4084TIP3    H212217   3.393   1.102   4.414
 4085TIP3   OH212218   4.504   0.830   2.311
 4085TIP3    H112219   4.420   0.865   2.280
 4085TIP3    H212220   4.517   0.872   2.396
 4086TIP3   OH212221   2.302   3.078   4.719
 4086TIP3    H112222   2.369   3.011   4.714
 4086TIP3    H212223   2.287   3.105   4.628
 4087TIP3   OH212224   3.983   4.694   3.767
 4087TIP3    H112225   3.967   4.717   3.676
 4087TIP3    H212226   3.993   4.779   3.811
 4088TIP3   OH212227   6.332   5.479   4.804
 4088TIP3    H112228   6.407   5.512   4.854
 4088TIP3    H212229   6.316   5.392   4.839
 4089TIP3   OH212230   4.297   4.759   5.864
 4089TIP3    H112231   4.310   4.778   5.771
 4089TIP3    H212232   4.263   4.670   5.866
 4090TIP3   OH212233   0.558   1.865   0.092
 4090TIP3    H112234   0.558   1.895   0.183
 4090TIP3    H212235   0.580   1.943   0.041
 4091TIP3   OH212236   6.767   5.891   2.083
 4091TIP3    H112237   6.776   5.944   2.162
 4091TIP3    H212238   6.831   5.821   2.093
 4092TIP3   OH212239   5.045   4.109   2.421
 4092TIP3    H112240   5.051   4.174   2.491
 4092TIP3    H212241   5.023   4.158   2.343
 4093TIP3   OH212242   6.658   5.734   0.677
 4093TIP3    H112243   6.693   5.648   0.698
 4093TIP3    H212244   6.703   5.759   0.597
 4094TIP3   OH212245   6.429   6.009   1.825
 4094TIP3    H112246   6.497   6.064   1.785
 4094TIP3    H212247   6.476   5.940   1.870
 4095TIP3   OH212248   3.560   4.807   0.217
 4095TIP3    H112249   3.655   4.799   0.220
 4095TIP3    H212250   3.543   4.851   0.134
 4096TIP3   OH212251   6.537   1.515   0.808
 4096TIP3    H112252   6.489   1.510   0.725
 4096TIP3    H212253   6.478   1.561   0.867
 4097TIP3   OH212254   2.938   0.985   1.646
 4097TIP3    H112255   2.944   0.941   1.561
 4097TIP3    H212256   2.939   1.078   1.625
 4098TIP3   OH212257   3.708   5.567   1.594
 4098TIP3    H112258   3.766   5.498   1.625
 4098TIP3    H212259   3.697   5.625   1.670
 4099TIP3   OH212260   3.044   5.998   0.275
 4099TIP3    H112261   3.033   5.903   0.279
 4099TIP3    H212262   2.958   6.033   0.298
 4100TIP3   OH212263   2.464   3.837   0.587
 4100TIP3    H112264   2.453   3.742   0.582
 4100TIP3    H212265   2.531   3.857   0.522
 4101TIP3   OH212266   0.508   6.484   1.515
 4101TIP3    H112267   0.488   6.549   1.582
 4101TIP3    H212268   0.528   6.405   1.564
 4102TIP3   OH212269   4.750   6.078   0.351
 4102TIP3    H112270   4.782   6.161   0.385
 4102TIP3    H212271   4.828   6.023   0.344
 4103TIP3   OH212272   5.088   3.351   0.932
 4103TIP3    H112273   5.017   3.355   0.996
 4103TIP3    H212274   5.118   3.261   0.934
 4104TIP3   OH212275   6.766   1.570   5.328
 4104TIP3    H112276   6.783   1.479   5.305
 4104TIP3    H212277   6.728   1.565   5.416
 4105TIP3   OH212278   7.006   5.750   2.592
 4105TIP3    H112279   6.955   5.822   2.556
 4105TIP3    H212280   6.976   5.673   2.543
 4106TIP3   OH212281   1.715   4.785   5.258
 4106TIP3    H112282   1.771   4.774   5.182
 4106TIP3    H212283   1.771   4.766   5.333
 4107TIP3   OH212284   6.054   5.223   5.272
 4107TIP3    H112285   6.131   5.169   5.284
 4107TIP3    H212286   5.983   5.172   5.312
 4108TIP3   OH212287   5.297   3.197   4.722
 4108TIP3    H112288   5.216   3.242   4.746
 4108TIP3    H212289   5.367   3.257   4.749
 4109TIP3   OH212290   4.799   1.485   2.363
 4109TIP3    H112291   4.887   1.515   2.386
 4109TIP3    H212292   4.752   1.565   2.340
 4110TIP3   OH212293   1.496   0.180   4.199
 4110TIP3    H112294   1.443   0.119   4.251
 4110TIP3    H212295   1.583   0.141   4.198
 4111TIP3   OH212296   1.509   1.718   2.135
 4111TIP3    H112297   1.459   1.798   2.152
 4111TIP3    H212298   1.511   1.711   2.040
 4112TIP3   OH212299   2.775   3.598   1.034
 4112TIP3    H112300   2.731   3.607   1.118
 4112TIP3    H212301   2.717   3.542   0.982
 4113TIP3   OH212302   5.501   6.074   3.825
 4113TIP3    H112303   5.435   6.083   3.893
 4113TIP3    H212304   5.499   5.982   3.801
 4114TIP3   OH212305   1.856   1.413   3.781
 4114TIP3    H112306   1.843   1.392   3.689
 4114TIP3    H212307   1.867   1.508   3.784
 4115TIP3   OH212308   3.571   5.740   4.500
 4115TIP3    H112309   3.533   5.653   4.513
 4115TIP3    H212310   3.624   5.756   4.577
 4116TIP3   OH212311   1.839   5.920   1.588
 4116TIP3    H112312   1.770   5.966   1.541
 4116TIP3    H212313   1.920   5.964   1.560
 4117TIP3   OH212314   1.853   4.718   5.479
 4117TIP3    H112315   1.778   4.678   5.524
 4117TIP3    H212316   1.919   4.648   5.477
 4118TIP3   OH212317   4.967   5.234   1.315
 4118TIP3    H112318   5.022   5.292   1.368
 4118TIP3    H212319   4.912   5.294   1.264
 4119TIP3   OH212320   5.367   6.691   1.101
 4119TIP3    H112321   5.321   6.759   1.151
 4119TIP3    H212322   5.345   6.711   1.010
 4120TIP3   OH212323   1.612   0.879   3.394
 4120TIP3    H112324   1.611   0.901   3.487
 4120TIP3    H212325   1.553   0.805   3.387
 4121TIP3   OH212326   2.728   1.961   2.503
 4121TIP3    H112327   2.712   2.028   2.568
 4121TIP3    H212328   2.823   1.962   2.489
 4122TIP3   OH212329   1.920   4.390   1.781
 4122TIP3    H112330   2.001   4.389   1.833
 4122TIP3    H212331   1.864   4.325   1.824
 4123TIP3   OH212332   0.026   0.006   1.554
 4123TIP3    H112333   0.004   0.099   1.558
 4123TIP3    H212334   0.055  -0.016   1.643
 4124TIP3   OH212335   2.230   0.704   2.170
 4124TIP3    H112336   2.294   0.668   2.231
 4124TIP3    H212337   2.268   0.689   2.083
 4125TIP3   OH212338   0.754   2.158   5.223
 4125TIP3    H112339   0.802   2.135   5.302
 4125TIP3    H212340   0.818   2.202   5.167
 4126TIP3   OH212341   3.419   5.500   0.154
 4126TIP3    H112342   3.359   5.425   0.152
 4126TIP3    H212343   3.362   5.576   0.154
 4127TIP3   OH212344   6.293   3.932   3.347
 4127TIP3    H112345   6.231   3.978   3.290
 4127TIP3    H212346   6.259   3.843   3.352
 4128TIP3   OH212347   6.826   2.279   0.252
 4128TIP3    H112348   6.759   2.289   0.319
 4128TIP3    H212349   6.909   2.281   0.301
 4129TIP3   OH212350   2.920   4.825   3.500
 4129TIP3    H112351   2.977   4.871   3.560
 4129TIP3    H212352   2.934   4.732   3.519
 4130TIP3   OH212353   5.346   4.671   5.501
 4130TIP3    H112354   5.382   4.695   5.415
 4130TIP3    H212355   5.355   4.750   5.554
 4131TIP3   OH212356   2.156   6.339   2.727
 4131TIP3    H112357   2.229   6.277   2.727
 4131TIP3    H212358   2.185   6.412   2.673
 4132TIP3   OH212359   2.194   4.826   4.424
 4132TIP3    H112360   2.279   4.855   4.390
 4132TIP3    H212361   2.163   4.899   4.477
 4133TIP3   OH212362   3.556   4.063   1.849
 4133TIP3    H112363   3.620   4.009   1.802
 4133TIP3    H212364   3.518   4.003   1.914
 4134TIP3   OH212365   3.594   5.299   0.410
 4134TIP3    H112366   3.559   5.249   0.484
 4134TIP3    H212367   3.683   5.321   0.436
 4135TIP3   OH212368   2.668   6.280   4.730
 4135TIP3    H112369   2.727   6.266   4.657
 4135TIP3    H212370   2.585   6.307   4.690
 4136TIP3   OH212371   5.159   0.952   2.326
 4136TIP3    H112372   5.091   0.890   2.352
 4136TIP3    H212373   5.221   0.900   2.275
 4137TIP3   OH212374   1.495   0.066   2.646
 4137TIP3    H112375   1.538   0.151   2.636
 4137TIP3    H212376   1.567   0.004   2.660
 4138TIP3   OH212377   6.530   2.454   5.897
 4138TIP3    H112378   6.552   2.540   5.933
 4138TIP3    H212379   6.573   2.453   5.811
 4139TIP3   OH212380   3.254   0.535   0.837
 4139TIP3    H112381   3.305   0.504   0.912
 4139TIP3    H212382   3.257   0.630   0.843
 4140TIP3   OH212383   1.570   5.406   2.272
 4140TIP3    H112384   1.611   5.360   2.345
 4140TIP3    H212385   1.627   5.481   2.257
 4141TIP3   OH212386   2.528   6.771   3.272
 4141TIP3    H112387   2.604   6.828   3.280
 4141TIP3    H212388   2.536   6.731   3.186
 4142TIP3   OH212389   3.177   2.737   1.946
 4142TIP3    H112390   3.196   2.695   1.862
 4142TIP3    H212391   3.246   2.705   2.004
 4143TIP3   OH212392   5.138   1.185   4.338
 4143TIP3    H112393   5.168   1.189   4.429
 4143TIP3    H212394   5.076   1.113   4.336
 4144TIP3   OH212395   6.183   4.303   3.029
 4144TIP3    H112396   6.102   4.313   3.079
 4144TIP3    H212397   6.169   4.355   2.950
 4145TIP3   OH212398   2.848   1.469   0.589
 4145TIP3    H112399   2.758   1.484   0.560
 4145TIP3    H212400   2.902   1.503   0.517
 4146TIP3   OH212401   6.429   2.502   5.443
 4146TIP3    H112402   6.418   2.595   5.420
 4146TIP3    H212403   6.524   2.488   5.444
 4147TIP3   OH212404   5.811   1.753   4.042
 4147TIP3    H112405   5.889   1.797   4.074
 4147TIP3    H212406   5.765   1.819   3.990
 4148TIP3   OH212407   0.928   0.726   1.259
 4148TIP3    H112408   0.932   0.631   1.262
 4148TIP3    H212409   0.836   0.747   1.275
 4149TIP3   OH212410   2.570   2.381   4.873
 4149TIP3    H112411   2.632   2.372   4.800
 4149TIP3    H212412   2.486   2.351   4.837
 4150TIP3   OH212413   2.967   0.546   5.353
 4150TIP3    H112414   2.926   0.521   5.270
 4150TIP3    H212415   3.011   0.466   5.382
 4151TIP3   OH212416   2.481   0.275   1.656
 4151TIP3    H112417   2.424   0.324   1.598
 4151TIP3    H212418   2.451   0.184   1.648
 4152TIP3   OH212419   5.262   3.790   1.242
 4152TIP3    H112420   5.210   3.870   1.233
 4152TIP3    H212421   5.298   3.775   1.154
 4153TIP3   OH212422   6.077   6.451   0.400
 4153TIP3    H112423   6.044   6.536   0.432
 4153TIP3    H212424   6.124   6.473   0.319
 4154TIP3   OH212425   6.119   3.550   0.187
 4154TIP3    H112426   6.149   3.561   0.097
 4154TIP3    H212427   6.200   3.547   0.239
 4155TIP3   OH212428   4.533   1.762   0.340
 4155TIP3    H112429   4.576   1.810   0.411
 4155TIP3    H212430   4.591   1.689   0.321
 4156TIP3   OH212431   4.006   4.408   3.993
 4156TIP3    H112432   3.918   4.435   3.967
 4156TIP3    H212433   4.052   4.490   4.009
 4157TIP3   OH212434   5.308   4.480   2.244
 4157TIP3    H112435   5.376   4.442   2.188
 4157TIP3    H212436   5.242   4.513   2.183
 4158TIP3   OH212437   2.381   4.939   2.448
 4158TIP3    H112438   2.430   5.014   2.414
 4158TIP3    H212439   2.315   4.977   2.505
 4159TIP3   OH212440   3.672   3.239   1.624
 4159TIP3    H112441   3.639   3.241   1.534
 4159TIP3    H212442   3.765   3.261   1.616
 4160TIP3   OH212443   0.423   0.109   2.127
 4160TIP3    H112444   0.376   0.044   2.178
 4160TIP3    H212445   0.392   0.193   2.160
 4161TIP3   OH212446   0.750   5.549   4.789
 4161TIP3    H112447   0.796   5.472   4.754
 4161TIP3    H212448   0.821   5.606   4.820
 4162TIP3   OH212449   4.965   2.594   2.985
 4162TIP3    H112450   4.941   2.670   3.037
 4162TIP3    H212451   4.989   2.629   2.899
 4163TIP3   OH212452   5.909   1.874   5.438
 4163TIP3    H112453   5.966   1.827   5.499
 4163TIP3    H212454   5.943   1.851   5.351
 4164TIP3   OH212455   2.465   2.809   0.169
 4164TIP3    H112456   2.495   2.718   0.169
 4164TIP3    H212457   2.504   2.847   0.248
 4165TIP3   OH212458   5.784   0.243   2.730
 4165TIP3    H112459   5.749   0.228   2.642
 4165TIP3    H212460   5.718   0.208   2.789
 4166TIP3   OH212461   6.800   5.421   0.363
 4166TIP3    H112462   6.725   5.480   0.363
 4166TIP3    H212463   6.837   5.428   0.275
 4167TIP3   OH212464   2.486   6.229   5.195
 4167TIP3    H112465   2.402   6.188   5.174
 4167TIP3    H212466   2.551   6.166   5.163
 4168TIP3   OH212467   1.962   0.753   2.690
 4168TIP3    H112468   1.892   0.687   2.685
 4168TIP3    H212469   1.946   0.811   2.616
 4169TIP3   OH212470   0.078   1.981   0.887
 4169TIP3    H112471   0.017   1.988   0.813
 4169TIP3    H212472   0.073   1.889   0.912
 4170TIP3   OH212473   6.257   2.574   5.129
 4170TIP3    H112474   6.264   2.637   5.201
 4170TIP3    H212475   6.330   2.595   5.071
 4171TIP3   OH212476   3.271   6.366   3.052
 4171TIP3    H112477   3.205   6.410   3.105
 4171TIP3    H212478   3.345   6.427   3.050
 4172TIP3   OH212479   7.081   1.270   0.404
 4172TIP3    H112480   7.010   1.254   0.341
 4172TIP3    H212481   7.138   1.333   0.360
 4173TIP3   OH212482   0.058   0.134   3.133
 4173TIP3    H112483   0.011   0.187   3.068
 4173TIP3    H212484  -0.011   0.100   3.190
 4174TIP3   OH212485   4.024   1.346   4.770
 4174TIP3    H112486   4.082   1.274   4.795
 4174TIP3    H212487   4.072   1.392   4.701
 4175TIP3   OH212488   6.047   0.227   2.782
 4175TIP3    H112489   5.951   0.226   2.788
 4175TIP3    H212490   6.074   0.145   2.824
 4176TIP3   OH212491   6.649   0.199   0.897
 4176TIP3    H112492   6.570   0.250   0.878
 4176TIP3    H212493   6.699   0.202   0.816
 4177TIP3   OH212494   1.548   0.617   2.078
 4177TIP3    H112495   1.523   0.587   1.991
 4177TIP3    H212496   1.607   0.691   2.062
 4178TIP3   OH212497   6.146   3.427   2.612
 4178TIP3    H112498   6.232   3.385   2.605
 4178TIP3    H212499   6.155   3.487   2.686
 4179TIP3   OH212500   0.365   3.414   0.501
 4179TIP3    H112501   0.327   3.333   0.536
 4179TIP3    H212502   0.392   3.464   0.578
 4180TIP3   OH212503   6.257   4.216   0.776
 4180TIP3    H112504   6.311   4.272   0.721
 4180TIP3    H212505   6.257   4.131   0.732
 4181TIP3   OH212506   2.897   6.568   5.234
 4181TIP3    H112507   2.836   6.503   5.270
 4181TIP3    H212508   2.886   6.561   5.139
 4182TIP3   OH212509   0.986   5.003   1.300
 4182TIP3    H112510   0.963   5.080   1.351
 4182TIP3    H212511   0.965   4.929   1.357
 4183TIP3   OH212512   0.830   2.896   5.267
 4183TIP3    H112513   0.911   2.907   5.317
 4183TIP3    H212514   0.780   2.975   5.285
 4184TIP3   OH212515   5.707   3.460   2.654
 4184TIP3    H112516   5.787   3.409   2.665
 4184TIP3    H212517   5.716   3.532   2.715
 4185TIP3   OH212518   5.420   3.119   3.474
 4185TIP3    H112519   5.398   3.034   3.437
 4185TIP3    H212520   5.387   3.182   3.411
 4186TIP3   OH212521   1.325   6.227   1.544
 4186TIP3    H112522   1.256   6.215   1.479
 4186TIP3    H212523   1.328   6.144   1.592
 4187TIP3   OH212524   0.034   3.628   2.944
 4187TIP3    H112525   0.008   3.560   3.006
 4187TIP3    H212526   0.085   3.581   2.878
 4188TIP3   OH212527   6.880   4.591   3.956
 4188TIP3    H112528   6.812   4.528   3.931
 4188TIP3    H212529   6.900   4.638   3.875
 4189TIP3   OH212530   4.528   5.096   2.305
 4189TIP3    H112531   4.507   5.016   2.353
 4189TIP3    H212532   4.507   5.075   2.214
 4190TIP3   OH212533   6.207   2.751   3.431
 4190TIP3    H112534   6.244   2.663   3.433
 4190TIP3    H212535   6.231   2.785   3.344
 4191TIP3   OH212536   4.088   2.176   1.200
 4191TIP3    H112537   4.107   2.226   1.280
 4191TIP3    H212538   4.068   2.243   1.135
 4192TIP3   OH212539   2.529   4.905   1.244
 4192TIP3    H112540   2.498   4.948   1.165
 4192TIP3    H212541   2.623   4.920   1.245
 4193TIP3   OH212542   0.155   5.851   0.598
 4193TIP3    H112543   0.208   5.865   0.520
 4193TIP3    H212544   0.084   5.793   0.569
 4194TIP3   OH212545   7.204   2.570   3.589
 4194TIP3    H112546   7.260   2.528   3.654
 4194TIP3    H212547   7.153   2.634   3.639
 4195TIP3   OH212548   3.226   4.013   2.612
 4195TIP3    H112549   3.187   3.927   2.629
 4195TIP3    H212550   3.319   3.995   2.598
 4196TIP3   OH212551   1.288   1.586   3.821
 4196TIP3    H112552   1.361   1.578   3.761
 4196TIP3    H212553   1.275   1.680   3.832
 4197TIP3   OH212554   6.260   2.586   5.657
 4197TIP3    H112555   6.340   2.637   5.670
 4197TIP3    H212556   6.280   2.527   5.584
 4198TIP3   OH212557   6.439   4.960   5.271
 4198TIP3    H112558   6.513   4.900   5.257
 4198TIP3    H212559   6.451   4.991   5.361
 4199TIP3   OH212560   5.789   0.659   0.363
 4199TIP3    H112561   5.871   0.648   0.411
 4199TIP3    H212562   5.817   0.673   0.272
 4200TIP3   OH212563   3.225   3.186   1.014
 4200TIP3    H112564   3.264   3.156   0.932
 4200TIP3    H212565   3.280   3.259   1.042
 4201TIP3   OH212566   4.133   1.066   0.540
 4201TIP3    H112567   4.216   1.109   0.559
 4201TIP3    H212568   4.069   1.111   0.595
 4202TIP3   OH212569   0.650   2.039   5.552
 4202TIP3    H112570   0.600   1.982   5.494
 4202TIP3    H212571   0.601   2.122   5.553
 4203TIP3   OH212572   6.724   4.109   2.399
 4203TIP3    H112573   6.795   4.062   2.357
 4203TIP3    H212574   6.702   4.180   2.338
 4204TIP3   OH212575   1.698   0.397   4.334
 4204TIP3    H112576   1.778   0.346   4.344
 4204TIP3    H212577   1.670   0.381   4.243
 4205TIP3   OH212578   1.277   2.059   0.795
 4205TIP3    H112579   1.271   2.043   0.889
 4205TIP3    H212580   1.249   2.150   0.784
 4206TIP3   OH212581   3.126   3.472   5.444
 4206TIP3    H112582   3.191   3.403   5.429
 4206TIP3    H212583   3.119   3.517   5.359
 4207TIP3   OH212584   3.189   5.621   1.871
 4207TIP3    H112585   3.145   5.550   1.824
 4207TIP3    H212586   3.119   5.666   1.917
 4208TIP3   OH212587   1.992   1.840   5.606
 4208TIP3    H112588   1.942   1.776   5.556
 4208TIP3    H212589   1.929   1.875   5.669
 4209TIP3   OH212590   2.264   3.085   0.309
 4209TIP3    H112591   2.198   3.115   0.247
 4209TIP3    H212592   2.291   3.165   0.355
 4210TIP3   OH212593   2.645   4.657   4.009
 4210TIP3    H112594   2.648   4.680   4.102
 4210TIP3    H212595   2.657   4.740   3.963
 4211TIP3   OH212596   5.747   4.233   5.034
 4211TIP3    H112597   5.672   4.192   4.991
 4211TIP3    H212598   5.798   4.159   5.069
 4212TIP3   OH212599   3.229   3.261   3.297
 4212TIP3    H112600   3.170   3.303   3.360
 4212TIP3    H212601   3.272   3.335   3.253
 4213TIP3   OH212602   2.637   2.469   3.616
 4213TIP3    H112603   2.664   2.399   3.556
 4213TIP3    H212604   2.593   2.423   3.688
 4214TIP3   OH212605   5.199   3.947   0.087
 4214TIP3    H112606   5.211   3.958   0.181
 4214TIP3    H212607   5.163   3.859   0.078
 4215TIP3   OH212608   6.754   3.990   0.382
 4215TIP3    H112609   6.799   3.998   0.466
 4215TIP3    H212610   6.667   3.957   0.404
 4216TIP3   OH212611   7.158   6.172   5.458
 4216TIP3    H112612   7.215   6.151   5.384
 4216TIP3    H212613   7.207   6.142   5.535
 4217TIP3   OH212614   3.267   4.216   1.313
 4217TIP3    H112615   3.182   4.175   1.297
 4217TIP3    H212616   3.321   4.187   1.240
 4218TIP3   OH212617   3.077   6.786   4.089
 4218TIP3    H112618   3.109   6.803   4.001
 4218TIP3    H212619   3.156   6.774   4.142
 4219TIP3   OH212620   6.257   5.454   3.530
 4219TIP3    H112621   6.237   5.378   3.584
 4219TIP3    H212622   6.284   5.418   3.446
 4220TIP3   OH212623   6.938   5.851   0.606
 4220TIP3    H112624   6.947   5.792   0.680
 4220TIP3    H212625   6.981   5.932   0.635
 4221TIP3   OH212626   2.368   0.643   3.420
 4221TIP3    H112627   2.396   0.734   3.421
 4221TIP3    H212628   2.351   0.624   3.328
 4222TIP3   OH212629   0.817   1.002   4.986
 4222TIP3    H112630   0.856   0.955   4.912
 4222TIP3    H212631   0.886   1.063   5.014
 4223TIP3   OH212632   5.592   6.388   4.687
 4223TIP3    H112633   5.670   6.408   4.636
 4223TIP3    H212634   5.581   6.293   4.679
 4224TIP3   OH212635   5.168   1.867   5.669
 4224TIP3    H112636   5.183   1.893   5.760
 4224TIP3    H212637   5.200   1.777   5.664
 4225TIP3   OH212638   4.363   3.822   4.072
 4225TIP3    H112639   4.366   3.728   4.053
 4225TIP3    H212640   4.411   3.830   4.155
 4226TIP3   OH212641   4.861   5.215   4.703
 4226TIP3    H112642   4.819   5.140   4.746
 4226TIP3    H212643   4.936   5.235   4.758
 4227TIP3   OH212644   1.295   6.805   0.908
 4227TIP3    H112645   1.344   6.754   0.972
 4227TIP3    H212646   1.206   6.807   0.942
 4228TIP3   OH212647   1.824   3.094   0.989
 4228TIP3    H112648   1.805   3.185   1.013
 4228TIP3    H212649   1.911   3.077   1.027
 4229TIP3   OH212650   2.265   5.882   1.081
 4229TIP3    H112651   2.261   5.793   1.116
 4229TIP3    H212652   2.311   5.932   1.149
 4230TIP3   OH212653   1.027   4.542   1.648
 4230TIP3    H112654   0.992   4.626   1.677
 4230TIP3    H212655   1.104   4.527   1.703
 4231TIP3   OH212656   5.990   0.413   3.334
 4231TIP3    H112657   5.982   0.482   3.399
 4231TIP3    H212658   6.044   0.451   3.265
 4232TIP3   OH212659   1.996   5.791   5.303
 4232TIP3    H112660   1.946   5.872   5.314
 4232TIP3    H212661   2.045   5.782   5.385
 4233TIP3   OH212662   0.455   4.509   5.338
 4233TIP3    H112663   0.490   4.424   5.313
 4233TIP3    H212664   0.371   4.515   5.292
 4234TIP3   OH212665   5.196   5.994   3.470
 4234TIP3    H112666   5.187   5.910   3.517
 4234TIP3    H212667   5.289   6.015   3.476
 4235TIP3   OH212668   5.013   3.841   2.542
 4235TIP3    H112669   4.929   3.844   2.496
 4235TIP3    H212670   5.069   3.902   2.494
 4236TIP3   OH212671   1.678   1.537   5.706
 4236TIP3    H112672   1.591   1.503   5.728
 4236TIP3    H212673   1.736   1.462   5.717
 4237TIP3   OH212674   5.498   2.118   1.965
 4237TIP3    H112675   5.485   2.057   2.038
 4237TIP3    H212676   5.592   2.114   1.947
 4238TIP3   OH212677   6.912   4.785   3.674
 4238TIP3    H112678   6.848   4.840   3.630
 4238TIP3    H212679   6.919   4.707   3.621
 4239TIP3   OH212680   1.388   2.623   2.567
 4239TIP3    H112681   1.402   2.553   2.504
 4239TIP3    H212682   1.473   2.667   2.574
 4240TIP3   OH212683   2.624   2.572   5.047
 4240TIP3    H112684   2.586   2.502   4.994
 4240TIP3    H212685   2.575   2.569   5.129
 4241TIP3   OH212686   6.230   5.188   3.316
 4241TIP3    H112687   6.210   5.102   3.352
 4241TIP3    H212688   6.315   5.177   3.273
 4242TIP3   OH212689   5.415   6.171   0.940
 4242TIP3    H112690   5.443   6.263   0.942
 4242TIP3    H212691   5.460   6.134   0.864
 4243TIP3   OH212692   5.416   0.529   1.218
 4243TIP3    H112693   5.347   0.587   1.250
 4243TIP3    H212694   5.369   0.461   1.170
 4244TIP3   OH212695   5.958   4.186   3.198
 4244TIP3    H112696   5.929   4.276   3.210
 4244TIP3    H212697   5.964   4.150   3.286
 4245TIP3   OH212698   5.598   2.511   4.326
 4245TIP3    H112699   5.512   2.481   4.357
 4245TIP3    H212700   5.657   2.492   4.399
 4246TIP3   OH212701   3.957   5.868   4.847
 4246TIP3    H112702   4.034   5.922   4.863
 4246TIP3    H212703   3.982   5.781   4.877
 4247TIP3   OH212704   3.657   1.844   2.987
 4247TIP3    H112705   3.737   1.895   2.979
 4247TIP3    H212706   3.676   1.778   3.054
 4248TIP3   OH212707   2.791   6.295   1.549
 4248TIP3    H112708   2.885   6.308   1.536
 4248TIP3    H212709   2.755   6.293   1.460
 4249TIP3   OH212710   4.779   1.465   1.739
 4249TIP3    H112711   4.867   1.495   1.715
 4249TIP3    H212712   4.720   1.528   1.699
 4250TIP3   OH212713   6.286   2.278   0.962
 4250TIP3    H112714   6.371   2.262   0.921
 4250TIP3    H212715   6.299   2.258   1.054
 4251TIP3   OH212716   4.739   2.787   3.419
 4251TIP3    H112717   4.651   2.825   3.423
 4251TIP3    H212718   4.727   2.696   3.446
 4252TIP3   OH212719   3.884   3.540   3.514
 4252TIP3    H112720   3.936   3.500   3.583
 4252TIP3    H212721   3.874   3.631   3.541
 4253TIP3   OH212722   0.711   4.962   2.498
 4253TIP3    H112723   0.772   4.962   2.424
 4253TIP3    H212724   0.745   5.030   2.556
 4254TIP3   OH212725   3.256   5.285   0.066
 4254TIP3    H112726   3.179   5.304   0.012
 4254TIP3    H212727   3.304   5.218   0.017
 4255TIP3   OH212728   4.115   4.841   3.147
 4255TIP3    H112729   4.085   4.931   3.140
 4255TIP3    H212730   4.045   4.789   3.109
 4256TIP3   OH212731   7.179   1.410   5.822
 4256TIP3    H112732   7.214   1.364   5.745
 4256TIP3    H212733   7.227   1.373   5.896
 4257TIP3   OH212734   3.883   3.775   1.474
 4257TIP3    H112735   3.956   3.793   1.535
 4257TIP3    H212736   3.858   3.685   1.493
 4258TIP3   OH212737   2.957   0.770   1.851
 4258TIP3    H112738   3.010   0.823   1.792
 4258TIP3    H212739   2.911   0.709   1.792
 4259TIP3   OH212740   3.115   1.093   1.850
 4259TIP3    H112741   3.053   1.066   1.782
 4259TIP3    H212742   3.096   1.037   1.925
 4260TIP3   OH212743   6.179   5.783   3.080
 4260TIP3    H112744   6.162   5.690   3.096
 4260TIP3    H212745   6.196   5.819   3.167
 4261TIP3   OH212746   1.808   2.297   0.802
 4261TIP3    H112747   1.743   2.227   0.798
 4261TIP3    H212748   1.840   2.306   0.712
 4262TIP3   OH212749   6.595   5.107   0.093
 4262TIP3    H112750   6.502   5.084   0.088
 4262TIP3    H212751   6.615   5.144   0.007
 4263TIP3   OH212752   2.766   0.414   0.636
 4263TIP3    H112753   2.861   0.412   0.635
 4263TIP3    H212754   2.742   0.426   0.544
 4264TIP3   OH212755   2.383   5.456   5.091
 4264TIP3    H112756   2.436   5.379   5.070
 4264TIP3    H212757   2.441   5.530   5.074
 4265TIP3   OH212758   1.605   1.914   4.914
 4265TIP3    H112759   1.545   1.857   4.962
 4265TIP3    H212760   1.590   2.001   4.951
 4266TIP3   OH212761   5.665   1.679   3.259
 4266TIP3    H112762   5.650   1.700   3.351
 4266TIP3    H212763   5.718   1.751   3.226
 4267TIP3   OH212764   0.235   4.681   3.691
 4267TIP3    H112765   0.169   4.655   3.626
 4267TIP3    H212766   0.184   4.695   3.771
 4268TIP3   OH212767   1.862   0.469   0.997
 4268TIP3    H112768   1.854   0.448   1.090
 4268TIP3    H212769   1.785   0.521   0.977
 4269TIP3   OH212770   4.860   1.852   1.823
 4269TIP3    H112771   4.835   1.832   1.733
 4269TIP3    H212772   4.927   1.788   1.845
 4270TIP3   OH212773   1.061   1.827   0.688
 4270TIP3    H112774   1.117   1.765   0.736
 4270TIP3    H212775   1.117   1.904   0.674
 4271TIP3   OH212776   7.054   6.434   5.386
 4271TIP3    H112777   7.091   6.419   5.299
 4271TIP3    H212778   7.079   6.357   5.437
 4272TIP3   OH212779   5.710   4.424   1.954
 4272TIP3    H112780   5.806   4.420   1.947
 4272TIP3    H212781   5.694   4.451   2.045
 4273TIP3   OH212782   4.544   0.922   4.245
 4273TIP3    H112783   4.567   0.873   4.166
 4273TIP3    H212784   4.597   0.882   4.314
 4274TIP3   OH212785   4.787   3.810   0.575
 4274TIP3    H112786   4.796   3.768   0.661
 4274TIP3    H212787   4.844   3.758   0.517
 4275TIP3   OH212788   0.820   5.156   0.370
 4275TIP3    H112789   0.754   5.213   0.410
 4275TIP3    H212790   0.770   5.103   0.308
 4276TIP3   OH212791   4.564   6.085   0.569
 4276TIP3    H112792   4.492   6.049   0.517
 4276TIP3    H212793   4.632   6.104   0.505
 4277TIP3   OH212794   2.861   0.121   4.045
 4277TIP3    H112795   2.826   0.133   3.957
 4277TIP3    H212796   2.937   0.064   4.032
 4278TIP3   OH212797   0.905   3.178   0.776
 4278TIP3    H112798   0.820   3.195   0.734
 4278TIP3    H212799   0.947   3.264   0.782
 4279TIP3   OH212800   2.725   4.905   3.918
 4279TIP3    H112801   2.668   4.976   3.944
 4279TIP3    H212802   2.814   4.939   3.931
 4280TIP3   OH212803   2.278   5.866   3.107
 4280TIP3    H112804   2.202   5.882   3.164
 4280TIP3    H212805   2.333   5.807   3.158
 4281TIP3   OH212806   3.127   2.558   1.597
 4281TIP3    H112807   3.043   2.597   1.574
 4281TIP3    H212808   3.181   2.632   1.626
 4282TIP3   OH212809   1.381   2.958   4.005
 4282TIP3    H112810   1.415   3.046   4.019
 4282TIP3    H212811   1.298   2.970   3.960
 4283TIP3   OH212812   6.294   1.973   5.590
 4283TIP3    H112813   6.201   1.952   5.598
 4283TIP3    H212814   6.296   2.057   5.543
 4284TIP3   OH212815   2.048   3.922   1.915
 4284TIP3    H112816   2.015   3.869   1.843
 4284TIP3    H212817   2.102   3.989   1.873
 4285TIP3   OH212818   3.014   3.901   1.156
 4285TIP3    H112819   3.043   3.810   1.161
 4285TIP3    H212820   3.052   3.942   1.234
 4286TIP3   OH212821   6.366   1.206   2.929
 4286TIP3    H112822   6.359   1.301   2.919
 4286TIP3    H212823   6.279   1.179   2.958
 4287TIP3   OH212824   6.381   1.754   0.172
 4287TIP3    H112825   6.297   1.730   0.212
 4287TIP3    H212826   6.373   1.726   0.081
 4288TIP3   OH212827   4.345   2.814   1.152
 4288TIP3    H112828   4.279   2.883   1.163
 4288TIP3    H212829   4.296   2.733   1.157
 4289TIP3   OH212830   1.577   6.626   2.480
 4289TIP3    H112831   1.529   6.591   2.404
 4289TIP3    H212832   1.615   6.708   2.449
 4290TIP3   OH212833   4.216   1.780   1.337
 4290TIP3    H112834   4.304   1.773   1.375
 4290TIP3    H212835   4.175   1.851   1.386
 4291TIP3   OH212836   3.538   1.652   5.286
 4291TIP3    H112837   3.502   1.602   5.213
 4291TIP3    H212838   3.541   1.742   5.254
 4292TIP3   OH212839   5.067   4.457   0.446
 4292TIP3    H112840   5.126   4.400   0.397
 4292TIP3    H212841   5.096   4.450   0.537
 4293TIP3   OH212842   6.815   3.314   1.761
 4293TIP3    H112843   6.830   3.366   1.840
 4293TIP3    H212844   6.730   3.343   1.729
 4294TIP3   OH212845   4.723   3.248   2.557
 4294TIP3    H112846   4.666   3.171   2.558
 4294TIP3    H212847   4.775   3.238   2.477
 4295TIP3   OH212848   3.942   1.163   2.206
 4295TIP3    H112849   3.955   1.143   2.299
 4295TIP3    H212850   3.863   1.217   2.204
 4296TIP3   OH212851   5.870   1.727   4.840
 4296TIP3    H112852   5.916   1.708   4.759
 4296TIP3    H212853   5.816   1.650   4.856
 4297TIP3   OH212854   7.172   4.768   0.772
 4297TIP3    H112855   7.085   4.807   0.761
 4297TIP3    H212856   7.183   4.759   0.866
 4298TIP3   OH212857   1.585   2.454   1.228
 4298TIP3    H112858   1.672   2.429   1.259
 4298TIP3    H212859   1.534   2.471   1.307
 4299TIP3   OH212860   1.415   1.040   1.648
 4299TIP3    H112861   1.477   1.043   1.721
 4299TIP3    H212862   1.390   1.131   1.633
 4300TIP3   OH212863   4.768   4.944   0.845
 4300TIP3    H112864   4.754   5.016   0.783
 4300TIP3    H212865   4.833   4.978   0.906
 4301TIP3   OH212866   4.150   5.042   3.851
 4301TIP3    H112867   4.091   5.117   3.860
 4301TIP3    H212868   4.134   5.010   3.762
 4302TIP3   OH212869   6.256   4.098   0.414
 4302TIP3    H112870   6.345   4.107   0.382
 4302TIP3    H212871   6.205   4.072   0.337
 4303TIP3   OH212872   6.541   6.031   5.333
 4303TIP3    H112873   6.452   6.047   5.301
 4303TIP3    H212874   6.571   5.955   5.283
 4304TIP3   OH212875   5.603   5.626   3.262
 4304TIP3    H112876   5.574   5.687   3.330
 4304TIP3    H212877   5.544   5.643   3.188
 4305TIP3   OH212878   3.071   1.855   1.010
 4305TIP3    H112879   2.976   1.843   1.009
 4305TIP3    H212880   3.099   1.819   1.094
 4306TIP3   OH212881   2.354   4.201   4.816
 4306TIP3    H112882   2.295   4.276   4.808
 4306TIP3    H212883   2.309   4.130   4.769
 4307TIP3   OH212884   3.738   2.765   5.387
 4307TIP3    H112885   3.674   2.695   5.398
 4307TIP3    H212886   3.692   2.831   5.334
 4308TIP3   OH212887   1.497   1.362   0.277
 4308TIP3    H112888   1.457   1.371   0.364
 4308TIP3    H212889   1.572   1.304   0.291
 4309TIP3   OH212890   1.779   0.422   0.715
 4309TIP3    H112891   1.711   0.487   0.704
 4309TIP3    H212892   1.861   0.471   0.712
 4310TIP3   OH212893   1.029   1.395   0.666
 4310TIP3    H112894   0.962   1.362   0.606
 4310TIP3    H212895   0.981   1.449   0.729
 4311TIP3   OH212896   0.599   5.858   5.109
 4311TIP3    H112897   0.674   5.874   5.167
 4311TIP3    H212898   0.535   5.815   5.166
 4312TIP3   OH212899   4.196   3.738   1.919
 4312TIP3    H112900   4.274   3.779   1.957
 4312TIP3    H212901   4.230   3.683   1.848
 4313TIP3   OH212902   1.782   1.281   2.919
 4313TIP3    H112903   1.821   1.306   3.002
 4313TIP3    H212904   1.689   1.303   2.929
 4314TIP3   OH212905   3.299   2.820   0.257
 4314TIP3    H112906   3.303   2.845   0.349
 4314TIP3    H212907   3.357   2.883   0.213
 4315TIP3   OH212908   6.139   2.891   4.002
 4315TIP3    H112909   6.205   2.918   3.937
 4315TIP3    H212910   6.164   2.938   4.082
 4316TIP3   OH212911   6.324   2.432   2.855
 4316TIP3    H112912   6.380   2.390   2.921
 4316TIP3    H212913   6.293   2.359   2.801
 4317TIP3   OH212914   6.583   5.593   4.662
 4317TIP3    H112915   6.601   5.502   4.640
 4317TIP3    H212916   6.506   5.616   4.610
 4318TIP3   OH212917   4.586   6.292   4.005
 4318TIP3    H112918   4.606   6.260   3.917
 4318TIP3    H212919   4.594   6.387   3.999
 4319TIP3   OH212920   5.865   0.482   0.577
 4319TIP3    H112921   5.833   0.448   0.493
 4319TIP3    H212922   5.922   0.413   0.611
 4320TIP3   OH212923   6.703   3.195   5.508
 4320TIP3    H112924   6.740   3.280   5.533
 4320TIP3    H212925   6.622   3.217   5.461
 4321TIP3   OH212926   3.263   3.972   3.724
 4321TIP3    H112927   3.251   4.029   3.648
 4321TIP3    H212928   3.355   3.984   3.749
 4322TIP3   OH212929   6.930   1.689   1.751
 4322TIP3    H112930   6.978   1.608   1.734
 4322TIP3    H212931   6.977   1.756   1.700
 4323TIP3   OH212932   4.592   2.823   5.624
 4323TIP3    H112933   4.497   2.834   5.632
 4323TIP3    H212934   4.611   2.747   5.680
 4324TIP3   OH212935   1.115   3.649   3.460
 4324TIP3    H112936   1.113   3.669   3.554
 4324TIP3    H212937   1.036   3.596   3.446
 4325TIP3   OH212938   3.307   2.044   0.641
 4325TIP3    H112939   3.246   2.074   0.709
 4325TIP3    H212940   3.250   2.021   0.567
 4326TIP3   OH212941   4.677   6.360   0.180
 4326TIP3    H112942   4.734   6.297   0.135
 4326TIP3    H212943   4.588   6.335   0.154
 4327TIP3   OH212944   3.395   3.659   4.932
 4327TIP3    H112945   3.350   3.725   4.985
 4327TIP3    H212946   3.333   3.586   4.927
 4328TIP3   OH212947   1.020   3.685   0.414
 4328TIP3    H112948   1.017   3.770   0.458
 4328TIP3    H212949   1.112   3.658   0.420
 4329TIP3   OH212950   4.016   0.064   4.118
 4329TIP3    H112951   3.950   0.019   4.065
 4329TIP3    H212952   4.097   0.056   4.067
 4330TIP3   OH212953   2.525   5.460   3.754
 4330TIP3    H112954   2.447   5.415   3.785
 4330TIP3    H212955   2.579   5.391   3.715
 4331TIP3   OH212956   1.084   6.057   0.584
 4331TIP3    H112957   1.034   6.084   0.661
 4331TIP3    H212958   1.047   6.106   0.511
 4332TIP3   OH212959   4.256   2.922   2.651
 4332TIP3    H112960   4.187   2.888   2.708
 4332TIP3    H212961   4.316   2.849   2.638
 4333TIP3   OH212962   6.601   2.354   0.383
 4333TIP3    H112963   6.654   2.358   0.462
 4333TIP3    H212964   6.517   2.391   0.408
 4334TIP3   OH212965   5.786   4.449   1.647
 4334TIP3    H112966   5.710   4.393   1.661
 4334TIP3    H212967   5.846   4.428   1.719
 4335TIP3   OH212968   4.667   2.100   5.642
 4335TIP3    H112969   4.698   2.122   5.554
 4335TIP3    H212970   4.746   2.075   5.690
 4336TIP3   OH212971   4.424   1.176   1.114
 4336TIP3    H112972   4.484   1.190   1.042
 4336TIP3    H212973   4.434   1.253   1.170
 4337TIP3   OH212974   5.722   0.932   2.837
 4337TIP3    H112975   5.705   0.847   2.877
 4337TIP3    H212976   5.648   0.986   2.863
 4338TIP3   OH212977   2.917   4.856   2.658
 4338TIP3    H112978   2.981   4.790   2.687
 4338TIP3    H212979   2.930   4.930   2.717
 4339TIP3   OH212980   4.700   3.805   4.051
 4339TIP3    H112981   4.618   3.769   4.084
 4339TIP3    H212982   4.700   3.896   4.080
 4340TIP3   OH212983   5.451   0.538   4.610
 4340TIP3    H112984   5.418   0.456   4.574
 4340TIP3    H212985   5.391   0.605   4.578
 4341TIP3   OH212986   3.085   6.665   4.906
 4341TIP3    H112987   3.142   6.632   4.837
 4341TIP3    H212988   3.131   6.644   4.987
 4342TIP3   OH212989   0.237   6.721   1.862
 4342TIP3    H112990   0.183   6.799   1.877
 4342TIP3    H212991   0.178   6.648   1.879
 4343TIP3   OH212992   3.934   4.069   2.045
 4343TIP3    H112993   3.996   4.077   2.118
 4343TIP3    H212994   3.965   4.132   1.980
 4344TIP3   OH212995   0.681   0.401   3.705
 4344TIP3    H112996   0.627   0.345   3.761
 4344TIP3    H212997   0.640   0.396   3.619
 4345TIP3   OH212998   6.414   3.243   5.685
 4345TIP3    H112999   6.491   3.296   5.708
 4345TIP3    H213000   6.436   3.207   5.599
 4346TIP3   OH213001   3.788   0.976   4.305
 4346TIP3    H113002   3.727   0.960   4.377
 4346TIP3    H213003   3.777   0.900   4.247
 4347TIP3   OH213004   1.828   6.076   2.231
 4347TIP3    H113005   1.871   6.027   2.301
 4347TIP3    H213006   1.896   6.087   2.165
 4348TIP3   OH213007   7.076   1.643   5.741
 4348TIP3    H113008   7.087   1.707   5.812
 4348TIP3    H213009   7.129   1.568   5.767
 4349TIP3   OH213010   1.575   2.117   3.033
 4349TIP3    H113011   1.503   2.157   2.984
 4349TIP3    H213012   1.586   2.031   2.992
 4350TIP3   OH213013   6.571   5.845   3.819
 4350TIP3    H113014   6.501   5.800   3.772
 4350TIP3    H213015   6.576   5.799   3.903
 4351TIP3   OH213016   2.717   2.558   5.819
 4351TIP3    H113017   2.772   2.481   5.813
 4351TIP3    H213018   2.629   2.526   5.797
 4352TIP3   OH213019   6.116   4.512   1.701
 4352TIP3    H113020   6.073   4.563   1.632
 4352TIP3    H213021   6.143   4.577   1.766
 4353TIP3   OH213022   0.052   0.862   1.461
 4353TIP3    H113023   0.066   0.839   1.553
 4353TIP3    H213024   0.137   0.845   1.419
 4354TIP3   OH213025   1.477   5.457   1.782
 4354TIP3    H113026   1.512   5.374   1.815
 4354TIP3    H213027   1.410   5.431   1.719
 4355TIP3   OH213028   5.815   2.406   5.591
 4355TIP3    H113029   5.747   2.419   5.657
 4355TIP3    H213030   5.893   2.445   5.629
 4356TIP3   OH213031   0.256   3.078   3.053
 4356TIP3    H113032   0.248   3.073   2.958
 4356TIP3    H213033   0.239   2.988   3.083
 4357TIP3   OH213034   6.046   3.854   5.454
 4357TIP3    H113035   6.052   3.946   5.477
 4357TIP3    H213036   6.136   3.829   5.431
 4358TIP3   OH213037   3.383   5.336   3.944
 4358TIP3    H113038   3.440   5.272   3.901
 4358TIP3    H213039   3.443   5.403   3.977
 4359TIP3   OH213040   5.362   4.310   0.369
 4359TIP3    H113041   5.438   4.332   0.422
 4359TIP3    H213042   5.347   4.387   0.314
 4360TIP3   OH213043   0.966   6.221   0.386
 4360TIP3    H113044   1.022   6.279   0.335
 4360TIP3    H213045   0.898   6.278   0.422
 4361TIP3   OH213046   7.049   2.823   3.787
 4361TIP3    H113047   6.984   2.835   3.718
 4361TIP3    H213048   7.002   2.772   3.854
 4362TIP3   OH213049   4.341   2.063   4.813
 4362TIP3    H113050   4.378   1.975   4.801
 4362TIP3    H213051   4.388   2.117   4.749
 4363TIP3   OH213052   1.158   5.384   3.854
 4363TIP3    H113053   1.210   5.347   3.783
 4363TIP3    H213054   1.154   5.477   3.835
 4364TIP3   OH213055   0.398   1.962   4.480
 4364TIP3    H113056   0.459   1.919   4.539
 4364TIP3    H213057   0.452   2.023   4.429
 4365TIP3   OH213058   1.441   4.513   3.753
 4365TIP3    H113059   1.532   4.482   3.752
 4365TIP3    H213060   1.388   4.433   3.758
 4366TIP3   OH213061   5.791   0.489   4.582
 4366TIP3    H113062   5.725   0.546   4.542
 4366TIP3    H213063   5.762   0.400   4.561
 4367TIP3   OH213064   2.521   0.583   1.744
 4367TIP3    H113065   2.604   0.540   1.726
 4367TIP3    H213066   2.470   0.570   1.664
 4368TIP3   OH213067   4.954   1.764   3.938
 4368TIP3    H113068   5.004   1.776   4.018
 4368TIP3    H213069   4.972   1.843   3.886
 4369TIP3   OH213070   2.861   6.715   3.857
 4369TIP3    H113071   2.785   6.734   3.802
 4369TIP3    H213072   2.832   6.736   3.946
 4370TIP3   OH213073   2.580   3.113   5.810
 4370TIP3    H113074   2.553   3.108   5.718
 4370TIP3    H213075   2.618   3.200   5.819
 4371TIP3   OH213076   1.178   6.321   2.161
 4371TIP3    H113077   1.183   6.226   2.167
 4371TIP3    H213078   1.164   6.339   2.068
 4372TIP3   OH213079   0.533   1.781   1.436
 4372TIP3    H113080   0.596   1.708   1.434
 4372TIP3    H213081   0.574   1.846   1.494
 4373TIP3   OH213082   3.546   0.648   5.039
 4373TIP3    H113083   3.584   0.635   5.125
 4373TIP3    H213084   3.452   0.655   5.055
 4374TIP3   OH213085   5.004   1.774   5.105
 4374TIP3    H113086   5.079   1.753   5.049
 4374TIP3    H213087   4.957   1.842   5.057
 4375TIP3   OH213088   6.017   5.553   0.483
 4375TIP3    H113089   6.084   5.563   0.550
 4375TIP3    H213090   6.058   5.496   0.417
 4376TIP3   OH213091   3.503   1.235   4.885
 4376TIP3    H113092   3.486   1.141   4.882
 4376TIP3    H213093   3.578   1.247   4.827
 4377TIP3   OH213094   0.971   1.755   1.597
 4377TIP3    H113095   0.918   1.782   1.673
 4377TIP3    H213096   1.006   1.669   1.622
 4378TIP3   OH213097   6.558   4.649   2.867
 4378TIP3    H113098   6.481   4.666   2.811
 4378TIP3    H213099   6.527   4.664   2.956
 4379TIP3   OH213100   4.972   5.981   1.030
 4379TIP3    H113101   4.901   5.946   0.977
 4379TIP3    H213102   5.039   6.007   0.967
 4380TIP3   OH213103   3.551   1.989   4.533
 4380TIP3    H113104   3.534   2.075   4.493
 4380TIP3    H213105   3.568   1.931   4.458
 4381TIP3   OH213106   0.343   5.562   4.538
 4381TIP3    H113107   0.256   5.580   4.573
 4381TIP3    H213108   0.332   5.482   4.485
 4382TIP3   OH213109   5.459   0.614   4.937
 4382TIP3    H113110   5.474   0.583   5.026
 4382TIP3    H213111   5.520   0.563   4.883
 4383TIP3   OH213112   4.589   4.560   5.274
 4383TIP3    H113113   4.655   4.606   5.222
 4383TIP3    H213114   4.632   4.480   5.304
 4384TIP3   OH213115   0.076   3.649   4.769
 4384TIP3    H113116   0.104   3.569   4.813
 4384TIP3    H213117   0.074   3.625   4.676
 4385TIP3   OH213118   4.644   1.926   4.495
 4385TIP3    H113119   4.554   1.940   4.465
 4385TIP3    H213120   4.655   1.831   4.496
 4386TIP3   OH213121   6.435   6.278   1.534
 4386TIP3    H113122   6.476   6.208   1.482
 4386TIP3    H213123   6.505   6.341   1.549
 4387TIP3   OH213124   1.781   5.658   1.270
 4387TIP3    H113125   1.821   5.635   1.354
 4387TIP3    H213126   1.819   5.742   1.247
 4388TIP3   OH213127   6.406   6.293   3.375
 4388TIP3    H113128   6.483   6.251   3.337
 4388TIP3    H213129   6.430   6.386   3.382
 4389TIP3   OH213130   0.923   1.690   1.221
 4389TIP3    H113131   0.973   1.698   1.139
 4389TIP3    H213132   0.987   1.709   1.289
 4390TIP3   OH213133   7.200   6.194   3.257
 4390TIP3    H113134   7.238   6.277   3.228
 4390TIP3    H213135   7.156   6.159   3.179
 4391TIP3   OH213136   5.781   5.460   5.484
 4391TIP3    H113137   5.846   5.491   5.420
 4391TIP3    H213138   5.767   5.535   5.542
 4392TIP3   OH213139   5.488   3.087   5.388
 4392TIP3    H113140   5.442   3.120   5.311
 4392TIP3    H213141   5.568   3.140   5.392
 4393TIP3   OH213142   5.080   6.311   1.482
 4393TIP3    H113143   5.029   6.382   1.444
 4393TIP3    H213144   5.030   6.232   1.463
 4394TIP3   OH213145   1.453   4.085   3.332
 4394TIP3    H113146   1.533   4.125   3.365
 4394TIP3    H213147   1.407   4.156   3.287
 4395TIP3   OH213148   4.880   4.601   4.192
 4395TIP3    H113149   4.863   4.665   4.124
 4395TIP3    H213150   4.870   4.650   4.274
 4396TIP3   OH213151   4.554   4.145   2.332
 4396TIP3    H113152   4.537   4.149   2.426
 4396TIP3    H213153   4.567   4.237   2.306
 4397TIP3   OH213154   5.462   1.657   4.824
 4397TIP3    H113155   5.473   1.631   4.732
 4397TIP3    H213156   5.538   1.619   4.869
 4398TIP3   OH213157   4.244   0.994   5.098
 4398TIP3    H113158   4.171   1.019   5.154
 4398TIP3    H213159   4.225   0.904   5.072
 4399TIP3   OH213160   6.163   3.101   0.806
 4399TIP3    H113161   6.174   3.182   0.757
 4399TIP3    H213162   6.212   3.036   0.755
 4400TIP3   OH213163   0.769   2.705   4.326
 4400TIP3    H113164   0.731   2.769   4.385
 4400TIP3    H213165   0.799   2.634   4.383
 4401TIP3   OH213166   1.680   4.577   1.058
 4401TIP3    H113167   1.663   4.576   1.152
 4401TIP3    H213168   1.622   4.645   1.023
 4402TIP3   OH213169   6.756   1.236   4.662
 4402TIP3    H113170   6.727   1.145   4.658
 4402TIP3    H213171   6.812   1.247   4.586
 4403TIP3   OH213172   5.957   1.974   1.194
 4403TIP3    H113173   5.977   1.932   1.111
 4403TIP3    H213174   5.896   2.044   1.172
 4404TIP3   OH213175   0.058   1.951   3.960
 4404TIP3    H113176   0.082   1.888   3.892
 4404TIP3    H213177  -0.029   1.923   3.989
 4405TIP3   OH213178   1.053   6.002   2.828
 4405TIP3    H113179   0.966   5.965   2.812
 4405TIP3    H213180   1.061   6.073   2.764
 4406TIP3   OH213181   2.530   4.681   2.477
 4406TIP3    H113182   2.549   4.728   2.558
 4406TIP3    H213183   2.461   4.733   2.435
 4407TIP3   OH213184   6.428   4.302   0.590
 4407TIP3    H113185   6.501   4.360   0.612
 4407TIP3    H213186   6.468   4.226   0.548
 4408TIP3   OH213187   0.247   2.209   4.573
 4408TIP3    H113188   0.301   2.131   4.561
 4408TIP3    H213189   0.267   2.264   4.497
 4409TIP3   OH213190   2.764   6.710   0.614
 4409TIP3    H113191   2.729   6.793   0.581
 4409TIP3    H213192   2.778   6.726   0.707
 4410TIP3   OH213193   6.053   6.132   4.925
 4410TIP3    H113194   5.959   6.140   4.913
 4410TIP3    H213195   6.076   6.207   4.980
 4411TIP3   OH213196   1.836   4.802   1.291
 4411TIP3    H113197   1.749   4.768   1.268
 4411TIP3    H213198   1.895   4.760   1.230
 4412TIP3   OH213199   4.094   1.369   1.857
 4412TIP3    H113200   4.147   1.393   1.934
 4412TIP3    H213201   4.041   1.295   1.887
 4413TIP3   OH213202   5.335   2.998   3.790
 4413TIP3    H113203   5.384   2.939   3.848
 4413TIP3    H213204   5.243   2.981   3.812
 4414TIP3   OH213205   3.343   4.627   2.955
 4414TIP3    H113206   3.375   4.638   2.866
 4414TIP3    H213207   3.419   4.595   3.004
 4415TIP3   OH213208   4.118   0.987   1.698
 4415TIP3    H113209   4.180   0.924   1.736
 4415TIP3    H213210   4.075   1.026   1.774
 4416TIP3   OH213211   6.397   3.511   0.811
 4416TIP3    H113212   6.482   3.553   0.803
 4416TIP3    H213213   6.402   3.434   0.754
 4417TIP3   OH213214   4.422   1.385   5.354
 4417TIP3    H113215   4.380   1.339   5.427
 4417TIP3    H213216   4.349   1.417   5.301
 4418TIP3   OH213217   1.832   5.122   4.198
 4418TIP3    H113218   1.751   5.073   4.184
 4418TIP3    H213219   1.803   5.205   4.236
 4419TIP3   OH213220   4.052   6.068   5.083
 4419TIP3    H113221   4.049   6.127   5.158
 4419TIP3    H213222   3.975   6.091   5.031
 4420TIP3   OH213223   3.318   1.741   0.393
 4420TIP3    H113224   3.249   1.771   0.334
 4420TIP3    H213225   3.363   1.821   0.420
 4421TIP3   OH213226   2.770   4.551   0.360
 4421TIP3    H113227   2.794   4.642   0.339
 4421TIP3    H213228   2.750   4.553   0.454
 4422TIP3   OH213229   6.907   4.546   3.535
 4422TIP3    H113230   6.858   4.495   3.470
 4422TIP3    H213231   6.901   4.494   3.615
 4423TIP3   OH213232   3.413   6.409   3.591
 4423TIP3    H113233   3.368   6.381   3.671
 4423TIP3    H213234   3.369   6.361   3.521
 4424TIP3   OH213235   6.122   4.221   5.499
 4424TIP3    H113236   6.048   4.281   5.497
 4424TIP3    H213237   6.152   4.223   5.589
 4425TIP3   OH213238   0.554   2.731   3.438
 4425TIP3    H113239   0.475   2.697   3.481
 4425TIP3    H213240   0.621   2.665   3.455
 4426TIP3   OH213241   4.766   2.113   0.763
 4426TIP3    H113242   4.720   2.197   0.763
 4426TIP3    H213243   4.788   2.098   0.670
 4427TIP3   OH213244   6.255   0.050   5.583
 4427TIP3    H113245   6.232   0.127   5.635
 4427TIP3    H213246   6.247   0.079   5.492
 4428TIP3   OH213247   5.911   4.513   4.501
 4428TIP3    H113248   5.905   4.605   4.475
 4428TIP3    H213249   6.002   4.489   4.482
 4429TIP3   OH213250   2.764   3.305   0.155
 4429TIP3    H113251   2.803   3.263   0.232
 4429TIP3    H213252   2.670   3.287   0.164
 4430TIP3   OH213253   4.788   2.293  -0.030
 4430TIP3    H113254   4.740   2.214  -0.005
 4430TIP3    H213255   4.814   2.333   0.053
 4431TIP3   OH213256   4.738   5.756   5.323
 4431TIP3    H113257   4.672   5.705   5.371
 4431TIP3    H213258   4.689   5.797   5.252
 4432TIP3   OH213259   3.434   5.505   4.567
 4432TIP3    H113260   3.413   5.450   4.642
 4432TIP3    H213261   3.353   5.507   4.516
 4433TIP3   OH213262   0.396   5.765   5.255
 4433TIP3    H113263   0.306   5.733   5.251
 4433TIP3    H213264   0.424   5.746   5.345
 4434TIP3   OH213265   6.782   0.474   1.496
 4434TIP3    H113266   6.713   0.450   1.558
 4434TIP3    H213267   6.787   0.399   1.436
 4435TIP3   OH213268   2.251   1.270   3.091
 4435TIP3    H113269   2.215   1.275   3.180
 4435TIP3    H213270   2.189   1.215   3.044
 4436TIP3   OH213271   5.154   4.059   0.798
 4436TIP3    H113272   5.133   4.153   0.792
 4436TIP3    H213273   5.107   4.020   0.725
 4437TIP3   OH213274   2.529   4.043   4.526
 4437TIP3    H113275   2.594   4.113   4.525
 4437TIP3    H213276   2.490   4.045   4.439
 4438TIP3   OH213277   5.874   4.673   1.084
 4438TIP3    H113278   5.887   4.665   0.989
 4438TIP3    H213279   5.784   4.643   1.098
 4439TIP3   OH213280   5.172   2.884   2.575
 4439TIP3    H113281   5.136   2.950   2.635
 4439TIP3    H213282   5.219   2.935   2.509
 4440TIP3   OH213283   3.153   6.051   1.808
 4440TIP3    H113284   3.087   5.989   1.776
 4440TIP3    H213285   3.192   6.007   1.883
 4441TIP3   OH213286   4.950   1.122   0.236
 4441TIP3    H113287   4.887   1.116   0.164
 4441TIP3    H213288   4.939   1.040   0.284
 4442TIP3   OH213289   6.878   4.488   2.102
 4442TIP3    H113290   6.936   4.416   2.078
 4442TIP3    H213291   6.911   4.518   2.187
 4443TIP3   OH213292   0.728   5.577   5.363
 4443TIP3    H113293   0.679   5.640   5.310
 4443TIP3    H213294   0.804   5.627   5.395
 4444TIP3   OH213295   5.669   4.730   4.273
 4444TIP3    H113296   5.624   4.673   4.334
 4444TIP3    H213297   5.729   4.673   4.225
 4445TIP3   OH213298   3.875   1.616   1.817
 4445TIP3    H113299   3.915   1.560   1.750
 4445TIP3    H213300   3.805   1.562   1.854
 4446TIP3   OH213301   4.357   2.688   2.594
 4446TIP3    H113302   4.401   2.608   2.624
 4446TIP3    H213303   4.330   2.668   2.504
 4447TIP3   OH213304   6.107   4.885   3.791
 4447TIP3    H113305   6.083   4.923   3.876
 4447TIP3    H213306   6.056   4.804   3.786
 4448TIP3   OH213307   2.536   3.791   2.541
 4448TIP3    H113308   2.595   3.820   2.471
 4448TIP3    H213309   2.559   3.700   2.556
 4449TIP3   OH213310   4.713   0.980   1.654
 4449TIP3    H113311   4.778   0.963   1.721
 4449TIP3    H213312   4.676   0.894   1.633
 4450TIP3   OH213313   4.564   1.815   2.960
 4450TIP3    H113314   4.530   1.904   2.971
 4450TIP3    H213315   4.530   1.787   2.875
 4451TIP3   OH213316   6.962   1.909   5.052
 4451TIP3    H113317   6.880   1.936   5.093
 4451TIP3    H213318   6.946   1.819   5.024
 4452TIP3   OH213319   5.033   4.490   5.856
 4452TIP3    H113320   4.983   4.568   5.879
 4452TIP3    H213321   5.125   4.515   5.871
 4453TIP3   OH213322   5.869   4.450   3.047
 4453TIP3    H113323   5.927   4.525   3.034
 4453TIP3    H213324   5.829   4.464   3.132
 4454TIP3   OH213325   1.795   1.135   4.513
 4454TIP3    H113326   1.857   1.090   4.571
 4454TIP3    H213327   1.728   1.069   4.495
 4455TIP3   OH213328   5.677   1.206   5.272
 4455TIP3    H113329   5.694   1.170   5.360
 4455TIP3    H213330   5.750   1.266   5.257
 4456TIP3   OH213331   3.663   5.317   5.286
 4456TIP3    H113332   3.742   5.321   5.339
 4456TIP3    H213333   3.678   5.243   5.227
 4457TIP3   OH213334   0.229   5.846   4.842
 4457TIP3    H113335   0.139   5.832   4.813
 4457TIP3    H213336   0.224   5.922   4.899
 4458TIP3   OH213337   4.467   6.605   1.238
 4458TIP3    H113338   4.414   6.679   1.209
 4458TIP3    H213339   4.480   6.619   1.331
 4459TIP3   OH213340   1.280   1.212   4.349
 4459TIP3    H113341   1.250   1.218   4.439
 4459TIP3    H213342   1.362   1.262   4.346
 4460TIP3   OH213343   2.252   2.817   0.997
 4460TIP3    H113344   2.337   2.813   0.953
 4460TIP3    H213345   2.208   2.736   0.971
 4461TIP3   OH213346   1.640   3.907   5.830
 4461TIP3    H113347   1.676   3.865   5.751
 4461TIP3    H213348   1.660   3.846   5.901
 4462TIP3   OH213349   0.813   4.942   3.280
 4462TIP3    H113350   0.889   4.884   3.291
 4462TIP3    H213351   0.808   4.958   3.186
 4463TIP3   OH213352   1.466   3.107   0.330
 4463TIP3    H113353   1.498   3.021   0.359
 4463TIP3    H213354   1.395   3.128   0.391
 4464TIP3   OH213355   1.407   6.166   4.432
 4464TIP3    H113356   1.397   6.086   4.381
 4464TIP3    H213357   1.323   6.178   4.475
 4465TIP3   OH213358   5.246   2.417   4.574
 4465TIP3    H113359   5.156   2.445   4.592
 4465TIP3    H213360   5.297   2.460   4.642
 4466TIP3   OH213361   5.806   2.125   5.204
 4466TIP3    H113362   5.777   2.050   5.152
 4466TIP3    H213363   5.865   2.088   5.269
 4467TIP3   OH213364   4.970   4.781   1.623
 4467TIP3    H113365   5.012   4.712   1.572
 4467TIP3    H213366   5.009   4.862   1.591
 4468TIP3   OH213367   7.160   5.892   4.321
 4468TIP3    H113368   7.100   5.880   4.248
 4468TIP3    H213369   7.206   5.808   4.328
 4469TIP3   OH213370   1.178   6.758   5.767
 4469TIP3    H113371   1.119   6.831   5.783
 4469TIP3    H213372   1.263   6.789   5.799
 4470TIP3   OH213373   4.415   0.942   4.839
 4470TIP3    H113374   4.495   0.890   4.828
 4470TIP3    H213375   4.349   0.878   4.864
 4471TIP3   OH213376   4.273   1.814   0.740
 4471TIP3    H113377   4.342   1.872   0.773
 4471TIP3    H213378   4.195   1.870   0.736
 4472TIP3   OH213379   5.111   0.710   4.088
 4472TIP3    H113380   5.101   0.779   4.023
 4472TIP3    H213381   5.173   0.746   4.151
 4473TIP3   OH213382   5.316   6.787   1.859
 4473TIP3    H113383   5.259   6.809   1.933
 4473TIP3    H213384   5.257   6.785   1.783
 4474TIP3   OH213385   0.163   5.578   1.853
 4474TIP3    H113386   0.220   5.517   1.806
 4474TIP3    H213387   0.083   5.529   1.869
 4475TIP3   OH213388   3.578   5.901   4.056
 4475TIP3    H113389   3.593   5.910   4.150
 4475TIP3    H213390   3.483   5.906   4.046
 4476TIP3   OH213391   4.335   1.826   3.563
 4476TIP3    H113392   4.293   1.893   3.510
 4476TIP3    H213393   4.375   1.874   3.636
 4477TIP3   OH213394   0.127   6.322   1.831
 4477TIP3    H113395   0.063   6.252   1.824
 4477TIP3    H213396   0.212   6.278   1.821
 4478TIP3   OH213397   3.011   4.298   4.573
 4478TIP3    H113398   2.974   4.247   4.646
 4478TIP3    H213399   3.104   4.306   4.595
 4479TIP3   OH213400   3.773   2.856   2.350
 4479TIP3    H113401   3.774   2.950   2.365
 4479TIP3    H213402   3.740   2.819   2.432
 4480TIP3   OH213403   3.786   4.415   1.694
 4480TIP3    H113404   3.718   4.373   1.641
 4480TIP3    H213405   3.751   4.502   1.713
 4481TIP3   OH213406   6.041   1.749   5.189
 4481TIP3    H113407   6.109   1.801   5.147
 4481TIP3    H213408   5.962   1.769   5.139
 4482TIP3   OH213409   5.744   5.810   5.322
 4482TIP3    H113410   5.774   5.893   5.286
 4482TIP3    H213411   5.723   5.757   5.245
 4483TIP3   OH213412   2.602   4.388   1.228
 4483TIP3    H113413   2.620   4.345   1.312
 4483TIP3    H213414   2.548   4.464   1.251
 4484TIP3   OH213415   7.169   6.293   1.446
 4484TIP3    H113416   7.211   6.378   1.456
 4484TIP3    H213417   7.113   6.285   1.524
 4485TIP3   OH213418   6.333   2.593   1.166
 4485TIP3    H113419   6.426   2.613   1.176
 4485TIP3    H213420   6.298   2.595   1.255
 4486TIP3   OH213421   1.365   2.032   0.500
 4486TIP3    H113422   1.310   1.993   0.432
 4486TIP3    H213423   1.307   2.092   0.547
 4487TIP3   OH213424   1.355   4.696   1.577
 4487TIP3    H113425   1.281   4.745   1.612
 4487TIP3    H213426   1.399   4.660   1.654
 4488TIP3   OH213427   3.050   3.003   0.516
 4488TIP3    H113428   3.137   3.025   0.483
 4488TIP3    H213429   2.998   2.986   0.438
 4489TIP3   OH213430   4.136   2.846   3.972
 4489TIP3    H113431   4.069   2.843   3.904
 4489TIP3    H213432   4.093   2.812   4.051
 4490TIP3   OH213433   4.911   2.221   4.138
 4490TIP3    H113434   4.828   2.269   4.131
 4490TIP3    H213435   4.891   2.144   4.190
 4491TIP3   OH213436   1.606   1.178   1.298
 4491TIP3    H113437   1.518   1.177   1.337
 4491TIP3    H213438   1.591   1.179   1.204
 4492TIP3   OH213439   0.858   2.756   0.780
 4492TIP3    H113440   0.947   2.761   0.815
 4492TIP3    H213441   0.802   2.755   0.858
 4493TIP3   OH213442   1.601   5.844   2.987
 4493TIP3    H113443   1.584   5.934   3.012
 4493TIP3    H213444   1.575   5.838   2.896
 4494TIP3   OH213445   0.145   1.148   0.229
 4494TIP3    H113446   0.062   1.173   0.189
 4494TIP3    H213447   0.189   1.094   0.163
 4495TIP3   OH213448   2.081   2.134   1.316
 4495TIP3    H113449   2.070   2.138   1.222
 4495TIP3    H213450   2.176   2.141   1.329
 4496TIP3   OH213451   2.582   0.392   3.981
 4496TIP3    H113452   2.497   0.390   3.938
 4496TIP3    H213453   2.639   0.340   3.924
 4497TIP3   OH213454   4.099   4.081   1.775
 4497TIP3    H113455   4.178   4.075   1.828
 4497TIP3    H213456   4.093   3.995   1.732
 4498TIP3   OH213457   1.418   6.529   5.400
 4498TIP3    H113458   1.373   6.607   5.369
 4498TIP3    H213459   1.481   6.508   5.331
 4499TIP3   OH213460   1.737   4.504   3.843
 4499TIP3    H113461   1.676   4.530   3.911
 4499TIP3    H213462   1.824   4.522   3.880
 4500TIP3   OH213463   6.451   4.932   4.288
 4500TIP3    H113464   6.378   4.905   4.232
 4500TIP3    H213465   6.420   5.011   4.332
 4501TIP3   OH213466   4.156   4.149   0.237
 4501TIP3    H113467   4.116   4.231   0.266
 4501TIP3    H213468   4.103   4.121   0.163
 4502TIP3   OH213469   3.279   6.295   3.405
 4502TIP3    H113470   3.189   6.262   3.412
 4502TIP3    H213471   3.324   6.228   3.354
 4503TIP3   OH213472   0.347   0.217   3.121
 4503TIP3    H113473   0.325   0.137   3.073
 4503TIP3    H213474   0.271   0.274   3.108
 4504TIP3   OH213475   0.690   2.551   2.237
 4504TIP3    H113476   0.779   2.583   2.230
 4504TIP3    H213477   0.670   2.514   2.151
 4505TIP3   OH213478   1.926   2.281   4.668
 4505TIP3    H113479   1.961   2.362   4.630
 4505TIP3    H213480   1.892   2.232   4.592
 4506TIP3   OH213481   0.667   1.208   4.493
 4506TIP3    H113482   0.707   1.201   4.580
 4506TIP3    H213483   0.731   1.257   4.441
 4507TIP3   OH213484   5.390   6.123   1.242
 4507TIP3    H113485   5.352   6.036   1.259
 4507TIP3    H213486   5.359   6.145   1.154
 4508TIP3   OH213487   1.278   5.421   3.139
 4508TIP3    H113488   1.332   5.453   3.067
 4508TIP3    H213489   1.270   5.495   3.198
 4509TIP3   OH213490   6.526   5.015   5.841
 4509TIP3    H113491   6.569   5.012   5.926
 4509TIP3    H213492   6.499   5.106   5.831
 4510TIP3   OH213493   7.126   4.552   0.614
 4510TIP3    H113494   7.057   4.570   0.550
 4510TIP3    H213495   7.146   4.638   0.652
 4511TIP3   OH213496   5.315   1.699   2.672
 4511TIP3    H113497   5.266   1.682   2.752
 4511TIP3    H213498   5.263   1.764   2.625
 4512TIP3   OH213499   0.403   5.969   2.096
 4512TIP3    H113500   0.484   5.932   2.062
 4512TIP3    H213501   0.333   5.928   2.045
 4513TIP3   OH213502   6.184   3.043   3.450
 4513TIP3    H113503   6.139   3.055   3.366
 4513TIP3    H213504   6.166   2.951   3.473
 4514TIP3   OH213505   1.732   6.650   0.250
 4514TIP3    H113506   1.747   6.613   0.337
 4514TIP3    H213507   1.648   6.612   0.223
 4515TIP3   OH213508   3.794   5.195   4.618
 4515TIP3    H113509   3.714   5.201   4.565
 4515TIP3    H213510   3.865   5.198   4.554
 4516TIP3   OH213511   4.813   1.438   5.887
 4516TIP3    H113512   4.825   1.533   5.891
 4516TIP3    H213513   4.718   1.426   5.878
 4517TIP3   OH213514   0.953   3.168   4.421
 4517TIP3    H113515   0.936   3.074   4.421
 4517TIP3    H213516   1.047   3.175   4.403
 4518TIP3   OH213517   4.202   6.404   0.021
 4518TIP3    H113518   4.201   6.408   0.117
 4518TIP3    H213519   4.125   6.454  -0.005
 4519TIP3   OH213520   1.631   4.995   4.056
 4519TIP3    H113521   1.574   4.924   4.086
 4519TIP3    H213522   1.574   5.053   4.007
 4520TIP3   OH213523   0.926   5.620   1.597
 4520TIP3    H113524   0.895   5.552   1.656
 4520TIP3    H213525   0.899   5.589   1.510
 4521TIP3   OH213526   3.784   5.976   3.048
 4521TIP3    H113527   3.715   5.923   3.088
 4521TIP3    H213528   3.741   6.026   2.979
 4522TIP3   OH213529   3.964   3.379   2.542
 4522TIP3    H113530   4.057   3.380   2.520
 4522TIP3    H213531   3.923   3.428   2.471
 4523TIP3   OH213532   4.969   4.783   4.906
 4523TIP3    H113533   4.984   4.702   4.954
 4523TIP3    H213534   5.048   4.795   4.853
 4524TIP3   OH213535   5.690   1.931   2.819
 4524TIP3    H113536   5.656   1.861   2.764
 4524TIP3    H213537   5.783   1.936   2.798
 4525TIP3   OH213538   2.926   1.771   4.870
 4525TIP3    H113539   2.952   1.799   4.783
 4525TIP3    H213540   2.975   1.690   4.885
 4526TIP3   OH213541   1.430   6.692   2.164
 4526TIP3    H113542   1.398   6.720   2.078
 4526TIP3    H213543   1.378   6.615   2.185
 4527TIP3   OH213544   1.900   1.550   1.027
 4527TIP3    H113545   1.926   1.587   0.943
 4527TIP3    H213546   1.983   1.534   1.073
 4528TIP3   OH213547   5.532   5.529   4.440
 4528TIP3    H113548   5.549   5.533   4.346
 4528TIP3    H213549   5.437   5.526   4.447
 4529TIP3   OH213550   6.456   0.973   0.645
 4529TIP3    H113551   6.440   1.067   0.636
 4529TIP3    H213552   6.521   0.966   0.715
 4530TIP3   OH213553   4.746   3.715   3.790
 4530TIP3    H113554   4.725   3.804   3.763
 4530TIP3    H213555   4.754   3.721   3.886
 4531TIP3   OH213556   4.199   4.766   2.171
 4531TIP3    H113557   4.128   4.767   2.106
 4531TIP3    H213558   4.200   4.676   2.203
 4532TIP3   OH213559   1.697   4.307   3.642
 4532TIP3    H113560   1.729   4.366   3.710
 4532TIP3    H213561   1.689   4.362   3.564
 4533TIP3   OH213562   2.734   2.647   0.730
 4533TIP3    H113563   2.673   2.709   0.692
 4533TIP3    H213564   2.809   2.646   0.670
 4534TIP3   OH213565   1.635   1.334   2.170
 4534TIP3    H113566   1.679   1.252   2.193
 4534TIP3    H213567   1.680   1.363   2.090
 4535TIP3   OH213568   3.420   4.977   1.412
 4535TIP3    H113569   3.390   5.025   1.490
 4535TIP3    H213570   3.420   4.886   1.439
 4536TIP3   OH213571   1.033   4.794   3.326
 4536TIP3    H113572   1.100   4.789   3.258
 4536TIP3    H213573   1.064   4.735   3.395
 4537TIP3   OH213574   5.811   2.743   5.621
 4537TIP3    H113575   5.816   2.832   5.587
 4537TIP3    H213576   5.895   2.729   5.665
 4538TIP3   OH213577   2.941   5.602   3.113
 4538TIP3    H113578   2.965   5.552   3.190
 4538TIP3    H213579   2.947   5.540   3.040
 4539TIP3   OH213580   4.060   2.688   1.476
 4539TIP3    H113581   4.140   2.676   1.425
 4539TIP3    H213582   4.062   2.619   1.541
 4540TIP3   OH213583   1.412   1.122   4.691
 4540TIP3    H113584   1.450   1.045   4.650
 4540TIP3    H213585   1.479   1.152   4.752
 4541TIP3   OH213586   2.339   3.298   0.473
 4541TIP3    H113587   2.411   3.334   0.526
 4541TIP3    H213588   2.279   3.370   0.461
 4542TIP3   OH213589   6.517   6.650   1.612
 4542TIP3    H113590   6.424   6.628   1.602
 4542TIP3    H213591   6.551   6.650   1.522
 4543TIP3   OH213592   1.732   6.801   2.318
 4543TIP3    H113593   1.802   6.741   2.343
 4543TIP3    H213594   1.761   6.839   2.235
 4544TIP3   OH213595   2.238   3.907   4.737
 4544TIP3    H113596   2.222   3.998   4.711
 4544TIP3    H213597   2.306   3.877   4.677
 4545TIP3   OH213598   2.773   2.078   1.078
 4545TIP3    H113599   2.846   2.111   1.130
 4545TIP3    H213600   2.786   1.983   1.075
 4546TIP3   OH213601   5.700   0.162   0.648
 4546TIP3    H113602   5.621   0.108   0.637
 4546TIP3    H213603   5.770   0.100   0.665
 4547TIP3   OH213604   2.434   2.920   3.467
 4547TIP3    H113605   2.486   2.985   3.419
 4547TIP3    H213606   2.490   2.843   3.470
 4548TIP3   OH213607   3.678   1.792   5.665
 4548TIP3    H113608   3.718   1.871   5.628
 4548TIP3    H213609   3.689   1.726   5.597
 4549TIP3   OH213610   6.753   0.137   5.205
 4549TIP3    H113611   6.731   0.160   5.295
 4549TIP3    H213612   6.763   0.221   5.160
 4550TIP3   OH213613   6.550   3.663   1.637
 4550TIP3    H113614   6.529   3.716   1.714
 4550TIP3    H213615   6.465   3.632   1.605
 4551TIP3   OH213616   2.888   5.615   0.507
 4551TIP3    H113617   2.932   5.639   0.425
 4551TIP3    H213618   2.937   5.661   0.575
 4552TIP3   OH213619   7.142   3.211   0.427
 4552TIP3    H113620   7.066   3.155   0.444
 4552TIP3    H213621   7.183   3.222   0.513
 4553TIP3   OH213622   3.232   4.295   2.140
 4553TIP3    H113623   3.277   4.379   2.130
 4553TIP3    H213624   3.253   4.266   2.229
 4554TIP3   OH213625   4.296   4.758   2.897
 4554TIP3    H113626   4.275   4.666   2.912
 4554TIP3    H213627   4.222   4.791   2.847
 4555TIP3   OH213628   0.636   6.426   4.420
 4555TIP3    H113629   0.561   6.419   4.479
 4555TIP3    H213630   0.609   6.379   4.341
 4556TIP3   OH213631   3.982   2.993   4.493
 4556TIP3    H113632   4.017   3.051   4.562
 4556TIP3    H213633   4.035   2.914   4.501
 4557TIP3   OH213634   2.470   5.046   5.747
 4557TIP3    H113635   2.450   4.960   5.783
 4557TIP3    H213636   2.492   5.099   5.823
 4558TIP3   OH213637   1.649   0.340   2.006
 4558TIP3    H113638   1.570   0.394   2.000
 4558TIP3    H213639   1.625   0.258   1.963
 4559TIP3   OH213640   0.442   5.790   5.571
 4559TIP3    H113641   0.482   5.877   5.564
 4559TIP3    H213642   0.348   5.806   5.563
 4560TIP3   OH213643   6.258   5.188   4.833
 4560TIP3    H113644   6.316   5.145   4.770
 4560TIP3    H213645   6.190   5.124   4.851
 4561TIP3   OH213646   6.692   6.364   0.063
 4561TIP3    H113647   6.729   6.299   0.003
 4561TIP3    H213648   6.717   6.448   0.026
 4562TIP3   OH213649   1.652   3.618   0.048
 4562TIP3    H113650   1.728   3.563   0.066
 4562TIP3    H213651   1.689   3.704   0.029
 4563TIP3   OH213652   7.064   2.648   1.220
 4563TIP3    H113653   7.117   2.595   1.279
 4563TIP3    H213654   7.076   2.738   1.251
 4564TIP3   OH213655   3.839   6.260   4.638
 4564TIP3    H113656   3.749   6.267   4.605
 4564TIP3    H213657   3.891   6.235   4.562
 4565TIP3   OH213658   6.936   0.649   1.661
 4565TIP3    H113659   6.884   0.597   1.599
 4565TIP3    H213660   7.016   0.598   1.673
 4566TIP3   OH213661   0.281   6.062   1.078
 4566TIP3    H113662   0.252   5.998   1.013
 4566TIP3    H213663   0.321   6.132   1.025
 4567TIP3   OH213664   3.115   4.664   0.367
 4567TIP3    H113665   3.182   4.695   0.307
 4567TIP3    H213666   3.072   4.592   0.321
 4568TIP3   OH213667   1.608   5.163   3.335
 4568TIP3    H113668   1.517   5.166   3.305
 4568TIP3    H213669   1.602   5.134   3.426
 4569TIP3   OH213670   5.433   3.626   2.720
 4569TIP3    H113671   5.338   3.631   2.711
 4569TIP3    H213672   5.463   3.587   2.638
 4570TIP3   OH213673   5.700   2.782   4.283
 4570TIP3    H113674   5.775   2.788   4.343
 4570TIP3    H213675   5.626   2.758   4.339
 4571TIP3   OH213676   0.157   4.377   0.745
 4571TIP3    H113677   0.146   4.465   0.709
 4571TIP3    H213678   0.234   4.384   0.801
 4572TIP3   OH213679   1.213   2.205   4.734
 4572TIP3    H113680   1.179   2.128   4.779
 4572TIP3    H213681   1.208   2.182   4.641
 4573TIP3   OH213682   2.210   4.303   4.054
 4573TIP3    H113683   2.301   4.331   4.068
 4573TIP3    H213684   2.190   4.330   3.965
 4574TIP3   OH213685   2.518   0.434   4.989
 4574TIP3    H113686   2.557   0.438   4.902
 4574TIP3    H213687   2.442   0.377   4.979
 4575TIP3   OH213688   0.782   3.276   5.640
 4575TIP3    H113689   0.740   3.339   5.582
 4575TIP3    H213690   0.871   3.267   5.605
 4576TIP3   OH213691   0.987   5.261   1.417
 4576TIP3    H113692   1.047   5.331   1.394
 4576TIP3    H213693   0.951   5.286   1.502
 4577TIP3   OH213694   4.174   6.571   0.724
 4577TIP3    H113695   4.110   6.629   0.682
 4577TIP3    H213696   4.159   6.485   0.684
 4578TIP3   OH213697   1.131   2.579   5.451
 4578TIP3    H113698   1.167   2.595   5.538
 4578TIP3    H213699   1.109   2.485   5.452
 4579TIP3   OH213700   1.142   1.839   2.739
 4579TIP3    H113701   1.158   1.809   2.829
 4579TIP3    H213702   1.099   1.924   2.750
 4580TIP3   OH213703   5.700   5.337   1.845
 4580TIP3    H113704   5.674   5.248   1.867
 4580TIP3    H213705   5.747   5.328   1.762
 4581TIP3   OH213706   4.862   1.729   2.635
 4581TIP3    H113707   4.907   1.695   2.558
 4581TIP3    H213708   4.901   1.680   2.708
 4582TIP3   OH213709   4.526   0.389   2.396
 4582TIP3    H113710   4.601   0.362   2.449
 4582TIP3    H213711   4.552   0.370   2.306
 4583TIP3   OH213712   1.081   1.224   1.493
 4583TIP3    H113713   1.040   1.156   1.440
 4583TIP3    H213714   1.173   1.223   1.467
 4584TIP3   OH213715   6.122   6.214   1.514
 4584TIP3    H113716   6.126   6.228   1.609
 4584TIP3    H213717   6.210   6.236   1.483
 4585TIP3   OH213718   3.402   1.479   4.796
 4585TIP3    H113719   3.471   1.415   4.814
 4585TIP3    H213720   3.449   1.560   4.776
 4586TIP3   OH213721   0.937   5.406   3.662
 4586TIP3    H113722   0.937   5.332   3.601
 4586TIP3    H213723   1.008   5.387   3.723
 4587TIP3   OH213724   1.345   3.154   0.091
 4587TIP3    H113725   1.298   3.234   0.116
 4587TIP3    H213726   1.394   3.129   0.170
 4588TIP3   OH213727   3.703   4.766   3.362
 4588TIP3    H113728   3.684   4.716   3.283
 4588TIP3    H213729   3.666   4.853   3.344
 4589TIP3   OH213730   4.619   1.883   3.343
 4589TIP3    H113731   4.687   1.934   3.298
 4589TIP3    H213732   4.564   1.850   3.273
 4590TIP3   OH213733   3.575   3.384   1.866
 4590TIP3    H113734   3.480   3.372   1.857
 4590TIP3    H213735   3.612   3.336   1.792
 4591TIP3   OH213736   5.125   1.014   1.504
 4591TIP3    H113737   5.178   0.996   1.582
 4591TIP3    H213738   5.066   0.939   1.498
 4592TIP3   OH213739   2.629   3.598   0.434
 4592TIP3    H113740   2.672   3.684   0.443
 4592TIP3    H213741   2.618   3.588   0.339
 4593TIP3   OH213742   5.678   1.784   3.507
 4593TIP3    H113743   5.609   1.848   3.490
 4593TIP3    H213744   5.652   1.741   3.588
 4594TIP3   OH213745   2.202   3.959   3.334
 4594TIP3    H113746   2.181   3.992   3.421
 4594TIP3    H213747   2.228   3.868   3.348
 4595TIP3   OH213748   0.598   2.739   2.480
 4595TIP3    H113749   0.662   2.673   2.505
 4595TIP3    H213750   0.643   2.794   2.416
 4596TIP3   OH213751   6.614   3.312   4.322
 4596TIP3    H113752   6.542   3.319   4.386
 4596TIP3    H213753   6.570   3.305   4.238
 4597TIP3   OH213754   1.300   0.194   4.793
 4597TIP3    H113755   1.266   0.275   4.832
 4597TIP3    H213756   1.372   0.223   4.738
 4598TIP3   OH213757   6.927   2.210   5.597
 4598TIP3    H113758   6.832   2.211   5.595
 4598TIP3    H213759   6.952   2.290   5.642
 4599TIP3   OH213760   2.674   2.810  -0.015
 4599TIP3    H113761   2.741   2.879  -0.005
 4599TIP3    H213762   2.613   2.826   0.057
 4600TIP3   OH213763   2.681   5.244   3.693
 4600TIP3    H113764   2.769   5.217   3.668
 4600TIP3    H213765   2.639   5.164   3.725
 4601TIP3   OH213766   3.077   3.406   2.220
 4601TIP3    H113767   2.987   3.396   2.190
 4601TIP3    H213768   3.119   3.322   2.200
 4602TIP3   OH213769   6.328   5.219   5.506
 4602TIP3    H113770   6.262   5.163   5.548
 4602TIP3    H213771   6.408   5.167   5.508
 4603TIP3   OH213772   6.379   0.289   0.811
 4603TIP3    H113773   6.361   0.321   0.723
 4603TIP3    H213774   6.294   0.293   0.856
 4604TIP3   OH213775   2.664   4.346   1.521
 4604TIP3    H113776   2.701   4.258   1.524
 4604TIP3    H213777   2.691   4.386   1.604
 4605TIP3   OH213778   3.536   1.872   5.152
 4605TIP3    H113779   3.615   1.876   5.098
 4605TIP3    H213780   3.541   1.950   5.207
 4606TIP3   OH213781   5.946   6.743   3.419
 4606TIP3    H113782   5.989   6.803   3.358
 4606TIP3    H213783   5.891   6.799   3.474
 4607TIP3   OH213784   1.811   4.932   2.540
 4607TIP3    H113785   1.874   4.961   2.474
 4607TIP3    H213786   1.849   4.850   2.574
 4608TIP3   OH213787   0.708   4.069   0.637
 4608TIP3    H113788   0.733   4.157   0.663
 4608TIP3    H213789   0.767   4.012   0.685
 4609TIP3   OH213790   0.987   4.638   0.810
 4609TIP3    H113791   0.893   4.644   0.827
 4609TIP3    H213792   0.994   4.626   0.715
 4610TIP3   OH213793   1.529   1.589   1.183
 4610TIP3    H113794   1.437   1.573   1.164
 4610TIP3    H213795   1.577   1.538   1.118
 4611TIP3   OH213796   2.722   4.390   4.329
 4611TIP3    H113797   2.750   4.338   4.404
 4611TIP3    H213798   2.762   4.347   4.253
 4612TIP3   OH213799   5.467   6.021   3.257
 4612TIP3    H113800   5.544   6.024   3.201
 4612TIP3    H213801   5.501   6.036   3.345
 4613TIP3   OH213802   2.974   3.944   3.423
 4613TIP3    H113803   3.031   3.959   3.348
 4613TIP3    H213804   2.937   3.857   3.408
 4614TIP3   OH213805   0.585   3.709   2.686
 4614TIP3    H113806   0.643   3.767   2.735
 4614TIP3    H213807   0.523   3.768   2.643
 4615TIP3   OH213808   1.884   4.366   1.283
 4615TIP3    H113809   1.853   4.278   1.302
 4615TIP3    H213810   1.976   4.365   1.311
 4616TIP3   OH213811   4.135   3.965   2.521
 4616TIP3    H113812   4.067   3.900   2.502
 4616TIP3    H213813   4.191   3.965   2.444
 4617TIP3   OH213814   6.965   3.929   3.269
 4617TIP3    H113815   6.916   3.852   3.299
 4617TIP3    H213816   7.026   3.894   3.204
 4618TIP3   OH213817   7.063   0.888   4.914
 4618TIP3    H113818   6.992   0.849   4.863
 4618TIP3    H213819   7.045   0.861   5.004
 4619TIP3   OH213820   4.015   0.698   2.596
 4619TIP3    H113821   3.971   0.630   2.647
 4619TIP3    H213822   4.107   0.692   2.621
 4620TIP3   OH213823   7.051   3.292   3.726
 4620TIP3    H113824   6.990   3.301   3.799
 4620TIP3    H213825   7.008   3.232   3.666
 4621TIP3   OH213826   6.207   2.866   1.647
 4621TIP3    H113827   6.176   2.907   1.566
 4621TIP3    H213828   6.165   2.780   1.649
 4622TIP3   OH213829   4.903   4.589   2.071
 4622TIP3    H113830   4.949   4.649   2.013
 4622TIP3    H213831   4.947   4.598   2.156
 4623TIP3   OH213832   1.024   6.346   3.815
 4623TIP3    H113833   0.946   6.335   3.760
 4623TIP3    H213834   1.090   6.381   3.756
 4624TIP3   OH213835   6.602   2.954   4.906
 4624TIP3    H113836   6.569   3.044   4.901
 4624TIP3    H213837   6.605   2.925   4.815
 4625TIP3   OH213838   2.726   6.312   2.990
 4625TIP3    H113839   2.717   6.341   3.081
 4625TIP3    H213840   2.637   6.310   2.956
 4626TIP3   OH213841   2.804   1.292   5.400
 4626TIP3    H113842   2.845   1.375   5.375
 4626TIP3    H213843   2.754   1.266   5.322
 4627TIP3   OH213844   7.150   0.514   1.707
 4627TIP3    H113845   7.205   0.485   1.779
 4627TIP3    H213846   7.159   0.447   1.640
 4628TIP3   OH213847   1.311   4.929   2.423
 4628TIP3    H113848   1.403   4.943   2.447
 4628TIP3    H213849   1.263   4.997   2.470
 4629TIP3   OH213850   4.973   3.197   2.962
 4629TIP3    H113851   4.999   3.287   2.946
 4629TIP3    H213852   5.002   3.179   3.052
 4630TIP3   OH213853   1.098   6.724   3.994
 4630TIP3    H113854   1.179   6.715   3.944
 4630TIP3    H213855   1.031   6.683   3.938
 4631TIP3   OH213856   5.301   5.891   4.436
 4631TIP3    H113857   5.280   5.848   4.519
 4631TIP3    H213858   5.216   5.918   4.401
 4632TIP3   OH213859   3.126   3.841   1.906
 4632TIP3    H113860   3.134   3.936   1.898
 4632TIP3    H213861   3.101   3.811   1.818
 4633TIP3   OH213862   2.296   5.251   1.983
 4633TIP3    H113863   2.332   5.162   1.992
 4633TIP3    H213864   2.372   5.305   1.959
 4634TIP3   OH213865   4.063   1.392   5.664
 4634TIP3    H113866   3.990   1.338   5.635
 4634TIP3    H213867   4.139   1.358   5.615
 4635TIP3   OH213868   5.184   4.129   3.204
 4635TIP3    H113869   5.238   4.126   3.283
 4635TIP3    H213870   5.099   4.163   3.234
 4636TIP3   OH213871   0.574   2.338   1.383
 4636TIP3    H113872   0.539   2.251   1.402
 4636TIP3    H213873   0.649   2.321   1.325
 4637TIP3   OH213874   3.017   6.156   5.523
 4637TIP3    H113875   3.051   6.213   5.592
 4637TIP3    H213876   3.092   6.103   5.496
 4638TIP3   OH213877   3.252   6.765   2.388
 4638TIP3    H113878   3.262   6.699   2.319
 4638TIP3    H213879   3.313   6.737   2.456
 4639TIP3   OH213880   6.117   0.561   0.393
 4639TIP3    H113881   6.213   0.566   0.397
 4639TIP3    H213882   6.091   0.627   0.329
 4640TIP3   OH213883   5.788   0.866   5.254
 4640TIP3    H113884   5.746   0.851   5.338
 4640TIP3    H213885   5.749   0.801   5.196
 4641TIP3   OH213886   5.497   4.080   3.764
 4641TIP3    H113887   5.502   4.160   3.712
 4641TIP3    H213888   5.404   4.061   3.770
 4642TIP3   OH213889   1.116   2.761   0.850
 4642TIP3    H113890   1.185   2.821   0.820
 4642TIP3    H213891   1.158   2.708   0.918
 4643TIP3   OH213892   5.810   6.393   3.447
 4643TIP3    H113893   5.889   6.442   3.471
 4643TIP3    H213894   5.841   6.302   3.436
 4644TIP3   OH213895   3.811   1.844   3.592
 4644TIP3    H113896   3.866   1.784   3.643
 4644TIP3    H213897   3.732   1.793   3.573
 4645TIP3   OH213898   1.068   1.794   5.526
 4645TIP3    H113899   1.146   1.751   5.491
 4645TIP3    H213900   1.067   1.772   5.619
 4646TIP3   OH213901   0.486   4.020   2.876
 4646TIP3    H113902   0.518   3.948   2.930
 4646TIP3    H213903   0.547   4.092   2.893
 4647TIP3   OH213904   5.023   6.092   2.700
 4647TIP3    H113905   5.094   6.067   2.642
 4647TIP3    H213906   4.958   6.022   2.689
 4648TIP3   OH213907   0.702   0.391   2.616
 4648TIP3    H113908   0.700   0.473   2.565
 4648TIP3    H213909   0.615   0.384   2.655
 4649TIP3   OH213910   1.567   1.057   1.851
 4649TIP3    H113911   1.538   1.004   1.925
 4649TIP3    H213912   1.569   1.147   1.885
 4650TIP3   OH213913   2.216   5.284   5.717
 4650TIP3    H113914   2.218   5.266   5.623
 4650TIP3    H213915   2.305   5.265   5.747
 4651TIP3   OH213916   4.157   2.436   2.193
 4651TIP3    H113917   4.168   2.386   2.112
 4651TIP3    H213918   4.147   2.369   2.261
 4652TIP3   OH213919   0.460   4.881   2.480
 4652TIP3    H113920   0.391   4.921   2.533
 4652TIP3    H213921   0.539   4.931   2.501
 4653TIP3   OH213922   1.418   4.504   0.044
 4653TIP3    H113923   1.404   4.421   0.090
 4653TIP3    H213924   1.333   4.526   0.007
 4654TIP3   OH213925   3.046   5.319   0.852
 4654TIP3    H113926   3.102   5.282   0.783
 4654TIP3    H213927   3.060   5.262   0.927
 4655TIP3   OH213928   4.592   1.939   2.301
 4655TIP3    H113929   4.565   1.942   2.209
 4655TIP3    H213930   4.631   2.025   2.318
 4656TIP3   OH213931   1.063   0.037   1.330
 4656TIP3    H113932   1.021   0.085   1.258
 4656TIP3    H213933   1.142   0.088   1.350
 4657TIP3   OH213934   4.681   2.561   3.686
 4657TIP3    H113935   4.593   2.596   3.674
 4657TIP3    H213936   4.711   2.542   3.597
 4658TIP3   OH213937   1.659   4.042   4.530
 4658TIP3    H113938   1.611   4.063   4.610
 4658TIP3    H213939   1.723   3.976   4.557
 4659TIP3   OH213940   3.384   6.127   2.919
 4659TIP3    H113941   3.355   6.051   2.970
 4659TIP3    H213942   3.340   6.201   2.960
 4660TIP3   OH213943   6.623   3.738   2.052
 4660TIP3    H113944   6.606   3.821   2.006
 4660TIP3    H213945   6.559   3.737   2.123
 4661TIP3   OH213946   0.176   2.537   2.180
 4661TIP3    H113947   0.266   2.549   2.150
 4661TIP3    H213948   0.175   2.576   2.268
 4662TIP3   OH213949   4.126   0.110   1.192
 4662TIP3    H113950   4.127   0.202   1.216
 4662TIP3    H213951   4.169   0.065   1.265
 4663TIP3   OH213952   1.337   0.949   3.166
 4663TIP3    H113953   1.292   0.883   3.219
 4663TIP3    H213954   1.425   0.913   3.153
 4664TIP3   OH213955   4.500   4.286   0.615
 4664TIP3    H113956   4.488   4.196   0.584
 4664TIP3    H213957   4.580   4.282   0.667
 4665TIP3   OH213958   4.179   0.675   0.272
 4665TIP3    H113959   4.192   0.589   0.312
 4665TIP3    H213960   4.148   0.730   0.344
 4666TIP3   OH213961   4.010   6.497   0.994
 4666TIP3    H113962   4.086   6.525   0.942
 4666TIP3    H213963   3.948   6.570   0.986
 4667TIP3   OH213964   4.160   4.539   5.824
 4667TIP3    H113965   4.135   4.472   5.887
 4667TIP3    H213966   4.178   4.491   5.744
 4668TIP3   OH213967   5.034   3.452   2.860
 4668TIP3    H113968   5.036   3.533   2.911
 4668TIP3    H213969   4.947   3.451   2.820
 4669TIP3   OH213970   6.073   5.522   3.137
 4669TIP3    H113971   6.081   5.440   3.087
 4669TIP3    H213972   5.992   5.561   3.106
 4670TIP3   OH213973   6.537   0.728   0.555
 4670TIP3    H113974   6.515   0.812   0.595
 4670TIP3    H213975   6.594   0.751   0.482
 4671TIP3   OH213976   4.548   0.610   4.709
 4671TIP3    H113977   4.610   0.542   4.686
 4671TIP3    H213978   4.469   0.563   4.735
 4672TIP3   OH213979   6.493   2.855   4.099
 4672TIP3    H113980   6.552   2.842   4.174
 4672TIP3    H213981   6.457   2.943   4.111
 4673TIP3   OH213982   6.514   6.093   4.269
 4673TIP3    H113983   6.465   6.017   4.238
 4673TIP3    H213984   6.599   6.057   4.296
 4674TIP3   OH213985   5.025   4.293   2.191
 4674TIP3    H113986   5.108   4.302   2.143
 4674TIP3    H213987   4.993   4.383   2.201
 4675TIP3   OH213988   2.160   0.313   2.079
 4675TIP3    H113989   2.140   0.393   2.031
 4675TIP3    H213990   2.233   0.273   2.031
 4676TIP3   OH213991   5.813   0.633   0.915
 4676TIP3    H113992   5.799   0.539   0.913
 4676TIP3    H213993   5.725   0.671   0.908
 4677TIP3   OH213994   6.709   1.498   4.410
 4677TIP3    H113995   6.660   1.422   4.378
 4677TIP3    H213996   6.664   1.523   4.490
 4678TIP3   OH213997   5.381   6.062   5.914
 4678TIP3    H113998   5.425   6.124   5.857
 4678TIP3    H213999   5.298   6.044   5.870
 4679TIP3   OH214000   2.747   2.741   2.235
 4679TIP3    H114001   2.665   2.719   2.190
 4679TIP3    H214002   2.815   2.726   2.169
 4680TIP3   OH214003   3.577   5.460   2.482
 4680TIP3    H114004   3.643   5.487   2.546
 4680TIP3    H214005   3.620   5.391   2.431
 4681TIP3   OH214006   3.544   5.850   5.267
 4681TIP3    H114007   3.592   5.777   5.307
 4681TIP3    H214008   3.574   5.928   5.313
 4682TIP3   OH214009   6.681   1.282   3.009
 4682TIP3    H114010   6.675   1.297   3.103
 4682TIP3    H214011   6.617   1.214   2.991
 4683TIP3   OH214012   4.764   1.595   4.031
 4683TIP3    H114013   4.807   1.524   4.079
 4683TIP3    H214014   4.836   1.644   3.991
 4684TIP3   OH214015   7.201   3.983   2.848
 4684TIP3    H114016   7.152   4.063   2.866
 4684TIP3    H214017   7.291   4.013   2.835
 4685TIP3   OH214018   6.601   5.764   2.859
 4685TIP3    H114019   6.594   5.720   2.774
 4685TIP3    H214020   6.695   5.776   2.871
 4686TIP3   OH214021   6.867   2.971   5.456
 4686TIP3    H114022   6.930   3.028   5.412
 4686TIP3    H214023   6.807   3.032   5.499
 4687TIP3   OH214024   5.685   5.489   2.300
 4687TIP3    H114025   5.617   5.548   2.332
 4687TIP3    H214026   5.641   5.405   2.290
 4688TIP3   OH214027   5.573   6.392   0.951
 4688TIP3    H114028   5.612   6.362   0.868
 4688TIP3    H214029   5.637   6.367   1.018
 4689TIP3   OH214030   1.813   4.384   0.894
 4689TIP3    H114031   1.757   4.419   0.963
 4689TIP3    H214032   1.806   4.447   0.822
 4690TIP3   OH214033   0.605   3.353   2.423
 4690TIP3    H114034   0.681   3.404   2.450
 4690TIP3    H214035   0.598   3.283   2.487
 4691TIP3   OH214036   3.311   3.717   1.130
 4691TIP3    H114037   3.247   3.657   1.092
 4691TIP3    H214038   3.393   3.697   1.085
 4692TIP3   OH214039   1.952   6.641   0.983
 4692TIP3    H114040   2.041   6.646   1.018
 4692TIP3    H214041   1.957   6.683   0.897
 4693TIP3   OH214042   4.331   1.001   2.213
 4693TIP3    H114043   4.335   1.049   2.130
 4693TIP3    H214044   4.281   1.057   2.272
 4694TIP3   OH214045   6.318   5.784   5.525
 4694TIP3    H114046   6.367   5.723   5.580
 4694TIP3    H214047   6.306   5.861   5.580
 4695TIP3   OH214048   6.334   4.399   4.907
 4695TIP3    H114049   6.386   4.344   4.849
 4695TIP3    H214050   6.251   4.351   4.916
 4696TIP3   OH214051   5.246   2.682   5.794
 4696TIP3    H114052   5.331   2.723   5.778
 4696TIP3    H214053   5.213   2.661   5.706
 4697TIP3   OH214054   3.766   4.938   1.727
 4697TIP3    H114055   3.674   4.933   1.755
 4697TIP3    H214056   3.805   5.002   1.787
 4698TIP3   OH214057   2.682   3.742   4.551
 4698TIP3    H114058   2.636   3.731   4.467
 4698TIP3    H214059   2.722   3.829   4.545
 4699TIP3   OH214060   0.091   1.418   1.952
 4699TIP3    H114061   0.011   1.465   1.928
 4699TIP3    H214062   0.060   1.337   1.994
 4700TIP3   OH214063   4.861   2.392   1.339
 4700TIP3    H114064   4.866   2.346   1.423
 4700TIP3    H214065   4.767   2.406   1.326
 4701TIP3   OH214066   1.741   5.709   1.741
 4701TIP3    H114067   1.788   5.625   1.737
 4701TIP3    H214068   1.777   5.760   1.669
 4702TIP3   OH214069   2.831   2.007   3.496
 4702TIP3    H114070   2.792   2.021   3.583
 4702TIP3    H214071   2.925   2.022   3.510
 4703TIP3   OH214072   2.232   4.913   3.336
 4703TIP3    H114073   2.291   4.846   3.301
 4703TIP3    H214074   2.256   4.920   3.429
 4704TIP3   OH214075   2.084   2.007   2.171
 4704TIP3    H114076   2.007   2.023   2.116
 4704TIP3    H214077   2.158   2.041   2.121
 4705TIP3   OH214078   2.756   5.910   2.928
 4705TIP3    H114079   2.782   5.925   3.019
 4705TIP3    H214080   2.783   5.990   2.883
 4706TIP3   OH214081   0.405   1.564   0.330
 4706TIP3    H114082   0.429   1.583   0.239
 4706TIP3    H214083   0.359   1.642   0.359
 4707TIP3   OH214084   2.406   0.151   3.904
 4707TIP3    H114085   2.421   0.223   3.965
 4707TIP3    H214086   2.353   0.089   3.954
 4708TIP3   OH214087   6.735   1.999   3.504
 4708TIP3    H114088   6.670   2.027   3.440
 4708TIP3    H214089   6.687   1.994   3.587
 4709TIP3   OH214090   3.507   2.425   1.117
 4709TIP3    H114091   3.540   2.508   1.153
 4709TIP3    H214092   3.584   2.385   1.076
 4710TIP3   OH214093   7.010   2.549   0.103
 4710TIP3    H114094   6.964   2.504   0.174
 4710TIP3    H214095   6.962   2.632   0.093
 4711TIP3   OH214096   4.881   4.418   4.840
 4711TIP3    H114097   4.931   4.452   4.766
 4711TIP3    H214098   4.818   4.488   4.860
 4712TIP3   OH214099   3.137   5.402   2.973
 4712TIP3    H114100   3.094   5.405   2.888
 4712TIP3    H214101   3.175   5.314   2.978
 4713TIP3   OH214102   5.578   6.478   3.083
 4713TIP3    H114103   5.558   6.547   3.148
 4713TIP3    H214104   5.571   6.523   2.999
 4714TIP3   OH214105   5.049   1.260   0.008
 4714TIP3    H114106   5.046   1.179   0.058
 4714TIP3    H214107   5.110   1.241  -0.064
 4715TIP3   OH214108   1.507   2.637   1.760
 4715TIP3    H114109   1.460   2.671   1.836
 4715TIP3    H214110   1.526   2.715   1.707
 4716TIP3   OH214111   5.187   4.476   3.848
 4716TIP3    H114112   5.131   4.399   3.837
 4716TIP3    H214113   5.131   4.550   3.827
 4717TIP3   OH214114   7.143   0.304   2.932
 4717TIP3    H114115   7.203   0.358   2.984
 4717TIP3    H214116   7.060   0.350   2.934
 4718TIP3   OH214117   5.249   4.068   5.038
 4718TIP3    H114118   5.274   4.008   5.109
 4718TIP3    H214119   5.175   4.026   4.996
 4719TIP3   OH214120   0.878   0.859   2.284
 4719TIP3    H114121   0.846   0.883   2.197
 4719TIP3    H214122   0.843   0.927   2.341
 4720TIP3   OH214123   4.632   4.501   1.133
 4720TIP3    H114124   4.617   4.428   1.073
 4720TIP3    H214125   4.688   4.561   1.084
 4721TIP3   OH214126   3.524   3.838   0.681
 4721TIP3    H114127   3.603   3.786   0.694
 4721TIP3    H214128   3.544   3.895   0.606
 4722TIP3   OH214129   1.137   0.680   0.243
 4722TIP3    H114130   1.087   0.737   0.301
 4722TIP3    H214131   1.193   0.629   0.300
 4723TIP3   OH214132   6.198   0.397   2.648
 4723TIP3    H114133   6.263   0.407   2.718
 4723TIP3    H214134   6.126   0.348   2.688
 4724TIP3   OH214135   1.912   0.171   0.719
 4724TIP3    H114136   1.949   0.171   0.807
 4724TIP3    H214137   1.846   0.241   0.721
 4725TIP3   OH214138   5.189   0.702   2.980
 4725TIP3    H114139   5.164   0.614   2.952
 4725TIP3    H214140   5.249   0.733   2.913
 4726TIP3   OH214141   6.161   0.825   4.794
 4726TIP3    H114142   6.179   0.854   4.704
 4726TIP3    H214143   6.139   0.905   4.841
 4727TIP3   OH214144   4.251   4.857   4.711
 4727TIP3    H114145   4.255   4.814   4.796
 4727TIP3    H214146   4.161   4.845   4.682
 4728TIP3   OH214147   0.675   3.953   5.712
 4728TIP3    H114148   0.610   4.008   5.668
 4728TIP3    H214149   0.713   4.010   5.779
 4729TIP3   OH214150   0.390   6.689   3.490
 4729TIP3    H114151   0.432   6.767   3.455
 4729TIP3    H214152   0.378   6.708   3.583
 4730TIP3   OH214153   4.548   2.953   1.008
 4730TIP3    H114154   4.582   3.010   1.077
 4730TIP3    H214155   4.481   2.900   1.050
 4731TIP3   OH214156   7.045   0.596   3.076
 4731TIP3    H114157   7.027   0.636   3.161
 4731TIP3    H214158   7.043   0.669   3.014
 4732TIP3   OH214159   7.239   2.333   5.872
 4732TIP3    H114160   7.247   2.423   5.841
 4732TIP3    H214161   7.147   2.311   5.855
 4733TIP3   OH214162   3.399   0.552   2.689
 4733TIP3    H114163   3.383   0.478   2.630
 4733TIP3    H214164   3.416   0.512   2.774
 4734TIP3   OH214165   0.704   3.935   4.203
 4734TIP3    H114166   0.609   3.933   4.196
 4734TIP3    H214167   0.735   3.949   4.114
 4735TIP3   OH214168   1.427   5.261   0.610
 4735TIP3    H114169   1.488   5.230   0.676
 4735TIP3    H214170   1.359   5.306   0.660
 4736TIP3   OH214171   5.492   1.270   1.833
 4736TIP3    H114172   5.532   1.184   1.824
 4736TIP3    H214173   5.546   1.316   1.897
 4737TIP3   OH214174   0.563   6.065   4.890
 4737TIP3    H114175   0.544   6.038   4.801
 4737TIP3    H214176   0.572   5.983   4.939
 4738TIP3   OH214177   2.309   4.228   0.224
 4738TIP3    H114178   2.303   4.318   0.195
 4738TIP3    H214179   2.393   4.197   0.190
 4739TIP3   OH214180   4.909   4.623   0.015
 4739TIP3    H114181   4.824   4.646  -0.022
 4739TIP3    H214182   4.899   4.637   0.109
 4740TIP3   OH214183   1.809   0.235   4.804
 4740TIP3    H114184   1.779   0.325   4.790
 4740TIP3    H214185   1.732   0.182   4.788
 4741TIP3   OH214186   5.964   2.312   3.471
 4741TIP3    H114187   5.936   2.249   3.538
 4741TIP3    H214188   5.969   2.395   3.517
 4742TIP3   OH214189   3.913   4.685   5.541
 4742TIP3    H114190   3.825   4.676   5.505
 4742TIP3    H214191   3.901   4.684   5.636
 4743TIP3   OH214192   2.051   0.800   4.832
 4743TIP3    H114193   2.139   0.773   4.858
 4743TIP3    H214194   1.998   0.790   4.910
 4744TIP3   OH214195   3.883   3.313   2.234
 4744TIP3    H114196   3.810   3.370   2.208
 4744TIP3    H214197   3.855   3.225   2.209
 4745TIP3   OH214198   4.115   4.126   4.870
 4745TIP3    H114199   4.105   4.085   4.956
 4745TIP3    H214200   4.204   4.162   4.870
 4746TIP3   OH214201   5.442   3.036   1.038
 4746TIP3    H114202   5.426   3.062   1.128
 4746TIP3    H214203   5.508   3.099   1.007
 4747TIP3   OH214204   1.393   6.409   2.312
 4747TIP3    H114205   1.378   6.359   2.392
 4747TIP3    H214206   1.320   6.386   2.254
 4748TIP3   OH214207   3.373   0.615   1.512
 4748TIP3    H114208   3.346   0.589   1.424
 4748TIP3    H214209   3.469   0.615   1.509
 4749TIP3   OH214210   2.177   5.419   2.762
 4749TIP3    H114211   2.110   5.457   2.818
 4749TIP3    H214212   2.259   5.455   2.797
 4750TIP3   OH214213   2.781   4.114   1.566
 4750TIP3    H114214   2.742   4.065   1.639
 4750TIP3    H214215   2.758   4.063   1.489
 4751TIP3   OH214216   1.138   3.319   5.060
 4751TIP3    H114217   1.149   3.313   4.965
 4751TIP3    H214218   1.188   3.397   5.084
 4752TIP3   OH214219   4.069   2.100   2.348
 4752TIP3    H114220   4.154   2.098   2.391
 4752TIP3    H214221   4.009   2.059   2.411
 4753TIP3   OH214222   4.763   0.863   4.666
 4753TIP3    H114223   4.718   0.846   4.749
 4753TIP3    H214224   4.694   0.889   4.606
 4754TIP3   OH214225   4.572   6.787   2.396
 4754TIP3    H114226   4.542   6.827   2.314
 4754TIP3    H214227   4.521   6.707   2.403
 4755TIP3   OH214228   4.796   4.421   2.782
 4755TIP3    H114229   4.799   4.453   2.872
 4755TIP3    H214230   4.707   4.440   2.753
 4756TIP3   OH214231   1.279   2.511   1.656
 4756TIP3    H114232   1.271   2.539   1.565
 4756TIP3    H214233   1.358   2.555   1.688
 4757TIP3   OH214234   1.043   2.101   5.758
 4757TIP3    H114235   1.040   2.114   5.853
 4757TIP3    H214236   0.991   2.022   5.743
 4758TIP3   OH214237   4.225   0.452   0.426
 4758TIP3    H114238   4.258   0.363   0.414
 4758TIP3    H214239   4.167   0.446   0.503
 4759TIP3   OH214240   6.082   6.130   3.599
 4759TIP3    H114241   6.063   6.223   3.609
 4759TIP3    H214242   6.178   6.124   3.607
 4760TIP3   OH214243   3.262   0.883   3.980
 4760TIP3    H114244   3.190   0.939   4.009
 4760TIP3    H214245   3.255   0.804   4.033
 4761TIP3   OH214246   1.165   0.527   5.542
 4761TIP3    H114247   1.174   0.524   5.447
 4761TIP3    H214248   1.095   0.590   5.558
 4762TIP3   OH214249   3.196   0.835   1.585
 4762TIP3    H114250   3.270   0.786   1.549
 4762TIP3    H214251   3.180   0.904   1.520
 4763TIP3   OH214252   6.798   5.855   1.572
 4763TIP3    H114253   6.814   5.822   1.484
 4763TIP3    H214254   6.704   5.875   1.573
 4764TIP3   OH214255   6.008   3.107   1.328
 4764TIP3    H114256   5.981   3.151   1.409
 4764TIP3    H214257   6.033   3.178   1.269
 4765TIP3   OH214258   5.479   3.646   5.456
 4765TIP3    H114259   5.521   3.610   5.534
 4765TIP3    H214260   5.385   3.635   5.472
 4766TIP3   OH214261   6.825   4.625   2.785
 4766TIP3    H114262   6.733   4.644   2.766
 4766TIP3    H214263   6.822   4.559   2.854
 4767TIP3   OH214264   0.724   0.890   2.822
 4767TIP3    H114265   0.766   0.923   2.901
 4767TIP3    H214266   0.797   0.865   2.764
 4768TIP3   OH214267   3.834   6.603   2.527
 4768TIP3    H114268   3.842   6.679   2.585
 4768TIP3    H214269   3.902   6.543   2.558
 4769TIP3   OH214270   1.258   1.825   4.762
 4769TIP3    H114271   1.341   1.824   4.713
 4769TIP3    H214272   1.285   1.833   4.853
 4770TIP3   OH214273   0.835   3.667   4.087
 4770TIP3    H114274   0.912   3.723   4.100
 4770TIP3    H214275   0.803   3.650   4.176
 4771TIP3   OH214276   3.557   0.010   4.675
 4771TIP3    H114277   3.526   0.009   4.584
 4771TIP3    H214278   3.526   0.094   4.710
 4772TIP3   OH214279   5.291   1.186   2.207
 4772TIP3    H114280   5.245   1.119   2.257
 4772TIP3    H214281   5.358   1.137   2.157
 4773TIP3   OH214282   3.047   5.956   5.202
 4773TIP3    H114283   3.091   6.041   5.203
 4773TIP3    H214284   3.062   5.920   5.290
 4774TIP3   OH214285   0.922   4.171   3.467
 4774TIP3    H114286   0.961   4.170   3.379
 4774TIP3    H214287   0.833   4.205   3.453
 4775TIP3   OH214288   7.149   4.430   4.777
 4775TIP3    H114289   7.102   4.477   4.708
 4775TIP3    H214290   7.131   4.337   4.760
 4776TIP3   OH214291   5.976   4.296   0.240
 4776TIP3    H114292   5.984   4.250   0.323
 4776TIP3    H214293   5.983   4.389   0.262
 4777TIP3   OH214294   1.284   0.516   5.292
 4777TIP3    H114295   1.341   0.556   5.358
 4777TIP3    H214296   1.325   0.433   5.272
 4778TIP3   OH214297   2.501   3.547   0.159
 4778TIP3    H114298   2.460   3.627   0.193
 4778TIP3    H214299   2.480   3.546   0.066
 4779TIP3   OH214300   1.342   0.259   4.454
 4779TIP3    H114301   1.364   0.265   4.361
 4779TIP3    H214302   1.281   0.186   4.459
 4780TIP3   OH214303   4.101   4.540   0.138
 4780TIP3    H114304   4.194   4.564   0.136
 4780TIP3    H214305   4.096   4.472   0.205
 4781TIP3   OH214306   5.031   1.033   4.849
 4781TIP3    H114307   5.032   1.005   4.758
 4781TIP3    H214308   5.081   0.966   4.896
 4782TIP3   OH214309   0.930   0.656   4.196
 4782TIP3    H114310   0.960   0.632   4.283
 4782TIP3    H214311   1.003   0.706   4.158
 4783TIP3   OH214312   2.876   6.502   4.967
 4783TIP3    H114313   2.961   6.537   4.942
 4783TIP3    H214314   2.881   6.409   4.948
 4784TIP3   OH214315   7.001   3.065   4.012
 4784TIP3    H114316   7.067   3.002   4.040
 4784TIP3    H214317   6.950   3.083   4.091
 4785TIP3   OH214318   6.878   6.059   4.779
 4785TIP3    H114319   6.839   6.144   4.797
 4785TIP3    H214320   6.870   6.011   4.862
 4786TIP3   OH214321   2.169   1.345   3.543
 4786TIP3    H114322   2.140   1.419   3.489
 4786TIP3    H214323   2.226   1.384   3.608
 4787TIP3   OH214324   6.538   3.538   1.158
 4787TIP3    H114325   6.498   3.622   1.180
 4787TIP3    H214326   6.632   3.551   1.175
 4788TIP3   OH214327   6.524   0.761   2.799
 4788TIP3    H114328   6.556   0.712   2.875
 4788TIP3    H214329   6.507   0.694   2.733
 4789TIP3   OH214330   5.650   4.719   4.859
 4789TIP3    H114331   5.729   4.668   4.879
 4789TIP3    H214332   5.588   4.656   4.825
 4790TIP3   OH214333   6.885   5.424   2.061
 4790TIP3    H114334   6.966   5.374   2.073
 4790TIP3    H214335   6.830   5.367   2.006
 4791TIP3   OH214336   0.630   1.677   1.889
 4791TIP3    H114337   0.686   1.617   1.938
 4791TIP3    H214338   0.567   1.620   1.844
 4792TIP3   OH214339   5.507   5.814   3.503
 4792TIP3    H114340   5.554   5.791   3.583
 4792TIP3    H214341   5.473   5.902   3.519
 4793TIP3   OH214342   3.249   5.725   3.415
 4793TIP3    H114343   3.314   5.785   3.451
 4793TIP3    H214344   3.165   5.760   3.445
 4794TIP3   OH214345   4.156   3.706   0.834
 4794TIP3    H114346   4.168   3.794   0.870
 4794TIP3    H214347   4.197   3.709   0.748
 4795TIP3   OH214348   6.485   5.531   5.037
 4795TIP3    H114349   6.454   5.542   5.127
 4795TIP3    H214350   6.548   5.459   5.043
 4796TIP3   OH214351   3.168   6.312   5.726
 4796TIP3    H114352   3.262   6.330   5.729
 4796TIP3    H214353   3.152   6.260   5.805
 4797TIP3   OH214354   5.015   2.287   0.445
 4797TIP3    H114355   4.960   2.300   0.522
 4797TIP3    H214356   5.085   2.229   0.474
 4798TIP3   OH214357   7.213   4.896   3.499
 4798TIP3    H114358   7.225   4.814   3.546
 4798TIP3    H214359   7.131   4.885   3.451
 4799TIP3   OH214360   3.081   2.362   3.694
 4799TIP3    H114361   3.174   2.341   3.697
 4799TIP3    H214362   3.058   2.381   3.785
 4800TIP3   OH214363   0.158   4.060   3.608
 4800TIP3    H114364   0.224   4.101   3.664
 4800TIP3    H214365   0.162   4.110   3.526
 4801TIP3   OH214366   2.081   4.272   3.746
 4801TIP3    H114367   2.113   4.362   3.749
 4801TIP3    H214368   2.003   4.277   3.690
 4802TIP3   OH214369   3.977   6.196   3.721
 4802TIP3    H114370   4.058   6.161   3.684
 4802TIP3    H214371   3.916   6.123   3.718
 4803TIP3   OH214372   1.569   5.963   1.471
 4803TIP3    H114373   1.498   5.935   1.413
 4803TIP3    H214374   1.643   5.979   1.413
 4804TIP3   OH214375   6.797   1.269   3.785
 4804TIP3    H114376   6.808   1.175   3.771
 4804TIP3    H214377   6.771   1.277   3.877
 4805TIP3   OH214378   3.486   5.115   0.222
 4805TIP3    H114379   3.543   5.050   0.265
 4805TIP3    H214380   3.494   5.193   0.277
 4806TIP3   OH214381   2.466   5.932   3.705
 4806TIP3    H114382   2.517   5.865   3.660
 4806TIP3    H214383   2.389   5.885   3.738
 4807TIP3   OH214384   5.199   6.002   0.881
 4807TIP3    H114385   5.240   5.927   0.838
 4807TIP3    H214386   5.271   6.051   0.920
 4808TIP3   OH214387   0.484   4.751   0.237
 4808TIP3    H114388   0.412   4.733   0.176
 4808TIP3    H214389   0.485   4.674   0.295
 4809TIP3   OH214390   4.126   3.480   4.803
 4809TIP3    H114391   4.159   3.503   4.716
 4809TIP3    H214392   4.202   3.487   4.861
 4810TIP3   OH214393   5.475   1.058   2.859
 4810TIP3    H114394   5.421   0.980   2.848
 4810TIP3    H214395   5.414   1.125   2.889
 4811TIP3   OH214396   0.906   4.338   2.405
 4811TIP3    H114397   0.861   4.262   2.442
 4811TIP3    H214398   0.997   4.328   2.434
 4812TIP3   OH214399   7.023   6.662   1.325
 4812TIP3    H114400   7.102   6.621   1.361
 4812TIP3    H214401   7.050   6.751   1.304
 4813TIP3   OH214402   6.716   2.598   4.746
 4813TIP3    H114403   6.649   2.616   4.812
 4813TIP3    H214404   6.787   2.555   4.794
 4814TIP3   OH214405   6.098   1.176   2.461
 4814TIP3    H114406   6.101   1.091   2.506
 4814TIP3    H214407   6.032   1.226   2.510
 4815TIP3   OH214408   6.616   3.981   5.516
 4815TIP3    H114409   6.664   3.902   5.492
 4815TIP3    H214410   6.525   3.955   5.517
 4816TIP3   OH214411   4.065   0.437   3.305
 4816TIP3    H114412   4.126   0.447   3.378
 4816TIP3    H214413   4.088   0.353   3.265
 4817TIP3   OH214414   2.446   2.280   0.718
 4817TIP3    H114415   2.423   2.294   0.626
 4817TIP3    H214416   2.508   2.206   0.716
 4818TIP3   OH214417   5.143   1.991   0.346
 4818TIP3    H114418   5.181   1.969   0.431
 4818TIP3    H214419   5.213   2.039   0.301
 4819TIP3   OH214420   7.013   3.750   1.252
 4819TIP3    H114421   7.066   3.741   1.331
 4819TIP3    H214422   7.044   3.832   1.212
 4820TIP3   OH214423   2.186   0.064   1.853
 4820TIP3    H114424   2.161   0.085   1.764
 4820TIP3    H214425   2.263   0.118   1.870
 4821TIP3   OH214426   5.208   1.887   2.525
 4821TIP3    H114427   5.184   1.821   2.461
 4821TIP3    H214428   5.274   1.941   2.481
 4822TIP3   OH214429   5.544   5.926   2.309
 4822TIP3    H114430   5.529   5.975   2.390
 4822TIP3    H214431   5.521   5.987   2.239
 4823TIP3   OH214432   2.815   3.037   0.044
 4823TIP3    H114433   2.856   3.119   0.015
 4823TIP3    H214434   2.757   3.063   0.115
 4824TIP3   OH214435   3.967   2.659   0.718
 4824TIP3    H114436   3.922   2.719   0.659
 4824TIP3    H214437   3.955   2.698   0.805
 4825TIP3   OH214438   5.890   0.249   2.147
 4825TIP3    H114439   5.804   0.227   2.112
 4825TIP3    H214440   5.938   0.166   2.150
 4826TIP3   OH214441   1.113   2.684   4.577
 4826TIP3    H114442   1.065   2.755   4.533
 4826TIP3    H214443   1.142   2.628   4.505
 4827TIP3   OH214444   2.133   4.530   2.129
 4827TIP3    H114445   2.198   4.515   2.198
 4827TIP3    H214446   2.082   4.604   2.161
 4828TIP3   OH214447   3.550   3.437   2.415
 4828TIP3    H114448   3.458   3.448   2.437
 4828TIP3    H214449   3.550   3.388   2.333
 4829TIP3   OH214450   5.712   5.908   0.395
 4829TIP3    H114451   5.796   5.902   0.441
 4829TIP3    H214452   5.728   5.969   0.324
 4830TIP3   OH214453   0.238   4.986   5.020
 4830TIP3    H114454   0.151   4.992   4.982
 4830TIP3    H214455   0.251   5.069   5.066
 4831TIP3   OH214456   2.934   2.304   2.835
 4831TIP3    H114457   2.884   2.223   2.840
 4831TIP3    H214458   2.947   2.318   2.741
 4832TIP3   OH214459   0.469   4.632   4.574
 4832TIP3    H114460   0.516   4.649   4.493
 4832TIP3    H214461   0.416   4.710   4.588
 4833TIP3   OH214462   4.980   4.362   1.228
 4833TIP3    H114463   5.046   4.304   1.265
 4833TIP3    H214464   5.029   4.424   1.173
 4834TIP3   OH214465   0.304   4.626   2.488
 4834TIP3    H114466   0.311   4.720   2.470
 4834TIP3    H214467   0.394   4.600   2.510
 4835TIP3   OH214468   6.668   1.091   5.385
 4835TIP3    H114469   6.698   1.000   5.396
 4835TIP3    H214470   6.662   1.125   5.474
 4836TIP3   OH214471   1.002   2.802   2.850
 4836TIP3    H114472   0.987   2.782   2.942
 4836TIP3    H214473   0.915   2.813   2.813
 4837TIP3   OH214474   3.760   1.528   5.103
 4837TIP3    H114475   3.675   1.489   5.123
 4837TIP3    H214476   3.819   1.496   5.171
 4838TIP3   OH214477   2.561   4.424   2.011
 4838TIP3    H114478   2.541   4.404   2.103
 4838TIP3    H214479   2.477   4.454   1.975
 4839TIP3   OH214480   5.254   3.699   3.679
 4839TIP3    H114481   5.168   3.668   3.705
 4839TIP3    H214482   5.239   3.749   3.599
 4840TIP3   OH214483   0.193   2.364   1.913
 4840TIP3    H114484   0.152   2.391   1.995
 4840TIP3    H214485   0.214   2.446   1.869
 4841TIP3   OH214486   6.251   1.560   1.723
 4841TIP3    H114487   6.193   1.595   1.791
 4841TIP3    H214488   6.195   1.504   1.670
 4842TIP3   OH214489   3.674   2.861   0.427
 4842TIP3    H114490   3.665   2.767   0.442
 4842TIP3    H214491   3.767   2.879   0.440
 4843TIP3   OH214492   3.779   0.244   2.760
 4843TIP3    H114493   3.794   0.219   2.669
 4843TIP3    H214494   3.731   0.170   2.797
 4844TIP3   OH214495   6.708   0.501   2.137
 4844TIP3    H114496   6.655   0.456   2.070
 4844TIP3    H214497   6.781   0.539   2.088
 4845TIP3   OH214498   3.633   0.029   2.835
 4845TIP3    H114499   3.549  -0.007   2.804
 4845TIP3    H214500   3.611   0.079   2.913
 4846TIP3   OH214501   0.357   4.433   0.942
 4846TIP3    H114502   0.413   4.508   0.957
 4846TIP3    H214503   0.284   4.444   1.004
 4847TIP3   OH214504   2.038   0.056   3.816
 4847TIP3    H114505   2.026   0.081   3.907
 4847TIP3    H214506   2.021   0.136   3.766
 4848TIP3   OH214507   5.914   2.429   1.779
 4848TIP3    H114508   5.982   2.444   1.845
 4848TIP3    H214509   5.837   2.473   1.815
 4849TIP3   OH214510   2.114   4.004   2.834
 4849TIP3    H114511   2.019   3.992   2.841
 4849TIP3    H214512   2.126   4.099   2.843
 4850TIP3   OH214513   5.835   3.392   0.743
 4850TIP3    H114514   5.919   3.412   0.702
 4850TIP3    H214515   5.846   3.304   0.778
 4851TIP3   OH214516   4.348   6.156   2.165
 4851TIP3    H114517   4.444   6.149   2.161
 4851TIP3    H214518   4.320   6.146   2.074
 4852TIP3   OH214519   2.821   0.973   5.110
 4852TIP3    H114520   2.856   0.942   5.027
 4852TIP3    H214521   2.898   0.981   5.167
 4853TIP3   OH214522   0.463   1.004   5.448
 4853TIP3    H114523   0.498   1.092   5.459
 4853TIP3    H214524   0.518   0.964   5.380
 4854TIP3   OH214525   6.720   2.679   5.239
 4854TIP3    H114526   6.681   2.757   5.279
 4854TIP3    H214527   6.758   2.711   5.158
 4855TIP3   OH214528   2.816   5.374   5.404
 4855TIP3    H114529   2.772   5.432   5.343
 4855TIP3    H214530   2.745   5.338   5.458
 4856TIP3   OH214531   0.826   0.190   5.539
 4856TIP3    H114532   0.876   0.108   5.539
 4856TIP3    H214533   0.753   0.173   5.599
 4857TIP3   OH214534   3.886   4.723   3.026
 4857TIP3    H114535   3.795   4.723   3.057
 4857TIP3    H214536   3.910   4.631   3.022
 4858TIP3   OH214537   1.352   4.631   3.314
 4858TIP3    H114538   1.414   4.685   3.363
 4858TIP3    H214539   1.377   4.642   3.223
 4859TIP3   OH214540   1.847   5.290   5.262
 4859TIP3    H114541   1.753   5.281   5.249
 4859TIP3    H214542   1.867   5.236   5.338
 4860TIP3   OH214543   5.031   3.460   0.333
 4860TIP3    H114544   5.108   3.416   0.297
 4860TIP3    H214545   5.061   3.502   0.413
 4861TIP3   OH214546   5.031   4.808   2.278
 4861TIP3    H114547   4.936   4.819   2.284
 4861TIP3    H214548   5.045   4.715   2.296
 4862TIP3   OH214549   7.039   4.127   2.279
 4862TIP3    H114550   7.045   4.201   2.218
 4862TIP3    H214551   7.126   4.088   2.278
 4863TIP3   OH214552   6.157   0.628   5.391
 4863TIP3    H114553   6.072   0.651   5.429
 4863TIP3    H214554   6.221   0.664   5.452
 4864TIP3   OH214555   0.123   6.593   5.557
 4864TIP3    H114556   0.061   6.655   5.517
 4864TIP3    H214557   0.163   6.548   5.482
 4865TIP3   OH214558   6.252   4.180   1.062
 4865TIP3    H114559   6.247   4.183   0.967
 4865TIP3    H214560   6.339   4.214   1.083
 4866TIP3   OH214561   2.533   1.462   1.591
 4866TIP3    H114562   2.569   1.505   1.668
 4866TIP3    H214563   2.514   1.372   1.619
 4867TIP3   OH214564   2.431   2.067   4.087
 4867TIP3    H114565   2.352   2.074   4.141
 4867TIP3    H214566   2.400   2.041   4.001
 4868TIP3   OH214567   3.907   3.792   1.163
 4868TIP3    H114568   3.812   3.784   1.169
 4868TIP3    H214569   3.934   3.818   1.251
 4869TIP3   OH214570   5.957   2.159   2.263
 4869TIP3    H114571   5.869   2.150   2.227
 4869TIP3    H214572   5.986   2.069   2.278
 4870TIP3   OH214573   5.835   3.004   5.502
 4870TIP3    H114574   5.889   3.081   5.485
 4870TIP3    H214575   5.762   3.011   5.440
 4871TIP3   OH214576   3.217   0.504   3.042
 4871TIP3    H114577   3.295   0.554   3.065
 4871TIP3    H214578   3.242   0.413   3.060
 4872TIP3   OH214579   0.997   6.698   2.769
 4872TIP3    H114580   0.917   6.741   2.798
 4872TIP3    H214581   0.979   6.674   2.678
 4873TIP3   OH214582   4.987   3.592   3.638
 4873TIP3    H114583   4.950   3.611   3.724
 4873TIP3    H214584   4.971   3.671   3.586
 4874TIP3   OH214585   1.968   4.451   5.485
 4874TIP3    H114586   2.063   4.451   5.474
 4874TIP3    H214587   1.955   4.431   5.578
 4875TIP3   OH214588   4.544   3.869   5.567
 4875TIP3    H114589   4.623   3.815   5.576
 4875TIP3    H214590   4.572   3.956   5.594
 4876TIP3   OH214591   5.517   6.287   2.650
 4876TIP3    H114592   5.466   6.210   2.679
 4876TIP3    H214593   5.453   6.341   2.603
 4877TIP3   OH214594   4.115   5.195   0.898
 4877TIP3    H114595   4.077   5.217   0.813
 4877TIP3    H214596   4.042   5.203   0.959
 4878TIP3   OH214597   4.257   4.640   3.821
 4878TIP3    H114598   4.174   4.687   3.835
 4878TIP3    H214599   4.307   4.697   3.763
 4879TIP3   OH214600   4.939   2.546   3.553
 4879TIP3    H114601   5.000   2.608   3.513
 4879TIP3    H214602   4.941   2.568   3.646
 4880TIP3   OH214603   0.353   6.036   2.937
 4880TIP3    H114604   0.284   6.099   2.956
 4880TIP3    H214605   0.370   5.993   3.021
 4881TIP3   OH214606   4.734   5.618   0.118
 4881TIP3    H114607   4.822   5.641   0.148
 4881TIP3    H214608   4.750   5.567   0.038
 4882TIP3   OH214609   4.560   6.111   3.722
 4882TIP3    H114610   4.625   6.041   3.732
 4882TIP3    H214611   4.477   6.065   3.709
 4883TIP3   OH214612   2.374   0.322   3.685
 4883TIP3    H114613   2.340   0.346   3.770
 4883TIP3    H214614   2.338   0.235   3.668
 4884TIP3   OH214615   6.004   6.769   2.355
 4884TIP3    H114616   6.045   6.855   2.367
 4884TIP3    H214617   6.071   6.717   2.310
 4885TIP3   OH214618   3.529   0.564   3.292
 4885TIP3    H114619   3.502   0.583   3.202
 4885TIP3    H214620   3.616   0.524   3.283
 4886TIP3   OH214621   1.427   4.187   2.631
 4886TIP3    H114622   1.420   4.187   2.726
 4886TIP3    H214623   1.492   4.120   2.612
 4887TIP3   OH214624   0.094   1.647   4.706
 4887TIP3    H114625   0.076   1.555   4.687
 4887TIP3    H214626   0.166   1.670   4.648
 4888TIP3   OH214627   5.899   4.323   2.257
 4888TIP3    H114628   5.940   4.393   2.307
 4888TIP3    H214629   5.815   4.307   2.301
 4889TIP3   OH214630   2.288   3.794   4.473
 4889TIP3    H114631   2.214   3.848   4.444
 4889TIP3    H214632   2.357   3.858   4.493
 4890TIP3   OH214633   6.785   2.440   3.185
 4890TIP3    H114634   6.755   2.431   3.275
 4890TIP3    H214635   6.848   2.368   3.173
 4891TIP3   OH214636   3.866   5.057   4.852
 4891TIP3    H114637   3.833   5.107   4.777
 4891TIP3    H214638   3.840   4.967   4.833
 4892TIP3   OH214639   4.089   0.398   1.074
 4892TIP3    H114640   4.061   0.400   1.166
 4892TIP3    H214641   4.128   0.484   1.059
 4893TIP3   OH214642   0.923   4.254   4.266
 4893TIP3    H114643   0.875   4.174   4.243
 4893TIP3    H214644   0.987   4.225   4.331
 4894TIP3   OH214645   2.741   5.730   2.152
 4894TIP3    H114646   2.697   5.814   2.140
 4894TIP3    H214647   2.825   5.740   2.107
 4895TIP3   OH214648   5.779   5.738   5.008
 4895TIP3    H114649   5.744   5.660   5.052
 4895TIP3    H214650   5.830   5.703   4.935
 4896TIP3   OH214651   3.548   3.449   4.731
 4896TIP3    H114652   3.535   3.544   4.731
 4896TIP3    H214653   3.636   3.437   4.767
 4897TIP3   OH214654   2.345   2.779   5.089
 4897TIP3    H114655   2.364   2.870   5.113
 4897TIP3    H214656   2.400   2.762   5.013
 4898TIP3   OH214657   1.534   2.339   0.687
 4898TIP3    H114658   1.567   2.249   0.686
 4898TIP3    H214659   1.531   2.363   0.780
 4899TIP3   OH214660   0.473   2.043   0.298
 4899TIP3    H114661   0.462   2.086   0.383
 4899TIP3    H214662   0.454   2.111   0.233
 4900TIP3   OH214663   3.658   4.779   4.086
 4900TIP3    H114664   3.602   4.715   4.041
 4900TIP3    H214665   3.604   4.810   4.159
 4901TIP3   OH214666   3.605   0.777   5.861
 4901TIP3    H114667   3.612   0.767   5.956
 4901TIP3    H214668   3.586   0.688   5.829
 4902TIP3   OH214669   7.159   5.317   2.289
 4902TIP3    H114670   7.139   5.322   2.196
 4902TIP3    H214671   7.249   5.286   2.293
 4903TIP3   OH214672   0.765   5.742   3.042
 4903TIP3    H114673   0.816   5.822   3.057
 4903TIP3    H214674   0.724   5.724   3.126
 4904TIP3   OH214675   2.727   5.547   5.206
 4904TIP3    H114676   2.673   5.559   5.128
 4904TIP3    H214677   2.817   5.545   5.174
 4905TIP3   OH214678   0.268   6.552   3.964
 4905TIP3    H114679   0.332   6.555   3.893
 4905TIP3    H214680   0.193   6.505   3.927
 4906TIP3   OH214681   0.698   3.111   5.373
 4906TIP3    H114682   0.648   3.137   5.295
 4906TIP3    H214683   0.754   3.187   5.392
 4907TIP3   OH214684   2.026   0.116   1.651
 4907TIP3    H114685   1.938   0.127   1.685
 4907TIP3    H214686   2.026   0.029   1.611
 4908TIP3   OH214687   5.571   5.136   4.909
 4908TIP3    H114688   5.597   5.227   4.893
 4908TIP3    H214689   5.509   5.116   4.838
 4909TIP3   OH214690   7.094   2.924   1.352
 4909TIP3    H114691   7.126   2.961   1.270
 4909TIP3    H214692   7.077   3.001   1.407
 4910TIP3   OH214693   4.545   5.969   0.808
 4910TIP3    H114694   4.526   6.046   0.861
 4910TIP3    H214695   4.553   6.002   0.719
 4911TIP3   OH214696   0.286   2.968   4.148
 4911TIP3    H114697   0.285   3.062   4.127
 4911TIP3    H214698   0.287   2.925   4.063
 4912TIP3   OH214699   5.903   5.468   2.511
 4912TIP3    H114700   5.830   5.465   2.572
 4912TIP3    H214701   5.872   5.422   2.433
 4913TIP3   OH214702   6.261   3.843   4.710
 4913TIP3    H114703   6.189   3.789   4.743
 4913TIP3    H214704   6.264   3.917   4.771
 4914TIP3   OH214705   0.048   3.848   0.915
 4914TIP3    H114706   0.131   3.808   0.941
 4914TIP3    H214707   0.052   3.852   0.819
 4915TIP3   OH214708   2.162   6.458   4.626
 4915TIP3    H114709   2.121   6.542   4.602
 4915TIP3    H214710   2.154   6.455   4.721
 4916TIP3   OH214711   0.039   2.420   4.377
 4916TIP3    H114712   0.130   2.420   4.406
 4916TIP3    H214713   0.014   2.328   4.376
 4917TIP3   OH214714   1.448   1.489   2.997
 4917TIP3    H114715   1.532   1.533   3.009
 4917TIP3    H214716   1.471   1.397   2.987
 4918TIP3   OH214717   0.363   6.662   0.818
 4918TIP3    H114718   0.285   6.607   0.828
 4918TIP3    H214719   0.422   6.610   0.763
 4919TIP3   OH214720   5.387   3.502   0.736
 4919TIP3    H114721   5.419   3.556   0.664
 4919TIP3    H214722   5.304   3.542   0.762
 4920TIP3   OH214723   3.561   3.968   3.710
 4920TIP3    H114724   3.636   3.931   3.663
 4920TIP3    H214725   3.554   4.058   3.679
 4921TIP3   OH214726   2.336   1.134   0.248
 4921TIP3    H114727   2.345   1.041   0.226
 4921TIP3    H214728   2.375   1.142   0.335
 4922TIP3   OH214729   1.273   1.676   5.412
 4922TIP3    H114730   1.256   1.611   5.344
 4922TIP3    H214731   1.367   1.667   5.430
 4923TIP3   OH214732   2.311   2.031   2.010
 4923TIP3    H114733   2.345   2.047   1.922
 4923TIP3    H214734   2.270   1.945   2.005
 4924TIP3   OH214735   4.606   6.021   0.142
 4924TIP3    H114736   4.656   6.039   0.222
 4924TIP3    H214737   4.518   6.003   0.173
 4925TIP3   OH214738   2.111   4.758   5.732
 4925TIP3    H114739   2.139   4.821   5.666
 4925TIP3    H214740   2.174   4.686   5.726
 4926TIP3   OH214741   2.878   4.826   0.282
 4926TIP3    H114742   2.865   4.840   0.189
 4926TIP3    H214743   2.967   4.792   0.290
 4927TIP3   OH214744   5.755   1.083   2.026
 4927TIP3    H114745   5.757   1.155   2.089
 4927TIP3    H214746   5.847   1.058   2.015
 4928TIP3   OH214747   3.421   2.504   3.179
 4928TIP3    H114748   3.484   2.560   3.134
 4928TIP3    H214749   3.353   2.564   3.210
 4929TIP3   OH214750   0.492   1.604   0.069
 4929TIP3    H114751   0.565   1.547   0.045
 4929TIP3    H214752   0.527   1.693   0.062
 4930TIP3   OH214753   5.437   0.956   3.769
 4930TIP3    H114754   5.361   0.999   3.807
 4930TIP3    H214755   5.401   0.880   3.722
 4931TIP3   OH214756   3.681   3.138   3.080
 4931TIP3    H114757   3.762   3.135   3.131
 4931TIP3    H214758   3.617   3.093   3.134
 4932TIP3   OH214759   0.417   4.040   0.824
 4932TIP3    H114760   0.452   3.957   0.792
 4932TIP3    H214761   0.330   4.046   0.784
 4933TIP3   OH214762   3.375   5.933   3.550
 4933TIP3    H114763   3.327   5.987   3.613
 4933TIP3    H214764   3.447   5.897   3.600
 4934TIP3   OH214765   2.241   2.562   3.183
 4934TIP3    H114766   2.202   2.647   3.166
 4934TIP3    H214767   2.328   2.581   3.219
 4935TIP3   OH214768   2.929   6.477   2.097
 4935TIP3    H114769   2.953   6.427   2.019
 4935TIP3    H214770   3.012   6.511   2.130
 4936TIP3   OH214771   1.728   6.159   2.940
 4936TIP3    H114772   1.707   6.194   2.853
 4936TIP3    H214773   1.820   6.132   2.933
 4937TIP3   OH214774   1.654   6.543   2.105
 4937TIP3    H114775   1.598   6.620   2.111
 4937TIP3    H214776   1.637   6.507   2.018
 4938TIP3   OH214777   6.310   1.480   1.276
 4938TIP3    H114778   6.371   1.407   1.265
 4938TIP3    H214779   6.329   1.515   1.363
 4939TIP3   OH214780   2.295   4.499   0.046
 4939TIP3    H114781   2.327   4.526  -0.040
 4939TIP3    H214782   2.291   4.580   0.097
 4940TIP3   OH214783   6.990   4.829   1.534
 4940TIP3    H114784   6.939   4.819   1.614
 4940TIP3    H214785   7.030   4.743   1.520
 4941TIP3   OH214786   1.171   1.169   3.151
 4941TIP3    H114787   1.096   1.135   3.201
 4941TIP3    H214788   1.235   1.098   3.153
 4942TIP3   OH214789   5.520   1.922   4.916
 4942TIP3    H114790   5.471   1.869   4.852
 4942TIP3    H214791   5.601   1.945   4.870
 4943TIP3   OH214792   4.677   0.080   1.301
 4943TIP3    H114793   4.591   0.048   1.274
 4943TIP3    H214794   4.740   0.020   1.261
 4944TIP3   OH214795   4.922   6.703   5.647
 4944TIP3    H114796   4.899   6.618   5.611
 4944TIP3    H214797   4.995   6.686   5.706
 4945TIP3   OH214798   0.861   2.430   4.283
 4945TIP3    H114799   0.812   2.432   4.201
 4945TIP3    H214800   0.802   2.388   4.345
 4946TIP3   OH214801   2.754   1.276   4.042
 4946TIP3    H114802   2.845   1.304   4.051
 4946TIP3    H214803   2.727   1.308   3.955
 4947TIP3   OH214804   5.036   0.931   4.598
 4947TIP3    H114805   5.059   0.938   4.506
 4947TIP3    H214806   4.946   0.897   4.598
 4948TIP3   OH214807   1.106   1.398   2.425
 4948TIP3    H114808   1.015   1.382   2.403
 4948TIP3    H214809   1.139   1.313   2.455
 4949TIP3   OH214810   5.190   3.400   4.173
 4949TIP3    H114811   5.278   3.437   4.173
 4949TIP3    H214812   5.185   3.349   4.092
 4950TIP3   OH214813   4.426   1.576   3.686
 4950TIP3    H114814   4.396   1.650   3.634
 4950TIP3    H214815   4.346   1.533   3.717
 4951TIP3   OH214816   0.816   5.259   1.198
 4951TIP3    H114817   0.853   5.213   1.122
 4951TIP3    H214818   0.889   5.264   1.260
 4952TIP3   OH214819   1.690   5.480   0.169
 4952TIP3    H114820   1.775   5.439   0.152
 4952TIP3    H214821   1.711   5.558   0.221
 4953TIP3   OH214822   0.332   5.056   5.597
 4953TIP3    H114823   0.285   4.993   5.652
 4953TIP3    H214824   0.348   5.009   5.515
 4954TIP3   OH214825   4.154   5.436   1.670
 4954TIP3    H114826   4.147   5.514   1.725
 4954TIP3    H214827   4.234   5.450   1.619
 4955TIP3   OH214828   0.225   3.313   3.180
 4955TIP3    H114829   0.288   3.369   3.135
 4955TIP3    H214830   0.245   3.224   3.150
 4956TIP3   OH214831   1.644   5.880   3.284
 4956TIP3    H114832   1.639   5.962   3.235
 4956TIP3    H214833   1.555   5.864   3.313
 4957TIP3   OH214834   0.773   0.531   0.203
 4957TIP3    H114835   0.770   0.476   0.124
 4957TIP3    H214836   0.748   0.618   0.171
 4958TIP3   OH214837   4.037   2.506   3.516
 4958TIP3    H114838   3.997   2.459   3.443
 4958TIP3    H214839   3.976   2.577   3.535
 4959TIP3   OH214840   4.024   1.377   3.567
 4959TIP3    H114841   4.039   1.469   3.588
 4959TIP3    H214842   3.995   1.379   3.475
 4960TIP3   OH214843   6.574   1.273   4.278
 4960TIP3    H114844   6.509   1.323   4.229
 4960TIP3    H214845   6.524   1.224   4.342
 4961TIP3   OH214846   0.774   5.730   3.365
 4961TIP3    H114847   0.859   5.704   3.402
 4961TIP3    H214848   0.725   5.648   3.360
 4962TIP3   OH214849   2.146   6.245   0.983
 4962TIP3    H114850   2.144   6.165   0.931
 4962TIP3    H214851   2.087   6.305   0.936
 4963TIP3   OH214852   4.829   4.637   3.010
 4963TIP3    H114853   4.746   4.680   2.991
 4963TIP3    H214854   4.810   4.577   3.083
 4964TIP3   OH214855   0.990   6.233   2.669
 4964TIP3    H114856   0.908   6.281   2.682
 4964TIP3    H214857   0.997   6.222   2.574
 4965TIP3   OH214858   6.835   0.778   5.603
 4965TIP3    H114859   6.776   0.760   5.530
 4965TIP3    H214860   6.818   0.708   5.665
 4966TIP3   OH214861   6.870   3.723   2.611
 4966TIP3    H114862   6.925   3.695   2.684
 4966TIP3    H214863   6.816   3.793   2.648
 4967TIP3   OH214864   4.648   2.350   0.809
 4967TIP3    H114865   4.609   2.325   0.892
 4967TIP3    H214866   4.714   2.415   0.831
 4968TIP3   OH214867   4.931   4.318   3.823
 4968TIP3    H114868   4.869   4.390   3.807
 4968TIP3    H214869   4.907   4.285   3.909
 4969TIP3   OH214870   6.220   5.587   0.952
 4969TIP3    H114871   6.134   5.594   0.993
 4969TIP3    H214872   6.248   5.497   0.971
 4970TIP3   OH214873   0.670   3.652   3.896
 4970TIP3    H114874   0.738   3.687   3.954
 4970TIP3    H214875   0.588   3.672   3.942
 4971TIP3   OH214876   2.559   0.929   5.069
 4971TIP3    H114877   2.561   0.841   5.108
 4971TIP3    H214878   2.650   0.958   5.070
 4972TIP3   OH214879   2.063   3.779   5.634
 4972TIP3    H114880   2.075   3.873   5.623
 4972TIP3    H214881   1.970   3.769   5.656
 4973TIP3   OH214882   2.395   1.738   3.758
 4973TIP3    H114883   2.488   1.755   3.746
 4973TIP3    H214884   2.358   1.823   3.782
 4974TIP3   OH214885   1.466   1.846   4.553
 4974TIP3    H114886   1.466   1.846   4.457
 4974TIP3    H214887   1.491   1.935   4.577
 4975TIP3   OH214888   3.784   2.058   5.605
 4975TIP3    H114889   3.846   2.067   5.533
 4975TIP3    H214890   3.716   2.123   5.587
 4976TIP3   OH214891   6.168   1.092   2.211
 4976TIP3    H114892   6.110   1.107   2.285
 4976TIP3    H214893   6.237   1.035   2.246
 4977TIP3   OH214894   0.401   0.057   1.281
 4977TIP3    H114895   0.306   0.059   1.271
 4977TIP3    H214896   0.424   0.144   1.312
 4978TIP3   OH214897   6.797   6.740   5.510
 4978TIP3    H114898   6.737   6.815   5.511
 4978TIP3    H214899   6.743   6.666   5.481
 4979TIP3   OH214900   0.012   0.110   5.799
 4979TIP3    H114901  -0.037   0.176   5.750
 4979TIP3    H214902   0.032   0.042   5.735
 4980TIP3   OH214903   3.314   4.008   4.389
 4980TIP3    H114904   3.230   4.019   4.346
 4980TIP3    H214905   3.359   4.092   4.377
 4981TIP3   OH214906   6.563   4.314   2.265
 4981TIP3    H114907   6.479   4.298   2.221
 4981TIP3    H214908   6.627   4.275   2.206
 4982TIP3   OH214909   2.189   2.664   1.667
 4982TIP3    H114910   2.106   2.669   1.715
 4982TIP3    H214911   2.208   2.571   1.662
 4983TIP3   OH214912   5.964   1.192   2.963
 4983TIP3    H114913   5.888   1.168   2.909
 4983TIP3    H214914   6.024   1.235   2.902
 4984TIP3   OH214915   2.955   2.894   0.260
 4984TIP3    H114916   3.046   2.906   0.233
 4984TIP3    H214917   2.904   2.936   0.190
 4985TIP3   OH214918   4.974   3.991   4.028
 4985TIP3    H114919   4.882   3.963   4.039
 4985TIP3    H214920   5.007   3.997   4.118
 4986TIP3   OH214921   2.200   3.933   0.250
 4986TIP3    H114922   2.152   3.915   0.331
 4986TIP3    H214923   2.220   4.026   0.253
 4987TIP3   OH214924   2.035   5.595   2.356
 4987TIP3    H114925   2.016   5.647   2.435
 4987TIP3    H214926   2.070   5.659   2.294
 4988TIP3   OH214927   1.174   4.121   2.494
 4988TIP3    H114928   1.113   4.151   2.561
 4988TIP3    H214929   1.258   4.112   2.540
 4989TIP3   OH214930   0.254   0.559   1.697
 4989TIP3    H114931   0.254   0.468   1.667
 4989TIP3    H214932   0.310   0.558   1.775
 4990TIP3   OH214933   4.799   2.547   2.204
 4990TIP3    H114934   4.787   2.641   2.215
 4990TIP3    H214935   4.874   2.539   2.145
 4991TIP3   OH214936   3.423   5.462   1.823
 4991TIP3    H114937   3.419   5.503   1.909
 4991TIP3    H214938   3.387   5.528   1.763
 4992TIP3   OH214939   6.515   2.701   5.692
 4992TIP3    H114940   6.599   2.710   5.648
 4992TIP3    H214941   6.537   2.681   5.783
 4993TIP3   OH214942   3.833   0.585   5.666
 4993TIP3    H114943   3.819   0.527   5.591
 4993TIP3    H214944   3.788   0.666   5.643
 4994TIP3   OH214945   5.929   5.215   3.345
 4994TIP3    H114946   6.023   5.226   3.330
 4994TIP3    H214947   5.923   5.142   3.407
 4995TIP3   OH214948   0.646   2.892   3.660
 4995TIP3    H114949   0.613   2.854   3.579
 4995TIP3    H214950   0.597   2.973   3.671
 4996TIP3   OH214951   5.656   4.816   0.851
 4996TIP3    H114952   5.599   4.744   0.876
 4996TIP3    H214953   5.607   4.895   0.873
 4997TIP3   OH214954   4.478   5.101   5.276
 4997TIP3    H114955   4.442   5.115   5.363
 4997TIP3    H214956   4.405   5.064   5.226
 4998TIP3   OH214957   2.654   3.588   4.965
 4998TIP3    H114958   2.652   3.494   4.983
 4998TIP3    H214959   2.577   3.604   4.910
 4999TIP3   OH214960   4.059   6.112   1.318
 4999TIP3    H114961   3.978   6.131   1.366
 4999TIP3    H214962   4.030   6.075   1.234
 5000TIP3   OH214963   3.170   3.294   2.574
 5000TIP3    H114964   3.215   3.235   2.513
 5000TIP3    H214965   3.240   3.328   2.631
 5001TIP3   OH214966   3.628   0.962   2.260
 5001TIP3    H114967   3.585   1.017   2.326
 5001TIP3    H214968   3.615   1.008   2.178
 5002TIP3   OH214969   3.896   3.384   1.886
 5002TIP3    H114970   3.862   3.340   1.964
 5002TIP3    H214971   3.984   3.349   1.875
 5003TIP3   OH214972   6.638   1.312   4.008
 5003TIP3    H114973   6.609   1.230   3.968
 5003TIP3    H214974   6.594   1.314   4.093
 5004TIP3   OH214975   3.786   0.543   1.130
 5004TIP3    H114976   3.767   0.463   1.082
 5004TIP3    H214977   3.807   0.515   1.219
 5005TIP3   OH214978   4.105   1.893   3.832
 5005TIP3    H114979   4.026   1.840   3.849
 5005TIP3    H214980   4.176   1.843   3.872
 5006TIP3   OH214981   4.595   2.432   1.365
 5006TIP3    H114982   4.563   2.504   1.420
 5006TIP3    H214983   4.565   2.353   1.410
 5007TIP3   OH214984   2.204   4.419   2.411
 5007TIP3    H114985   2.242   4.468   2.483
 5007TIP3    H214986   2.161   4.344   2.453
 5008TIP3   OH214987   2.657   4.801   2.735
 5008TIP3    H114988   2.749   4.788   2.714
 5008TIP3    H214989   2.650   4.894   2.758
 5009TIP3   OH214990   0.810   2.484   3.438
 5009TIP3    H114991   0.721   2.451   3.426
 5009TIP3    H214992   0.843   2.433   3.512
 5010TIP3   OH214993   0.057   2.042   4.706
 5010TIP3    H114994   0.124   1.999   4.760
 5010TIP3    H214995   0.107   2.091   4.641
 5011TIP3   OH214996   2.069   6.030   4.688
 5011TIP3    H114997   2.002   6.055   4.624
 5011TIP3    H214998   2.115   6.112   4.707
 5012TIP3   OH214999   1.787   5.413   4.626
 5012TIP3    H115000   1.704   5.365   4.621
 5012TIP3    H215001   1.846   5.353   4.673
 5013TIP3   OH215002   6.332   2.799   4.624
 5013TIP3    H115003   6.250   2.779   4.670
 5013TIP3    H215004   6.397   2.742   4.664
 5014TIP3   OH215005   5.193   0.122   3.161
 5014TIP3    H115006   5.163   0.170   3.084
 5014TIP3    H215007   5.262   0.176   3.198
 5015TIP3   OH215008   4.705   3.111   0.736
 5015TIP3    H115009   4.777   3.069   0.687
 5015TIP3    H215010   4.719   3.083   0.827
 5016TIP3   OH215011   5.658   5.648   3.952
 5016TIP3    H115012   5.615   5.563   3.940
 5016TIP3    H215013   5.750   5.631   3.928
 5017TIP3   OH215014   4.982   6.549   0.444
 5017TIP3    H115015   4.953   6.576   0.357
 5017TIP3    H215016   4.901   6.533   0.492
 5018TIP3   OH215017   0.111   3.482   4.528
 5018TIP3    H115018   0.034   3.525   4.491
 5018TIP3    H215019   0.074   3.417   4.588
 5019TIP3   OH215020   4.013   5.922   0.412
 5019TIP3    H115021   4.091   5.867   0.408
 5019TIP3    H215022   4.044   6.008   0.382
 5020TIP3   OH215023   1.058   4.839   2.533
 5020TIP3    H115024   1.141   4.844   2.485
 5020TIP3    H215025   0.991   4.856   2.466
 5021TIP3   OH215026   3.440   3.007   4.353
 5021TIP3    H115027   3.437   3.099   4.379
 5021TIP3    H215028   3.533   2.989   4.339
 5022TIP3   OH215029   2.459   0.187   0.389
 5022TIP3    H115030   2.488   0.147   0.307
 5022TIP3    H215031   2.516   0.148   0.456
 5023TIP3   OH215032   2.878   1.138   0.089
 5023TIP3    H115033   2.916   1.219   0.057
 5023TIP3    H215034   2.952   1.083   0.113
 5024TIP3   OH215035   4.921   4.335   4.131
 5024TIP3    H115036   4.888   4.309   4.217
 5024TIP3    H215037   4.897   4.427   4.123
 5025TIP3   OH215038   0.340   1.341   5.195
 5025TIP3    H115039   0.307   1.260   5.234
 5025TIP3    H215040   0.282   1.410   5.230
 5026TIP3   OH215041   2.652   0.003   4.928
 5026TIP3    H115042   2.612   0.017   5.014
 5026TIP3    H215043   2.704   0.081   4.913
 5027TIP3   OH215044   1.228   5.284   3.523
 5027TIP3    H115045   1.226   5.211   3.586
 5027TIP3    H215046   1.138   5.293   3.494
 5028TIP3   OH215047   0.472   2.933   2.645
 5028TIP3    H115048   0.498   2.911   2.734
 5028TIP3    H215049   0.532   2.883   2.589
 5029TIP3   OH215050   7.011   5.845   3.175
 5029TIP3    H115051   7.077   5.839   3.105
 5029TIP3    H215052   6.999   5.755   3.204
 5030TIP3   OH215053   6.824   2.877   3.624
 5030TIP3    H115054   6.752   2.864   3.685
 5030TIP3    H215055   6.843   2.971   3.629
 5031TIP3   OH215056   2.618   5.715   3.329
 5031TIP3    H115057   2.689   5.776   3.306
 5031TIP3    H215058   2.563   5.711   3.251
 5032TIP3   OH215059   3.185   1.287   5.046
 5032TIP3    H115060   3.239   1.284   5.125
 5032TIP3    H215061   3.162   1.195   5.029
 5033TIP3   OH215062   4.981   5.549   4.555
 5033TIP3    H115063   4.931   5.501   4.488
 5033TIP3    H215064   4.921   5.618   4.584
 5034TIP3   OH215065   1.978   4.118   1.187
 5034TIP3    H115066   1.922   4.041   1.182
 5034TIP3    H215067   2.067   4.084   1.181
 5035TIP3   OH215068   4.124   5.794   0.705
 5035TIP3    H115069   4.058   5.744   0.657
 5035TIP3    H215070   4.102   5.781   0.797
 5036TIP3   OH215071   3.058   3.228   4.587
 5036TIP3    H115072   3.137   3.176   4.603
 5036TIP3    H215073   2.996   3.197   4.653
 5037TIP3   OH215074   6.394   6.150   0.655
 5037TIP3    H115075   6.440   6.173   0.736
 5037TIP3    H215076   6.316   6.206   0.655
 5038TIP3   OH215077   7.121   2.305   4.628
 5038TIP3    H115078   7.141   2.392   4.665
 5038TIP3    H215079   7.138   2.244   4.700
 5039TIP3   OH215080   3.069   2.593   2.358
 5039TIP3    H115081   3.131   2.664   2.340
 5039TIP3    H215082   2.994   2.612   2.303
 5040TIP3   OH215083   0.992   1.691   4.068
 5040TIP3    H115084   0.932   1.759   4.038
 5040TIP3    H215085   1.079   1.723   4.042
 5041TIP3   OH215086   6.763   5.280   1.621
 5041TIP3    H115087   6.691   5.294   1.559
 5041TIP3    H215088   6.800   5.196   1.596
 5042TIP3   OH215089   7.008   1.456   2.612
 5042TIP3    H115090   6.994   1.439   2.705
 5042TIP3    H215091   6.955   1.389   2.567
 5043TIP3   OH215092   6.902   4.784   0.720
 5043TIP3    H115093   6.916   4.725   0.794
 5043TIP3    H215094   6.840   4.849   0.752
 5044TIP3   OH215095   5.133   2.559   3.313
 5044TIP3    H115096   5.175   2.506   3.245
 5044TIP3    H215097   5.185   2.543   3.392
 5045TIP3   OH215098   6.498   5.283   5.284
 5045TIP3    H115099   6.432   5.252   5.347
 5045TIP3    H215100   6.473   5.373   5.265
 5046TIP3   OH215101   1.925   1.624   2.881
 5046TIP3    H115102   1.990   1.640   2.813
 5046TIP3    H215103   1.856   1.576   2.837
 5047TIP3   OH215104   0.412   0.071   4.241
 5047TIP3    H115105   0.489   0.123   4.218
 5047TIP3    H215106   0.367   0.056   4.157
 5048TIP3   OH215107   3.222   3.798   3.939
 5048TIP3    H115108   3.280   3.736   3.895
 5048TIP3    H215109   3.204   3.865   3.874
 5049TIP3   OH215110   5.945   2.783   2.900
 5049TIP3    H115111   5.896   2.810   2.977
 5049TIP3    H215112   5.938   2.858   2.840
 5050TIP3   OH215113   6.476   2.229   3.009
 5050TIP3    H115114   6.420   2.154   2.989
 5050TIP3    H215115   6.565   2.193   3.012
 5051TIP3   OH215116   1.565   6.430   0.814
 5051TIP3    H115117   1.602   6.355   0.861
 5051TIP3    H215118   1.611   6.506   0.849
 5052TIP3   OH215119   2.288   4.537   4.872
 5052TIP3    H115120   2.335   4.621   4.872
 5052TIP3    H215121   2.233   4.542   4.950
 5053TIP3   OH215122   2.504   1.520   1.322
 5053TIP3    H115123   2.576   1.476   1.277
 5053TIP3    H215124   2.513   1.494   1.413
 5054TIP3   OH215125   2.081   4.815   4.122
 5054TIP3    H115126   2.169   4.779   4.133
 5054TIP3    H215127   2.078   4.889   4.183
 5055TIP3   OH215128   3.376   6.744   1.436
 5055TIP3    H115129   3.329   6.827   1.438
 5055TIP3    H215130   3.397   6.730   1.343
 5056TIP3   OH215131   0.126   4.063   0.093
 5056TIP3    H115132   0.110   3.969   0.093
 5056TIP3    H215133   0.061   4.099   0.153
 5057TIP3   OH215134   5.189   5.339   2.409
 5057TIP3    H115135   5.234   5.333   2.325
 5057TIP3    H215136   5.151   5.252   2.422
 5058TIP3   OH215137   1.045   3.267   2.332
 5058TIP3    H115138   1.124   3.238   2.288
 5058TIP3    H215139   1.076   3.327   2.400
 5059TIP3   OH215140   0.648   3.112   1.730
 5059TIP3    H115141   0.744   3.118   1.723
 5059TIP3    H215142   0.629   3.019   1.719
 5060TIP3   OH215143   4.166   3.954   1.265
 5060TIP3    H115144   4.196   4.014   1.333
 5060TIP3    H215145   4.116   4.008   1.204
 5061TIP3   OH215146   2.970   0.350   3.033
 5061TIP3    H115147   2.914   0.406   3.086
 5061TIP3    H215148   3.055   0.393   3.034
 5062TIP3   OH215149   5.026   2.984   2.289
 5062TIP3    H115150   5.075   2.906   2.314
 5062TIP3    H215151   4.935   2.959   2.298
 5063TIP3   OH215152   2.531   6.103   3.906
 5063TIP3    H115153   2.496   6.181   3.863
 5063TIP3    H215154   2.502   6.030   3.851
 5064TIP3   OH215155   3.236   3.261   4.315
 5064TIP3    H115156   3.175   3.314   4.368
 5064TIP3    H215157   3.183   3.187   4.286
 5065TIP3   OH215158   2.302   5.983   4.494
 5065TIP3    H115159   2.220   5.962   4.539
 5065TIP3    H215160   2.365   5.998   4.565
 5066TIP3   OH215161   3.009   3.748   4.126
 5066TIP3    H115162   2.933   3.804   4.109
 5066TIP3    H215163   3.082   3.794   4.084
 5067TIP3   OH215164   2.396   3.626   2.347
 5067TIP3    H115165   2.411   3.672   2.430
 5067TIP3    H215166   2.325   3.676   2.306
 5068TIP3   OH215167   6.066   4.175   2.103
 5068TIP3    H115168   6.027   4.173   2.015
 5068TIP3    H215169   6.009   4.234   2.153
 5069TIP3   OH215170   1.816   1.992   3.710
 5069TIP3    H115171   1.885   1.966   3.772
 5069TIP3    H215172   1.864   2.018   3.631
 5070TIP3   OH215173   3.480   5.030   3.968
 5070TIP3    H115174   3.449   4.987   3.888
 5070TIP3    H215175   3.571   5.053   3.948
 5071TIP3   OH215176   6.022   1.494   5.275
 5071TIP3    H115177   5.934   1.471   5.246
 5071TIP3    H215178   6.038   1.582   5.240
 5072TIP3   OH215179   1.595   6.428   1.835
 5072TIP3    H115180   1.671   6.386   1.795
 5072TIP3    H215181   1.539   6.356   1.862
 5073TIP3   OH215182   6.069   3.391   0.599
 5073TIP3    H115183   6.073   3.469   0.542
 5073TIP3    H215184   6.158   3.358   0.600
 5074TIP3   OH215185   3.824   2.853   3.407
 5074TIP3    H115186   3.817   2.798   3.329
 5074TIP3    H215187   3.734   2.870   3.433
 5075TIP3   OH215188   1.835   5.395   2.847
 5075TIP3    H115189   1.860   5.346   2.769
 5075TIP3    H215190   1.777   5.335   2.895
 5076TIP3   OH215191   3.919   5.818   4.578
 5076TIP3    H115192   3.923   5.851   4.668
 5076TIP3    H215193   3.868   5.737   4.585
 5077TIP3   OH215194   0.567   3.907   5.249
 5077TIP3    H115195   0.593   3.987   5.204
 5077TIP3    H215196   0.639   3.888   5.308
 5078TIP3   OH215197   3.145   5.775   2.967
 5078TIP3    H115198   3.173   5.760   2.877
 5078TIP3    H215199   3.076   5.710   2.982
 5079TIP3   OH215200   3.656   5.367   3.511
 5079TIP3    H115201   3.594   5.358   3.438
 5079TIP3    H215202   3.741   5.376   3.468
 5080TIP3   OH215203   0.535   4.349   5.784
 5080TIP3    H115204   0.627   4.335   5.762
 5080TIP3    H215205   0.533   4.352   5.879
 5081TIP3   OH215206   5.840   4.489   5.107
 5081TIP3    H115207   5.758   4.537   5.097
 5081TIP3    H215208   5.815   4.397   5.096
 5082TIP3   OH215209   6.992   5.806   3.737
 5082TIP3    H115210   7.005   5.739   3.804
 5082TIP3    H215211   6.941   5.874   3.781
 5083TIP3   OH215212   5.684   4.472   0.943
 5083TIP3    H115213   5.714   4.457   0.854
 5083TIP3    H215214   5.683   4.385   0.983
 5084TIP3   OH215215   0.080   2.815   3.031
 5084TIP3    H115216   0.016   2.766   3.084
 5084TIP3    H215217   0.029   2.851   2.959
 5085TIP3   OH215218   3.835   2.434   2.231
 5085TIP3    H115219   3.887   2.430   2.151
 5085TIP3    H215220   3.779   2.356   2.226
 5086TIP3   OH215221   6.761   2.092   1.564
 5086TIP3    H115222   6.673   2.130   1.566
 5086TIP3    H215223   6.759   2.022   1.630
 5087TIP3   OH215224   6.510   0.991   2.961
 5087TIP3    H115225   6.514   0.942   2.879
 5087TIP3    H215226   6.465   1.073   2.937
 5088TIP3   OH215227   4.629   2.077   3.557
 5088TIP3    H115228   4.605   2.010   3.493
 5088TIP3    H215229   4.722   2.061   3.574
 5089TIP3   OH215230   7.198   2.625   4.186
 5089TIP3    H115231   7.127   2.575   4.144
 5089TIP3    H215232   7.237   2.563   4.248
 5090TIP3   OH215233   4.274   3.905   3.328
 5090TIP3    H115234   4.215   3.954   3.271
 5090TIP3    H215235   4.237   3.817   3.331
 5091TIP3   OH215236   0.721   2.491   4.053
 5091TIP3    H115237   0.805   2.513   4.013
 5091TIP3    H215238   0.657   2.510   3.984
 5092TIP3   OH215239   0.713   3.747   0.788
 5092TIP3    H115240   0.788   3.803   0.807
 5092TIP3    H215241   0.661   3.749   0.869
 5093TIP3   OH215242   1.336   1.301   1.582
 5093TIP3    H115243   1.394   1.360   1.533
 5093TIP3    H215244   1.360   1.315   1.674
 5094TIP3   OH215245   1.797   3.775   4.627
 5094TIP3    H115246   1.792   3.727   4.545
 5094TIP3    H215247   1.884   3.755   4.662
 5095TIP3   OH215248   6.174   2.889   1.375
 5095TIP3    H115249   6.114   2.959   1.348
 5095TIP3    H215250   6.261   2.929   1.370
 5096TIP3   OH215251   6.184   6.727   0.903
 5096TIP3    H115252   6.245   6.780   0.850
 5096TIP3    H215253   6.116   6.701   0.841
 5097TIP3   OH215254   6.128   1.381   1.555
 5097TIP3    H115255   6.222   1.363   1.565
 5097TIP3    H215256   6.092   1.301   1.517
 5098TIP3   OH215257   4.388   1.996   1.556
 5098TIP3    H115258   4.295   1.977   1.546
 5098TIP3    H215259   4.402   1.998   1.650
 5099TIP3   OH215260   4.132   3.868   4.242
 5099TIP3    H115261   4.187   3.807   4.193
 5099TIP3    H215262   4.044   3.829   4.239
 5100TIP3   OH215263   1.164   3.296   3.802
 5100TIP3    H115264   1.246   3.346   3.800
 5100TIP3    H215265   1.108   3.344   3.863
 5101TIP3   OH215266   4.210   1.504   5.168
 5101TIP3    H115267   4.187   1.571   5.232
 5101TIP3    H215268   4.216   1.552   5.085
 5102TIP3   OH215269   3.083   6.776   0.597
 5102TIP3    H115270   3.094   6.687   0.565
 5102TIP3    H215271   2.993   6.780   0.628
 5103TIP3   OH215272   2.483   3.126   5.556
 5103TIP3    H115273   2.533   3.095   5.481
 5103TIP3    H215274   2.434   3.201   5.524
 5104TIP3   OH215275   5.371   2.354   1.147
 5104TIP3    H115276   5.332   2.285   1.093
 5104TIP3    H215277   5.465   2.351   1.125
 5105TIP3   OH215278   2.587   5.103   0.853
 5105TIP3    H115279   2.534   5.069   0.782
 5105TIP3    H215280   2.657   5.153   0.810
 5106TIP3   OH215281   5.115   5.957   4.748
 5106TIP3    H115282   5.098   5.868   4.781
 5106TIP3    H215283   5.030   5.987   4.717
 5107TIP3   OH215284   6.730   2.872   0.962
 5107TIP3    H115285   6.751   2.789   1.004
 5107TIP3    H215286   6.705   2.930   1.034
 5108TIP3   OH215287   4.637   5.181   1.551
 5108TIP3    H115288   4.693   5.223   1.485
 5108TIP3    H215289   4.666   5.090   1.552
 5109TIP3   OH215290   4.070   4.144   3.954
 5109TIP3    H115291   4.081   4.125   4.047
 5109TIP3    H215292   4.055   4.238   3.950
 5110TIP3   OH215293   6.797   2.784   5.008
 5110TIP3    H115294   6.881   2.808   4.970
 5110TIP3    H215295   6.733   2.836   4.960
 5111TIP3   OH215296   5.781   2.646   2.005
 5111TIP3    H115297   5.749   2.722   1.956
 5111TIP3    H215298   5.835   2.683   2.075
 5112TIP3   OH215299   5.897   3.787   3.299
 5112TIP3    H115300   5.932   3.834   3.224
 5112TIP3    H215301   5.833   3.726   3.263
 5113TIP3   OH215302   5.222   0.316   2.146
 5113TIP3    H115303   5.312   0.293   2.120
 5113TIP3    H215304   5.167   0.256   2.097
 5114TIP3   OH215305   5.823   2.859   3.159
 5114TIP3    H115306   5.757   2.928   3.151
 5114TIP3    H215307   5.830   2.843   3.252
 5115TIP3   OH215308   2.834   6.773   0.885
 5115TIP3    H115309   2.928   6.779   0.906
 5115TIP3    H215310   2.812   6.681   0.902
 5116TIP3   OH215311   4.506   0.420   0.192
 5116TIP3    H115312   4.497   0.473   0.271
 5116TIP3    H215313   4.416   0.405   0.163
 5117TIP3   OH215314   4.705   1.846   4.159
 5117TIP3    H115315   4.619   1.888   4.152
 5117TIP3    H215316   4.710   1.787   4.084
 5118TIP3   OH215317   5.553   3.654   0.233
 5118TIP3    H115318   5.550   3.709   0.312
 5118TIP3    H215319   5.609   3.581   0.258
 5119TIP3   OH215320   0.329   2.650   3.875
 5119TIP3    H115321   0.336   2.743   3.852
 5119TIP3    H215322   0.417   2.626   3.904
 5120TIP3   OH215323   6.430   0.615   1.342
 5120TIP3    H115324   6.367   0.680   1.373
 5120TIP3    H215325   6.515   0.659   1.346
 5121TIP3   OH215326   2.571   5.648   5.400
 5121TIP3    H115327   2.609   5.716   5.456
 5121TIP3    H215328   2.639   5.627   5.337
 5122TIP3   OH215329   1.473   5.999   0.847
 5122TIP3    H115330   1.561   6.029   0.829
 5122TIP3    H215331   1.422   6.079   0.860
 5123TIP3   OH215332   1.433   4.228   5.276
 5123TIP3    H115333   1.460   4.138   5.259
 5123TIP3    H215334   1.446   4.273   5.193
 5124TIP3   OH215335   1.224   6.042   4.104
 5124TIP3    H115336   1.190   6.131   4.099
 5124TIP3    H215337   1.213   6.007   4.016
 5125TIP3   OH215338   0.453   4.466   0.056
 5125TIP3    H115339   0.530   4.418   0.087
 5125TIP3    H215340   0.387   4.450   0.123
 5126TIP3   OH215341   2.046   4.029   3.124
 5126TIP3    H115342   2.076   4.019   3.214
 5126TIP3    H215343   2.037   3.940   3.091
 5127TIP3   OH215344   3.491   1.768   4.103
 5127TIP3    H115345   3.410   1.725   4.130
 5127TIP3    H215346   3.469   1.861   4.101
 5128TIP3   OH215347   1.536   5.576   1.158
 5128TIP3    H115348   1.509   5.656   1.113
 5128TIP3    H215349   1.627   5.593   1.183
 5129TIP3   OH215350   2.441   2.610   0.486
 5129TIP3    H115351   2.447   2.523   0.446
 5129TIP3    H215352   2.359   2.646   0.453
 5130TIP3   OH215353   2.966   3.292   1.069
 5130TIP3    H115354   2.965   3.324   1.159
 5130TIP3    H215355   3.047   3.242   1.062
 5131TIP3   OH215356   4.218   5.750   0.350
 5131TIP3    H115357   4.235   5.748   0.256
 5131TIP3    H215358   4.242   5.663   0.381
 5132TIP3   OH215359   5.577   2.975   0.740
 5132TIP3    H115360   5.579   3.066   0.711
 5132TIP3    H215361   5.595   2.924   0.662
 5133TIP3   OH215362   3.133   6.320   3.833
 5133TIP3    H115363   3.082   6.385   3.880
 5133TIP3    H215364   3.069   6.275   3.777
 5134TIP3   OH215365   3.882   0.471   4.437
 5134TIP3    H115366   3.901   0.382   4.410
 5134TIP3    H215367   3.787   0.478   4.434
 5135TIP3   OH215368   3.013   1.445   4.032
 5135TIP3    H115369   3.055   1.422   3.949
 5135TIP3    H215370   3.076   1.502   4.075
 5136TIP3   OH215371   0.580   1.616   0.667
 5136TIP3    H115372   0.537   1.696   0.637
 5136TIP3    H215373   0.661   1.645   0.708
 5137TIP3   OH215374   3.948   5.925   4.322
 5137TIP3    H115375   3.949   5.875   4.404
 5137TIP3    H215376   3.869   5.896   4.277
 5138TIP3   OH215377   5.756   0.549   1.952
 5138TIP3    H115378   5.667   0.520   1.968
 5138TIP3    H215379   5.769   0.621   2.014
 5139TIP3   OH215380   6.129   5.097   4.032
 5139TIP3    H115381   6.220   5.113   4.008
 5139TIP3    H215382   6.126   5.115   4.126
 5140TIP3   OH215383   4.885   2.921   3.007
 5140TIP3    H115384   4.924   2.893   3.090
 5140TIP3    H215385   4.903   3.015   3.002
 5141TIP3   OH215386   6.691   5.081   2.637
 5141TIP3    H115387   6.708   5.034   2.718
 5141TIP3    H215388   6.603   5.056   2.612
 5142TIP3   OH215389   4.051   2.541   2.919
 5142TIP3    H115390   3.966   2.518   2.881
 5142TIP3    H215391   4.052   2.637   2.918
 5143TIP3   OH215392   1.138   3.333   0.233
 5143TIP3    H115393   1.223   3.369   0.261
 5143TIP3    H215394   1.074   3.375   0.291
 5144TIP3   OH215395   2.440   5.584   2.843
 5144TIP3    H115396   2.407   5.658   2.792
 5144TIP3    H215397   2.501   5.624   2.906
 5145TIP3   OH215398   2.188   0.867   3.300
 5145TIP3    H115399   2.137   0.811   3.359
 5145TIP3    H215400   2.194   0.951   3.346
 5146TIP3   OH215401   3.286   1.772   5.546
 5146TIP3    H115402   3.275   1.806   5.457
 5146TIP3    H215403   3.323   1.685   5.533
 5147TIP3   OH215404   4.406   4.658   1.307
 5147TIP3    H115405   4.448   4.730   1.355
 5147TIP3    H215406   4.439   4.667   1.217
 5148TIP3   OH215407   3.525   6.414   5.471
 5148TIP3    H115408   3.620   6.425   5.459
 5148TIP3    H215409   3.513   6.416   5.566
 5149TIP3   OH215410   1.184   3.567   4.893
 5149TIP3    H115411   1.123   3.577   4.967
 5149TIP3    H215412   1.154   3.488   4.848
 5150TIP3   OH215413   5.119   0.244   3.813
 5150TIP3    H115414   5.034   0.273   3.780
 5150TIP3    H215415   5.135   0.301   3.889
 5151TIP3   OH215416   4.537   1.823   1.864
 5151TIP3    H115417   4.606   1.885   1.885
 5151TIP3    H215418   4.466   1.877   1.829
 5152TIP3   OH215419   3.504   0.970   1.109
 5152TIP3    H115420   3.535   0.907   1.044
 5152TIP3    H215421   3.471   1.044   1.057
 5153TIP3   OH215422   4.749   1.314   2.597
 5153TIP3    H115423   4.665   1.332   2.639
 5153TIP3    H215424   4.755   1.378   2.527
 5154TIP3   OH215425   2.161   2.053   2.517
 5154TIP3    H115426   2.164   1.969   2.472
 5154TIP3    H215427   2.218   2.110   2.465
 5155TIP3   OH215428   3.320   0.340   5.093
 5155TIP3    H115429   3.404   0.362   5.134
 5155TIP3    H215430   3.278   0.425   5.078
 5156TIP3   OH215431   2.879   0.600   4.150
 5156TIP3    H115432   2.868   0.505   4.149
 5156TIP3    H215433   2.790   0.635   4.160
 5157TIP3   OH215434   6.104   0.555   0.836
 5157TIP3    H115435   6.017   0.594   0.827
 5157TIP3    H215436   6.164   0.624   0.809
 5158TIP3   OH215437   0.565   1.940   0.812
 5158TIP3    H115438   0.543   2.026   0.848
 5158TIP3    H215439   0.527   1.940   0.724
 5159TIP3   OH215440   2.401   4.083   3.804
 5159TIP3    H115441   2.449   4.111   3.882
 5159TIP3    H215442   2.329   4.029   3.839
 5160TIP3   OH215443   6.769   3.072   5.181
 5160TIP3    H115444   6.809   3.070   5.094
 5160TIP3    H215445   6.838   3.103   5.239
 5161TIP3   OH215446   1.905   4.474   2.770
 5161TIP3    H115447   1.940   4.385   2.771
 5161TIP3    H215448   1.873   4.486   2.681
 5162TIP3   OH215449   4.663   2.238   4.000
 5162TIP3    H115450   4.625   2.199   4.079
 5162TIP3    H215451   4.593   2.293   3.965
 5163TIP3   OH215452   5.340   0.840   4.336
 5163TIP3    H115453   5.336   0.840   4.431
 5163TIP3    H215454   5.345   0.747   4.312
 5164TIP3   OH215455   2.858   0.145   3.381
 5164TIP3    H115456   2.785   0.203   3.360
 5164TIP3    H215457   2.902   0.188   3.454
 5165TIP3   OH215458   2.161   3.110   2.610
 5165TIP3    H115459   2.183   3.191   2.656
 5165TIP3    H215460   2.134   3.138   2.523
 5166TIP3   OH215461   0.399   4.238   4.548
 5166TIP3    H115462   0.437   4.239   4.636
 5166TIP3    H215463   0.335   4.309   4.548
 5167TIP3   OH215464   0.214   6.129   5.371
 5167TIP3    H115465   0.245   6.215   5.398
 5167TIP3    H215466   0.294   6.076   5.365
 5168TIP3   OH215467   3.963   2.509   1.678
 5168TIP3    H115468   3.925   2.433   1.634
 5168TIP3    H215469   3.926   2.507   1.766
 5169TIP3   OH215470   4.612   5.679   5.792
 5169TIP3    H115471   4.554   5.699   5.866
 5169TIP3    H215472   4.554   5.642   5.726
 5170TIP3   OH215473   6.366   2.469   0.464
 5170TIP3    H115474   6.290   2.419   0.494
 5170TIP3    H215475   6.386   2.528   0.536
 5171TIP3   OH215476   2.063   6.010   3.241
 5171TIP3    H115477   2.049   5.966   3.325
 5171TIP3    H215478   2.073   6.103   3.263
 5172TIP3   OH215479   1.392   2.427   2.366
 5172TIP3    H115480   1.470   2.420   2.312
 5172TIP3    H215481   1.320   2.403   2.308
 5173TIP3   OH215482   0.957   0.324   5.214
 5173TIP3    H115483   1.001   0.253   5.261
 5173TIP3    H215484   0.877   0.340   5.264
 5174TIP3   OH215485   6.408   4.087   2.462
 5174TIP3    H115486   6.498   4.082   2.430
 5174TIP3    H215487   6.378   3.996   2.464
 5175TIP3   OH215488   0.671   3.567   4.295
 5175TIP3    H115489   0.613   3.530   4.229
 5175TIP3    H215490   0.692   3.493   4.352
 5176TIP3   OH215491   6.413   2.986   3.607
 5176TIP3    H115492   6.461   2.913   3.568
 5176TIP3    H215493   6.356   3.017   3.536
 5177TIP3   OH215494   3.091   1.273   1.554
 5177TIP3    H115495   3.138   1.343   1.510
 5177TIP3    H215496   3.102   1.197   1.497
 5178TIP3   OH215497   2.332   2.155   3.554
 5178TIP3    H115498   2.320   2.105   3.634
 5178TIP3    H215499   2.257   2.213   3.550
 5179TIP3   OH215500   1.064   1.848   2.099
 5179TIP3    H115501   1.152   1.885   2.109
 5179TIP3    H215502   1.075   1.780   2.032
 5180TIP3   OH215503   5.202   5.886   2.530
 5180TIP3    H115504   5.159   5.802   2.545
 5180TIP3    H215505   5.174   5.912   2.443
 5181TIP3   OH215506   0.840   1.409   0.318
 5181TIP3    H115507   0.903   1.470   0.355
 5181TIP3    H215508   0.764   1.415   0.375
 5182TIP3   OH215509   5.634   3.344   3.026
 5182TIP3    H115510   5.677   3.413   2.974
 5182TIP3    H215511   5.546   3.378   3.041
 5183TIP3   OH215512   1.947   5.555   5.172
 5183TIP3    H115513   1.974   5.604   5.249
 5183TIP3    H215514   1.925   5.621   5.107
 5184TIP3   OH215515   6.779   5.548   5.230
 5184TIP3    H115516   6.773   5.511   5.142
 5184TIP3    H215517   6.783   5.472   5.288
 5185TIP3   OH215518   6.470   1.752   5.515
 5185TIP3    H115519   6.378   1.780   5.508
 5185TIP3    H215520   6.512   1.822   5.565
 5186TIP3   OH215521   5.045   0.888   3.861
 5186TIP3    H115522   5.045   0.825   3.790
 5186TIP3    H215523   5.098   0.961   3.828
 5187TIP3   OH215524   2.163   2.395   5.846
 5187TIP3    H115525   2.112   2.468   5.882
 5187TIP3    H215526   2.164   2.330   5.916
 5188TIP3   OH215527   5.144   5.034   1.493
 5188TIP3    H115528   5.142   5.096   1.419
 5188TIP3    H215529   5.215   4.974   1.471
 5189TIP3   OH215530   6.156   3.280   5.752
 5189TIP3    H115531   6.235   3.239   5.718
 5189TIP3    H215532   6.187   3.339   5.820
 5190TIP3   OH215533   0.100   2.840   5.303
 5190TIP3    H115534   0.077   2.897   5.377
 5190TIP3    H215535   0.195   2.832   5.309
 5191TIP3   OH215536   1.574   4.971   5.803
 5191TIP3    H115537   1.639   4.911   5.840
 5191TIP3    H215538   1.496   4.918   5.791
 5192TIP3   OH215539   6.504   5.383   2.989
 5192TIP3    H115540   6.476   5.418   2.904
 5192TIP3    H215541   6.526   5.460   3.041
 5193TIP3   OH215542   0.612   0.613   5.608
 5193TIP3    H115543   0.645   0.622   5.697
 5193TIP3    H215544   0.686   0.581   5.557
 5194TIP3   OH215545   7.136   5.672   0.034
 5194TIP3    H115546   7.218   5.625   0.049
 5194TIP3    H215547   7.161   5.764   0.033
 5195TIP3   OH215548   7.079   1.170   4.026
 5195TIP3    H115549   7.165   1.209   4.015
 5195TIP3    H215550   7.054   1.193   4.115
 5196TIP3   OH215551   6.589   4.976   1.576
 5196TIP3    H115552   6.675   4.991   1.537
 5196TIP3    H215553   6.569   5.057   1.623
 5197TIP3   OH215554   5.821   2.573   4.134
 5197TIP3    H115555   5.863   2.646   4.088
 5197TIP3    H215556   5.762   2.615   4.197
 5198TIP3   OH215557   0.244   0.239   3.709
 5198TIP3    H115558   0.154   0.205   3.715
 5198TIP3    H215559   0.272   0.219   3.620
 5199TIP3   OH215560   5.291   0.831   4.607
 5199TIP3    H115561   5.199   0.805   4.604
 5199TIP3    H215562   5.312   0.836   4.700
 5200TIP3   OH215563   2.610   2.887   4.053
 5200TIP3    H115564   2.622   2.898   3.958
 5200TIP3    H215565   2.515   2.879   4.064
 5201TIP3   OH215566   3.541   0.528   5.734
 5201TIP3    H115567   3.594   0.455   5.702
 5201TIP3    H215568   3.461   0.488   5.767
 5202TIP3   OH215569   3.353   5.030   4.876
 5202TIP3    H115570   3.353   4.963   4.944
 5202TIP3    H215571   3.378   4.983   4.796
 5203TIP3   OH215572   0.876   3.940   2.820
 5203TIP3    H115573   0.820   3.982   2.886
 5203TIP3    H215574   0.961   3.983   2.831
 5204TIP3   OH215575   2.011   4.106   0.655
 5204TIP3    H115576   2.098   4.076   0.681
 5204TIP3    H215577   2.008   4.092   0.560
 5205TIP3   OH215578   7.235   5.638   3.353
 5205TIP3    H115579   7.187   5.638   3.270
 5205TIP3    H215580   7.193   5.705   3.406
 5206TIP3   OH215581   3.452   0.956   3.610
 5206TIP3    H115582   3.444   0.986   3.701
 5206TIP3    H215583   3.437   0.862   3.615
 5207TIP3   OH215584   4.957   1.345   5.209
 5207TIP3    H115585   4.908   1.281   5.159
 5207TIP3    H215586   4.957   1.312   5.299
 5208TIP3   OH215587   4.908   3.981   5.311
 5208TIP3    H115588   4.818   3.970   5.279
 5208TIP3    H215589   4.921   4.076   5.313
 5209TIP3   OH215590   4.640   1.709   1.214
 5209TIP3    H115591   4.617   1.720   1.121
 5209TIP3    H215592   4.719   1.761   1.225
 5210TIP3   OH215593   0.275   4.232   5.761
 5210TIP3    H115594   0.271   4.213   5.667
 5210TIP3    H215595   0.364   4.265   5.774
 5211TIP3   OH215596   1.958   6.611   2.393
 5211TIP3    H115597   1.999   6.558   2.325
 5211TIP3    H215598   1.917   6.547   2.451
 5212TIP3   OH215599   3.526   3.417   3.415
 5212TIP3    H115600   3.611   3.391   3.380
 5212TIP3    H215601   3.469   3.422   3.338
 5213TIP3   OH215602   1.675   2.961   4.734
 5213TIP3    H115603   1.609   2.954   4.804
 5213TIP3    H215604   1.734   3.029   4.764
 5214TIP3   OH215605   6.694   5.795   1.828
 5214TIP3    H115606   6.729   5.840   1.906
 5214TIP3    H215607   6.736   5.839   1.754
 5215TIP3   OH215608   1.524   6.111   4.106
 5215TIP3    H115609   1.517   6.045   4.036
 5215TIP3    H215610   1.442   6.104   4.154
 5216TIP3   OH215611   6.423   5.448   3.879
 5216TIP3    H115612   6.515   5.477   3.874
 5216TIP3    H215613   6.393   5.482   3.963
 5217TIP3   OH215614   3.461   2.943   5.104
 5217TIP3    H115615   3.530   2.892   5.147
 5217TIP3    H215616   3.475   3.032   5.136
 5218TIP3   OH215617   3.386   2.395   0.114
 5218TIP3    H115618   3.362   2.391   0.022
 5218TIP3    H215619   3.323   2.456   0.153
 5219TIP3   OH215620   4.480   5.766   3.777
 5219TIP3    H115621   4.450   5.811   3.856
 5219TIP3    H215622   4.574   5.757   3.789
 5220TIP3   OH215623   5.067   0.190   0.654
 5220TIP3    H115624   5.069   0.197   0.558
 5220TIP3    H215625   5.150   0.226   0.683
 5221TIP3   OH215626   4.423   3.834   2.069
 5221TIP3    H115627   4.506   3.790   2.051
 5221TIP3    H215628   4.422   3.844   2.165
 5222TIP3   OH215629   3.332   3.163   3.559
 5222TIP3    H115630   3.324   3.193   3.468
 5222TIP3    H215631   3.290   3.231   3.611
 5223TIP3   OH215632   3.823   4.032   1.596
 5223TIP3    H115633   3.872   3.954   1.570
 5223TIP3    H215634   3.810   4.022   1.690
 5224TIP3   OH215635   7.096   6.729   3.994
 5224TIP3    H115636   7.072   6.757   4.082
 5224TIP3    H215637   7.018   6.685   3.960
 5225TIP3   OH215638   5.324   1.405   3.693
 5225TIP3    H115639   5.274   1.323   3.685
 5225TIP3    H215640   5.307   1.451   3.611
 5226TIP3   OH215641   3.026   5.702   1.104
 5226TIP3    H115642   3.059   5.759   1.172
 5226TIP3    H215643   3.022   5.757   1.026
 5227TIP3   OH215644   2.982   3.153   4.922
 5227TIP3    H115645   2.940   3.149   4.836
 5227TIP3    H215646   2.972   3.065   4.958
 5228TIP3   OH215647   6.663   5.825   5.658
 5228TIP3    H115648   6.609   5.747   5.672
 5228TIP3    H215649   6.688   5.821   5.566
 5229TIP3   OH215650   2.224   0.078   2.275
 5229TIP3    H115651   2.313   0.070   2.241
 5229TIP3    H215652   2.190   0.157   2.234
 5230TIP3   OH215653   5.233   1.250   2.770
 5230TIP3    H115654   5.214   1.175   2.713
 5230TIP3    H215655   5.149   1.294   2.780
 5231TIP3   OH215656   2.641   1.170   1.170
 5231TIP3    H115657   2.645   1.245   1.111
 5231TIP3    H215658   2.548   1.153   1.182
 5232TIP3   OH215659   4.014   6.692   4.678
 5232TIP3    H115660   4.058   6.708   4.761
 5232TIP3    H215661   3.941   6.635   4.700
 5233TIP3   OH215662   4.087   3.462   2.289
 5233TIP3    H115663   4.009   3.407   2.282
 5233TIP3    H215664   4.069   3.537   2.233
 5234TIP3   OH215665   2.083   5.185   0.653
 5234TIP3    H115666   2.039   5.115   0.702
 5234TIP3    H215667   2.155   5.211   0.709
 5235TIP3   OH215668   0.321   4.857   5.396
 5235TIP3    H115669   0.296   4.802   5.470
 5235TIP3    H215670   0.241   4.863   5.343
 5236TIP3   OH215671   2.751   6.669   2.261
 5236TIP3    H115672   2.708   6.732   2.201
 5236TIP3    H215673   2.790   6.604   2.203
 5237TIP3   OH215674   0.308   2.948   3.846
 5237TIP3    H115675   0.337   3.035   3.820
 5237TIP3    H215676   0.213   2.949   3.830
 5238TIP3   OH215677   3.473   0.824   4.197
 5238TIP3    H115678   3.383   0.855   4.183
 5238TIP3    H215679   3.491   0.843   4.289
 5239TIP3   OH215680   0.582   0.998   0.944
 5239TIP3    H115681   0.517   0.982   1.012
 5239TIP3    H215682   0.560   1.084   0.909
 5240TIP3   OH215683   0.467   3.717   2.377
 5240TIP3    H115684   0.414   3.640   2.396
 5240TIP3    H215685   0.426   3.788   2.426
 5241TIP3   OH215686   6.495   2.271   4.328
 5241TIP3    H115687   6.404   2.251   4.309
 5241TIP3    H215688   6.541   2.187   4.320
 5242TIP3   OH215689   6.031   1.474   1.931
 5242TIP3    H115690   5.958   1.479   1.869
 5242TIP3    H215691   6.002   1.527   2.006
 5243TIP3   OH215692   6.075   1.881   0.937
 5243TIP3    H115693   6.112   1.949   0.880
 5243TIP3    H215694   6.056   1.808   0.879
 5244TIP3   OH215695   3.872   0.150   1.430
 5244TIP3    H115696   3.854   0.176   1.520
 5244TIP3    H215697   3.877   0.055   1.433
 5245TIP3   OH215698   2.228   3.570   1.172
 5245TIP3    H115699   2.156   3.538   1.227
 5245TIP3    H215700   2.191   3.645   1.126
 5246TIP3   OH215701   1.370   4.813   3.565
 5246TIP3    H115702   1.375   4.808   3.661
 5246TIP3    H215703   1.454   4.780   3.534
 5247TIP3   OH215704   2.227   6.170   5.118
 5247TIP3    H115705   2.205   6.259   5.147
 5247TIP3    H215706   2.144   6.122   5.123
 5248TIP3   OH215707   4.634   5.330   0.658
 5248TIP3    H115708   4.679   5.249   0.634
 5248TIP3    H215709   4.700   5.398   0.642
 5249TIP3   OH215710   1.610   5.589   5.411
 5249TIP3    H115711   1.581   5.611   5.323
 5249TIP3    H215712   1.538   5.537   5.447
 5250TIP3   OH215713   1.633  -0.012   4.977
 5250TIP3    H115714   1.701   0.047   5.008
 5250TIP3    H215715   1.631   0.000   4.882
 5251TIP3   OH215716   5.027   2.526   4.692
 5251TIP3    H115717   5.028   2.458   4.759
 5251TIP3    H215718   4.954   2.583   4.716
 5252TIP3   OH215719   6.345   5.695   0.385
 5252TIP3    H115720   6.410   5.670   0.320
 5252TIP3    H215721   6.381   5.774   0.426
 5253TIP3   OH215722   0.723   4.353   1.618
 5253TIP3    H115723   0.787   4.416   1.654
 5253TIP3    H215724   0.678   4.318   1.695
 5254TIP3   OH215725   1.904   5.821   3.966
 5254TIP3    H115726   1.864   5.768   3.897
 5254TIP3    H215727   1.990   5.845   3.931
 5255TIP3   OH215728   6.800   5.967   3.902
 5255TIP3    H115729   6.788   6.037   3.967
 5255TIP3    H215730   6.712   5.946   3.873
 5256TIP3   OH215731   0.256   5.695   3.226
 5256TIP3    H115732   0.232   5.670   3.137
 5256TIP3    H215733   0.181   5.671   3.280
 5257TIP3   OH215734   2.448   4.631   1.304
 5257TIP3    H115735   2.475   4.723   1.299
 5257TIP3    H215736   2.353   4.634   1.313
 5258TIP3   OH215737   6.202   6.661   3.554
 5258TIP3    H115738   6.266   6.702   3.496
 5258TIP3    H215739   6.164   6.733   3.603
 5259TIP3   OH215740   5.619   0.040   3.024
 5259TIP3    H115741   5.612   0.060   2.931
 5259TIP3    H215742   5.529   0.026   3.053
 5260TIP3   OH215743   6.837   6.257   1.942
 5260TIP3    H115744   6.899   6.244   2.014
 5260TIP3    H215745   6.829   6.352   1.934
 5261TIP3   OH215746   1.630   1.180   4.241
 5261TIP3    H115747   1.552   1.127   4.223
 5261TIP3    H215748   1.668   1.195   4.154
 5262TIP3   OH215749   5.116   5.426   1.438
 5262TIP3    H115750   5.095   5.374   1.516
 5262TIP3    H215751   5.206   5.454   1.452
 5263TIP3   OH215752   0.753   1.615   1.435
 5263TIP3    H115753   0.823   1.663   1.478
 5263TIP3    H215754   0.795   1.573   1.360
 5264TIP3   OH215755   4.622   0.790   3.566
 5264TIP3    H115756   4.590   0.714   3.614
 5264TIP3    H215757   4.632   0.759   3.476
 5265TIP3   OH215758   4.362   5.923   0.488
 5265TIP3    H115759   4.289   5.889   0.540
 5265TIP3    H215760   4.354   5.878   0.404
 5266TIP3   OH215761   1.166   4.788   5.553
 5266TIP3    H115762   1.073   4.766   5.552
 5266TIP3    H215763   1.208   4.714   5.510
 5267TIP3   OH215764   3.738   0.793   4.105
 5267TIP3    H115765   3.772   0.724   4.048
 5267TIP3    H215766   3.644   0.776   4.110
 5268TIP3   OH215767   2.140   0.988   3.879
 5268TIP3    H115768   2.132   1.012   3.971
 5268TIP3    H215769   2.104   1.063   3.831
 5269TIP3   OH215770   6.950   2.400   2.726
 5269TIP3    H115771   6.948   2.493   2.746
 5269TIP3    H215772   7.027   2.389   2.671
 5270TIP3   OH215773   5.220   1.815   1.806
 5270TIP3    H115774   5.300   1.801   1.755
 5270TIP3    H215775   5.215   1.911   1.814
 5271TIP3   OH215776   3.311   6.467   0.892
 5271TIP3    H115777   3.355   6.449   0.975
 5271TIP3    H215778   3.367   6.428   0.826
 5272TIP3   OH215779   5.171   3.620   2.654
 5272TIP3    H115780   5.120   3.682   2.602
 5272TIP3    H215781   5.113   3.597   2.727
 5273TIP3   OH215782   1.606   1.925   1.835
 5273TIP3    H115783   1.697   1.901   1.849
 5273TIP3    H215784   1.605   1.972   1.752
 5274TIP3   OH215785   3.348   0.398   2.477
 5274TIP3    H115786   3.361   0.303   2.479
 5274TIP3    H215787   3.327   0.417   2.386
 5275TIP3   OH215788   4.058   5.663   5.793
 5275TIP3    H115789   4.104   5.660   5.709
 5275TIP3    H215790   4.125   5.640   5.858
 5276TIP3   OH215791   5.757   2.488   1.225
 5276TIP3    H115792   5.710   2.460   1.304
 5276TIP3    H215793   5.701   2.556   1.187
 5277TIP3   OH215794   6.035   2.310   0.827
 5277TIP3    H115795   6.081   2.330   0.745
 5277TIP3    H215796   6.103   2.276   0.885
 5278TIP3   OH215797   3.959   3.892   3.867
 5278TIP3    H115798   4.017   3.964   3.894
 5278TIP3    H215799   3.877   3.910   3.913
 5279TIP3   OH215800   4.248   6.349   4.979
 5279TIP3    H115801   4.285   6.312   5.059
 5279TIP3    H215802   4.322   6.356   4.919
 5280TIP3   OH215803   1.655   1.465   0.979
 5280TIP3    H115804   1.739   1.502   1.005
 5280TIP3    H215805   1.657   1.463   0.883
 5281TIP3   OH215806   7.052   3.211   0.054
 5281TIP3    H115807   7.068   3.229  -0.038
 5281TIP3    H215808   6.974   3.156   0.055
 5282TIP3   OH215809   5.679   6.700   0.439
 5282TIP3    H115810   5.747   6.760   0.410
 5282TIP3    H215811   5.666   6.641   0.364
 5283TIP3   OH215812   1.442   5.134   0.364
 5283TIP3    H115813   1.421   5.219   0.326
 5283TIP3    H215814   1.434   5.147   0.459
 5284TIP3   OH215815   1.793   0.080   1.283
 5284TIP3    H115816   1.842  -0.001   1.266
 5284TIP3    H215817   1.702   0.051   1.293
 5285TIP3   OH215818   5.846   0.257   0.133
 5285TIP3    H115819   5.795   0.329   0.096
 5285TIP3    H215820   5.816   0.179   0.086
 5286TIP3   OH215821   3.132   1.497   0.147
 5286TIP3    H115822   3.133   1.427   0.212
 5286TIP3    H215823   3.223   1.526   0.141
 5287TIP3   OH215824   3.162   0.743   5.360
 5287TIP3    H115825   3.196   0.698   5.437
 5287TIP3    H215826   3.078   0.700   5.342
 5288TIP3   OH215827   1.219   3.105   1.261
 5288TIP3    H115828   1.195   3.150   1.181
 5288TIP3    H215829   1.201   3.013   1.243
 5289TIP3   OH215830   0.114   5.565   2.270
 5289TIP3    H115831   0.165   5.516   2.335
 5289TIP3    H215832   0.175   5.576   2.196
 5290TIP3   OH215833   2.829   4.446   5.636
 5290TIP3    H115834   2.808   4.482   5.550
 5290TIP3    H215835   2.871   4.519   5.683
 5291TIP3   OH215836   0.708   1.761   2.755
 5291TIP3    H115837   0.733   1.835   2.810
 5291TIP3    H215838   0.648   1.799   2.691
 5292TIP3   OH215839   2.980   1.133   5.507
 5292TIP3    H115840   2.925   1.056   5.518
 5292TIP3    H215841   2.923   1.198   5.466
 5293TIP3   OH215842   5.805   4.319   5.398
 5293TIP3    H115843   5.806   4.259   5.473
 5293TIP3    H215844   5.724   4.369   5.409
 5294TIP3   OH215845   0.954   5.742   5.477
 5294TIP3    H115846   1.013   5.714   5.407
 5294TIP3    H215847   1.005   5.731   5.557
 5295TIP3   OH215848   5.252   3.907   2.395
 5295TIP3    H115849   5.307   3.880   2.468
 5295TIP3    H215850   5.260   4.002   2.393
 5296TIP3   OH215851   4.465   3.557   3.736
 5296TIP3    H115852   4.429   3.642   3.712
 5296TIP3    H215853   4.426   3.538   3.821
 5297TIP3   OH215854   3.369   2.386   3.766
 5297TIP3    H115855   3.425   2.360   3.839
 5297TIP3    H215856   3.385   2.480   3.755
 5298TIP3   OH215857   2.198   2.935   3.332
 5298TIP3    H115858   2.279   2.947   3.381
 5298TIP3    H215859   2.222   2.949   3.241
 5299TIP3   OH215860   5.580   6.259   0.143
 5299TIP3    H115861   5.642   6.189   0.125
 5299TIP3    H215862   5.546   6.283   0.057
 5300TIP3   OH215863   0.168   0.439   3.065
 5300TIP3    H115864   0.210   0.489   2.995
 5300TIP3    H215865   0.159   0.501   3.137
 5301TIP3   OH215866   4.214   0.802   0.545
 5301TIP3    H115867   4.266   0.829   0.621
 5301TIP3    H215868   4.158   0.877   0.527
 5302TIP3   OH215869   0.209   0.132   0.258
 5302TIP3    H115870   0.198   0.227   0.262
 5302TIP3    H215871   0.150   0.104   0.188
 5303TIP3   OH215872   0.702   5.505   3.990
 5303TIP3    H115873   0.730   5.413   3.984
 5303TIP3    H215874   0.766   5.546   4.048
 5304TIP3   OH215875   2.866   2.820   3.994
 5304TIP3    H115876   2.779   2.817   4.034
 5304TIP3    H215877   2.907   2.897   4.033
 5305TIP3   OH215878   6.217   4.957   2.660
 5305TIP3    H115879   6.153   5.016   2.700
 5305TIP3    H215880   6.240   4.896   2.730
 5306TIP3   OH215881   6.974   0.831   4.595
 5306TIP3    H115882   6.945   0.902   4.651
 5306TIP3    H215883   7.069   0.829   4.605
 5307TIP3   OH215884   3.943   1.084   0.061
 5307TIP3    H115885   4.009   1.068  -0.006
 5307TIP3    H215886   3.993   1.095   0.142
 5308TIP3   OH215887   0.881   3.352   1.333
 5308TIP3    H115888   0.947   3.414   1.364
 5308TIP3    H215889   0.858   3.384   1.245
 5309TIP3   OH215890   6.104   2.588   5.900
 5309TIP3    H115891   6.156   2.598   5.820
 5309TIP3    H215892   6.150   2.520   5.950
 5310TIP3   OH215893   6.299   1.209   5.101
 5310TIP3    H115894   6.366   1.188   5.035
 5310TIP3    H215895   6.347   1.250   5.172
 5311TIP3   OH215896   5.520   1.417   0.014
 5311TIP3    H115897   5.446   1.479   0.017
 5311TIP3    H215898   5.588   1.459   0.068
 5312TIP3   OH215899   0.309   2.447   4.435
 5312TIP3    H115900   0.344   2.495   4.360
 5312TIP3    H215901   0.367   2.469   4.508
 5313TIP3   OH215902   1.510   1.432   1.419
 5313TIP3    H115903   1.569   1.366   1.385
 5313TIP3    H215904   1.517   1.506   1.358
 5314TIP3   OH215905   6.528   1.248   4.886
 5314TIP3    H115906   6.555   1.177   4.944
 5314TIP3    H215907   6.591   1.245   4.814
 5315TIP3   OH215908   5.183   0.944   0.461
 5315TIP3    H115909   5.246   0.879   0.432
 5315TIP3    H215910   5.237   1.018   0.490
 5316TIP3   OH215911   2.969   3.903   3.716
 5316TIP3    H115912   2.985   3.985   3.762
 5316TIP3    H215913   2.988   3.922   3.624
 5317TIP3   OH215914   3.936   4.727   3.470
 5317TIP3    H115915   3.846   4.726   3.437
 5317TIP3    H215916   3.988   4.691   3.398
 5318TIP3   OH215917   6.412   1.392   3.588
 5318TIP3    H115918   6.350   1.336   3.541
 5318TIP3    H215919   6.383   1.388   3.679
 5319TIP3   OH215920   3.150   1.853   4.114
 5319TIP3    H115921   3.087   1.848   4.185
 5319TIP3    H215922   3.097   1.850   4.034
 5320TIP3   OH215923   2.770   5.624   1.846
 5320TIP3    H115924   2.748   5.591   1.758
 5320TIP3    H215925   2.801   5.547   1.893
 5321TIP3   OH215926   1.306   2.215   0.190
 5321TIP3    H115927   1.279   2.124   0.209
 5321TIP3    H215928   1.401   2.211   0.185
 5322TIP3   OH215929   4.456   6.573   2.102
 5322TIP3    H115930   4.420   6.517   2.171
 5322TIP3    H215931   4.390   6.569   2.032
 5323TIP3   OH215932   4.562   0.952   5.502
 5323TIP3    H115933   4.637   0.998   5.541
 5323TIP3    H215934   4.522   1.017   5.444
 5324TIP3   OH215935   6.408   1.293   1.049
 5324TIP3    H115936   6.331   1.237   1.052
 5324TIP3    H215937   6.466   1.252   0.985
 5325TIP3   OH215938   2.102   3.142   4.118
 5325TIP3    H115939   2.092   3.058   4.161
 5325TIP3    H215940   2.019   3.155   4.071
 5326TIP3   OH215941   2.287   4.498   1.015
 5326TIP3    H115942   2.255   4.434   0.951
 5326TIP3    H215943   2.209   4.525   1.063
 5327TIP3   OH215944   2.904   5.594   3.563
 5327TIP3    H115945   2.977   5.617   3.619
 5327TIP3    H215946   2.943   5.569   3.480
 5328TIP3   OH215947   0.868   0.155   1.868
 5328TIP3    H115948   0.949   0.207   1.865
 5328TIP3    H215949   0.898   0.066   1.889
 5329TIP3   OH215950   5.049   0.184   2.911
 5329TIP3    H115951   5.025   0.102   2.953
 5329TIP3    H215952   4.980   0.199   2.846
 5330TIP3   OH215953   6.675   6.254   3.242
 5330TIP3    H115954   6.640   6.310   3.173
 5330TIP3    H215955   6.724   6.186   3.196
 5331TIP3   OH215956   3.206   1.800   1.286
 5331TIP3    H115957   3.271   1.730   1.276
 5331TIP3    H215958   3.233   1.847   1.365
 5332TIP3   OH215959   7.082   5.449   2.861
 5332TIP3    H115960   7.030   5.405   2.928
 5332TIP3    H215961   7.040   5.426   2.778
 5333TIP3   OH215962   3.426   2.756   4.475
 5333TIP3    H115963   3.403   2.836   4.428
 5333TIP3    H215964   3.503   2.723   4.431
 5334TIP3   OH215965   0.445   0.383   4.750
 5334TIP3    H115966   0.397   0.419   4.825
 5334TIP3    H215967   0.493   0.457   4.714
 5335TIP3   OH215968   2.100   4.175   0.030
 5335TIP3    H115969   2.185   4.178   0.075
 5335TIP3    H215970   2.104   4.248  -0.032
 5336TIP3   OH215971   3.526   4.330   3.011
 5336TIP3    H115972   3.493   4.351   2.924
 5336TIP3    H215973   3.569   4.410   3.041
 5337TIP3   OH215974   5.303   3.299   3.293
 5337TIP3    H115975   5.244   3.339   3.357
 5337TIP3    H215976   5.311   3.365   3.224
 5338TIP3   OH215977   2.101   3.560   5.467
 5338TIP3    H115978   2.145   3.596   5.390
 5338TIP3    H215979   2.069   3.636   5.515
 5339TIP3   OH215980   6.129   5.674   2.558
 5339TIP3    H115981   6.082   5.689   2.476
 5339TIP3    H215982   6.180   5.595   2.542
 5340TIP3   OH215983   2.433   5.940   5.769
 5340TIP3    H115984   2.380   5.945   5.849
 5340TIP3    H215985   2.372   5.962   5.698
 5341TIP3   OH215986   4.485   2.895   0.311
 5341TIP3    H115987   4.528   2.978   0.329
 5341TIP3    H215988   4.410   2.894   0.370
 5342TIP3   OH215989   1.123   1.284   5.633
 5342TIP3    H115990   1.186   1.296   5.561
 5342TIP3    H215991   1.157   1.209   5.682
 5343TIP3   OH215992   7.027   3.000   2.610
 5343TIP3    H115993   6.998   2.912   2.588
 5343TIP3    H215994   7.116   3.005   2.574
 5344TIP3   OH215995   4.356   3.005   4.379
 5344TIP3    H115996   4.392   2.976   4.296
 5344TIP3    H215997   4.324   3.093   4.362
 5345TIP3   OH215998   2.881   1.660   3.690
 5345TIP3    H115999   2.907   1.681   3.600
 5345TIP3    H216000   2.952   1.606   3.723
 5346TIP3   OH216001   2.096   5.182   3.756
 5346TIP3    H116002   2.045   5.155   3.832
 5346TIP3    H216003   2.031   5.200   3.688
 5347TIP3   OH216004   1.355   5.208   3.294
 5347TIP3    H116005   1.311   5.243   3.216
 5347TIP3    H216006   1.339   5.273   3.362
 5348TIP3   OH216007   1.139   5.758   0.995
 5348TIP3    H116008   1.070   5.696   1.016
 5348TIP3    H216009   1.095   5.843   0.994
 5349TIP3   OH216010   6.205   6.347   2.022
 5349TIP3    H116011   6.118   6.382   2.003
 5349TIP3    H216012   6.220   6.282   1.954
 5350TIP3   OH216013   0.836   5.125   2.681
 5350TIP3    H116014   0.848   5.093   2.770
 5350TIP3    H216015   0.791   5.209   2.692
 5351TIP3   OH216016   6.616   6.142   3.677
 5351TIP3    H116017   6.644   6.051   3.663
 5351TIP3    H216018   6.653   6.190   3.603
 5352TIP3   OH216019   4.943   6.557   5.082
 5352TIP3    H116020   5.026   6.526   5.120
 5352TIP3    H216021   4.968   6.590   4.995
 5353TIP3   OH216022   6.219   0.295   4.748
 5353TIP3    H116023   6.213   0.286   4.653
 5353TIP3    H216024   6.228   0.206   4.781
 5354TIP3   OH216025   1.434   0.415   3.311
 5354TIP3    H116026   1.351   0.450   3.278
 5354TIP3    H216027   1.464   0.357   3.241
 5355TIP3   OH216028   4.304   4.594   5.204
 5355TIP3    H116029   4.395   4.589   5.235
 5355TIP3    H216030   4.256   4.636   5.275
 5356TIP3   OH216031   3.638   0.382   1.971
 5356TIP3    H116032   3.634   0.330   1.891
 5356TIP3    H216033   3.589   0.331   2.036
 5357TIP3   OH216034   2.957   0.083   3.127
 5357TIP3    H116035   2.925   0.103   3.215
 5357TIP3    H216036   2.934   0.160   3.075
 5358TIP3   OH216037   0.721   4.634   0.446
 5358TIP3    H116038   0.631   4.659   0.465
 5358TIP3    H216039   0.724   4.624   0.351
 5359TIP3   OH216040   3.688   0.986   5.350
 5359TIP3    H116041   3.599   0.959   5.371
 5359TIP3    H216042   3.687   1.006   5.257
 5360TIP3   OH216043   0.852   5.672   0.922
 5360TIP3    H116044   0.765   5.633   0.917
 5360TIP3    H216045   0.841   5.760   0.887
 5361TIP3   OH216046   4.289   0.707   3.954
 5361TIP3    H116047   4.218   0.739   4.009
 5361TIP3    H216048   4.312   0.621   3.990
 5362TIP3   OH216049   6.736   0.142   4.529
 5362TIP3    H116050   6.821   0.182   4.509
 5362TIP3    H216051   6.713   0.177   4.615
 5363TIP3   OH216052   2.067   0.329   2.943
 5363TIP3    H116053   2.022   0.339   2.859
 5363TIP3    H216054   2.074   0.234   2.955
 5364TIP3   OH216055   6.951   0.876   5.169
 5364TIP3    H116056   6.883   0.846   5.229
 5364TIP3    H216057   7.033   0.846   5.209
 5365TIP3   OH216058   1.862   5.539   5.475
 5365TIP3    H116059   1.782   5.567   5.432
 5365TIP3    H216060   1.895   5.468   5.420
 5366TIP3   OH216061   0.503   2.524   4.236
 5366TIP3    H116062   0.455   2.451   4.196
 5366TIP3    H216063   0.581   2.534   4.181
 5367TIP3   OH216064   5.357   1.361   5.751
 5367TIP3    H116065   5.287   1.360   5.816
 5367TIP3    H216066   5.313   1.341   5.668
 5368TIP3   OH216067   3.759   3.137   4.752
 5368TIP3    H116068   3.702   3.073   4.709
 5368TIP3    H216069   3.731   3.221   4.716
 5369TIP3   OH216070   2.069   5.007   2.411
 5369TIP3    H116071   2.132   5.057   2.463
 5369TIP3    H216072   2.071   5.049   2.324
 5370TIP3   OH216073   6.376   1.540   5.804
 5370TIP3    H116074   6.352   1.474   5.869
 5370TIP3    H216075   6.382   1.622   5.853
 5371TIP3   OH216076   0.445   6.095   5.179
 5371TIP3    H116077   0.365   6.125   5.135
 5371TIP3    H216078   0.480   6.028   5.121
 5372TIP3   OH216079   3.127   5.691   4.154
 5372TIP3    H116080   3.044   5.738   4.145
 5372TIP3    H216081   3.123   5.623   4.086
 5373TIP3   OH216082   6.546   1.374   2.773
 5373TIP3    H116083   6.572   1.282   2.778
 5373TIP3    H216084   6.596   1.418   2.841
 5374TIP3   OH216085   1.208   4.089   5.261
 5374TIP3    H116086   1.283   4.147   5.273
 5374TIP3    H216087   1.167   4.085   5.347
 5375TIP3   OH216088   0.348   5.968   1.739
 5375TIP3    H116089   0.274   5.986   1.681
 5375TIP3    H216090   0.339   6.033   1.809
 5376TIP3   OH216091   0.192   1.655   4.972
 5376TIP3    H116092   0.163   1.648   4.881
 5376TIP3    H216093   0.274   1.605   4.974
 5377TIP3   OH216094   0.096   2.579   4.829
 5377TIP3    H116095   0.107   2.673   4.812
 5377TIP3    H216096   0.008   2.572   4.867
 5378TIP3   OH216097   1.692   4.759   1.808
 5378TIP3    H116098   1.613   4.733   1.762
 5378TIP3    H216099   1.665   4.766   1.900
 5379TIP3   OH216100   6.360   2.559   4.114
 5379TIP3    H116101   6.309   2.586   4.191
 5379TIP3    H216102   6.367   2.639   4.062
 5380TIP3   OH216103   6.156   1.094   0.993
 5380TIP3    H116104   6.100   1.133   1.061
 5380TIP3    H216105   6.129   1.138   0.913
 5381TIP3   OH216106   0.630   2.739   4.866
 5381TIP3    H116107   0.694   2.759   4.797
 5381TIP3    H216108   0.646   2.805   4.933
 5382TIP3   OH216109   5.019   6.376   2.636
 5382TIP3    H116110   4.991   6.291   2.669
 5382TIP3    H216111   5.114   6.375   2.643
 5383TIP3   OH216112   1.662   3.421   4.313
 5383TIP3    H116113   1.674   3.327   4.328
 5383TIP3    H216114   1.602   3.449   4.382
 5384TIP3   OH216115   0.648   3.653   5.768
 5384TIP3    H116116   0.642   3.742   5.734
 5384TIP3    H216117   0.642   3.662   5.863
 5385TIP3   OH216118   3.099   3.723   0.213
 5385TIP3    H116119   3.188   3.757   0.221
 5385TIP3    H216120   3.090   3.698   0.121
 5386TIP3   OH216121   3.908   1.699   2.267
 5386TIP3    H116122   3.863   1.783   2.254
 5386TIP3    H216123   3.892   1.677   2.359
 5387TIP3   OH216124   2.168   0.279   0.658
 5387TIP3    H116125   2.100   0.219   0.691
 5387TIP3    H216126   2.250   0.239   0.687
 5388TIP3   OH216127   0.384   0.750   5.777
 5388TIP3    H116128   0.438   0.679   5.809
 5388TIP3    H216129   0.373   0.733   5.684
 5389TIP3   OH216130   1.417   5.254   5.633
 5389TIP3    H116131   1.369   5.204   5.699
 5389TIP3    H216132   1.484   5.301   5.683
 5390TIP3   OH216133   2.749   3.800   3.121
 5390TIP3    H116134   2.698   3.811   3.041
 5390TIP3    H216135   2.827   3.855   3.108
 5391TIP3   OH216136   5.739   1.954   4.766
 5391TIP3    H116137   5.799   1.883   4.790
 5391TIP3    H216138   5.745   1.959   4.671
 5392TIP3   OH216139   5.119   3.280   3.922
 5392TIP3    H116140   5.033   3.309   3.891
 5392TIP3    H216141   5.102   3.194   3.962
 5393TIP3   OH216142   1.185   3.900   2.868
 5393TIP3    H116143   1.113   3.942   2.914
 5393TIP3    H216144   1.263   3.950   2.894
 5394TIP3   OH216145   2.256   2.399   1.716
 5394TIP3    H116146   2.330   2.348   1.747
 5394TIP3    H216147   2.191   2.334   1.689
 5395TIP3   OH216148   1.375   4.693   2.218
 5395TIP3    H116149   1.287   4.654   2.220
 5395TIP3    H216150   1.362   4.782   2.252
 5396TIP3   OH216151   2.267   0.630   1.218
 5396TIP3    H116152   2.255   0.724   1.229
 5396TIP3    H216153   2.358   0.621   1.187
 5397TIP3   OH216154   1.196   5.669   5.348
 5397TIP3    H116155   1.228   5.605   5.412
 5397TIP3    H216156   1.267   5.679   5.286
 5398TIP3   OH216157   1.354   3.937   3.964
 5398TIP3    H116158   1.431   3.959   3.912
 5398TIP3    H216159   1.287   3.999   3.936
 5399TIP3   OH216160   4.295   5.663   3.072
 5399TIP3    H116161   4.329   5.747   3.104
 5399TIP3    H216162   4.324   5.660   2.981
 5400TIP3   OH216163   6.965   6.564   3.160
 5400TIP3    H116164   6.968   6.536   3.252
 5400TIP3    H216165   7.011   6.648   3.160
 5401TIP3   OH216166   5.997   5.711   4.360
 5401TIP3    H116167   6.017   5.632   4.409
 5401TIP3    H216168   5.910   5.695   4.322
 5402TIP3   OH216169   0.907   5.881   4.707
 5402TIP3    H116170   0.985   5.919   4.666
 5402TIP3    H216171   0.927   5.883   4.801
 5403TIP3   OH216172   0.903   6.269   4.507
 5403TIP3    H116173   0.840   6.341   4.513
 5403TIP3    H216174   0.852   6.191   4.531
 5404TIP3   OH216175   4.022   6.210   5.319
 5404TIP3    H116176   4.098   6.266   5.338
 5404TIP3    H216177   3.946   6.267   5.332
 5405TIP3   OH216178   0.199   5.227   2.728
 5405TIP3    H116179   0.259   5.160   2.696
 5405TIP3    H216180   0.124   5.178   2.762
 5406TIP3   OH216181   5.055   2.803   0.259
 5406TIP3    H116182   4.984   2.750   0.223
 5406TIP3    H216183   5.090   2.751   0.332
 5407TIP3   OH216184   3.174   6.118   4.560
 5407TIP3    H116185   3.172   6.036   4.509
 5407TIP3    H216186   3.260   6.117   4.601
 5408TIP3   OH216187   5.998   5.328   2.217
 5408TIP3    H116188   5.968   5.245   2.255
 5408TIP3    H216189   6.084   5.342   2.256
 5409TIP3   OH216190   4.795   5.267   2.652
 5409TIP3    H116191   4.814   5.355   2.619
 5409TIP3    H216192   4.748   5.281   2.734
 5410TIP3   OH216193   4.400   1.710   2.735
 5410TIP3    H116194   4.391   1.626   2.690
 5410TIP3    H216195   4.460   1.760   2.680
 5411TIP3   OH216196   2.420   0.052   4.646
 5411TIP3    H116197   2.357  -0.016   4.622
 5411TIP3    H216198   2.376   0.103   4.714
 5412TIP3   OH216199   3.734   2.079   4.981
 5412TIP3    H116200   3.806   2.143   4.982
 5412TIP3    H216201   3.777   1.994   4.987
 5413TIP3   OH216202   4.613   1.553   0.901
 5413TIP3    H116203   4.614   1.646   0.876
 5413TIP3    H216204   4.684   1.544   0.965
 5414TIP3   OH216205   1.340   0.948   4.308
 5414TIP3    H116206   1.375   0.897   4.381
 5414TIP3    H216207   1.335   1.038   4.341
 5415TIP3   OH216208   1.032   0.452   3.443
 5415TIP3    H116209   0.939   0.441   3.462
 5415TIP3    H216210   1.037   0.457   3.348
 5416TIP3   OH216211   1.337   4.557   1.046
 5416TIP3    H116212   1.306   4.601   1.125
 5416TIP3    H216213   1.400   4.619   1.008
 5417TIP3   OH216214   1.413   0.300   2.823
 5417TIP3    H116215   1.477   0.273   2.758
 5417TIP3    H216216   1.332   0.256   2.798
 5418TIP3   OH216217   1.989   5.306   2.348
 5418TIP3    H116218   2.020   5.272   2.264
 5418TIP3    H216219   2.016   5.398   2.348
 5419TIP3   OH216220   7.113   5.605   4.378
 5419TIP3    H116221   7.136   5.591   4.470
 5419TIP3    H216222   7.197   5.605   4.332
 5420TIP3   OH216223   5.235   2.250   3.494
 5420TIP3    H116224   5.295   2.187   3.453
 5420TIP3    H216225   5.148   2.224   3.463
 5421TIP3   OH216226   0.874   5.313   1.658
 5421TIP3    H116227   0.786   5.289   1.629
 5421TIP3    H216228   0.859   5.376   1.729
 5422TIP3   OH216229   0.313   1.958   3.761
 5422TIP3    H116230   0.257   1.882   3.779
 5422TIP3    H216231   0.268   2.031   3.804
 5423TIP3   OH216232   3.651   6.135   3.709
 5423TIP3    H116233   3.617   6.046   3.705
 5423TIP3    H216234   3.689   6.150   3.622
 5424TIP3   OH216235   3.813   2.237   0.036
 5424TIP3    H116236   3.738   2.256  -0.021
 5424TIP3    H216237   3.795   2.149   0.070
 5425TIP3   OH216238   5.645   2.786   2.875
 5425TIP3    H116239   5.706   2.825   2.813
 5425TIP3    H216240   5.674   2.695   2.883
 5426TIP3   OH216241   6.949   0.482   0.670
 5426TIP3    H116242   6.854   0.489   0.661
 5426TIP3    H216243   6.977   0.569   0.699
 5427TIP3   OH216244   3.369   3.123   2.408
 5427TIP3    H116245   3.325   3.141   2.325
 5427TIP3    H216246   3.391   3.030   2.404
 5428TIP3   OH216247   2.038   1.632   3.693
 5428TIP3    H116248   2.127   1.628   3.659
 5428TIP3    H216249   1.983   1.648   3.617
 5429TIP3   OH216250   4.920   2.183   2.980
 5429TIP3    H116251   5.009   2.185   2.947
 5429TIP3    H216252   4.865   2.194   2.902
 5430TIP3   OH216253   7.175   5.864   5.403
 5430TIP3    H116254   7.121   5.850   5.481
 5430TIP3    H216255   7.128   5.819   5.333
 5431TIP3   OH216256   0.107   2.414   0.943
 5431TIP3    H116257   0.173   2.454   1.000
 5431TIP3    H216258   0.094   2.326   0.980
 5432TIP3   OH216259   3.564   4.176   4.084
 5432TIP3    H116260   3.474   4.145   4.075
 5432TIP3    H216261   3.556   4.269   4.101
 5433TIP3   OH216262   4.269   5.501   1.109
 5433TIP3    H116263   4.337   5.523   1.173
 5433TIP3    H216264   4.222   5.427   1.147
 5434TIP3   OH216265   5.873   2.166   3.057
 5434TIP3    H116266   5.785   2.190   3.027
 5434TIP3    H216267   5.926   2.243   3.040
 5435TIP3   OH216268   5.737   5.400   4.604
 5435TIP3    H116269   5.790   5.460   4.552
 5435TIP3    H216270   5.654   5.393   4.557
 5436TIP3   OH216271   1.116   1.518   1.627
 5436TIP3    H116272   1.185   1.547   1.688
 5436TIP3    H216273   1.161   1.458   1.567
 5437TIP3   OH216274   4.892   6.654   4.810
 5437TIP3    H116275   4.811   6.705   4.806
 5437TIP3    H216276   4.958   6.717   4.841
 5438TIP3   OH216277   2.572   3.195   2.058
 5438TIP3    H116278   2.488   3.149   2.063
 5438TIP3    H216279   2.570   3.238   1.972
 5439TIP3   OH216280   1.924   5.598   3.770
 5439TIP3    H116281   1.992   5.577   3.834
 5439TIP3    H216282   1.959   5.568   3.687
 5440TIP3   OH216283   5.493   0.824   2.423
 5440TIP3    H116284   5.476   0.745   2.475
 5440TIP3    H216285   5.588   0.825   2.411
 5441TIP3   OH216286   1.428   0.911   2.046
 5441TIP3    H116287   1.411   0.830   1.999
 5441TIP3    H216288   1.342   0.938   2.080
 5442TIP3   OH216289   0.056   2.853   2.738
 5442TIP3    H116290   0.118   2.784   2.763
 5442TIP3    H216291   0.021   2.825   2.653
 5443TIP3   OH216292   2.814   0.232   4.395
 5443TIP3    H116293   2.754   0.270   4.459
 5443TIP3    H216294   2.806   0.289   4.318
 5444TIP3   OH216295   4.959   0.899   2.719
 5444TIP3    H116296   4.928   0.818   2.760
 5444TIP3    H216297   4.894   0.964   2.744
 5445TIP3   OH216298   2.017   5.145   2.920
 5445TIP3    H116299   1.926   5.127   2.944
 5445TIP3    H216300   2.011   5.186   2.834
 5446TIP3   OH216301   5.488   6.176   0.636
 5446TIP3    H116302   5.397   6.153   0.618
 5446TIP3    H216303   5.520   6.213   0.554
 5447TIP3   OH216304   2.754   4.806   2.316
 5447TIP3    H116305   2.672   4.774   2.354
 5447TIP3    H216306   2.822   4.754   2.359
 5448TIP3   OH216307   5.922   4.571   5.390
 5448TIP3    H116308   5.961   4.598   5.306
 5448TIP3    H216309   5.874   4.491   5.369
 5449TIP3   OH216310   1.033   5.995   0.976
 5449TIP3    H116311   0.995   6.048   0.906
 5449TIP3    H216312   1.114   6.040   1.000
 5450TIP3   OH216313   7.092   1.965   5.541
 5450TIP3    H116314   7.049   1.917   5.611
 5450TIP3    H216315   7.037   2.042   5.528
 5451TIP3   OH216316   5.816   2.876   1.269
 5451TIP3    H116317   5.784   2.876   1.178
 5451TIP3    H216318   5.869   2.955   1.275
 5452TIP3   OH216319   0.918   3.448   5.904
 5452TIP3    H116320   0.823   3.452   5.890
 5452TIP3    H216321   0.946   3.367   5.862
 5453TIP3   OH216322   3.593   0.202   1.781
 5453TIP3    H116323   3.529   0.226   1.714
 5453TIP3    H216324   3.575   0.109   1.799
 5454TIP3   OH216325   2.090   1.728   4.749
 5454TIP3    H116326   2.083   1.715   4.655
 5454TIP3    H216327   2.068   1.644   4.788
 5455TIP3   OH216328   1.161   4.993   3.498
 5455TIP3    H116329   1.229   4.928   3.485
 5455TIP3    H216330   1.096   4.974   3.431
 5456TIP3   OH216331   4.659   0.287   4.137
 5456TIP3    H116332   4.587   0.237   4.099
 5456TIP3    H216333   4.702   0.226   4.197
 5457TIP3   OH216334   5.219   5.866   5.041
 5457TIP3    H116335   5.306   5.851   5.080
 5457TIP3    H216336   5.228   5.948   4.993
 5458TIP3   OH216337   7.217   3.859   4.096
 5458TIP3    H116338   7.227   3.925   4.027
 5458TIP3    H216339   7.186   3.908   4.172
 5459TIP3   OH216340   2.457   0.472   5.347
 5459TIP3    H116341   2.530   0.417   5.377
 5459TIP3    H216342   2.397   0.411   5.304
 5460TIP3   OH216343   0.461   3.082   0.051
 5460TIP3    H116344   0.528   3.140   0.087
 5460TIP3    H216345   0.381   3.105   0.098
 5461TIP3   OH216346   4.969   2.796   0.704
 5461TIP3    H116347   5.006   2.884   0.691
 5461TIP3    H216348   4.882   2.812   0.740
 5462TIP3   OH216349   1.919   3.692   2.472
 5462TIP3    H116350   1.937   3.660   2.383
 5462TIP3    H216351   1.941   3.785   2.469
 5463TIP3   OH216352   1.887   1.320   4.341
 5463TIP3    H116353   1.838   1.258   4.395
 5463TIP3    H216354   1.833   1.331   4.263
 5464TIP3   OH216355   1.825   0.346   1.234
 5464TIP3    H116356   1.806   0.268   1.286
 5464TIP3    H216357   1.917   0.365   1.252
 5465TIP3   OH216358   0.161   1.541   5.309
 5465TIP3    H116359   0.069   1.562   5.323
 5465TIP3    H216360   0.204   1.626   5.298
 5466TIP3   OH216361   6.069   3.397   5.306
 5466TIP3    H116362   6.011   3.467   5.276
 5466TIP3    H216363   6.133   3.386   5.234
 5467TIP3   OH216364   2.219   4.628   3.514
 5467TIP3    H116365   2.311   4.637   3.490
 5467TIP3    H216366   2.202   4.534   3.503
 5468TIP3   OH216367   2.624   5.391   2.509
 5468TIP3    H116368   2.627   5.471   2.456
 5468TIP3    H216369   2.708   5.388   2.554
 5469TIP3   OH216370   5.747   3.388   0.133
 5469TIP3    H116371   5.733   3.336   0.212
 5469TIP3    H216372   5.700   3.341   0.065
 5470TIP3   OH216373   0.911   6.203   0.772
 5470TIP3    H116374   0.944   6.291   0.793
 5470TIP3    H216375   0.816   6.210   0.782
 5471TIP3   OH216376   2.182   5.022   1.215
 5471TIP3    H116377   2.253   5.049   1.157
 5471TIP3    H216378   2.221   5.024   1.303
 5472TIP3   OH216379   4.775   1.623   3.190
 5472TIP3    H116380   4.835   1.598   3.120
 5472TIP3    H216381   4.688   1.614   3.152
 5473TIP3   OH216382   1.665   0.164   0.988
 5473TIP3    H116383   1.608   0.218   0.932
 5473TIP3    H216384   1.663   0.207   1.073
 5474TIP3   OH216385   1.895   1.300   1.389
 5474TIP3    H116386   1.890   1.396   1.380
 5474TIP3    H216387   1.803   1.272   1.394
 5475TIP3   OH216388   2.123   2.075   2.893
 5475TIP3    H116389   2.177   1.998   2.878
 5475TIP3    H216390   2.066   2.080   2.816
 5476TIP3   OH216391   3.935   3.814   3.617
 5476TIP3    H116392   3.983   3.888   3.580
 5476TIP3    H216393   3.928   3.834   3.711
 5477TIP3   OH216394   3.071   5.099   4.953
 5477TIP3    H116395   3.098   5.007   4.950
 5477TIP3    H216396   2.980   5.096   4.985
 5478TIP3   OH216397   3.714   6.702   3.844
 5478TIP3    H116398   3.660   6.777   3.871
 5478TIP3    H216399   3.804   6.732   3.857
 5479TIP3   OH216400   0.776   6.453   0.497
 5479TIP3    H116401   0.823   6.512   0.439
 5479TIP3    H216402   0.827   6.452   0.578
 5480TIP3   OH216403   6.407   4.523   3.253
 5480TIP3    H116404   6.435   4.439   3.291
 5480TIP3    H216405   6.485   4.578   3.257
 5481TIP3   OH216406   5.960   2.693   1.091
 5481TIP3    H116407   5.897   2.650   1.150
 5481TIP3    H216408   6.003   2.759   1.146
 5482TIP3   OH216409   6.562   6.091   4.583
 5482TIP3    H116410   6.534   6.073   4.672
 5482TIP3    H216411   6.623   6.021   4.562
 5483TIP3   OH216412   2.634   5.395   3.174
 5483TIP3    H116413   2.569   5.456   3.140
 5483TIP3    H216414   2.653   5.426   3.263
 5484TIP3   OH216415   0.458   2.616   3.146
 5484TIP3    H116416   0.368   2.584   3.143
 5484TIP3    H216417   0.492   2.585   3.230
 5485TIP3   OH216418   7.131   4.197   1.817
 5485TIP3    H116419   7.143   4.252   1.740
 5485TIP3    H216420   7.177   4.116   1.796
 5486TIP3   OH216421   5.884   5.400   4.143
 5486TIP3    H116422   5.921   5.462   4.205
 5486TIP3    H216423   5.789   5.409   4.153
 5487TIP3   OH216424   4.181   3.304   3.968
 5487TIP3    H116425   4.143   3.217   3.954
 5487TIP3    H216426   4.239   3.317   3.894
 5488TIP3   OH216427   3.120   4.656   4.180
 5488TIP3    H116428   3.110   4.638   4.274
 5488TIP3    H216429   3.069   4.587   4.138
 5489TIP3   OH216430   6.887   5.678   5.844
 5489TIP3    H116431   6.964   5.687   5.788
 5489TIP3    H216432   6.851   5.592   5.822
 5490TIP3   OH216433   4.844   4.159   3.170
 5490TIP3    H116434   4.837   4.063   3.172
 5490TIP3    H216435   4.753   4.189   3.175
 5491TIP3   OH216436   1.378   6.184   2.475
 5491TIP3    H116437   1.448   6.121   2.456
 5491TIP3    H216438   1.339   6.152   2.556
 5492TIP3   OH216439   1.755   0.910   5.243
 5492TIP3    H116440   1.746   0.942   5.333
 5492TIP3    H216441   1.666   0.910   5.209
 5493TIP3   OH216442   4.672   2.518   3.404
 5493TIP3    H116443   4.600   2.544   3.346
 5493TIP3    H216444   4.740   2.486   3.345
 5494TIP3   OH216445   2.538   6.060   4.641
 5494TIP3    H116446   2.585   5.987   4.601
 5494TIP3    H216447   2.605   6.109   4.689
 5495TIP3   OH216448   0.667   6.644   4.888
 5495TIP3    H116449   0.651   6.665   4.796
 5495TIP3    H216450   0.732   6.708   4.917
 5496TIP3   OH216451   3.428   6.721   1.178
 5496TIP3    H116452   3.449   6.633   1.147
 5496TIP3    H216453   3.343   6.741   1.137
 5497TIP3   OH216454   4.128   5.711   1.452
 5497TIP3    H116455   4.207   5.657   1.455
 5497TIP3    H216456   4.107   5.718   1.359
 5498TIP3   OH216457   0.975   4.575   0.505
 5498TIP3    H116458   0.985   4.487   0.467
 5498TIP3    H216459   0.885   4.599   0.485
 5499TIP3   OH216460   1.094   4.815   2.139
 5499TIP3    H116461   1.098   4.727   2.178
 5499TIP3    H216462   1.176   4.823   2.090
 5500TIP3   OH216463   3.710   0.521   4.845
 5500TIP3    H116464   3.754   0.453   4.896
 5500TIP3    H216465   3.654   0.566   4.908
 5501TIP3   OH216466   0.411   0.477   1.012
 5501TIP3    H116467   0.471   0.492   1.085
 5501TIP3    H216468   0.430   0.387   0.984
 5502TIP3   OH216469   5.705   0.065   5.804
 5502TIP3    H116470   5.711   0.160   5.801
 5502TIP3    H216471   5.796   0.035   5.801
 5503TIP3   OH216472   0.639   6.047   1.227
 5503TIP3    H116473   0.544   6.054   1.214
 5503TIP3    H216474   0.675   6.061   1.139
 5504TIP3   OH216475   3.723   3.560   1.216
 5504TIP3    H116476   3.704   3.480   1.165
 5504TIP3    H216477   3.682   3.545   1.301
 5505TIP3   OH216478   4.857   5.604   3.912
 5505TIP3    H116479   4.771   5.646   3.919
 5505TIP3    H216480   4.853   5.556   3.829
 5506TIP3   OH216481   1.974   6.198   2.012
 5506TIP3    H116482   2.027   6.251   1.953
 5506TIP3    H216483   1.939   6.128   1.957
 5507TIP3   OH216484   0.183   4.902   3.965
 5507TIP3    H116485   0.154   4.841   3.897
 5507TIP3    H216486   0.103   4.926   4.012
 5508TIP3   OH216487   2.263   1.394   4.133
 5508TIP3    H116488   2.221   1.436   4.058
 5508TIP3    H216489   2.353   1.424   4.130
 5509TIP3   OH216490   4.512   6.651   3.472
 5509TIP3    H116491   4.429   6.696   3.452
 5509TIP3    H216492   4.494   6.600   3.550
 5510TIP3   OH216493   6.350   3.738   2.145
 5510TIP3    H116494   6.310   3.806   2.090
 5510TIP3    H216495   6.329   3.656   2.101
 5511TIP3   OH216496   1.245   5.101   0.185
 5511TIP3    H116497   1.327   5.092   0.233
 5511TIP3    H216498   1.197   5.170   0.231
 5512TIP3   OH216499   0.707   4.383   5.201
 5512TIP3    H116500   0.775   4.316   5.204
 5512TIP3    H216501   0.642   4.349   5.140
 5513TIP3   OH216502   0.294   1.782   5.193
 5513TIP3    H116503   0.255   1.726   5.126
 5513TIP3    H216504   0.373   1.817   5.153
 5514TIP3   OH216505   4.387   3.227   5.493
 5514TIP3    H116506   4.420   3.150   5.447
 5514TIP3    H216507   4.360   3.287   5.423
 5515TIP3   OH216508   4.173   3.039   1.218
 5515TIP3    H116509   4.206   3.104   1.156
 5515TIP3    H216510   4.084   3.067   1.238
 5516TIP3   OH216511   5.711   5.997   4.113
 5516TIP3    H116512   5.715   5.992   4.017
 5516TIP3    H216513   5.634   6.052   4.130
 5517TIP3   OH216514   0.515   4.159   3.176
 5517TIP3    H116515   0.591   4.205   3.210
 5517TIP3    H216516   0.535   4.066   3.186
 5518TIP3   OH216517   3.204   1.686   0.813
 5518TIP3    H116518   3.139   1.616   0.814
 5518TIP3    H216519   3.177   1.746   0.882
 5519TIP3   OH216520   1.575   6.264   5.658
 5519TIP3    H116521   1.644   6.275   5.593
 5519TIP3    H216522   1.611   6.203   5.722
 5520TIP3   OH216523   2.512   1.940   2.773
 5520TIP3    H116524   2.421   1.909   2.766
 5520TIP3    H216525   2.557   1.872   2.822
 5521TIP3   OH216526   2.240   3.348   2.759
 5521TIP3    H116527   2.326   3.389   2.757
 5521TIP3    H216528   2.179   3.420   2.777
 5522TIP3   OH216529   4.257   2.183   5.296
 5522TIP3    H116530   4.334   2.203   5.350
 5522TIP3    H216531   4.291   2.179   5.207
 5523TIP3   OH216532   0.690   5.197   5.863
 5523TIP3    H116533   0.627   5.161   5.925
 5523TIP3    H216534   0.640   5.214   5.783
 5524TIP3   OH216535   6.103   2.716   4.719
 5524TIP3    H116536   6.127   2.761   4.800
 5524TIP3    H216537   6.119   2.623   4.737
 5525TIP3   OH216538   4.056   0.052   0.693
 5525TIP3    H116539   4.146   0.069   0.720
 5525TIP3    H216540   4.003   0.092   0.762
 5526TIP3   OH216541   1.310   4.535   5.143
 5526TIP3    H116542   1.260   4.617   5.143
 5526TIP3    H216543   1.363   4.540   5.223
 5527TIP3   OH216544   4.959   1.582   5.352
 5527TIP3    H116545   4.968   1.671   5.318
 5527TIP3    H216546   4.937   1.530   5.276
 5528TIP3   OH216547   1.832   0.161   5.098
 5528TIP3    H116548   1.817   0.250   5.067
 5528TIP3    H216549   1.879   0.171   5.180
 5529TIP3   OH216550   1.422   3.619   0.429
 5529TIP3    H116551   1.465   3.641   0.511
 5529TIP3    H216552   1.423   3.700   0.378
 5530TIP3   OH216553   3.422   2.798   2.955
 5530TIP3    H116554   3.404   2.830   3.044
 5530TIP3    H216555   3.366   2.721   2.945
 5531TIP3   OH216556   2.022   5.125   3.289
 5531TIP3    H116557   2.075   5.045   3.292
 5531TIP3    H216558   2.082   5.192   3.255
 5532TIP3   OH216559   1.073   3.076   2.550
 5532TIP3    H116560   0.998   3.026   2.581
 5532TIP3    H216561   1.053   3.095   2.458
 5533TIP3   OH216562   3.304   3.344   1.850
 5533TIP3    H116563   3.239   3.301   1.793
 5533TIP3    H216564   3.278   3.436   1.849
 5534TIP3   OH216565   2.332   4.985   1.975
 5534TIP3    H116566   2.411   4.944   2.010
 5534TIP3    H216567   2.317   4.939   1.892
 5535TIP3   OH216568   1.108   1.592   1.943
 5535TIP3    H116569   1.172   1.620   1.878
 5535TIP3    H216570   1.127   1.500   1.958
 5536TIP3   OH216571   4.483   6.735   0.367
 5536TIP3    H116572   4.571   6.768   0.382
 5536TIP3    H216573   4.489   6.689   0.283
 5537TIP3   OH216574   4.365   3.309   1.372
 5537TIP3    H116575   4.351   3.294   1.279
 5537TIP3    H216576   4.338   3.228   1.414
 5538TIP3   OH216577   3.010   5.186   3.168
 5538TIP3    H116578   3.053   5.261   3.210
 5538TIP3    H216579   3.066   5.112   3.187
 5539TIP3   OH216580   5.079   0.108   5.452
 5539TIP3    H116581   4.986   0.092   5.462
 5539TIP3    H216582   5.090   0.201   5.472
 5540TIP3   OH216583   5.758   4.619   3.295
 5540TIP3    H116584   5.700   4.580   3.360
 5540TIP3    H216585   5.721   4.705   3.278
 5541TIP3   OH216586   5.685   5.333   2.785
 5541TIP3    H116587   5.672   5.417   2.740
 5541TIP3    H216588   5.737   5.355   2.862
 5542TIP3   OH216589   5.676   3.785   3.085
 5542TIP3    H116590   5.679   3.710   3.024
 5542TIP3    H216591   5.680   3.862   3.028
 5543TIP3   OH216592   3.916   0.911   5.483
 5543TIP3    H116593   3.840   0.933   5.430
 5543TIP3    H216594   3.975   0.865   5.424
 5544TIP3   OH216595   1.092   1.299   0.389
 5544TIP3    H116596   1.030   1.238   0.429
 5544TIP3    H216597   1.063   1.308   0.298
 5545TIP3   OH216598   3.248   1.967   0.125
 5545TIP3    H116599   3.235   1.924   0.040
 5545TIP3    H216600   3.179   1.931   0.181
 5546TIP3   OH216601   1.335   6.339   3.636
 5546TIP3    H116602   1.353   6.248   3.615
 5546TIP3    H216603   1.388   6.357   3.714
 5547TIP3   OH216604   2.021   5.007   0.269
 5547TIP3    H116605   1.942   5.001   0.216
 5547TIP3    H216606   1.993   5.051   0.349
 5548TIP3   OH216607   4.955   4.985   0.187
 5548TIP3    H116608   4.865   5.016   0.171
 5548TIP3    H216609   4.977   4.936   0.108
 5549TIP3   OH216610   2.404   3.757   0.278
 5549TIP3    H116611   2.411   3.756   0.373
 5549TIP3    H216612   2.350   3.833   0.258
 5550TIP3   OH216613   6.938   2.418   5.227
 5550TIP3    H116614   6.967   2.328   5.215
 5550TIP3    H216615   7.007   2.459   5.279
 5551TIP3   OH216616   1.232   3.786   3.268
 5551TIP3    H116617   1.201   3.743   3.348
 5551TIP3    H216618   1.327   3.774   3.269
 5552TIP3   OH216619   6.125   5.601   2.150
 5552TIP3    H116620   6.069   5.655   2.206
 5552TIP3    H216621   6.067   5.532   2.118
 5553TIP3   OH216622   6.300   0.410   2.267
 5553TIP3    H116623   6.333   0.342   2.208
 5553TIP3    H216624   6.355   0.402   2.346
 5554TIP3   OH216625   2.140   1.430   4.387
 5554TIP3    H116626   2.054   1.408   4.352
 5554TIP3    H216627   2.197   1.436   4.310
 5555TIP3   OH216628   4.141   6.768   4.433
 5555TIP3    H116629   4.216   6.827   4.441
 5555TIP3    H216630   4.102   6.767   4.521
 5556TIP3   OH216631   1.256   1.250   4.909
 5556TIP3    H116632   1.295   1.273   4.824
 5556TIP3    H216633   1.315   1.287   4.974
 5557TIP3   OH216634   0.867   2.861   1.407
 5557TIP3    H116635   0.785   2.829   1.445
 5557TIP3    H216636   0.852   2.955   1.394
 5558TIP3   OH216637   0.674   0.290   0.042
 5558TIP3    H116638   0.746   0.299  -0.021
 5558TIP3    H216639   0.596   0.278  -0.013
 5559TIP3   OH216640   0.175   1.640   5.832
 5559TIP3    H116641   0.108   1.677   5.889
 5559TIP3    H216642   0.127   1.612   5.754
 5560TIP3   OH216643   6.053   2.085   1.747
 5560TIP3    H116644   6.125   2.029   1.719
 5560TIP3    H216645   6.069   2.103   1.839
 5561TIP3   OH216646   6.130   4.503   4.244
 5561TIP3    H116647   6.183   4.464   4.175
 5561TIP3    H216648   6.138   4.442   4.318
 5562TIP3   OH216649   3.538   2.197   4.332
 5562TIP3    H116650   3.598   2.246   4.275
 5562TIP3    H216651   3.505   2.126   4.276
 5563TIP3   OH216652   6.071   1.997   3.130
 5563TIP3    H116653   6.062   1.904   3.111
 5563TIP3    H216654   5.991   2.037   3.096
 5564TIP3   OH216655   4.803   5.543   0.595
 5564TIP3    H116656   4.833   5.510   0.510
 5564TIP3    H216657   4.776   5.633   0.578
 5565TIP3   OH216658   0.915   4.435   1.992
 5565TIP3    H116659   0.922   4.501   1.923
 5565TIP3    H216660   1.003   4.397   1.998
 5566TIP3   OH216661   6.006   0.648   4.920
 5566TIP3    H116662   6.029   0.564   4.881
 5566TIP3    H216663   6.035   0.713   4.857
 5567TIP3   OH216664   6.650   1.999   4.058
 5567TIP3    H116665   6.679   1.909   4.069
 5567TIP3    H216666   6.554   1.994   4.065
 5568TIP3   OH216667   5.627   3.488   1.394
 5568TIP3    H116668   5.624   3.557   1.460
 5568TIP3    H216669   5.621   3.534   1.311
 5569TIP3   OH216670   2.960   1.085   2.674
 5569TIP3    H116671   3.005   1.130   2.745
 5569TIP3    H216672   3.022   1.016   2.647
 5570TIP3   OH216673   6.408   6.385   5.331
 5570TIP3    H116674   6.396   6.419   5.242
 5570TIP3    H216675   6.379   6.457   5.388
 5571TIP3   OH216676   6.118   6.032   5.405
 5571TIP3    H116677   6.175   5.998   5.474
 5571TIP3    H216678   6.107   6.125   5.427
 5572TIP3   OH216679   2.620   3.426   0.844
 5572TIP3    H116680   2.615   3.416   0.749
 5572TIP3    H216681   2.529   3.424   0.874
 5573TIP3   OH216682   1.157   1.829   5.085
 5573TIP3    H116683   1.097   1.778   5.032
 5573TIP3    H216684   1.114   1.836   5.170
 5574TIP3   OH216685   2.396   1.264  -0.013
 5574TIP3    H116686   2.404   1.343   0.041
 5574TIP3    H216687   2.362   1.198   0.047
 5575TIP3   OH216688   1.771   6.532   4.578
 5575TIP3    H116689   1.748   6.534   4.485
 5575TIP3    H216690   1.864   6.512   4.579
 5576TIP3   OH216691   6.676   5.149   0.394
 5576TIP3    H116692   6.740   5.156   0.465
 5576TIP3    H216693   6.705   5.214   0.330
 5577TIP3   OH216694   4.035   5.717   2.010
 5577TIP3    H116695   4.020   5.735   2.103
 5577TIP3    H216696   3.976   5.643   1.991
 5578TIP3   OH216697   2.601   2.023   0.258
 5578TIP3    H116698   2.652   1.943   0.244
 5578TIP3    H216699   2.613   2.073   0.178
 5579TIP3   OH216700   2.746   2.466   2.656
 5579TIP3    H116701   2.697   2.398   2.611
 5579TIP3    H216702   2.723   2.456   2.748
 5580TIP3   OH216703   0.704   6.689   1.437
 5580TIP3    H116704   0.719   6.657   1.348
 5580TIP3    H216705   0.629   6.638   1.469
 5581TIP3   OH216706   0.668   4.953   1.767
 5581TIP3    H116707   0.594   5.006   1.738
 5581TIP3    H216708   0.675   4.970   1.861
 5582TIP3   OH216709   0.143   3.203   0.103
 5582TIP3    H116710   0.180   3.287   0.130
 5582TIP3    H216711   0.048   3.220   0.096
 5583TIP3   OH216712   3.053   3.756   5.378
 5583TIP3    H116713   3.010   3.834   5.412
 5583TIP3    H216714   3.044   3.691   5.449
 5584TIP3   OH216715   1.507   1.705   2.744
 5584TIP3    H116716   1.559   1.717   2.665
 5584TIP3    H216717   1.457   1.625   2.728
 5585TIP3   OH216718   3.630   4.850   1.225
 5585TIP3    H116719   3.628   4.875   1.133
 5585TIP3    H216720   3.538   4.849   1.252
 5586TIP3   OH216721   0.124   2.470   3.818
 5586TIP3    H116722   0.066   2.496   3.890
 5586TIP3    H216723   0.207   2.513   3.838
 5587TIP3   OH216724   3.987   1.642   3.681
 5587TIP3    H116725   3.911   1.589   3.704
 5587TIP3    H216726   4.042   1.642   3.760
 5588TIP3   OH216727   4.075   1.724   2.012
 5588TIP3    H116728   4.028   1.756   2.089
 5588TIP3    H216729   4.041   1.635   1.999
 5589TIP3   OH216730   2.248   3.761   2.155
 5589TIP3    H116731   2.188   3.791   2.087
 5589TIP3    H216732   2.321   3.823   2.151
 5590TIP3   OH216733   2.563   3.869   5.862
 5590TIP3    H116734   2.590   3.961   5.867
 5590TIP3    H216735   2.487   3.870   5.804
 5591TIP3   OH216736   4.807   4.019   2.821
 5591TIP3    H116737   4.823   3.939   2.871
 5591TIP3    H216738   4.893   4.061   2.816
 5592TIP3   OH216739   1.871   2.488   4.254
 5592TIP3    H116740   1.966   2.485   4.246
 5592TIP3    H216741   1.848   2.579   4.237
 5593TIP3   OH216742   0.013   0.756   4.693
 5593TIP3    H116743   0.005   0.820   4.764
 5593TIP3    H216744   0.096   0.776   4.651
 5594TIP3   OH216745   7.175   5.703   3.989
 5594TIP3    H116746   7.128   5.784   4.012
 5594TIP3    H216747   7.106   5.642   3.963
 5595TIP3   OH216748   6.639   6.762   2.202
 5595TIP3    H116749   6.655   6.776   2.109
 5595TIP3    H216750   6.569   6.823   2.224
 5596TIP3   OH216751   7.023   4.986   4.740
 5596TIP3    H116752   7.010   4.898   4.777
 5596TIP3    H216753   6.971   4.986   4.660
 5597TIP3   OH216754   2.677   4.285   0.334
 5597TIP3    H116755   2.687   4.379   0.319
 5597TIP3    H216756   2.729   4.267   0.412
 5598TIP3   OH216757   5.830   6.538   0.586
 5598TIP3    H116758   5.801   6.451   0.614
 5598TIP3    H216759   5.751   6.578   0.549
 5599TIP3   OH216760   3.127   6.598   1.431
 5599TIP3    H116761   3.220   6.616   1.415
 5599TIP3    H216762   3.125   6.508   1.462
 5600TIP3   OH216763   0.579   4.008   0.377
 5600TIP3    H116764   0.508   3.945   0.379
 5600TIP3    H216765   0.592   4.034   0.468
 5601TIP3   OH216766   1.320   2.022   1.060
 5601TIP3    H116767   1.288   2.069   1.138
 5601TIP3    H216768   1.412   2.005   1.078
 5602TIP3   OH216769   3.711   6.396   5.718
 5602TIP3    H116770   3.679   6.451   5.789
 5602TIP3    H216771   3.688   6.307   5.744
 5603TIP3   OH216772   0.877   4.591   3.764
 5603TIP3    H116773   0.920   4.529   3.706
 5603TIP3    H216774   0.866   4.543   3.846
 5604TIP3   OH216775   3.683   4.924   2.791
 5604TIP3    H116776   3.601   4.879   2.810
 5604TIP3    H216777   3.674   4.955   2.701
 5605TIP3   OH216778   5.695   1.045   3.221
 5605TIP3    H116779   5.738   0.962   3.201
 5605TIP3    H216780   5.759   1.095   3.271
 5606TIP3   OH216781   2.358   1.853   4.488
 5606TIP3    H116782   2.266   1.825   4.488
 5606TIP3    H216783   2.394   1.816   4.407
 5607TIP3   OH216784   2.028   2.209   1.027
 5607TIP3    H116785   2.099   2.146   1.038
 5607TIP3    H216786   2.066   2.279   0.974
 5608TIP3   OH216787   1.745   2.523   1.721
 5608TIP3    H116788   1.664   2.574   1.724
 5608TIP3    H216789   1.719   2.439   1.684
 5609TIP3   OH216790   1.488   6.769   1.116
 5609TIP3    H116791   1.554   6.786   1.184
 5609TIP3    H216792   1.539   6.748   1.038
 5610TIP3   OH216793  -0.005   0.323   1.491
 5610TIP3    H116794  -0.001   0.387   1.420
 5610TIP3    H216795   0.086   0.306   1.514
 5611TIP3   OH216796   7.171   2.333   3.441
 5611TIP3    H116797   7.178   2.427   3.455
 5611TIP3    H216798   7.147   2.297   3.527
 5612TIP3   OH216799   3.611   6.047   2.235
 5612TIP3    H116800   3.675   6.111   2.266
 5612TIP3    H216801   3.644   6.020   2.149
 5613TIP3   OH216802   3.485   3.304   5.209
 5613TIP3    H116803   3.426   3.296   5.134
 5613TIP3    H216804   3.428   3.316   5.284
 5614TIP3   OH216805   6.643   5.971   0.797
 5614TIP3    H116806   6.599   5.894   0.762
 5614TIP3    H216807   6.654   6.029   0.722
 5615TIP3   OH216808   3.409   5.400   1.114
 5615TIP3    H116809   3.461   5.354   1.178
 5615TIP3    H216810   3.455   5.388   1.031
 5616TIP3   OH216811   0.243   2.901   2.011
 5616TIP3    H116812   0.309   2.848   1.966
 5616TIP3    H216813   0.254   2.989   1.976
 5617TIP3   OH216814   6.052   3.307   0.308
 5617TIP3    H116815   6.078   3.378   0.250
 5617TIP3    H216816   6.133   3.261   0.327
 5618TIP3   OH216817   0.208   4.260   5.137
 5618TIP3    H116818   0.258   4.254   5.056
 5618TIP3    H216819   0.206   4.354   5.157
 5619TIP3   OH216820   0.860   1.314   2.296
 5619TIP3    H116821   0.788   1.252   2.289
 5619TIP3    H216822   0.821   1.392   2.336
 5620TIP3   OH216823   2.873   1.898   5.594
 5620TIP3    H116824   2.893   1.876   5.503
 5620TIP3    H216825   2.802   1.838   5.618
 5621TIP3   OH216826   1.719   4.171   3.308
 5621TIP3    H116827   1.766   4.110   3.365
 5621TIP3    H216828   1.770   4.251   3.310
 5622TIP3   OH216829   5.877   5.983   5.118
 5622TIP3    H116830   5.963   5.940   5.126
 5622TIP3    H216831   5.822   5.918   5.073
 5623TIP3   OH216832   4.724   2.131   4.703
 5623TIP3    H116833   4.766   2.206   4.662
 5623TIP3    H216834   4.726   2.062   4.636
 5624TIP3   OH216835   6.922   4.494   0.290
 5624TIP3    H116836   6.932   4.573   0.239
 5624TIP3    H216837   6.953   4.424   0.233
 5625TIP3   OH216838   1.421   4.925   0.736
 5625TIP3    H116839   1.351   4.954   0.678
 5625TIP3    H216840   1.471   5.005   0.755
 5626TIP3   OH216841   4.643   4.528   4.873
 5626TIP3    H116842   4.578   4.563   4.934
 5626TIP3    H216843   4.626   4.434   4.872
 5627TIP3   OH216844   4.358   2.110   0.626
 5627TIP3    H116845   4.421   2.079   0.562
 5627TIP3    H216846   4.377   2.058   0.705
 5628TIP3   OH216847   3.396   4.855   1.054
 5628TIP3    H116848   3.303   4.849   1.034
 5628TIP3    H216849   3.420   4.768   1.086
 5629TIP3   OH216850   2.494   2.881   4.604
 5629TIP3    H116851   2.552   2.942   4.559
 5629TIP3    H216852   2.537   2.796   4.596
 5630TIP3   OH216853   7.101   3.470   1.113
 5630TIP3    H116854   7.123   3.406   1.181
 5630TIP3    H216855   7.062   3.543   1.160
 5631TIP3   OH216856   5.155   4.210   3.679
 5631TIP3    H116857   5.072   4.219   3.727
 5631TIP3    H216858   5.186   4.123   3.704
 5632TIP3   OH216859   3.819   5.210   1.060
 5632TIP3    H116860   3.793   5.212   0.968
 5632TIP3    H216861   3.763   5.276   1.101
 5633TIP3   OH216862   3.458   3.207   2.664
 5633TIP3    H116863   3.437   3.127   2.712
 5633TIP3    H216864   3.439   3.186   2.573
 5634TIP3   OH216865   0.766   1.087   0.141
 5634TIP3    H116866   0.843   1.144   0.148
 5634TIP3    H216867   0.718   1.101   0.223
 5635TIP3   OH216868   2.895   0.563   0.965
 5635TIP3    H116869   2.947   0.615   0.904
 5635TIP3    H216870   2.814   0.613   0.976
 5636TIP3   OH216871   4.333   2.103   5.776
 5636TIP3    H116872   4.371   2.032   5.725
 5636TIP3    H216873   4.300   2.165   5.712
 5637TIP3   OH216874   4.799   1.756   5.699
 5637TIP3    H116875   4.757   1.728   5.781
 5637TIP3    H216876   4.819   1.674   5.654
 5638TIP3   OH216877   3.296   2.996   1.384
 5638TIP3    H116878   3.276   3.085   1.414
 5638TIP3    H216879   3.351   3.009   1.307
 5639TIP3   OH216880   3.125   4.823   5.658
 5639TIP3    H116881   3.156   4.736   5.684
 5639TIP3    H216882   3.199   4.880   5.678
 5640TIP3   OH216883   6.671   4.938   2.866
 5640TIP3    H116884   6.650   4.845   2.859
 5640TIP3    H216885   6.673   4.955   2.961
 5641TIP3   OH216886   2.175   4.592   2.870
 5641TIP3    H116887   2.158   4.583   2.964
 5641TIP3    H216888   2.090   4.574   2.830
 5642TIP3   OH216889   4.373   5.094   4.636
 5642TIP3    H116890   4.458   5.061   4.666
 5642TIP3    H216891   4.312   5.024   4.657
 5643TIP3   OH216892   0.192   5.834   1.972
 5643TIP3    H116893   0.163   5.744   1.985
 5643TIP3    H216894   0.168   5.855   1.882
 5644TIP3   OH216895   6.980   5.503   4.884
 5644TIP3    H116896   7.076   5.505   4.884
 5644TIP3    H216897   6.958   5.411   4.876
 5645TIP3   OH216898   1.494   5.227   3.690
 5645TIP3    H116899   1.409   5.185   3.706
 5645TIP3    H216900   1.556   5.155   3.681
 5646TIP3   OH216901   2.143   0.705   0.148
 5646TIP3    H116902   2.142   0.614   0.177
 5646TIP3    H216903   2.058   0.740   0.177
 5647TIP3   OH216904   2.126   0.124   2.525
 5647TIP3    H116905   2.155   0.210   2.555
 5647TIP3    H216906   2.183   0.104   2.451
 5648TIP3   OH216907   5.215   6.469   1.040
 5648TIP3    H116908   5.289   6.411   1.057
 5648TIP3    H216909   5.241   6.553   1.077
 5649TIP3   OH216910   2.223   4.913   0.867
 5649TIP3    H116911   2.255   4.916   0.778
 5649TIP3    H216912   2.144   4.967   0.866
 5650TIP3   OH216913   5.251   5.693   2.296
 5650TIP3    H116914   5.186   5.644   2.246
 5650TIP3    H216915   5.265   5.773   2.246
 5651TIP3   OH216916   0.140   6.545   2.820
 5651TIP3    H116917   0.209   6.534   2.755
 5651TIP3    H216918   0.176   6.506   2.900
 5652TIP3   OH216919   4.541   3.868   0.728
 5652TIP3    H116920   4.585   3.918   0.796
 5652TIP3    H216921   4.583   3.894   0.647
 5653TIP3   OH216922   6.444   0.580   3.367
 5653TIP3    H116923   6.528   0.614   3.335
 5653TIP3    H216924   6.379   0.639   3.328
 5654TIP3   OH216925   2.682   2.594   3.935
 5654TIP3    H116926   2.607   2.539   3.955
 5654TIP3    H216927   2.650   2.656   3.869
 5655TIP3   OH216928   4.733   0.304   3.307
 5655TIP3    H116929   4.719   0.325   3.215
 5655TIP3    H216930   4.828   0.308   3.318
 5656TIP3   OH216931   0.972   1.237   4.964
 5656TIP3    H116932   1.051   1.249   4.912
 5656TIP3    H216933   0.995   1.270   5.051
 5657TIP3   OH216934   0.077   1.611   5.583
 5657TIP3    H116935   0.086   1.545   5.515
 5657TIP3    H216936  -0.018   1.625   5.591
 5658TIP3   OH216937   2.493   5.336   2.745
 5658TIP3    H116938   2.487   5.420   2.790
 5658TIP3    H216939   2.509   5.358   2.654
 5659TIP3   OH216940   0.576   1.068   2.119
 5659TIP3    H116941   0.617   0.984   2.101
 5659TIP3    H216942   0.630   1.132   2.073
 5660TIP3   OH216943   5.004   4.748   1.882
 5660TIP3    H116944   5.006   4.735   1.787
 5660TIP3    H216945   4.993   4.843   1.892
 5661TIP3   OH216946   4.660   0.100   2.422
 5661TIP3    H116947   4.684   0.134   2.336
 5661TIP3    H216948   4.734   0.123   2.478
 5662TIP3   OH216949   6.042   1.574   4.001
 5662TIP3    H116950   5.969   1.636   3.992
 5662TIP3    H216951   6.113   1.626   4.037
 5663TIP3   OH216952   2.171   5.499   0.114
 5663TIP3    H116953   2.170   5.592   0.089
 5663TIP3    H216954   2.263   5.473   0.107
 5664TIP3   OH216955   5.996   3.391   3.538
 5664TIP3    H116956   5.929   3.330   3.509
 5664TIP3    H216957   5.967   3.476   3.503
 5665TIP3   OH216958   7.061   0.338   5.293
 5665TIP3    H116959   7.047   0.244   5.294
 5665TIP3    H216960   7.145   0.350   5.249
 5666TIP3   OH216961   5.304   1.158   0.572
 5666TIP3    H116962   5.245   1.197   0.636
 5666TIP3    H216963   5.388   1.151   0.618
 5667TIP3   OH216964   1.724   6.007   4.471
 5667TIP3    H116965   1.737   5.957   4.390
 5667TIP3    H216966   1.801   6.064   4.476
 5668TIP3   OH216967   5.360   5.154   1.318
 5668TIP3    H116968   5.291   5.204   1.276
 5668TIP3    H216969   5.370   5.076   1.263
 5669TIP3   OH216970   4.875   3.393   1.110
 5669TIP3    H116971   4.835   3.309   1.089
 5669TIP3    H216972   4.842   3.415   1.197
 5670TIP3   OH216973   7.044   4.533   1.787
 5670TIP3    H116974   7.128   4.501   1.756
 5670TIP3    H216975   7.062   4.572   1.873
 5671TIP3   OH216976   3.236   2.385   2.783
 5671TIP3    H116977   3.225   2.470   2.826
 5671TIP3    H216978   3.160   2.378   2.725
 5672TIP3   OH216979   1.260   2.096   5.061
 5672TIP3    H116980   1.273   2.002   5.071
 5672TIP3    H216981   1.186   2.116   5.117
 5673TIP3   OH216982   4.079   5.303   1.187
 5673TIP3    H116983   4.046   5.323   1.275
 5673TIP3    H216984   4.116   5.214   1.195
 5674TIP3   OH216985   1.586   5.921   0.407
 5674TIP3    H116986   1.520   5.902   0.340
 5674TIP3    H216987   1.572   6.013   0.429
 5675TIP3   OH216988   2.108   5.474   4.717
 5675TIP3    H116989   2.106   5.550   4.658
 5675TIP3    H216990   2.102   5.399   4.658
 5676TIP3   OH216991   0.617   6.374   3.036
 5676TIP3    H116992   0.596   6.328   3.117
 5676TIP3    H216993   0.604   6.467   3.057
 5677TIP3   OH216994   1.050   2.431   5.842
 5677TIP3    H116995   0.995   2.509   5.856
 5677TIP3    H216996   1.021   2.398   5.757
 5678TIP3   OH216997   2.458   6.119   2.014
 5678TIP3    H116998   2.415   6.151   1.935
 5678TIP3    H216999   2.420   6.171   2.085
 5679TIP3   OH217000   2.112   5.742   4.627
 5679TIP3    H117001   2.103   5.837   4.638
 5679TIP3    H217002   2.027   5.713   4.595
 5680TIP3   OH217003   1.086   0.361   0.826
 5680TIP3    H117004   0.996   0.347   0.854
 5680TIP3    H217005   1.127   0.407   0.899
 5681TIP3   OH217006   3.761   1.893   5.907
 5681TIP3    H117007   3.846   1.937   5.908
 5681TIP3    H217008   3.758   1.849   5.822
 5682TIP3   OH217009   3.019   0.576   1.231
 5682TIP3    H117010   3.082   0.505   1.237
 5682TIP3    H217011   3.002   0.586   1.138
 5683TIP3   OH217012   0.355   5.693   0.732
 5683TIP3    H117013   0.394   5.675   0.646
 5683TIP3    H217014   0.306   5.774   0.720
 5684TIP3   OH217015   5.921   3.820   4.605
 5684TIP3    H117016   5.948   3.912   4.598
 5684TIP3    H217017   5.952   3.780   4.524
 5685TIP3   OH217018   2.906   2.768   5.337
 5685TIP3    H117019   2.814   2.792   5.353
 5685TIP3    H217020   2.906   2.672   5.338
 5686TIP3   OH217021   4.636   1.011   2.555
 5686TIP3    H117022   4.611   0.966   2.636
 5686TIP3    H217023   4.718   1.055   2.577
 5687TIP3   OH217024   3.782   2.653   5.649
 5687TIP3    H117025   3.783   2.711   5.573
 5687TIP3    H217026   3.796   2.565   5.612
 5688TIP3   OH217027   3.548   3.712   4.661
 5688TIP3    H117028   3.620   3.748   4.609
 5688TIP3    H217029   3.488   3.785   4.674
 5689TIP3   OH217030   3.582   3.315   2.132
 5689TIP3    H117031   3.620   3.230   2.111
 5689TIP3    H217032   3.566   3.356   2.047
 5690TIP3   OH217033   6.419   5.016   0.346
 5690TIP3    H117034   6.510   5.043   0.357
 5690TIP3    H217035   6.372   5.098   0.330
 5691TIP3   OH217036   6.869   3.758   4.515
 5691TIP3    H117037   6.872   3.733   4.607
 5691TIP3    H217038   6.789   3.718   4.481
 5692TIP3   OH217039   0.812   2.336   4.879
 5692TIP3    H117040   0.787   2.391   4.954
 5692TIP3    H217041   0.789   2.389   4.802
 5693TIP3   OH217042   0.782   0.444   5.458
 5693TIP3    H117043   0.791   0.350   5.473
 5693TIP3    H217044   0.849   0.484   5.514
 5694TIP3   OH217045   4.293   5.560   3.745
 5694TIP3    H117046   4.289   5.550   3.840
 5694TIP3    H217047   4.365   5.620   3.730
 5695TIP3   OH217048   7.017   0.184   1.161
 5695TIP3    H117049   7.059   0.247   1.219
 5695TIP3    H217050   7.088   0.151   1.105
 5696TIP3   OH217051   3.796   2.293   0.389
 5696TIP3    H117052   3.836   2.342   0.316
 5696TIP3    H217053   3.817   2.345   0.467
 5697TIP3   OH217054   0.200   1.129   5.294
 5697TIP3    H117055   0.202   1.035   5.315
 5697TIP3    H217056   0.109   1.154   5.304
 5698TIP3   OH217057   5.916   3.528   2.042
 5698TIP3    H117058   5.874   3.594   2.096
 5698TIP3    H217059   5.843   3.481   2.001
 5699TIP3   OH217060   2.371   6.462   5.076
 5699TIP3    H117061   2.440   6.521   5.046
 5699TIP3    H217062   2.417   6.396   5.129
 5700TIP3   OH217063   6.444   5.580   5.298
 5700TIP3    H117064   6.391   5.657   5.317
 5700TIP3    H217065   6.526   5.595   5.345
 5701TIP3   OH217066   3.378   2.369   1.798
 5701TIP3    H117067   3.348   2.282   1.771
 5701TIP3    H217068   3.381   2.420   1.717
 5702TIP3   OH217069   2.918   6.060   2.008
 5702TIP3    H117070   2.965   6.060   2.091
 5702TIP3    H217071   2.826   6.050   2.032
 5703TIP3   OH217072   3.026   3.076   4.258
 5703TIP3    H117073   2.958   3.138   4.230
 5703TIP3    H217074   3.033   3.014   4.185
 5704TIP3   OH217075   2.275   6.327   2.078
 5704TIP3    H117076   2.334   6.401   2.062
 5704TIP3    H217077   2.251   6.297   1.990
 5705TIP3   OH217078   0.277   2.909   0.514
 5705TIP3    H117079   0.300   2.817   0.501
 5705TIP3    H217080   0.193   2.907   0.560
 5706TIP3   OH217081   3.024   0.683   3.932
 5706TIP3    H117082   2.998   0.677   4.024
 5706TIP3    H217083   3.114   0.651   3.931
 5707TIP3   OH217084   2.585   5.234   5.586
 5707TIP3    H117085   2.645   5.268   5.652
 5707TIP3    H217086   2.511   5.200   5.637
 5708TIP3   OH217087   2.138   1.426   0.570
 5708TIP3    H117088   2.189   1.429   0.651
 5708TIP3    H217089   2.110   1.516   0.555
 5709TIP3   OH217090   3.834   4.369   5.298
 5709TIP3    H117091   3.810   4.454   5.334
 5709TIP3    H217092   3.798   4.370   5.209
 5710TIP3   OH217093   1.321   1.246   1.237
 5710TIP3    H117094   1.314   1.261   1.143
 5710TIP3    H217095   1.306   1.332   1.276
 5711TIP3   OH217096   0.387   1.002   1.178
 5711TIP3    H117097   0.410   1.043   1.261
 5711TIP3    H217098   0.309   1.049   1.148
 5712TIP3   OH217099   4.095   5.614   2.807
 5712TIP3    H117100   4.092   5.538   2.749
 5712TIP3    H217101   4.105   5.578   2.895
 5713TIP3   OH217102   2.626   1.479   3.560
 5713TIP3    H117103   2.592   1.559   3.520
 5713TIP3    H217104   2.657   1.426   3.487
 5714TIP3   OH217105   3.974   2.857   0.532
 5714TIP3    H117106   4.040   2.852   0.463
 5714TIP3    H217107   3.991   2.941   0.575
 5715TIP3   OH217108   4.222   5.818   4.369
 5715TIP3    H117109   4.148   5.842   4.313
 5715TIP3    H217110   4.292   5.877   4.343
 5716TIP3   OH217111   1.141   6.487   4.449
 5716TIP3    H117112   1.125   6.393   4.458
 5716TIP3    H217113   1.067   6.529   4.493
 5717TIP3   OH217114   4.272   2.940   0.515
 5717TIP3    H117115   4.304   3.030   0.503
 5717TIP3    H217116   4.308   2.912   0.599
 5718TIP3   OH217117   6.526   3.195   0.808
 5718TIP3    H117118   6.521   3.219   0.901
 5718TIP3    H217119   6.488   3.107   0.804
 5719TIP3   OH217120   0.409   3.530   2.791
 5719TIP3    H117121   0.461   3.459   2.829
 5719TIP3    H217122   0.465   3.566   2.723
 5720TIP3   OH217123   6.997   5.697   2.104
 5720TIP3    H117124   7.060   5.670   2.171
 5720TIP3    H217125   6.965   5.615   2.066
 5721TIP3   OH217126   1.386   1.321   5.154
 5721TIP3    H117127   1.427   1.317   5.240
 5721TIP3    H217128   1.323   1.393   5.161
 5722TIP3   OH217129   3.470   0.912  -0.012
 5722TIP3    H117130   3.427   0.978   0.043
 5722TIP3    H217131   3.454   0.829   0.033
 5723TIP3   OH217132   1.493   5.253   4.335
 5723TIP3    H117133   1.424   5.309   4.300
 5723TIP3    H217134   1.575   5.298   4.314
 5724TIP3   OH217135   6.007   4.087   4.271
 5724TIP3    H117136   6.047   4.001   4.259
 5724TIP3    H217137   5.978   4.087   4.362
 5725TIP3   OH217138   1.491   0.867   1.464
 5725TIP3    H117139   1.415   0.870   1.405
 5725TIP3    H217140   1.477   0.940   1.524
 5726TIP3   OH217141   3.593   5.440   4.829
 5726TIP3    H117142   3.510   5.488   4.827
 5726TIP3    H217143   3.566   5.348   4.829
 5727TIP3   OH217144   6.831   6.701   5.066
 5727TIP3    H117145   6.821   6.607   5.082
 5727TIP3    H217146   6.741   6.735   5.069
 5728TIP3   OH217147   7.088   1.450   3.049
 5728TIP3    H117148   7.151   1.392   3.090
 5728TIP3    H217149   7.133   1.534   3.043
 5729TIP3   OH217150   3.806   1.364   4.043
 5729TIP3    H117151   3.884   1.411   4.074
 5729TIP3    H217152   3.825   1.346   3.951
 5730TIP3   OH217153   5.353   6.629   3.178
 5730TIP3    H117154   5.311   6.628   3.092
 5730TIP3    H217155   5.310   6.558   3.226
 5731TIP3   OH217156   1.995   5.514   3.527
 5731TIP3    H117157   2.024   5.603   3.509
 5731TIP3    H217158   1.926   5.498   3.462
 5732TIP3   OH217159   6.619   4.552   1.495
 5732TIP3    H117160   6.548   4.512   1.545
 5732TIP3    H217161   6.624   4.499   1.415
 5733TIP3   OH217162   6.477   2.904   0.827
 5733TIP3    H117163   6.441   2.876   0.911
 5733TIP3    H217164   6.572   2.909   0.842
 5734TIP3   OH217165   6.942   2.284   1.712
 5734TIP3    H117166   7.019   2.232   1.735
 5734TIP3    H217167   6.895   2.230   1.649
 5735TIP3   OH217168   4.964   5.360   0.136
 5735TIP3    H117169   5.037   5.302   0.156
 5735TIP3    H217170   4.953   5.412   0.216
 5736TIP3   OH217171   6.140   1.763   4.366
 5736TIP3    H117172   6.174   1.840   4.412
 5736TIP3    H217173   6.216   1.707   4.351
 5737TIP3   OH217174   0.431   2.882   4.667
 5737TIP3    H117175   0.370   2.813   4.694
 5737TIP3    H217176   0.490   2.892   4.741
 5738TIP3   OH217177   6.527   1.551   3.101
 5738TIP3    H117178   6.583   1.626   3.121
 5738TIP3    H217179   6.563   1.479   3.153
 5739TIP3   OH217180   4.633   4.813   3.111
 5739TIP3    H117181   4.671   4.770   3.188
 5739TIP3    H217182   4.596   4.894   3.145
 5740TIP3   OH217183   1.510   0.897   2.880
 5740TIP3    H117184   1.556   0.852   2.951
 5740TIP3    H217185   1.538   0.988   2.886
 5741TIP3   OH217186   1.720   3.328   1.096
 5741TIP3    H117187   1.754   3.411   1.132
 5741TIP3    H217188   1.639   3.312   1.145
 5742TIP3   OH217189   4.099   3.082   2.967
 5742TIP3    H117190   4.190   3.092   2.937
 5742TIP3    H217191   4.070   3.171   2.986
 5743TIP3   OH217192   4.857   4.069   3.529
 5743TIP3    H117193   4.853   3.980   3.493
 5743TIP3    H217194   4.948   4.095   3.518
 5744TIP3   OH217195   0.669   0.347   1.835
 5744TIP3    H117196   0.660   0.349   1.740
 5744TIP3    H217197   0.734   0.279   1.852
 5745TIP3   OH217198   0.437   5.357   3.745
 5745TIP3    H117199   0.386   5.340   3.824
 5745TIP3    H217200   0.465   5.270   3.715
 5746TIP3   OH217201   1.397   6.507   2.709
 5746TIP3    H117202   1.423   6.586   2.757
 5746TIP3    H217203   1.421   6.525   2.618
 5747TIP3   OH217204   2.416   5.980   0.269
 5747TIP3    H117205   2.483   6.031   0.225
 5747TIP3    H217206   2.440   5.983   0.362
 5748TIP3   OH217207   1.326   5.519   1.331
 5748TIP3    H117208   1.342   5.575   1.407
 5748TIP3    H217209   1.408   5.520   1.283
 5749TIP3   OH217210   5.879   5.362   1.182
 5749TIP3    H117211   5.878   5.332   1.091
 5749TIP3    H217212   5.929   5.443   1.181
 5750TIP3   OH217213   5.534   5.219   1.537
 5750TIP3    H117214   5.483   5.179   1.466
 5750TIP3    H217215   5.469   5.240   1.604
 5751TIP3   OH217216   6.997   6.457   0.977
 5751TIP3    H117217   6.905   6.468   0.952
 5751TIP3    H217218   6.995   6.448   1.072
 5752TIP3   OH217219   4.727   4.980   5.535
 5752TIP3    H117220   4.664   4.912   5.510
 5752TIP3    H217221   4.761   5.013   5.452
 5753TIP3   OH217222   1.088   5.032   4.856
 5753TIP3    H117223   1.127   4.997   4.776
 5753TIP3    H217224   1.148   5.007   4.926
 5754TIP3   OH217225   4.224   6.289   4.253
 5754TIP3    H117226   4.163   6.253   4.317
 5754TIP3    H217227   4.179   6.280   4.169
 5755TIP3   OH217228   5.888   5.330   0.627
 5755TIP3    H117229   5.825   5.381   0.576
 5755TIP3    H217230   5.896   5.247   0.580
 5756TIP3   OH217231   6.514   4.743   5.553
 5756TIP3    H117232   6.522   4.732   5.458
 5756TIP3    H217233   6.444   4.683   5.579
 5757TIP3   OH217234   4.307   5.921   5.654
 5757TIP3    H117235   4.320   5.970   5.573
 5757TIP3    H217236   4.288   5.831   5.625
 5758TIP3   OH217237   5.243   5.471   0.832
 5758TIP3    H117238   5.148   5.484   0.835
 5758TIP3    H217239   5.278   5.560   0.826
 5759TIP3   OH217240   1.991   3.373   1.702
 5759TIP3    H117241   2.086   3.370   1.695
 5759TIP3    H217242   1.962   3.411   1.619
 5760TIP3   OH217243   4.561   4.202   4.653
 5760TIP3    H117244   4.508   4.234   4.580
 5760TIP3    H217245   4.497   4.162   4.712
 5761TIP3   OH217246   3.934   4.141   0.525
 5761TIP3    H117247   3.906   4.174   0.611
 5761TIP3    H217248   3.885   4.195   0.463
 5762TIP3   OH217249   3.438   5.013   5.332
 5762TIP3    H117250   3.423   4.981   5.243
 5762TIP3    H217251   3.351   5.014   5.372
 5763TIP3   OH217252   5.467   0.351   1.429
 5763TIP3    H117253   5.375   0.336   1.408
 5763TIP3    H217254   5.491   0.428   1.378
 5764TIP3   OH217255   6.340   5.163   0.794
 5764TIP3    H117256   6.295   5.080   0.782
 5764TIP3    H217257   6.277   5.229   0.765
 5765TIP3   OH217258   1.876   6.675   3.737
 5765TIP3    H117259   1.822   6.611   3.690
 5765TIP3    H217260   1.948   6.693   3.677
 5766TIP3   OH217261   4.662   3.838   1.247
 5766TIP3    H117262   4.624   3.917   1.285
 5766TIP3    H217263   4.651   3.848   1.153
 5767TIP3   OH217264   2.131   0.607   2.916
 5767TIP3    H117265   2.075   0.627   2.841
 5767TIP3    H217266   2.104   0.520   2.944
 5768TIP3   OH217267   1.912   2.102   1.523
 5768TIP3    H117268   1.858   2.026   1.502
 5768TIP3    H217269   1.967   2.115   1.447
 5769TIP3   OH217270   1.517   5.475   3.828
 5769TIP3    H117271   1.472   5.481   3.744
 5769TIP3    H217272   1.526   5.381   3.844
 5770TIP3   OH217273   2.485   1.879   3.120
 5770TIP3    H117274   2.394   1.884   3.148
 5770TIP3    H217275   2.519   1.967   3.135
 5771TIP3   OH217276   3.315   0.440   5.866
 5771TIP3    H117277   3.306   0.492   5.946
 5771TIP3    H217278   3.226   0.433   5.832
 5772TIP3   OH217279   6.743   6.080   0.345
 5772TIP3    H117280   6.695   6.106   0.267
 5772TIP3    H217281   6.831   6.058   0.314
 5773TIP3   OH217282   5.907   5.026   5.384
 5773TIP3    H117283   5.921   4.965   5.312
 5773TIP3    H217284   5.813   5.041   5.385
 5774TIP3   OH217285   3.115   2.492   1.305
 5774TIP3    H117286   3.134   2.522   1.393
 5774TIP3    H217287   3.159   2.407   1.298
 5775TIP3   OH217288   5.932   5.085   1.771
 5775TIP3    H117289   6.027   5.095   1.780
 5775TIP3    H217290   5.907   5.151   1.705
 5776TIP3   OH217291   6.788   3.262   3.906
 5776TIP3    H117292   6.837   3.184   3.932
 5776TIP3    H217293   6.697   3.232   3.900
 5777TIP3   OH217294   1.499   0.143   1.819
 5777TIP3    H117295   1.450   0.152   1.901
 5777TIP3    H217296   1.435   0.161   1.750
 5778TIP3   OH217297   3.745   3.954   4.080
 5778TIP3    H117298   3.796   3.995   4.149
 5778TIP3    H217299   3.702   4.027   4.035
 5779TIP3   OH217300   3.610   2.437   1.969
 5779TIP3    H117301   3.587   2.404   2.056
 5779TIP3    H217302   3.529   2.426   1.918
 5780TIP3   OH217303   0.947   0.439   3.167
 5780TIP3    H117304   0.903   0.516   3.131
 5780TIP3    H217305   0.879   0.371   3.166
 5781TIP3   OH217306   3.743   3.661   0.714
 5781TIP3    H117307   3.812   3.724   0.733
 5781TIP3    H217308   3.759   3.588   0.774
 5782TIP3   OH217309   1.373   2.370   3.117
 5782TIP3    H117310   1.441   2.434   3.141
 5782TIP3    H217311   1.411   2.285   3.139
 5783TIP3   OH217312   1.310   0.555   0.405
 5783TIP3    H117313   1.304   0.473   0.453
 5783TIP3    H217314   1.369   0.535   0.332
 5784TIP3   OH217315   3.285   5.809   1.298
 5784TIP3    H117316   3.318   5.777   1.215
 5784TIP3    H217317   3.307   5.902   1.299
 5785TIP3   OH217318   0.110   2.862   1.503
 5785TIP3    H117319   0.056   2.900   1.433
 5785TIP3    H217320   0.074   2.900   1.583
 5786TIP3   OH217321   1.422   5.623   3.032
 5786TIP3    H117322   1.493   5.559   3.043
 5786TIP3    H217323   1.457   5.705   3.066
 5787TIP3   OH217324   6.663   5.793   4.829
 5787TIP3    H117325   6.629   5.707   4.807
 5787TIP3    H217326   6.587   5.851   4.823
 5788TIP3   OH217327   1.089   3.599   3.931
 5788TIP3    H117328   1.003   3.560   3.945
 5788TIP3    H217329   1.114   3.634   4.016
 5789TIP3   OH217330   0.940   3.857   1.121
 5789TIP3    H117331   0.881   3.827   1.191
 5789TIP3    H217332   1.018   3.887   1.167
 5790TIP3   OH217333   2.095   2.145   1.722
 5790TIP3    H117334   2.030   2.162   1.791
 5790TIP3    H217335   2.043   2.119   1.646
 5791TIP3   OH217336   5.495   3.160   2.866
 5791TIP3    H117337   5.413   3.209   2.862
 5791TIP3    H217338   5.555   3.217   2.914
 5792TIP3   OH217339   6.038   4.313   4.723
 5792TIP3    H117340   6.042   4.326   4.817
 5792TIP3    H217341   5.958   4.357   4.695
 5793TIP3   OH217342   4.939   1.787   0.802
 5793TIP3    H117343   4.995   1.847   0.753
 5793TIP3    H217344   4.953   1.811   0.893
 5794TIP3   OH217345   1.558   2.731   5.648
 5794TIP3    H117346   1.548   2.659   5.585
 5794TIP3    H217347   1.552   2.689   5.734
 5795TIP3   OH217348   0.017   6.356   4.116
 5795TIP3    H117349  -0.043   6.353   4.190
 5795TIP3    H217350   0.096   6.398   4.151
 5796TIP3   OH217351   0.580   0.013   4.979
 5796TIP3    H117352   0.553  -0.075   4.951
 5796TIP3    H217353   0.562   0.069   4.903
 5797TIP3   OH217354   7.011   4.514   5.784
 5797TIP3    H117355   7.023   4.534   5.877
 5797TIP3    H217356   7.090   4.551   5.742
 5798TIP3   OH217357   3.713   6.646   4.458
 5798TIP3    H117358   3.786   6.610   4.409
 5798TIP3    H217359   3.704   6.590   4.535
 5799TIP3   OH217360   2.054   0.950   1.143
 5799TIP3    H117361   1.967   0.974   1.175
 5799TIP3    H217362   2.037   0.886   1.074
 5800TIP3   OH217363   0.607   0.783   2.522
 5800TIP3    H117364   0.680   0.752   2.469
 5800TIP3    H217365   0.646   0.846   2.583
 5801TIP3   OH217366   3.163   2.663   5.250
 5801TIP3    H117367   3.093   2.727   5.265
 5801TIP3    H217368   3.229   2.684   5.315
 5802TIP3   OH217369   6.138   4.458   2.799
 5802TIP3    H117370   6.188   4.438   2.720
 5802TIP3    H217371   6.053   4.418   2.785
 5803TIP3   OH217372   1.806   5.178   3.121
 5803TIP3    H117373   1.878   5.137   3.168
 5803TIP3    H217374   1.750   5.215   3.189
 5804TIP3   OH217375   1.316   3.728   2.122
 5804TIP3    H117376   1.271   3.724   2.037
 5804TIP3    H217377   1.288   3.649   2.168
 5805TIP3   OH217378   4.257   6.164   3.574
 5805TIP3    H117379   4.192   6.121   3.519
 5805TIP3    H217380   4.247   6.257   3.555
 5806TIP3   OH217381   4.546   5.859   2.686
 5806TIP3    H117382   4.460   5.874   2.647
 5806TIP3    H217383   4.568   5.769   2.663
 5807TIP3   OH217384   1.039   2.254   1.384
 5807TIP3    H117385   0.997   2.320   1.439
 5807TIP3    H217386   1.003   2.171   1.414
 5808TIP3   OH217387   3.613   3.258   3.718
 5808TIP3    H117388   3.569   3.314   3.653
 5808TIP3    H217389   3.707   3.272   3.702
 5809TIP3   OH217390   5.604   3.875   1.039
 5809TIP3    H117391   5.510   3.892   1.027
 5809TIP3    H217392   5.643   3.902   0.956
 5810TIP3   OH217393   4.398   4.397   0.362
 5810TIP3    H117394   4.453   4.377   0.285
 5810TIP3    H217395   4.454   4.375   0.437
 5811TIP3   OH217396   5.949   1.610   2.170
 5811TIP3    H117397   5.985   1.537   2.220
 5811TIP3    H217398   5.865   1.629   2.213
 5812TIP3   OH217399   6.741   1.909   5.364
 5812TIP3    H117400   6.796   1.863   5.427
 5812TIP3    H217401   6.706   1.840   5.308
 5813TIP3   OH217402   0.964   0.964   3.863
 5813TIP3    H117403   0.935   1.010   3.942
 5813TIP3    H217404   1.003   0.882   3.895
 5814TIP3   OH217405   5.092   5.944   1.619
 5814TIP3    H117406   5.169   5.999   1.636
 5814TIP3    H217407   5.122   5.881   1.553
 5815TIP3   OH217408   2.356   6.576   2.882
 5815TIP3    H117409   2.390   6.605   2.797
 5815TIP3    H217410   2.262   6.564   2.867
 5816TIP3   OH217411   0.511   2.318   5.146
 5816TIP3    H117412   0.587   2.264   5.163
 5816TIP3    H217413   0.485   2.297   5.056
 5817TIP3   OH217414   5.849   2.576   3.104
 5817TIP3    H117415   5.810   2.514   3.166
 5817TIP3    H217416   5.819   2.662   3.133
 5818TIP3   OH217417   2.272   3.423   1.674
 5818TIP3    H117418   2.307   3.344   1.632
 5818TIP3    H217419   2.336   3.444   1.742
 5819TIP3   OH217420   2.311   5.349   2.257
 5819TIP3    H117421   2.286   5.337   2.166
 5819TIP3    H217422   2.323   5.443   2.267
 5820TIP3   OH217423   2.921   1.595   3.114
 5820TIP3    H117424   2.934   1.690   3.115
 5820TIP3    H217425   3.008   1.559   3.099
 5821TIP3   OH217426   6.808   3.058   4.510
 5821TIP3    H117427   6.718   3.074   4.482
 5821TIP3    H217428   6.803   2.977   4.561
 5822TIP3   OH217429   4.964   5.347   5.823
 5822TIP3    H117430   4.982   5.441   5.829
 5822TIP3    H217431   4.878   5.336   5.863
 5823TIP3   OH217432   7.168   1.953   3.236
 5823TIP3    H117433   7.100   1.985   3.295
 5823TIP3    H217434   7.249   1.987   3.273
 5824TIP3   OH217435   2.286   5.921   1.902
 5824TIP3    H117436   2.365   5.870   1.887
 5824TIP3    H217437   2.310   5.982   1.972
 5825TIP3   OH217438   1.459   2.240   1.952
 5825TIP3    H117439   1.530   2.176   1.946
 5825TIP3    H217440   1.493   2.308   2.010
 5826TIP3   OH217441   5.027   2.074   3.930
 5826TIP3    H117442   4.948   2.085   3.877
 5826TIP3    H217443   5.015   2.132   4.004
 5827TIP3   OH217444   1.134   5.990   3.412
 5827TIP3    H117445   1.040   5.975   3.410
 5827TIP3    H217446   1.145   6.077   3.373
 5828TIP3   OH217447   3.831   4.748   0.197
 5828TIP3    H117448   3.854   4.673   0.142
 5828TIP3    H217449   3.913   4.795   0.208
 5829TIP3   OH217450   0.504   2.488   2.640
 5829TIP3    H117451   0.470   2.543   2.569
 5829TIP3    H217452   0.548   2.416   2.595
 5830TIP3   OH217453   6.808   0.783   2.440
 5830TIP3    H117454   6.784   0.831   2.520
 5830TIP3    H217455   6.796   0.691   2.462
 5831TIP3   OH217456   5.539   4.916   1.508
 5831TIP3    H117457   5.467   4.940   1.566
 5831TIP3    H217458   5.597   4.992   1.508
 5832TIP3   OH217459   0.453   2.623   5.166
 5832TIP3    H117460   0.388   2.556   5.146
 5832TIP3    H217461   0.465   2.616   5.261
 5833TIP3   OH217462   4.300   4.415   1.457
 5833TIP3    H117463   4.349   4.491   1.425
 5833TIP3    H217464   4.226   4.408   1.397
 5834TIP3   OH217465   1.641   4.836   1.516
 5834TIP3    H117466   1.559   4.789   1.534
 5834TIP3    H217467   1.701   4.769   1.485
 5835TIP3   OH217468   0.845   1.039   4.099
 5835TIP3    H117469   0.853   1.080   4.184
 5835TIP3    H217470   0.778   0.971   4.111
 5836TIP3   OH217471   1.106   2.490   2.609
 5836TIP3    H117472   1.108   2.400   2.576
 5836TIP3    H217473   1.193   2.504   2.647
 5837TIP3   OH217474   4.013   6.143   2.553
 5837TIP3    H117475   4.072   6.159   2.479
 5837TIP3    H217476   4.059   6.080   2.608
 5838TIP3   OH217477   0.140   0.537   1.039
 5838TIP3    H117478   0.232   0.513   1.023
 5838TIP3    H217479   0.138   0.632   1.028
 5839TIP3   OH217480   2.711   1.388   0.130
 5839TIP3    H117481   2.646   1.448   0.092
 5839TIP3    H217482   2.791   1.406   0.080
 5840TIP3   OH217483   2.459   4.376   4.479
 5840TIP3    H117484   2.448   4.463   4.516
 5840TIP3    H217485   2.534   4.385   4.419
 5841TIP3   OH217486   4.516   2.634   3.189
 5841TIP3    H117487   4.553   2.709   3.141
 5841TIP3    H217488   4.504   2.567   3.123
 5842TIP3   OH217489   2.681   1.504   5.795
 5842TIP3    H117490   2.653   1.460   5.715
 5842TIP3    H217491   2.776   1.503   5.791
 5843TIP3   OH217492   5.077   5.257   1.652
 5843TIP3    H117493   5.069   5.168   1.617
 5843TIP3    H217494   5.018   5.258   1.728
 5844TIP3   OH217495   4.486   5.347   4.222
 5844TIP3    H117496   4.471   5.296   4.143
 5844TIP3    H217497   4.536   5.423   4.193
 5845TIP3   OH217498   2.994   4.124   2.732
 5845TIP3    H117499   3.063   4.082   2.679
 5845TIP3    H217500   2.995   4.216   2.704
 5846TIP3   OH217501   5.724   2.465   4.566
 5846TIP3    H117502   5.726   2.420   4.650
 5846TIP3    H217503   5.812   2.453   4.531
 5847TIP3   OH217504   1.313   1.262   5.444
 5847TIP3    H117505   1.279   1.203   5.377
 5847TIP3    H217506   1.404   1.233   5.458
 5848TIP3   OH217507   1.558   3.787   5.400
 5848TIP3    H117508   1.493   3.831   5.345
 5848TIP3    H217509   1.546   3.694   5.381
 5849TIP3   OH217510   4.629   5.350   4.987
 5849TIP3    H117511   4.604   5.329   4.897
 5849TIP3    H217512   4.724   5.365   4.983
 5850TIP3   OH217513   3.918   5.401   0.129
 5850TIP3    H117514   3.939   5.427   0.039
 5850TIP3    H217515   3.873   5.317   0.120
 5851TIP3   OH217516   5.548   0.565   0.453
 5851TIP3    H117517   5.624   0.615   0.423
 5851TIP3    H217518   5.575   0.526   0.535
 5852TIP3   OH217519   6.250   5.330   1.831
 5852TIP3    H117520   6.245   5.401   1.768
 5852TIP3    H217521   6.166   5.332   1.876
 5853TIP3   OH217522   1.637   3.929   0.758
 5853TIP3    H117523   1.657   3.862   0.824
 5853TIP3    H217524   1.679   4.008   0.790
 5854TIP3   OH217525   4.741   0.978   3.713
 5854TIP3    H117526   4.782   1.006   3.632
 5854TIP3    H217527   4.683   0.907   3.687
 5855TIP3   OH217528   6.689   1.635   5.887
 5855TIP3    H117529   6.724   1.718   5.855
 5855TIP3    H217530   6.604   1.657   5.926
 5856TIP3   OH217531   4.860   5.061   5.293
 5856TIP3    H117532   4.893   5.130   5.352
 5856TIP3    H217533   4.814   5.109   5.224
 5857TIP3   OH217534   4.918   2.483   4.347
 5857TIP3    H117535   4.879   2.490   4.260
 5857TIP3    H217536   5.013   2.485   4.332
 5858TIP3   OH217537   6.769   3.649   1.247
 5858TIP3    H117538   6.739   3.722   1.302
 5858TIP3    H217539   6.861   3.669   1.230
 5859TIP3   OH217540   2.550   2.657   2.039
 5859TIP3    H117541   2.593   2.718   1.979
 5859TIP3    H217542   2.465   2.641   1.999
 5860TIP3   OH217543   2.161   3.294   1.239
 5860TIP3    H117544   2.231   3.297   1.303
 5860TIP3    H217545   2.184   3.221   1.182
 5861TIP3   OH217546   4.441   6.405   1.076
 5861TIP3    H117547   4.362   6.397   1.129
 5861TIP3    H217548   4.490   6.478   1.116
 5862TIP3   OH217549   1.016   0.150   3.593
 5862TIP3    H117550   1.040   0.240   3.572
 5862TIP3    H217551   0.924   0.155   3.619
 5863TIP3   OH217552   4.528   3.840   4.565
 5863TIP3    H117553   4.594   3.771   4.565
 5863TIP3    H217554   4.485   3.831   4.650
 5864TIP3   OH217555   4.182   0.455   2.090
 5864TIP3    H117556   4.088   0.440   2.083
 5864TIP3    H217557   4.213   0.387   2.151
 5865TIP3   OH217558   3.079   1.591   2.200
 5865TIP3    H117559   3.076   1.682   2.227
 5865TIP3    H217560   3.144   1.589   2.129
 5866TIP3   OH217561   2.877   3.618   5.103
 5866TIP3    H117562   2.792   3.623   5.059
 5866TIP3    H217563   2.886   3.703   5.147
 5867TIP3   OH217564   6.286   1.230   3.331
 5867TIP3    H117565   6.230   1.205   3.258
 5867TIP3    H217566   6.228   1.230   3.407
 5868TIP3   OH217567   0.497   6.673   0.317
 5868TIP3    H117568   0.430   6.638   0.376
 5868TIP3    H217569   0.494   6.768   0.332
 5869TIP3   OH217570   1.077   5.582   4.914
 5869TIP3    H117571   1.152   5.603   4.970
 5869TIP3    H217572   1.001   5.606   4.965
 5870TIP3   OH217573   4.130   2.807   3.221
 5870TIP3    H117574   4.041   2.774   3.209
 5870TIP3    H217575   4.120   2.901   3.230
 5871TIP3   OH217576   0.352   1.354   4.074
 5871TIP3    H117577   0.327   1.360   4.166
 5871TIP3    H217578   0.370   1.445   4.048
 5872TIP3   OH217579   1.234   2.482   3.702
 5872TIP3    H117580   1.234   2.570   3.740
 5872TIP3    H217581   1.235   2.496   3.607
 5873TIP3   OH217582   1.165   4.939   3.952
 5873TIP3    H117583   1.218   4.974   4.024
 5873TIP3    H217584   1.198   4.850   3.940
 5874TIP3   OH217585   0.264   0.236   4.586
 5874TIP3    H117586   0.320   0.302   4.545
 5874TIP3    H217587   0.317   0.157   4.588
 5875TIP3   OH217588   1.314   3.896   1.400
 5875TIP3    H117589   1.260   3.972   1.375
 5875TIP3    H217590   1.310   3.893   1.495
 5876TIP3   OH217591   4.582   0.261   0.943
 5876TIP3    H117592   4.612   0.173   0.920
 5876TIP3    H217593   4.562   0.302   0.858
 5877TIP3   OH217594   2.757   5.461   4.397
 5877TIP3    H117595   2.818   5.450   4.470
 5877TIP3    H217596   2.760   5.378   4.350
 5878TIP3   OH217597   3.902   3.815   2.472
 5878TIP3    H117598   3.831   3.860   2.427
 5878TIP3    H217599   3.863   3.734   2.504
 5879TIP3   OH217600   0.072   4.817   1.748
 5879TIP3    H117601   0.104   4.835   1.659
 5879TIP3    H217602   0.147   4.777   1.792
 5880TIP3   OH217603   5.306   4.018   4.227
 5880TIP3    H117604   5.230   4.031   4.284
 5880TIP3    H217605   5.294   4.082   4.157
 5881TIP3   OH217606   1.313   5.471   5.514
 5881TIP3    H117607   1.312   5.382   5.548
 5881TIP3    H217608   1.351   5.523   5.585
 5882TIP3   OH217609   3.860   6.385   1.353
 5882TIP3    H117610   3.877   6.353   1.265
 5882TIP3    H217611   3.943   6.425   1.381
 5883TIP3   OH217612   2.693   5.092   3.304
 5883TIP3    H117613   2.625   5.090   3.237
 5883TIP3    H217614   2.729   5.180   3.299
 5884TIP3   OH217615   3.246   4.055   0.142
 5884TIP3    H117616   3.233   4.089   0.231
 5884TIP3    H217617   3.302   3.978   0.154
 5885TIP3   OH217618   4.588   3.217   3.496
 5885TIP3    H117619   4.609   3.237   3.587
 5885TIP3    H217620   4.553   3.299   3.460
 5886TIP3   OH217621   1.148   1.117   4.625
 5886TIP3    H117622   1.121   1.204   4.653
 5886TIP3    H217623   1.237   1.107   4.658
 5887TIP3   OH217624   3.247   3.047   4.648
 5887TIP3    H117625   3.244   2.961   4.690
 5887TIP3    H217626   3.321   3.091   4.690
 5888TIP3   OH217627   4.372   1.550   0.190
 5888TIP3    H117628   4.436   1.558   0.261
 5888TIP3    H217629   4.306   1.616   0.209
 5889TIP3   OH217630   3.338   2.514   4.550
 5889TIP3    H117631   3.302   2.527   4.637
 5889TIP3    H217632   3.371   2.600   4.524
 5890TIP3   OH217633   7.046   1.443   2.084
 5890TIP3    H117634   6.974   1.474   2.138
 5890TIP3    H217635   7.120   1.498   2.109
 5891TIP3   OH217636   4.010   2.698   4.178
 5891TIP3    H117637   4.043   2.615   4.145
 5891TIP3    H217638   4.018   2.692   4.273
 5892TIP3   OH217639   6.101   1.956   3.605
 5892TIP3    H117640   6.171   1.966   3.540
 5892TIP3    H217641   6.024   1.934   3.553
 5893TIP3   OH217642   1.258   4.817   4.308
 5893TIP3    H117643   1.329   4.821   4.372
 5893TIP3    H217644   1.242   4.908   4.285
 5894TIP3   OH217645   2.400   0.925   3.160
 5894TIP3    H117646   2.379   0.892   3.072
 5894TIP3    H217647   2.327   0.894   3.214
 5895TIP3   OH217648   0.368   6.441   2.036
 5895TIP3    H117649   0.333   6.519   2.079
 5895TIP3    H217650   0.344   6.452   1.944
 5896TIP3   OH217651   2.971   5.319   2.002
 5896TIP3    H117652   2.894   5.322   2.059
 5896TIP3    H217653   3.040   5.282   2.057
 5897TIP3   OH217654   1.735   5.590   4.090
 5897TIP3    H117655   1.736   5.513   4.034
 5897TIP3    H217656   1.661   5.642   4.057
 5898TIP3   OH217657   0.626   5.714   4.297
 5898TIP3    H117658   0.613   5.643   4.360
 5898TIP3    H217659   0.717   5.706   4.270
 5899TIP3   OH217660   4.303   6.012   4.948
 5899TIP3    H117661   4.353   6.093   4.952
 5899TIP3    H217662   4.212   6.040   4.940
 5900TIP3   OH217663   2.036   0.529   0.708
 5900TIP3    H117664   2.056   0.538   0.801
 5900TIP3    H217665   2.079   0.448   0.682
 5901TIP3   OH217666   0.124   2.748   1.075
 5901TIP3    H117667   0.173   2.791   1.005
 5901TIP3    H217668   0.032   2.754   1.048
 5902TIP3   OH217669   0.197   5.746   3.821
 5902TIP3    H117670   0.187   5.839   3.801
 5902TIP3    H217671   0.118   5.725   3.872
 5903TIP3   OH217672   4.502   0.757   0.314
 5903TIP3    H117673   4.407   0.744   0.319
 5903TIP3    H217674   4.517   0.784   0.223
 5904TIP3   OH217675   0.242   6.458   5.916
 5904TIP3    H117676   0.201   6.435   5.833
 5904TIP3    H217677   0.336   6.463   5.896
 5905TIP3   OH217678   6.340   3.214   0.612
 5905TIP3    H117679   6.427   3.207   0.652
 5905TIP3    H217680   6.348   3.167   0.529
 5906TIP3   OH217681   4.443   2.190   4.565
 5906TIP3    H117682   4.525   2.205   4.518
 5906TIP3    H217683   4.391   2.136   4.506
 5907TIP3   OH217684   6.564   1.722   1.361
 5907TIP3    H117685   6.515   1.769   1.430
 5907TIP3    H217686   6.523   1.636   1.357
 5908TIP3   OH217687   5.461   0.146   2.166
 5908TIP3    H117688   5.472   0.164   2.260
 5908TIP3    H217689   5.539   0.185   2.126
 5909TIP3   OH217690   0.389   6.606   4.743
 5909TIP3    H117691   0.350   6.646   4.821
 5909TIP3    H217692   0.477   6.642   4.740
 5910TIP3   OH217693   7.096   2.415   3.958
 5910TIP3    H117694   7.001   2.420   3.968
 5910TIP3    H217695   7.120   2.328   3.991
 5911TIP3   OH217696   0.094   6.216   0.494
 5911TIP3    H117697   0.125   6.137   0.449
 5911TIP3    H217698   0.001   6.221   0.472
 5912TIP3   OH217699   4.813   6.109   2.161
 5912TIP3    H117700   4.739   6.155   2.122
 5912TIP3    H217701   4.800   6.018   2.136
 5913TIP3   OH217702   6.577   2.922   5.307
 5913TIP3    H117703   6.622   2.972   5.238
 5913TIP3    H217704   6.552   2.987   5.372
 5914TIP3   OH217705   6.679   0.937   2.264
 5914TIP3    H117706   6.737   0.938   2.188
 5914TIP3    H217707   6.719   0.872   2.323
 5915TIP3   OH217708   2.489   5.251   1.395
 5915TIP3    H117709   2.555   5.196   1.353
 5915TIP3    H217710   2.423   5.265   1.326
 5916TIP3   OH217711   1.263   3.807   5.801
 5916TIP3    H117712   1.265   3.793   5.896
 5916TIP3    H217713   1.314   3.886   5.787
 5917TIP3   OH217714   3.962   1.617   0.663
 5917TIP3    H117715   3.949   1.711   0.648
 5917TIP3    H217716   3.875   1.579   0.656
 5918TIP3   OH217717   4.042   0.640   5.837
 5918TIP3    H117718   4.013   0.721   5.878
 5918TIP3    H217719   3.972   0.618   5.776
 5919TIP3   OH217720   4.371   1.252   4.197
 5919TIP3    H117721   4.322   1.186   4.247
 5919TIP3    H217722   4.389   1.209   4.113
 5920TIP3   OH217723   4.324   2.442   4.356
 5920TIP3    H117724   4.356   2.519   4.402
 5920TIP3    H217725   4.287   2.386   4.424
 5921TIP3   OH217726   2.259   5.516   3.456
 5921TIP3    H117727   2.181   5.498   3.508
 5921TIP3    H217728   2.307   5.434   3.455
 5922TIP3   OH217729   6.443   4.809   1.715
 5922TIP3    H117730   6.510   4.857   1.666
 5922TIP3    H217731   6.443   4.850   1.802
 5923TIP3   OH217732   2.657   5.264   4.854
 5923TIP3    H117733   2.651   5.268   4.759
 5923TIP3    H217734   2.568   5.244   4.884
 5924TIP3   OH217735   1.298   6.536   3.239
 5924TIP3    H117736   1.368   6.572   3.185
 5924TIP3    H217737   1.257   6.469   3.185
 5925TIP3   OH217738   1.456   6.595   4.909
 5925TIP3    H117739   1.548   6.597   4.884
 5925TIP3    H217740   1.423   6.512   4.875
 5926TIP3   OH217741   5.529   2.604   5.714
 5926TIP3    H117742   5.571   2.681   5.676
 5926TIP3    H217743   5.594   2.570   5.776
 5927TIP3   OH217744   7.193   3.896   4.917
 5927TIP3    H117745   7.102   3.877   4.940
 5927TIP3    H217746   7.225   3.815   4.878
 5928TIP3   OH217747   2.298   2.335   2.482
 5928TIP3    H117748   2.370   2.398   2.479
 5928TIP3    H217749   2.331   2.264   2.537
 5929TIP3   OH217750   6.540   3.692   0.556
 5929TIP3    H117751   6.550   3.690   0.651
 5929TIP3    H217752   6.606   3.754   0.526
 5930TIP3   OH217753   4.313   4.411   3.143
 5930TIP3    H117754   4.312   4.368   3.229
 5930TIP3    H217755   4.287   4.501   3.161
 5931TIP3   OH217756   4.396   4.176   3.351
 5931TIP3    H117757   4.392   4.230   3.430
 5931TIP3    H217758   4.336   4.103   3.369
 5932TIP3   OH217759   6.214   0.816   1.017
 5932TIP3    H117760   6.309   0.819   1.003
 5932TIP3    H217761   6.186   0.908   1.013
 5933TIP3   OH217762   2.167   5.675   0.830
 5933TIP3    H117763   2.138   5.593   0.870
 5933TIP3    H217764   2.221   5.649   0.756
 5934TIP3   OH217765   4.110   6.653   2.865
 5934TIP3    H117766   4.105   6.715   2.792
 5934TIP3    H217767   4.019   6.633   2.886
 5935TIP3   OH217768   7.166   3.845   3.087
 5935TIP3    H117769   7.194   3.767   3.038
 5935TIP3    H217770   7.165   3.915   3.022
 5936TIP3   OH217771   1.577   1.534   3.355
 5936TIP3    H117772   1.624   1.484   3.288
 5936TIP3    H217773   1.528   1.600   3.305
 5937TIP3   OH217774   1.144   6.540   4.753
 5937TIP3    H117775   1.164   6.630   4.729
 5937TIP3    H217776   1.229   6.496   4.753
 5938TIP3   OH217777   5.386   2.629   0.137
 5938TIP3    H117778   5.335   2.584   0.204
 5938TIP3    H217779   5.449   2.564   0.107
 5939TIP3   OH217780   2.310   1.387   0.855
 5939TIP3    H117781   2.229   1.403   0.905
 5939TIP3    H217782   2.317   1.462   0.796
 5940TIP3   OH217783   2.462   6.345   3.821
 5940TIP3    H117784   2.533   6.405   3.842
 5940TIP3    H217785   2.426   6.379   3.739
 5941TIP3   OH217786   2.682   1.641   3.990
 5941TIP3    H117787   2.671   1.700   3.915
 5941TIP3    H217788   2.644   1.689   4.064
 5942TIP3   OH217789   1.995   0.421   2.428
 5942TIP3    H117790   1.928   0.453   2.367
 5942TIP3    H217791   2.074   0.412   2.374
 5943TIP3   OH217792   5.480   4.858   0.039
 5943TIP3    H117793   5.539   4.931   0.057
 5943TIP3    H217794   5.455   4.869  -0.053
 5944TIP3   OH217795   1.262   5.082   4.167
 5944TIP3    H117796   1.318   5.135   4.223
 5944TIP3    H217797   1.178   5.129   4.164
 5945TIP3   OH217798   6.438   1.035   0.304
 5945TIP3    H117799   6.533   1.045   0.311
 5945TIP3    H217800   6.408   1.030   0.395
 5946TIP3   OH217801   5.326   6.709   0.836
 5946TIP3    H117802   5.343   6.776   0.769
 5946TIP3    H217803   5.323   6.627   0.787
 5947TIP3   OH217804   5.333   5.935   1.853
 5947TIP3    H117805   5.419   5.933   1.811
 5947TIP3    H217806   5.352   5.941   1.947
 5948TIP3   OH217807   4.725   3.932   3.242
 5948TIP3    H117808   4.681   3.923   3.327
 5948TIP3    H217809   4.669   3.992   3.193
 5949TIP3   OH217810   1.950   4.740   2.645
 5949TIP3    H117811   2.041   4.758   2.624
 5949TIP3    H217812   1.930   4.659   2.598
 5950TIP3   OH217813   5.689   5.915   1.122
 5950TIP3    H117814   5.661   5.968   1.196
 5950TIP3    H217815   5.784   5.929   1.116
 5951TIP3   OH217816   1.945   1.697   0.816
 5951TIP3    H117817   2.014   1.694   0.750
 5951TIP3    H217818   1.911   1.786   0.812
 5952TIP3   OH217819   4.981   0.512   3.608
 5952TIP3    H117820   4.961   0.605   3.602
 5952TIP3    H217821   4.907   0.474   3.655
 5953TIP3   OH217822   4.562   4.700   1.549
 5953TIP3    H117823   4.470   4.699   1.576
 5953TIP3    H217824   4.596   4.614   1.574
 5954TIP3   OH217825  -0.030   1.674   4.369
 5954TIP3    H117826  -0.012   1.652   4.277
 5954TIP3    H217827   0.057   1.682   4.408
 5955TIP3   OH217828   6.718   2.097   3.019
 5955TIP3    H117829   6.721   2.145   2.936
 5955TIP3    H217830   6.790   2.035   3.012
 5956TIP3   OH217831   2.619   3.334   3.559
 5956TIP3    H117832   2.535   3.376   3.572
 5956TIP3    H217833   2.631   3.332   3.463
 5957TIP3   OH217834   6.210   6.378   0.626
 5957TIP3    H117835   6.167   6.393   0.541
 5957TIP3    H217836   6.150   6.415   0.690
 5958TIP3   OH217837   2.527   4.120   4.039
 5958TIP3    H117838   2.536   4.215   4.046
 5958TIP3    H217839   2.507   4.091   4.128
 5959TIP3   OH217840   6.984   3.069   2.082
 5959TIP3    H117841   7.007   2.980   2.106
 5959TIP3    H217842   6.894   3.064   2.051
 5960TIP3   OH217843   4.327   2.918   3.766
 5960TIP3    H117844   4.245   2.959   3.740
 5960TIP3    H217845   4.305   2.871   3.847
 5961TIP3   OH217846   5.169   0.304   2.541
 5961TIP3    H117847   5.085   0.260   2.527
 5961TIP3    H217848   5.146   0.394   2.563
 5962TIP3   OH217849   1.210   6.587   5.050
 5962TIP3    H117850   1.285   6.631   5.011
 5962TIP3    H217851   1.200   6.507   5.000
 5963TIP3   OH217852   7.005   3.268   2.783
 5963TIP3    H117853   6.983   3.361   2.792
 5963TIP3    H217854   7.100   3.265   2.795
 5964TIP3   OH217855   0.504   2.898   0.355
 5964TIP3    H117856   0.413   2.906   0.383
 5964TIP3    H217857   0.499   2.853   0.270
 5965TIP3   OH217858   4.931   6.562   1.408
 5965TIP3    H117859   5.024   6.587   1.408
 5965TIP3    H217860   4.891   6.617   1.476
 5966TIP3   OH217861   4.754   3.315   0.202
 5966TIP3    H117862   4.753   3.320   0.106
 5966TIP3    H217863   4.769   3.405   0.230
 5967TIP3   OH217864   6.514   1.974   4.396
 5967TIP3    H117865   6.574   1.919   4.345
 5967TIP3    H217866   6.571   2.028   4.451
 5968TIP3   OH217867   1.052   3.633   2.302
 5968TIP3    H117868   1.070   3.700   2.368
 5968TIP3    H217869   1.107   3.558   2.328
 5969TIP3   OH217870   1.442   2.398   4.678
 5969TIP3    H117871   1.375   2.331   4.689
 5969TIP3    H217872   1.521   2.359   4.714
 5970TIP3   OH217873   0.895   2.029   5.449
 5970TIP3    H117874   0.955   1.958   5.472
 5970TIP3    H217875   0.821   2.019   5.508
 5971TIP3   OH217876   5.024   1.055   3.285
 5971TIP3    H117877   5.033   1.146   3.256
 5971TIP3    H217878   5.103   1.038   3.336
 5972TIP3   OH217879   6.857   5.318   2.729
 5972TIP3    H117880   6.815   5.238   2.759
 5972TIP3    H217881   6.913   5.290   2.657
 5973TIP3   OH217882   7.089   5.186   4.355
 5973TIP3    H117883   7.028   5.112   4.343
 5973TIP3    H217884   7.146   5.183   4.278
 5974TIP3   OH217885   3.398   3.359   0.249
 5974TIP3    H117886   3.477   3.385   0.297
 5974TIP3    H217887   3.367   3.439   0.208
 5975TIP3   OH217888   7.001   1.150   5.072
 5975TIP3    H117889   7.006   1.179   4.981
 5975TIP3    H217890   6.989   1.056   5.066
 5976TIP3   OH217891   5.973   6.030   1.363
 5976TIP3    H117892   5.998   6.105   1.417
 5976TIP3    H217893   6.046   5.968   1.374
 5977TIP3   OH217894   2.382   3.768   0.914
 5977TIP3    H117895   2.388   3.805   0.826
 5977TIP3    H217896   2.302   3.715   0.912
 5978TIP3   OH217897   5.631   6.106   5.147
 5978TIP3    H117898   5.719   6.133   5.122
 5978TIP3    H217899   5.574   6.142   5.079
 5979TIP3   OH217900   1.011   1.120   4.322
 5979TIP3    H117901   1.070   1.196   4.325
 5979TIP3    H217902   1.018   1.080   4.409
 5980TIP3   OH217903   1.625   2.084   0.711
 5980TIP3    H117904   1.711   2.045   0.728
 5980TIP3    H217905   1.568   2.010   0.696
 5981TIP3   OH217906   5.044   6.788   2.969
 5981TIP3    H117907   4.970   6.808   3.027
 5981TIP3    H217908   5.037   6.694   2.953
 5982TIP3   OH217909   6.584   5.585   4.288
 5982TIP3    H117910   6.520   5.603   4.219
 5982TIP3    H217911   6.533   5.586   4.369
 5983TIP3   OH217912   2.259   6.698   3.825
 5983TIP3    H117913   2.275   6.615   3.779
 5983TIP3    H217914   2.232   6.671   3.913
 5984TIP3   OH217915   4.410   1.577   2.264
 5984TIP3    H117916   4.378   1.663   2.238
 5984TIP3    H217917   4.505   1.584   2.258
 5985TIP3   OH217918   1.997   4.626   1.155
 5985TIP3    H117919   1.986   4.533   1.172
 5985TIP3    H217920   1.965   4.638   1.065
 5986TIP3   OH217921   4.009   2.744   1.977
 5986TIP3    H117922   4.089   2.699   1.949
 5986TIP3    H217923   4.010   2.736   2.072
 5987TIP3   OH217924   4.646   0.430   5.523
 5987TIP3    H117925   4.632   0.517   5.559
 5987TIP3    H217926   4.588   0.373   5.574
 5988TIP3   OH217927   1.750   3.945   4.851
 5988TIP3    H117928   1.811   3.893   4.799
 5988TIP3    H217929   1.663   3.920   4.819
 5989TIP3   OH217930   3.765   5.627   4.715
 5989TIP3    H117931   3.770   5.703   4.772
 5989TIP3    H217932   3.695   5.573   4.752
 5990TIP3   OH217933   2.139   3.570   3.688
 5990TIP3    H117934   2.157   3.574   3.594
 5990TIP3    H217935   2.147   3.477   3.710
 5991TIP3   OH217936   0.904   0.581   1.801
 5991TIP3    H117937   0.919   0.548   1.712
 5991TIP3    H217938   0.812   0.563   1.818
 5992TIP3   OH217939   1.960   2.232   3.066
 5992TIP3    H117940   2.011   2.210   2.988
 5992TIP3    H217941   1.950   2.150   3.112
 5993TIP3   OH217942   6.049   3.769   1.602
 5993TIP3    H117943   5.964   3.730   1.579
 5993TIP3    H217944   6.041   3.790   1.695
 5994TIP3   OH217945   1.064   5.895   5.209
 5994TIP3    H117946   1.095   5.981   5.236
 5994TIP3    H217947   1.115   5.833   5.261
 5995TIP3   OH217948   6.916   3.236   5.868
 5995TIP3    H117949   6.951   3.166   5.813
 5995TIP3    H217950   6.852   3.280   5.813
 5996TIP3   OH217951   5.075   6.263   0.811
 5996TIP3    H117952   4.995   6.242   0.763
 5996TIP3    H217953   5.117   6.179   0.826
 5997TIP3   OH217954   0.509   6.487   3.832
 5997TIP3    H117955   0.490   6.581   3.826
 5997TIP3    H217956   0.555   6.467   3.750
 5998TIP3   OH217957   3.512   6.733   2.486
 5998TIP3    H117958   3.529   6.639   2.489
 5998TIP3    H217959   3.567   6.770   2.555
 5999TIP3   OH217960   6.162   6.598   2.228
 5999TIP3    H117961   6.218   6.535   2.274
 5999TIP3    H217962   6.121   6.548   2.158
 6000TIP3   OH217963   7.130   2.263   0.229
 6000TIP3    H117964   7.076   2.220   0.163
 6000TIP3    H217965   7.220   2.244   0.203
 6001TIP3   OH217966   0.988   5.406   3.221
 6001TIP3    H117967   1.057   5.370   3.166
 6001TIP3    H217968   0.909   5.403   3.166
 6002TIP3   OH217969   1.262   4.218   0.425
 6002TIP3    H117970   1.176   4.217   0.466
 6002TIP3    H217971   1.324   4.226   0.497
 6003TIP3   OH217972   0.371   0.442   4.393
 6003TIP3    H117973   0.338   0.529   4.418
 6003TIP3    H217974   0.464   0.455   4.379
 6004TIP3   OH217975   0.322   3.487   2.326
 6004TIP3    H117976   0.408   3.448   2.336
 6004TIP3    H217977   0.294   3.460   2.238
 6005TIP3   OH217978   5.737   2.118   5.669
 6005TIP3    H117979   5.812   2.069   5.701
 6005TIP3    H217980   5.757   2.210   5.690
 6006TIP3   OH217981   6.475   3.007   4.525
 6006TIP3    H117982   6.414   2.941   4.558
 6006TIP3    H217983   6.510   2.970   4.444
 6007TIP3   OH217984   5.667   1.098   3.869
 6007TIP3    H117985   5.688   1.147   3.789
 6007TIP3    H217986   5.585   1.053   3.848
 6008TIP3   OH217987   4.479   0.229   2.880
 6008TIP3    H117988   4.482   0.258   2.971
 6008TIP3    H217989   4.509   0.305   2.830
 6009TIP3   OH217990   5.967   0.949   5.559
 6009TIP3    H117991   5.954   0.858   5.532
 6009TIP3    H217992   5.882   0.991   5.547
 6010TIP3   OH217993   2.372   1.732   0.260
 6010TIP3    H117994   2.280   1.724   0.285
 6010TIP3    H217995   2.420   1.734   0.342
 6011TIP3   OH217996   2.269   6.716   5.315
 6011TIP3    H117997   2.359   6.706   5.346
 6011TIP3    H217998   2.219   6.651   5.365
 6012TIP3   OH217999   5.371   4.007   2.989
 6012TIP3    H118000   5.293   4.037   3.036
 6012TIP3    H218001   5.363   4.046   2.902
 6013TIP3   OH218002   5.856   1.297   0.207
 6013TIP3    H118003   5.895   1.280   0.121
 6013TIP3    H218004   5.834   1.390   0.206
 6014TIP3   OH218005   0.672   4.454   4.219
 6014TIP3    H118006   0.753   4.406   4.234
 6014TIP3    H218007   0.607   4.409   4.274
 6015TIP3   OH218008   3.509   4.463   5.240
 6015TIP3    H118009   3.441   4.404   5.271
 6015TIP3    H218010   3.570   4.407   5.193
 6016TIP3   OH218011   4.788   4.735   4.724
 6016TIP3    H118012   4.736   4.676   4.778
 6016TIP3    H218013   4.847   4.778   4.786
 6017TIP3   OH218014   6.027   4.670   2.961
 6017TIP3    H118015   5.974   4.739   2.923
 6017TIP3    H218016   6.061   4.621   2.886
 6018TIP3   OH218017   5.933   3.758   1.248
 6018TIP3    H118018   5.871   3.732   1.180
 6018TIP3    H218019   5.905   3.846   1.273
 6019TIP3   OH218020   6.623   1.238   1.859
 6019TIP3    H118021   6.576   1.206   1.936
 6019TIP3    H218022   6.555   1.253   1.794
 6020TIP3   OH218023   6.389   4.113   5.208
 6020TIP3    H118024   6.442   4.092   5.131
 6020TIP3    H218025   6.426   4.194   5.242
 6021TIP3   OH218026   4.401   0.769   5.354
 6021TIP3    H118027   4.441   0.811   5.431
 6021TIP3    H218028   4.455   0.797   5.281
 6022TIP3   OH218029   5.135   4.844   0.895
 6022TIP3    H118030   5.138   4.933   0.858
 6022TIP3    H218031   5.168   4.855   0.985
 6023TIP3   OH218032   4.685   0.257   2.181
 6023TIP3    H118033   4.610   0.220   2.135
 6023TIP3    H218034   4.704   0.339   2.135
 6024TIP3   OH218035   2.123   1.697   4.468
 6024TIP3    H118036   2.044   1.697   4.413
 6024TIP3    H218037   2.158   1.608   4.459
 6025TIP3   OH218038   2.187   5.414   5.270
 6025TIP3    H118039   2.250   5.438   5.202
 6025TIP3    H218040   2.228   5.441   5.352
 6026TIP3   OH218041   3.974   6.220   4.352
 6026TIP3    H118042   3.952   6.260   4.268
 6026TIP3    H218043   3.975   6.126   4.334
 6027TIP3   OH218044   0.486   3.224   2.835
 6027TIP3    H118045   0.513   3.133   2.826
 6027TIP3    H218046   0.390   3.221   2.829
 6028TIP3   OH218047   1.201   6.213   5.249
 6028TIP3    H118048   1.237   6.277   5.310
 6028TIP3    H218049   1.112   6.198   5.280
 6029TIP3   OH218050   0.592   1.921   2.527
 6029TIP3    H118051   0.591   2.016   2.542
 6029TIP3    H218052   0.598   1.912   2.432
 6030TIP3   OH218053   6.118   2.344   0.556
 6030TIP3    H118054   6.065   2.365   0.479
 6030TIP3    H218055   6.128   2.249   0.553
 6031TIP3   OH218056   4.587   4.625   0.205
 6031TIP3    H118057   4.681   4.616   0.225
 6031TIP3    H218058   4.547   4.647   0.289
 6032TIP3   OH218059   1.993   0.420   5.802
 6032TIP3    H118060   1.975   0.497   5.857
 6032TIP3    H218061   2.049   0.454   5.732
 6033TIP3   OH218062   4.393   6.649   2.602
 6033TIP3    H118063   4.379   6.743   2.588
 6033TIP3    H218064   4.379   6.637   2.696
 6034TIP3   OH218065   0.327   6.437   3.084
 6034TIP3    H118066   0.410   6.397   3.110
 6034TIP3    H218067   0.301   6.488   3.161
 6035TIP3   OH218068   4.642   0.807   4.897
 6035TIP3    H118069   4.664   0.713   4.895
 6035TIP3    H218070   4.637   0.829   4.990
 6036TIP3   OH218071   0.766   3.394   1.588
 6036TIP3    H118072   0.823   3.323   1.617
 6036TIP3    H218073   0.732   3.364   1.504
 6037TIP3   OH218074   4.009   6.202   3.137
 6037TIP3    H118075   3.997   6.108   3.125
 6037TIP3    H218076   4.049   6.210   3.223
 6038TIP3   OH218077   5.869   4.204   2.941
 6038TIP3    H118078   5.936   4.174   3.003
 6038TIP3    H218079   5.839   4.288   2.977
 6039TIP3   OH218080   5.497   6.367   3.370
 6039TIP3    H118081   5.523   6.435   3.432
 6039TIP3    H218082   5.579   6.325   3.345
 6040TIP3   OH218083   0.038   4.586   1.420
 6040TIP3    H118084   0.077   4.673   1.430
 6040TIP3    H218085   0.111   4.529   1.397
 6041TIP3   OH218086   1.153   3.414   0.513
 6041TIP3    H118087   1.209   3.459   0.576
 6041TIP3    H218088   1.064   3.432   0.543
 6042TIP3   OH218089   3.240   3.787   5.146
 6042TIP3    H118090   3.168   3.770   5.207
 6042TIP3    H218091   3.319   3.771   5.197
 6043TIP3   OH218092   1.543   1.625   5.453
 6043TIP3    H118093   1.575   1.615   5.542
 6043TIP3    H218094   1.557   1.540   5.412
 6044TIP3   OH218095   5.608   5.923   4.427
 6044TIP3    H118096   5.625   5.870   4.505
 6044TIP3    H218097   5.538   5.877   4.381
 6045TIP3   OH218098   4.712   4.527   3.810
 6045TIP3    H118099   4.701   4.617   3.840
 6045TIP3    H218100   4.623   4.493   3.803
 6046TIP3   OH218101   4.512   4.805   1.052
 6046TIP3    H118102   4.472   4.737   0.998
 6046TIP3    H218103   4.605   4.800   1.032
 6047TIP3   OH218104   6.610   3.150   3.713
 6047TIP3    H118105   6.602   3.243   3.690
 6047TIP3    H218106   6.550   3.105   3.654
 6048TIP3   OH218107   6.641   2.721   1.663
 6048TIP3    H118108   6.698   2.645   1.651
 6048TIP3    H218109   6.557   2.684   1.691
 6049TIP3   OH218110   3.348   5.510   0.682
 6049TIP3    H118111   3.401   5.474   0.753
 6049TIP3    H218112   3.270   5.543   0.726
 6050TIP3   OH218113   4.837   0.463   0.751
 6050TIP3    H118114   4.919   0.448   0.798
 6050TIP3    H218115   4.808   0.549   0.781
 6051TIP3   OH218116   3.270   0.256   2.818
 6051TIP3    H118117   3.186   0.301   2.811
 6051TIP3    H218118   3.246   0.164   2.831
 6052TIP3   OH218119   0.149   0.916   0.486
 6052TIP3    H118120   0.219   0.936   0.423
 6052TIP3    H218121   0.120   1.001   0.516
 6053TIP3   OH218122   5.728   5.120   2.514
 6053TIP3    H118123   5.699   5.186   2.577
 6053TIP3    H218124   5.679   5.140   2.434
 6054TIP3   OH218125   5.239   1.267   1.931
 6054TIP3    H118126   5.329   1.283   1.902
 6054TIP3    H218127   5.246   1.250   2.025
 6055TIP3   OH218128   3.412   3.005   1.106
 6055TIP3    H118129   3.490   3.048   1.074
 6055TIP3    H218130   3.340   3.047   1.059
 6056TIP3   OH218131   1.801   4.183   2.766
 6056TIP3    H118132   1.750   4.255   2.804
 6056TIP3    H218133   1.809   4.119   2.837
 6057TIP3   OH218134   1.876   1.952   3.095
 6057TIP3    H118135   1.830   1.973   3.176
 6057TIP3    H218136   1.807   1.931   3.033
 6058TIP3   OH218137   0.472   6.378   0.107
 6058TIP3    H118138   0.467   6.450   0.044
 6058TIP3    H218139   0.384   6.372   0.144
 6059TIP3   OH218140   1.558   0.973   3.661
 6059TIP3    H118141   1.527   1.046   3.715
 6059TIP3    H218142   1.478   0.934   3.625
 6060TIP3   OH218143   4.869   2.408   3.224
 6060TIP3    H118144   4.944   2.463   3.246
 6060TIP3    H218145   4.890   2.372   3.137
 6061TIP3   OH218146   3.136   3.572   2.791
 6061TIP3    H118147   3.138   3.551   2.884
 6061TIP3    H218148   3.213   3.528   2.755
 6062TIP3   OH218149   3.815   1.224   0.475
 6062TIP3    H118150   3.739   1.231   0.418
 6062TIP3    H218151   3.875   1.292   0.445
 6063TIP3   OH218152   4.861   2.783   4.377
 6063TIP3    H118153   4.771   2.767   4.349
 6063TIP3    H218154   4.896   2.695   4.395
 6064TIP3   OH218155   2.477   2.131   2.302
 6064TIP3    H118156   2.493   2.048   2.347
 6064TIP3    H218157   2.534   2.128   2.225
 6065TIP3   OH218158   4.919   6.014   0.695
 6065TIP3    H118159   4.860   5.940   0.711
 6065TIP3    H218160   5.006   5.976   0.700
 6066TIP3   OH218161   2.465   2.226   1.861
 6066TIP3    H118162   2.518   2.286   1.913
 6066TIP3    H218163   2.516   2.210   1.782
 6067TIP3   OH218164   0.992   1.151   5.411
 6067TIP3    H118165   1.037   1.194   5.483
 6067TIP3    H218166   0.985   1.059   5.437
 6068TIP3   OH218167   0.751   6.040   0.529
 6068TIP3    H118168   0.694   6.103   0.485
 6068TIP3    H218169   0.806   6.005   0.458
 6069TIP3   OH218170   7.177   4.748   0.321
 6069TIP3    H118171   7.104   4.765   0.380
 6069TIP3    H218172   7.136   4.727   0.237
 6070TIP3   OH218173   1.120   5.307   1.103
 6070TIP3    H118174   1.123   5.377   1.167
 6070TIP3    H218175   1.136   5.227   1.153
 6071TIP3   OH218176   1.654   6.684   0.901
 6071TIP3    H118177   1.642   6.747   0.830
 6071TIP3    H218178   1.747   6.689   0.922
 6072TIP3   OH218179   3.198   0.369   2.229
 6072TIP3    H118180   3.157   0.453   2.211
 6072TIP3    H218181   3.147   0.306   2.177
 6073TIP3   OH218182  -0.025   5.851   2.957
 6073TIP3    H118183  -0.035   5.913   2.885
 6073TIP3    H218184   0.062   5.814   2.946
 6074TIP3   OH218185   4.963   1.219   1.844
 6074TIP3    H118186   5.057   1.234   1.854
 6074TIP3    H218187   4.933   1.291   1.788
 6075TIP3   OH218188   2.610   1.406   0.786
 6075TIP3    H118189   2.584   1.497   0.766
 6075TIP3    H218190   2.606   1.361   0.701
 6076TIP3   OH218191   3.456   2.083   1.280
 6076TIP3    H118192   3.488   2.065   1.192
 6076TIP3    H218193   3.425   1.998   1.312
 6077TIP3   OH218194   2.802   3.865   3.954
 6077TIP3    H118195   2.711   3.835   3.963
 6077TIP3    H218196   2.818   3.864   3.860
 6078TIP3   OH218197   4.282   0.300   3.903
 6078TIP3    H118198   4.345   0.281   3.834
 6078TIP3    H218199   4.240   0.381   3.876
 6079TIP3   OH218200   3.576   3.696   1.020
 6079TIP3    H118201   3.621   3.629   1.071
 6079TIP3    H218202   3.578   3.663   0.930
 6080TIP3   OH218203   0.388   2.221   0.959
 6080TIP3    H118204   0.453   2.196   1.024
 6080TIP3    H218205   0.380   2.316   0.968
 6081TIP3   OH218206   1.411   0.835   4.567
 6081TIP3    H118207   1.498   0.827   4.528
 6081TIP3    H218208   1.367   0.753   4.545
 6082TIP3   OH218209   2.567   3.537   5.484
 6082TIP3    H118210   2.592   3.615   5.435
 6082TIP3    H218211   2.645   3.516   5.537
 6083TIP3   OH218212   1.265   3.699   5.544
 6083TIP3    H118213   1.289   3.717   5.635
 6083TIP3    H218214   1.171   3.717   5.540
 6084TIP3   OH218215   3.676   0.229   0.010
 6084TIP3    H118216   3.644   0.308   0.053
 6084TIP3    H218217   3.734   0.188   0.074
 6085TIP3   OH218218   5.087   1.472   4.989
 6085TIP3    H118219   5.023   1.494   4.921
 6085TIP3    H218220   5.034   1.450   5.065
 6086TIP3   OH218221   1.932   5.742   2.069
 6086TIP3    H118222   1.936   5.648   2.085
 6086TIP3    H218223   2.001   5.779   2.124
 6087TIP3   OH218224   4.704   6.161   1.712
 6087TIP3    H118225   4.617   6.194   1.733
 6087TIP3    H218226   4.762   6.201   1.777
 6088TIP3   OH218227   4.093   4.464   2.122
 6088TIP3    H118228   4.172   4.441   2.072
 6088TIP3    H218229   4.021   4.444   2.063
 6089TIP3   OH218230   0.382   3.364   5.091
 6089TIP3    H118231   0.303   3.361   5.145
 6089TIP3    H218232   0.371   3.441   5.036
 6090TIP3   OH218233   0.764   5.073   5.144
 6090TIP3    H118234   0.733   5.017   5.216
 6090TIP3    H218235   0.760   5.017   5.067
 6091TIP3   OH218236   0.099   2.872   4.736
 6091TIP3    H118237   0.134   2.834   4.656
 6091TIP3    H218238   0.005   2.883   4.719
 6092TIP3   OH218239   5.319   1.937   3.024
 6092TIP3    H118240   5.270   2.001   2.972
 6092TIP3    H218241   5.252   1.885   3.068
 6093TIP3   OH218242   0.771   1.617   5.809
 6093TIP3    H118243   0.782   1.522   5.808
 6093TIP3    H218244   0.735   1.635   5.896
 6094TIP3   OH218245   4.328   3.340   3.076
 6094TIP3    H118246   4.391   3.410   3.058
 6094TIP3    H218247   4.343   3.276   3.006
 6095TIP3   OH218248   2.266   6.007   5.551
 6095TIP3    H118249   2.299   6.043   5.468
 6095TIP3    H218250   2.266   5.913   5.537
 6096TIP3   OH218251   3.448   4.435   2.771
 6096TIP3    H118252   3.466   4.457   2.680
 6096TIP3    H218253   3.367   4.481   2.792
 6097TIP3   OH218254   4.952   3.077   1.326
 6097TIP3    H118255   4.962   3.171   1.337
 6097TIP3    H218256   5.003   3.039   1.398
 6098TIP3   OH218257   5.008   4.300   3.368
 6098TIP3    H118258   4.932   4.311   3.424
 6098TIP3    H218259   4.973   4.260   3.288
 6099TIP3   OH218260   3.064   3.792   2.655
 6099TIP3    H118261   2.989   3.824   2.704
 6099TIP3    H218262   3.087   3.709   2.697
 6100TIP3   OH218263   0.367   2.727   1.336
 6100TIP3    H118264   0.442   2.716   1.395
 6100TIP3    H218265   0.293   2.741   1.395
 6101TIP3   OH218266   0.231   5.741   1.562
 6101TIP3    H118267   0.146   5.717   1.600
 6101TIP3    H218268   0.285   5.763   1.638
 6102TIP3   OH218269   5.421   0.216   2.435
 6102TIP3    H118270   5.424   0.126   2.468
 6102TIP3    H218271   5.340   0.252   2.472
 6103TIP3   OH218272   3.379   2.673   5.055
 6103TIP3    H118273   3.394   2.741   5.120
 6103TIP3    H218274   3.298   2.631   5.081
 6104TIP3   OH218275   6.991   2.527   1.938
 6104TIP3    H118276   6.994   2.436   1.908
 6104TIP3    H218277   7.054   2.530   2.010
 6105TIP3   OH218278   2.773   2.082   5.122
 6105TIP3    H118279   2.738   2.063   5.035
 6105TIP3    H218280   2.696   2.106   5.174
 6106TIP3   OH218281   0.519   5.231   3.369
 6106TIP3    H118282   0.432   5.218   3.406
 6106TIP3    H218283   0.578   5.180   3.425
 6107TIP3   OH218284   4.987   5.044   2.633
 6107TIP3    H118285   4.924   5.115   2.648
 6107TIP3    H218286   4.940   4.965   2.661
 6108TIP3   OH218287   3.728   4.403   5.841
 6108TIP3    H118288   3.745   4.468   5.909
 6108TIP3    H218289   3.720   4.320   5.889
 6109TIP3   OH218290   5.883   4.582   4.192
 6109TIP3    H118291   5.972   4.589   4.225
 6109TIP3    H218292   5.887   4.515   4.124
 6110TIP3   OH218293   1.433   6.214   1.889
 6110TIP3    H118294   1.479   6.163   1.956
 6110TIP3    H218295   1.383   6.149   1.839
 6111TIP3   OH218296   1.536   3.629   1.078
 6111TIP3    H118297   1.608   3.685   1.049
 6111TIP3    H218298   1.458   3.667   1.036
 6112TIP3   OH218299   2.791   3.407   4.114
 6112TIP3    H118300   2.814   3.414   4.206
 6112TIP3    H218301   2.792   3.314   4.095
 6113TIP3   OH218302   2.129   5.968   0.386
 6113TIP3    H118303   2.189   5.970   0.311
 6113TIP3    H218304   2.092   5.879   0.384
 6114TIP3   OH218305   2.400   5.641   4.048
 6114TIP3    H118306   2.376   5.657   4.140
 6114TIP3    H218307   2.472   5.578   4.053
 6115TIP3   OH218308   1.817   3.698   2.214
 6115TIP3    H118309   1.729   3.681   2.247
 6115TIP3    H218310   1.815   3.790   2.187
 6116TIP3   OH218311   5.494   5.019   0.937
 6116TIP3    H118312   5.441   4.945   0.969
 6116TIP3    H218313   5.518   5.067   1.016
 6117TIP3   OH218314   6.702   2.616   4.389
 6117TIP3    H118315   6.697   2.537   4.337
 6117TIP3    H218316   6.757   2.592   4.464
 6118TIP3   OH218317   1.439   2.721   5.028
 6118TIP3    H118318   1.364   2.762   5.073
 6118TIP3    H218319   1.427   2.627   5.041
 6119TIP3   OH218320   4.763   1.015   5.718
 6119TIP3    H118321   4.813   1.080   5.768
 6119TIP3    H218322   4.818   0.937   5.717
 6120TIP3   OH218323   2.238   0.739   0.645
 6120TIP3    H118324   2.212   0.687   0.720
 6120TIP3    H218325   2.334   0.741   0.650
 6121TIP3   OH218326   0.198   1.344   1.539
 6121TIP3    H118327   0.236   1.310   1.620
 6121TIP3    H218328   0.203   1.439   1.547
 6122TIP3   OH218329   1.813   1.528   5.063
 6122TIP3    H118330   1.742   1.476   5.026
 6122TIP3    H218331   1.770   1.600   5.109
 6123TIP3   OH218332   3.369   0.256   0.789
 6123TIP3    H118333   3.359   0.348   0.812
 6123TIP3    H218334   3.404   0.257   0.700
 6124TIP3   OH218335   0.528   5.480   5.562
 6124TIP3    H118336   0.591   5.505   5.494
 6124TIP3    H218337   0.448   5.526   5.539
 6125TIP3   OH218338   3.410   6.020   5.114
 6125TIP3    H118339   3.426   6.091   5.177
 6125TIP3    H218340   3.432   5.940   5.163
 6126TIP3   OH218341   4.888   3.100   0.331
 6126TIP3    H118342   4.877   3.194   0.312
 6126TIP3    H218343   4.802   3.072   0.360
 6127TIP3   OH218344   4.858   3.637   0.765
 6127TIP3    H118345   4.896   3.650   0.852
 6127TIP3    H218346   4.792   3.569   0.777
 6128TIP3   OH218347   4.095   3.492   4.187
 6128TIP3    H118348   4.003   3.503   4.212
 6128TIP3    H218349   4.094   3.420   4.123
 6129TIP3   OH218350   1.821   6.780   2.045
 6129TIP3    H118351   1.822   6.689   2.073
 6129TIP3    H218352   1.881   6.783   1.970
 6130TIP3   OH218353   4.034   0.904   4.409
 6130TIP3    H118354   4.051   0.925   4.501
 6130TIP3    H218355   3.941   0.926   4.397
 6131TIP3   OH218356   4.452   4.053   2.589
 6131TIP3    H118357   4.423   3.966   2.615
 6131TIP3    H218358   4.496   4.088   2.667
 6132TIP3   OH218359   6.100   5.700   3.567
 6132TIP3    H118360   6.124   5.609   3.548
 6132TIP3    H218361   6.098   5.743   3.482
 6133TIP3   OH218362   1.316   5.895   0.656
 6133TIP3    H118363   1.378   5.935   0.716
 6133TIP3    H218364   1.259   5.967   0.628
 6134TIP3   OH218365   4.550   0.085   1.557
 6134TIP3    H118366   4.625   0.078   1.616
 6134TIP3    H218367   4.587   0.066   1.470
 6135TIP3   OH218368   6.121   2.102   2.013
 6135TIP3    H118369   6.040   2.149   1.997
 6135TIP3    H218370   6.148   2.129   2.101
 6136TIP3   OH218371   5.091   5.402   5.191
 6136TIP3    H118372   5.122   5.470   5.131
 6136TIP3    H218373   5.171   5.362   5.225
 6137TIP3   OH218374   6.869   5.702   3.432
 6137TIP3    H118375   6.812   5.649   3.489
 6137TIP3    H218376   6.930   5.745   3.492
 6138TIP3   OH218377   1.793   3.061   2.063
 6138TIP3    H118378   1.720   3.115   2.033
 6138TIP3    H218379   1.871   3.105   2.028
 6139TIP3   OH218380   4.489   4.374   3.584
 6139TIP3    H118381   4.467   4.388   3.677
 6139TIP3    H218382   4.405   4.384   3.538
 6140TIP3   OH218383   3.566   5.889   1.479
 6140TIP3    H118384   3.581   5.955   1.411
 6140TIP3    H218385   3.566   5.806   1.432
 6141TIP3   OH218386   1.828   5.726   4.918
 6141TIP3    H118387   1.821   5.666   4.844
 6141TIP3    H218388   1.741   5.727   4.958
 6142TIP3   OH218389   2.616   5.515   2.243
 6142TIP3    H118390   2.680   5.579   2.215
 6142TIP3    H218391   2.531   5.559   2.232
 6143TIP3   OH218392   2.677   4.224   5.316
 6143TIP3    H118393   2.657   4.187   5.230
 6143TIP3    H218394   2.631   4.308   5.317
 6144TIP3   OH218395   1.861   5.701   0.888
 6144TIP3    H118396   1.953   5.686   0.863
 6144TIP3    H218397   1.813   5.629   0.847
 6145TIP3   OH218398   6.231   3.469   1.714
 6145TIP3    H118399   6.284   3.540   1.679
 6145TIP3    H218400   6.146   3.477   1.670
 6146TIP3   OH218401   6.794   2.838   4.682
 6146TIP3    H118402   6.748   2.755   4.668
 6146TIP3    H218403   6.865   2.817   4.743
 6147TIP3   OH218404   6.363   0.784   5.589
 6147TIP3    H118405   6.329   0.864   5.549
 6147TIP3    H218406   6.383   0.809   5.679
 6148TIP3   OH218407   5.062   4.144   1.611
 6148TIP3    H118408   5.084   4.176   1.698
 6148TIP3    H218409   4.967   4.141   1.609
 6149TIP3   OH218410   0.070   2.448   2.792
 6149TIP3    H118411   0.026   2.443   2.877
 6149TIP3    H218412   0.121   2.528   2.796
 6150TIP3   OH218413   6.907   0.121   2.861
 6150TIP3    H118414   6.929   0.214   2.871
 6150TIP3    H218415   6.831   0.121   2.804
 6151TIP3   OH218416   3.866   3.921   0.741
 6151TIP3    H118417   3.878   3.935   0.647
 6151TIP3    H218418   3.947   3.954   0.781
 6152TIP3   OH218419   0.784   1.815   3.956
 6152TIP3    H118420   0.792   1.909   3.976
 6152TIP3    H218421   0.710   1.810   3.896
 6153TIP3   OH218422   0.919   4.372   0.316
 6153TIP3    H118423   0.921   4.277   0.314
 6153TIP3    H218424   0.834   4.395   0.279
 6154TIP3   OH218425   0.471   2.817   1.112
 6154TIP3    H118426   0.434   2.765   1.183
 6154TIP3    H218427   0.480   2.755   1.039
 6155TIP3   OH218428   1.493   6.595   4.020
 6155TIP3    H118429   1.569   6.544   3.993
 6155TIP3    H218430   1.462   6.551   4.099
 6156TIP3   OH218431   0.374   3.471   4.183
 6156TIP3    H118432   0.278   3.464   4.187
 6156TIP3    H218433   0.406   3.412   4.251
 6157TIP3   OH218434   4.124   4.737   1.868
 6157TIP3    H118435   4.076   4.718   1.787
 6157TIP3    H218436   4.060   4.781   1.924
 6158TIP3   OH218437   4.894   0.129   5.729
 6158TIP3    H118438   4.981   0.159   5.757
 6158TIP3    H218439   4.839   0.137   5.807
 6159TIP3   OH218440   3.025   4.253   5.607
 6159TIP3    H118441   2.994   4.266   5.518
 6159TIP3    H218442   2.973   4.315   5.659
 6160TIP3   OH218443   4.209   3.665   2.472
 6160TIP3    H118444   4.283   3.669   2.411
 6160TIP3    H218445   4.145   3.609   2.428
 6161TIP3   OH218446   4.182   1.519   3.824
 6161TIP3    H118447   4.169   1.426   3.844
 6161TIP3    H218448   4.247   1.548   3.888
 6162TIP3   OH218449   3.198   5.910   5.465
 6162TIP3    H118450   3.209   5.820   5.435
 6162TIP3    H218451   3.285   5.949   5.457
 6163TIP3   OH218452   2.575   0.946   0.760
 6163TIP3    H118453   2.510   1.010   0.788
 6163TIP3    H218454   2.560   0.936   0.666
 6164TIP3   OH218455   5.118   1.810   1.024
 6164TIP3    H118456   5.141   1.888   1.075
 6164TIP3    H218457   5.171   1.740   1.062
 6165TIP3   OH218458   4.757   6.794   0.344
 6165TIP3    H118459   4.765   6.751   0.259
 6165TIP3    H218460   4.841   6.838   0.356
 6166TIP3   OH218461   0.256   0.813   3.740
 6166TIP3    H118462   0.300   0.806   3.656
 6166TIP3    H218463   0.208   0.730   3.749
 6167TIP3   OH218464   3.114   3.215   1.719
 6167TIP3    H118465   3.040   3.194   1.661
 6167TIP3    H218466   3.127   3.136   1.771
 6168TIP3   OH218467   4.465  -0.010   5.573
 6168TIP3    H118468   4.550  -0.023   5.615
 6168TIP3    H218469   4.477   0.068   5.519
 6169TIP3   OH218470   0.583   2.043   4.680
 6169TIP3    H118471   0.554   2.133   4.663
 6169TIP3    H218472   0.561   2.028   4.772
 6170TIP3   OH218473   6.208   4.780   4.468
 6170TIP3    H118474   6.187   4.743   4.382
 6170TIP3    H218475   6.164   4.864   4.469
 6171TIP3   OH218476   6.024   4.922   0.632
 6171TIP3    H118477   6.117   4.931   0.652
 6171TIP3    H218478   6.021   4.856   0.562
 6172TIP3   OH218479   2.974   6.331   2.824
 6172TIP3    H118480   2.977   6.426   2.811
 6172TIP3    H218481   2.927   6.319   2.907
 6173TIP3   OH218482   2.718   5.203   1.803
 6173TIP3    H118483   2.661   5.129   1.780
 6173TIP3    H218484   2.719   5.203   1.899
 6174TIP3   OH218485   6.925   3.454   4.590
 6174TIP3    H118486   7.000   3.396   4.602
 6174TIP3    H218487   6.902   3.445   4.498
 6175TIP3   OH218488   3.213   2.692   3.207
 6175TIP3    H118489   3.127   2.652   3.217
 6175TIP3    H218490   3.224   2.748   3.284
 6176TIP3   OH218491   3.123   4.304   4.037
 6176TIP3    H118492   3.144   4.347   3.954
 6176TIP3    H218493   3.206   4.301   4.084
 6177TIP3   OH218494   6.064   4.082   2.554
 6177TIP3    H118495   6.011   4.066   2.632
 6177TIP3    H218496   6.147   4.038   2.573
 6178TIP3   OH218497   6.714   1.942   0.783
 6178TIP3    H118498   6.698   1.981   0.697
 6178TIP3    H218499   6.791   1.988   0.816
 6179TIP3   OH218500   6.124   2.352   3.897
 6179TIP3    H118501   6.046   2.407   3.894
 6179TIP3    H218502   6.090   2.262   3.897
 6180TIP3   OH218503   4.386   6.026   4.298
 6180TIP3    H118504   4.407   6.039   4.205
 6180TIP3    H218505   4.332   6.101   4.321
 6181TIP3   OH218506   5.251   5.521   3.408
 6181TIP3    H118507   5.321   5.458   3.426
 6181TIP3    H218508   5.247   5.527   3.313
 6182TIP3   OH218509   4.985   5.599   0.788
 6182TIP3    H118510   4.919   5.573   0.724
 6182TIP3    H218511   4.951   5.679   0.828
 6183TIP3   OH218512   4.170   1.797   5.702
 6183TIP3    H118513   4.250   1.791   5.650
 6183TIP3    H218514   4.101   1.765   5.645
 6184TIP3   OH218515   2.328   5.342   4.505
 6184TIP3    H118516   2.274   5.271   4.539
 6184TIP3    H218517   2.267   5.397   4.456
 6185TIP3   OH218518   2.958   0.903   3.013
 6185TIP3    H118519   2.893   0.883   2.946
 6185TIP3    H218520   2.976   0.819   3.056
 6186TIP3   OH218521   2.166   3.593   4.985
 6186TIP3    H118522   2.145   3.583   5.078
 6186TIP3    H218523   2.220   3.672   4.981
 6187TIP3   OH218524   3.623   2.731   2.156
 6187TIP3    H118525   3.578   2.665   2.209
 6187TIP3    H218526   3.687   2.770   2.216
 6188TIP3   OH218527   2.824   0.471   1.402
 6188TIP3    H118528   2.897   0.510   1.356
 6188TIP3    H218529   2.794   0.539   1.462
 6189TIP3   OH218530   3.438   6.484   3.298
 6189TIP3    H118531   3.407   6.569   3.265
 6189TIP3    H218532   3.359   6.443   3.335
 6190TIP3   OH218533   3.760   6.258   1.898
 6190TIP3    H118534   3.691   6.238   1.834
 6190TIP3    H218535   3.786   6.348   1.878
 6191TIP3   OH218536   1.749   1.913   1.476
 6191TIP3    H118537   1.766   1.880   1.388
 6191TIP3    H218538   1.654   1.917   1.483
 6192TIP3   OH218539   6.713   4.835   2.017
 6192TIP3    H118540   6.760   4.765   2.060
 6192TIP3    H218541   6.633   4.846   2.068
 6193TIP3   OH218542   1.058   3.042   1.933
 6193TIP3    H118543   1.074   2.948   1.921
 6193TIP3    H218544   1.014   3.047   2.018
 6194TIP3   OH218545   5.573   3.649   5.179
 6194TIP3    H118546   5.590   3.737   5.214
 6194TIP3    H218547   5.529   3.603   5.250
 6195TIP3   OH218548   2.654   3.982   3.355
 6195TIP3    H118549   2.606   3.926   3.416
 6195TIP3    H218550   2.700   3.920   3.298
 6196TIP3   OH218551   3.879   6.293   1.092
 6196TIP3    H118552   3.842   6.240   1.020
 6196TIP3    H218553   3.929   6.361   1.047
 6197TIP3   OH218554   1.869   3.105   3.811
 6197TIP3    H118555   1.895   3.074   3.724
 6197TIP3    H218556   1.780   3.073   3.822
 6198TIP3   OH218557   1.003   5.581   3.473
 6198TIP3    H118558   0.997   5.526   3.395
 6198TIP3    H218559   1.008   5.519   3.546
 6199TIP3   OH218560   3.144   2.277   5.676
 6199TIP3    H118561   3.191   2.197   5.653
 6199TIP3    H218562   3.111   2.261   5.764
 6200TIP3   OH218563   7.019   4.820   2.767
 6200TIP3    H118564   7.072   4.802   2.844
 6200TIP3    H218565   6.944   4.760   2.775
 6201TIP3   OH218566   6.918   2.914   1.580
 6201TIP3    H118567   6.951   2.867   1.657
 6201TIP3    H218568   6.952   2.864   1.506
 6202TIP3   OH218569   0.486   4.819   3.190
 6202TIP3    H118570   0.552   4.858   3.248
 6202TIP3    H218571   0.498   4.865   3.107
 6203TIP3   OH218572   4.728   6.214   3.097
 6203TIP3    H118573   4.816   6.175   3.097
 6203TIP3    H218574   4.720   6.256   3.182
 6204TIP3   OH218575   5.963   5.883   1.021
 6204TIP3    H118576   6.057   5.871   1.034
 6204TIP3    H218577   5.956   5.912   0.930
 6205TIP3   OH218578   3.987   5.496   4.629
 6205TIP3    H118579   3.999   5.404   4.652
 6205TIP3    H218580   3.903   5.520   4.668
 6206TIP3   OH218581   6.451   4.971   3.473
 6206TIP3    H118582   6.401   4.967   3.391
 6206TIP3    H218583   6.402   4.915   3.533
 6207TIP3   OH218584   4.473   5.843   3.475
 6207TIP3    H118585   4.560   5.879   3.457
 6207TIP3    H218586   4.475   5.821   3.568
 6208TIP3   OH218587   4.258   2.527   1.695
 6208TIP3    H118588   4.273   2.550   1.787
 6208TIP3    H218589   4.176   2.478   1.696
 6209TIP3   OH218590   1.264   3.940   1.671
 6209TIP3    H118591   1.337   3.981   1.717
 6209TIP3    H218592   1.188   3.992   1.698
 6210TIP3   OH218593   2.805   4.269   0.579
 6210TIP3    H118594   2.833   4.232   0.662
 6210TIP3    H218595   2.782   4.360   0.600
 6211TIP3   OH218596   4.723   6.499   1.662
 6211TIP3    H118597   4.777   6.573   1.635
 6211TIP3    H218598   4.786   6.433   1.692
 6212TIP3   OH218599   5.979   2.619   5.054
 6212TIP3    H118600   6.004   2.708   5.029
 6212TIP3    H218601   6.062   2.571   5.058
 6213TIP3   OH218602   4.205   2.559   5.494
 6213TIP3    H118603   4.189   2.652   5.476
 6213TIP3    H218604   4.125   2.515   5.466
 6214TIP3   OH218605   0.490   4.535   3.190
 6214TIP3    H118606   0.492   4.631   3.189
 6214TIP3    H218607   0.548   4.511   3.263
 6215TIP3   OH218608   7.126   2.723   0.886
 6215TIP3    H118609   7.145   2.641   0.840
 6215TIP3    H218610   7.066   2.770   0.827
 6216TIP3   OH218611   2.038   2.007   0.336
 6216TIP3    H118612   2.124   2.046   0.321
 6216TIP3    H218613   2.026   1.948   0.262
 6217TIP3   OH218614   0.171   4.347   1.311
 6217TIP3    H118615   0.260   4.330   1.340
 6217TIP3    H218616   0.137   4.261   1.288
 6218TIP3   OH218617   2.137   3.024   1.463
 6218TIP3    H118618   2.130   2.945   1.516
 6218TIP3    H218619   2.207   3.005   1.400
 6219TIP3   OH218620   5.742   0.727   1.301
 6219TIP3    H118621   5.822   0.734   1.249
 6219TIP3    H218622   5.682   0.791   1.262
 6220TIP3   OH218623   1.170   4.635   1.256
 6220TIP3    H118624   1.230   4.708   1.271
 6220TIP3    H218625   1.098   4.650   1.317
 6221TIP3   OH218626   2.242   4.692   0.620
 6221TIP3    H118627   2.152   4.703   0.591
 6221TIP3    H218628   2.255   4.597   0.627
 6222TIP3   OH218629   5.213   3.606   4.735
 6222TIP3    H118630   5.292   3.576   4.781
 6222TIP3    H218631   5.141   3.571   4.788
 6223TIP3   OH218632   2.760   5.987   0.653
 6223TIP3    H118633   2.750   6.049   0.581
 6223TIP3    H218634   2.790   6.039   0.727
 6224TIP3   OH218635   1.986   0.477   5.163
 6224TIP3    H118636   2.034   0.456   5.083
 6224TIP3    H218637   1.902   0.511   5.131
 6225TIP3   OH218638   0.744   5.863   5.338
 6225TIP3    H118639   0.832   5.827   5.348
 6225TIP3    H218640   0.747   5.947   5.383
 6226TIP3   OH218641   0.713   6.778   2.391
 6226TIP3    H118642   0.737   6.864   2.424
 6226TIP3    H218643   0.669   6.735   2.464
 6227TIP3   OH218644   2.157   1.220   4.613
 6227TIP3    H118645   2.186   1.258   4.696
 6227TIP3    H218646   2.124   1.294   4.562
 6228TIP3   OH218647   7.005   1.005   5.534
 6228TIP3    H118648   7.008   1.089   5.581
 6228TIP3    H218649   6.918   0.970   5.555
 6229TIP3   OH218650   7.221   0.720   0.337
 6229TIP3    H118651   7.279   0.772   0.394
 6229TIP3    H218652   7.142   0.707   0.389
 6230TIP3   OH218653   5.571   1.971   3.853
 6230TIP3    H118654   5.603   2.047   3.902
 6230TIP3    H218655   5.508   1.928   3.911
 6231TIP3   OH218656   7.104   3.250   4.653
 6231TIP3    H118657   7.105   3.159   4.624
 6231TIP3    H218658   7.136   3.248   4.743
 6232TIP3   OH218659   0.739   2.787   1.122
 6232TIP3    H118660   0.748   2.744   1.207
 6232TIP3    H218661   0.651   2.824   1.123
 6233TIP3   OH218662   2.151   4.284   3.114
 6233TIP3    H118663   2.124   4.192   3.106
 6233TIP3    H218664   2.075   4.328   3.152
 6234TIP3   OH218665   6.873   3.654   2.159
 6234TIP3    H118666   6.869   3.628   2.251
 6234TIP3    H218667   6.784   3.643   2.126
 6235TIP3   OH218668   4.310   4.438   2.456
 6235TIP3    H118669   4.307   4.384   2.535
 6235TIP3    H218670   4.395   4.421   2.418
 6236TIP3   OH218671   4.088   4.468   0.645
 6236TIP3    H118672   4.139   4.428   0.715
 6236TIP3    H218673   4.030   4.530   0.690
 6237TIP3   OH218674   4.582   2.988   2.690
 6237TIP3    H118675   4.630   3.009   2.770
 6237TIP3    H218676   4.490   2.985   2.716
 6238TIP3   OH218677   3.187   4.675   1.147
 6238TIP3    H118678   3.140   4.690   1.229
 6238TIP3    H218679   3.120   4.679   1.079
 6239TIP3   OH218680   6.824   1.917   1.322
 6239TIP3    H118681   6.733   1.907   1.350
 6239TIP3    H218682   6.860   1.985   1.379
 6240TIP3   OH218683   7.052   0.944  -0.027
 6240TIP3    H118684   7.069   0.975   0.062
 6240TIP3    H218685   7.074   0.851  -0.025
 6241TIP3   OH218686   2.766   5.708   2.445
 6241TIP3    H118687   2.822   5.635   2.472
 6241TIP3    H218688   2.772   5.708   2.349
 6242TIP3   OH218689   4.305   0.752   2.669
 6242TIP3    H118690   4.320   0.674   2.615
 6242TIP3    H218691   4.392   0.776   2.702
 6243TIP3   OH218692   6.505   4.176   0.341
 6243TIP3    H118693   6.554   4.095   0.325
 6243TIP3    H218694   6.537   4.236   0.275
 6244TIP3   OH218695   5.816   6.061   0.158
 6244TIP3    H118696   5.812   5.993   0.090
 6244TIP3    H218697   5.898   6.107   0.140
 6245TIP3   OH218698   4.928   5.488   3.043
 6245TIP3    H118699   4.970   5.564   3.085
 6245TIP3    H218700   4.837   5.515   3.030
 6246TIP3   OH218701   6.679   4.378   3.097
 6246TIP3    H118702   6.675   4.339   3.009
 6246TIP3    H218703   6.755   4.436   3.094
 6247TIP3   OH218704   2.995   0.701   3.198
 6247TIP3    H118705   3.082   0.667   3.178
 6247TIP3    H218706   3.012   0.779   3.252
 6248TIP3   OH218707   0.670   0.198   4.186
 6248TIP3    H118708   0.745   0.153   4.148
 6248TIP3    H218709   0.688   0.291   4.171
 6249TIP3   OH218710   1.516   0.819   2.335
 6249TIP3    H118711   1.499   0.826   2.241
 6249TIP3    H218712   1.579   0.748   2.343
 6250TIP3   OH218713   6.249   5.550   1.670
 6250TIP3    H118714   6.195   5.538   1.591
 6250TIP3    H218715   6.238   5.642   1.693
 6251TIP3   OH218716   4.373   5.887   3.232
 6251TIP3    H118717   4.396   5.877   3.324
 6251TIP3    H218718   4.308   5.957   3.230
 6252TIP3   OH218719   4.877   0.752   5.730
 6252TIP3    H118720   4.936   0.699   5.677
 6252TIP3    H218721   4.889   0.719   5.819
 6253TIP3   OH218722   3.341   5.676   1.639
 6253TIP3    H118723   3.393   5.756   1.646
 6253TIP3    H218724   3.288   5.674   1.719
 6254TIP3   OH218725   3.055   0.817   0.977
 6254TIP3    H118726   3.061   0.850   0.888
 6254TIP3    H218727   3.011   0.886   1.026
 6255TIP3   OH218728   7.118   3.973   3.609
 6255TIP3    H118729   7.205   4.005   3.632
 6255TIP3    H218730   7.094   4.022   3.531
 6256TIP3   OH218731   5.136   2.388   4.194
 6256TIP3    H118732   5.139   2.428   4.107
 6256TIP3    H218733   5.065   2.324   4.188
 6257TIP3   OH218734   1.193   4.372   2.842
 6257TIP3    H118735   1.161   4.423   2.916
 6257TIP3    H218736   1.288   4.375   2.850
 6258TIP3   OH218737   3.190   1.825   1.840
 6258TIP3    H118738   3.111   1.788   1.879
 6258TIP3    H218739   3.251   1.833   1.913
 6259TIP3   OH218740   6.889   0.436   4.277
 6259TIP3    H118741   6.892   0.529   4.300
 6259TIP3    H218742   6.800   0.423   4.243
 6260TIP3   OH218743   0.759   1.781   4.566
 6260TIP3    H118744   0.811   1.823   4.634
 6260TIP3    H218745   0.823   1.738   4.510
 6261TIP3   OH218746   1.814   3.071   3.066
 6261TIP3    H118747   1.841   3.137   3.001
 6261TIP3    H218748   1.718   3.070   3.059
 6262TIP3   OH218749   6.976   4.370   0.050
 6262TIP3    H118750   7.055   4.367  -0.004
 6262TIP3    H218751   6.904   4.362  -0.013
 6263TIP3   OH218752   4.203   5.279   2.975
 6263TIP3    H118753   4.270   5.285   2.907
 6263TIP3    H218754   4.153   5.200   2.953
 6264TIP3   OH218755   2.426   3.979   2.091
 6264TIP3    H118756   2.367   4.042   2.133
 6264TIP3    H218757   2.514   4.013   2.110
 6265TIP3   OH218758   3.998   6.016   1.064
 6265TIP3    H118759   3.959   6.083   1.008
 6265TIP3    H218760   4.007   5.939   1.007
 6266TIP3   OH218761   0.727   6.062   4.599
 6266TIP3    H118762   0.771   5.990   4.644
 6266TIP3    H218763   0.705   6.025   4.513
 6267TIP3   OH218764   6.714   0.982   1.738
 6267TIP3    H118765   6.658   0.939   1.802
 6267TIP3    H218766   6.780   1.028   1.790
 6268TIP3   OH218767   6.572   6.293   3.949
 6268TIP3    H118768   6.624   6.239   4.008
 6268TIP3    H218769   6.581   6.251   3.864
 6269TIP3   OH218770   5.886   0.934   5.837
 6269TIP3    H118771   5.886   0.844   5.869
 6269TIP3    H218772   5.954   0.936   5.770
 6270TIP3   OH218773   4.103   4.409   5.147
 6270TIP3    H118774   4.027   4.459   5.175
 6270TIP3    H218775   4.172   4.474   5.135
 6271TIP3   OH218776   6.937   1.505   4.268
 6271TIP3    H118777   6.994   1.574   4.300
 6271TIP3    H218778   6.870   1.495   4.337
 6272TIP3   OH218779   2.650   5.793   0.466
 6272TIP3    H118780   2.727   5.825   0.513
 6272TIP3    H218781   2.685   5.735   0.398
 6273TIP3   OH218782   4.738   0.138   0.331
 6273TIP3    H118783   4.724   0.055   0.285
 6273TIP3    H218784   4.722   0.205   0.265
 6274TIP3   OH218785   1.751   3.472   4.064
 6274TIP3    H118786   1.758   3.380   4.040
 6274TIP3    H218787   1.737   3.472   4.158
 6275TIP3   OH218788   3.536   0.645   4.648
 6275TIP3    H118789   3.555   0.706   4.576
 6275TIP3    H218790   3.577   0.685   4.725
 6276TIP3   OH218791   1.766   1.951   3.348
 6276TIP3    H118792   1.679   1.936   3.387
 6276TIP3    H218793   1.804   2.021   3.400
 6277TIP3   OH218794   6.827   3.328   0.218
 6277TIP3    H118795   6.889   3.372   0.161
 6277TIP3    H218796   6.857   3.349   0.307
 6278TIP3   OH218797   3.393   4.270   4.324
 6278TIP3    H118798   3.413   4.307   4.410
 6278TIP3    H218799   3.388   4.346   4.266
 6279TIP3   OH218800   4.951   5.598   1.621
 6279TIP3    H118801   4.964   5.592   1.526
 6279TIP3    H218802   4.892   5.526   1.641
 6280TIP3   OH218803   3.327   0.339   4.486
 6280TIP3    H118804   3.413   0.332   4.529
 6280TIP3    H218805   3.330   0.425   4.443
 6281TIP3   OH218806   2.764   4.144   1.035
 6281TIP3    H118807   2.760   4.053   1.008
 6281TIP3    H218808   2.834   4.182   0.982
 6282TIP3   OH218809   3.189   2.063   3.796
 6282TIP3    H118810   3.118   2.007   3.827
 6282TIP3    H218811   3.206   2.124   3.868
 6283TIP3   OH218812   2.915   5.874   1.807
 6283TIP3    H118813   2.910   5.929   1.885
 6283TIP3    H218814   2.868   5.794   1.831
 6284TIP3   OH218815   0.793   2.347   5.486
 6284TIP3    H118816   0.706   2.309   5.495
 6284TIP3    H218817   0.787   2.404   5.409
 6285TIP3   OH218818   3.694   0.329   0.471
 6285TIP3    H118819   3.709   0.324   0.565
 6285TIP3    H218820   3.770   0.288   0.432
 6286TIP3   OH218821   6.443   0.893   1.613
 6286TIP3    H118822   6.531   0.930   1.617
 6286TIP3    H218823   6.426   0.864   1.702
 6287TIP3   OH218824   6.013   2.445   0.295
 6287TIP3    H118825   6.046   2.528   0.330
 6287TIP3    H218826   5.970   2.469   0.212
 6288TIP3   OH218827   0.020   1.286   1.327
 6288TIP3    H118828   0.011   1.378   1.303
 6288TIP3    H218829   0.083   1.286   1.399
 6289TIP3   OH218830   7.060   6.113   0.923
 6289TIP3    H118831   6.965   6.118   0.933
 6289TIP3    H218832   7.094   6.138   1.009
 6290TIP3   OH218833   5.866   3.632   0.263
 6290TIP3    H118834   5.960   3.618   0.252
 6290TIP3    H218835   5.825   3.561   0.214
 6291TIP3   OH218836   7.167   0.030   0.987
 6291TIP3    H118837   7.108  -0.010   0.923
 6291TIP3    H218838   7.248   0.046   0.939
 6292TIP3   OH218839   4.487   3.094   0.074
 6292TIP3    H118840   4.416   3.030   0.087
 6292TIP3    H218841   4.519   3.112   0.163
 6293TIP3   OH218842   3.504   4.609   3.957
 6293TIP3    H118843   3.525   4.679   3.895
 6293TIP3    H218844   3.481   4.534   3.901
 6294TIP3   OH218845   0.267   6.657   0.470
 6294TIP3    H118846   0.216   6.617   0.541
 6294TIP3    H218847   0.265   6.751   0.489
 6295TIP3   OH218848   4.187   3.330   1.863
 6295TIP3    H118849   4.237   3.407   1.892
 6295TIP3    H218850   4.253   3.273   1.822
 6296TIP3   OH218851   3.641   6.527   0.876
 6296TIP3    H118852   3.687   6.461   0.824
 6296TIP3    H218853   3.710   6.581   0.914
 6297TIP3   OH218854   4.971  -0.006   3.904
 6297TIP3    H118855   4.980   0.089   3.907
 6297TIP3    H218856   4.911  -0.022   3.831
 6298TIP3   OH218857   0.365   3.970   4.167
 6298TIP3    H118858   0.427   4.013   4.108
 6298TIP3    H218859   0.298   4.036   4.184
 6299TIP3   OH218860   0.976   3.634   0.975
 6299TIP3    H118861   0.976   3.689   1.053
 6299TIP3    H218862   1.023   3.686   0.909
 6300TIP3   OH218863   5.425   2.188   5.627
 6300TIP3    H118864   5.385   2.173   5.712
 6300TIP3    H218865   5.503   2.240   5.645
 6301TIP3   OH218866   1.684   4.572   1.343
 6301TIP3    H118867   1.599   4.529   1.354
 6301TIP3    H218868   1.747   4.501   1.347
 6302TIP3   OH218869   1.671   5.460   0.488
 6302TIP3    H118870   1.600   5.514   0.524
 6302TIP3    H218871   1.717   5.426   0.565
 6303TIP3   OH218872   3.894   1.441   2.105
 6303TIP3    H118873   3.898   1.521   2.158
 6303TIP3    H218874   3.868   1.471   2.018
 6304TIP3   OH218875   1.301   3.529   0.712
 6304TIP3    H118876   1.307   3.474   0.790
 6304TIP3    H218877   1.391   3.555   0.694
 6305TIP3   OH218878   5.852   4.694  -0.020
 6305TIP3    H118879   5.913   4.628   0.015
 6305TIP3    H218880   5.768   4.673   0.021
 6306TIP3   OH218881   3.470   0.473   1.000
 6306TIP3    H118882   3.525   0.552   1.000
 6306TIP3    H218883   3.531   0.401   1.016
 6307TIP3   OH218884   0.924   6.608   5.076
 6307TIP3    H118885   0.894   6.696   5.053
 6307TIP3    H218886   1.020   6.615   5.075
 6308TIP3   OH218887   3.001   3.098   3.698
 6308TIP3    H118888   2.920   3.096   3.646
 6308TIP3    H218889   3.028   3.190   3.697
 6309TIP3   OH218890   6.520   5.836   1.535
 6309TIP3    H118891   6.493   5.842   1.443
 6309TIP3    H218892   6.535   5.743   1.550
 6310TIP3   OH218893   3.403   3.007   5.731
 6310TIP3    H118894   3.427   2.932   5.786
 6310TIP3    H218895   3.316   2.986   5.699
 6311TIP3   OH218896   5.669   4.875   3.270
 6311TIP3    H118897   5.621   4.910   3.345
 6311TIP3    H218898   5.660   4.943   3.203
 6312TIP3   OH218899   5.353   2.988   2.424
 6312TIP3    H118900   5.441   2.983   2.462
 6312TIP3    H218901   5.367   3.018   2.334
 6313TIP3   OH218902   1.709   2.521   0.075
 6313TIP3    H118903   1.796   2.549   0.047
 6313TIP3    H218904   1.655   2.528  -0.003
 6314TIP3   OH218905   3.275   5.826   4.934
 6314TIP3    H118906   3.186   5.841   4.901
 6314TIP3    H218907   3.297   5.906   4.981
 6315TIP3   OH218908   6.224   0.938   5.157
 6315TIP3    H118909   6.207   1.029   5.136
 6315TIP3    H218910   6.142   0.893   5.134
 6316TIP3   OH218911   6.577   5.330   4.600
 6316TIP3    H118912   6.599   5.318   4.508
 6316TIP3    H218913   6.554   5.243   4.632
 6317TIP3   OH218914   2.717   3.303   3.023
 6317TIP3    H118915   2.700   3.389   2.986
 6317TIP3    H218916   2.649   3.247   2.986
 6318TIP3   OH218917   3.100   4.831   1.914
 6318TIP3    H118918   3.050   4.898   1.961
 6318TIP3    H218919   3.191   4.851   1.935
 6319TIP3   OH218920   3.217   0.138   4.670
 6319TIP3    H118921   3.284   0.177   4.614
 6319TIP3    H218922   3.259   0.130   4.756
 6320TIP3   OH218923   4.520   4.938   1.300
 6320TIP3    H118924   4.610   4.968   1.311
 6320TIP3    H218925   4.521   4.887   1.219
 6321TIP3   OH218926   4.342   5.200   1.033
 6321TIP3    H118927   4.273   5.226   0.973
 6321TIP3    H218928   4.299   5.144   1.097
 6322TIP3   OH218929   2.538   0.860   3.482
 6322TIP3    H118930   2.605   0.841   3.547
 6322TIP3    H218931   2.500   0.943   3.510
 6323TIP3   OH218932   7.096   0.643   0.843
 6323TIP3    H118933   7.164   0.687   0.791
 6323TIP3    H218934   7.130   0.554   0.855
 6324TIP3   OH218935   3.891   3.764   4.245
 6324TIP3    H118936   3.863   3.680   4.279
 6324TIP3    H218937   3.817   3.795   4.193
 6325TIP3   OH218938   4.753   2.823   0.889
 6325TIP3    H118939   4.685   2.859   0.946
 6325TIP3    H218940   4.705   2.781   0.818
 6326TIP3   OH218941   0.506   2.653   5.440
 6326TIP3    H118942   0.460   2.737   5.445
 6326TIP3    H218943   0.501   2.618   5.529
 6327TIP3   OH218944   6.467   3.798   1.270
 6327TIP3    H118945   6.424   3.728   1.320
 6327TIP3    H218946   6.543   3.822   1.322
 6328TIP3   OH218947   5.550   0.769   5.411
 6328TIP3    H118948   5.518   0.825   5.482
 6328TIP3    H218949   5.551   0.681   5.449
 6329TIP3   OH218950   4.127   4.395   0.358
 6329TIP3    H118951   4.223   4.398   0.358
 6329TIP3    H218952   4.104   4.370   0.447
 6330TIP3   OH218953   3.022   3.056   3.324
 6330TIP3    H118954   2.963   3.111   3.377
 6330TIP3    H218955   3.068   3.118   3.268
 6331TIP3   OH218956   2.006   0.861   1.926
 6331TIP3    H118957   1.964   0.931   1.877
 6331TIP3    H218958   2.099   0.870   1.906
 6332TIP3   OH218959   5.368   4.321   5.075
 6332TIP3    H118960   5.324   4.238   5.056
 6332TIP3    H218961   5.326   4.384   5.017
 6333TIP3   OH218962   1.545   5.333   1.237
 6333TIP3    H118963   1.543   5.418   1.193
 6333TIP3    H218964   1.460   5.325   1.280
 6334TIP3   OH218965   1.023   2.845   1.670
 6334TIP3    H118966   0.950   2.804   1.716
 6334TIP3    H218967   0.989   2.863   1.582
 6335TIP3   OH218968   6.778   0.235   1.343
 6335TIP3    H118969   6.773   0.166   1.409
 6335TIP3    H218970   6.854   0.212   1.290
 6336TIP3   OH218971   4.018   3.307   5.024
 6336TIP3    H118972   4.003   3.394   5.059
 6336TIP3    H218973   4.099   3.278   5.067
 6337TIP3   OH218974   5.517   0.715   0.033
 6337TIP3    H118975   5.561   0.775   0.093
 6337TIP3    H218976   5.428   0.706   0.068
 6338TIP3   OH218977   4.115   4.746   1.196
 6338TIP3    H118978   4.128   4.795   1.115
 6338TIP3    H218979   4.034   4.782   1.234
 6339TIP3   OH218980   6.387   2.068   1.871
 6339TIP3    H118981   6.303   2.113   1.878
 6339TIP3    H218982   6.428   2.082   1.957
 6340TIP3   OH218983   0.037   4.795   5.311
 6340TIP3    H118984  -0.012   4.823   5.388
 6340TIP3    H218985  -0.009   4.717   5.280
 6341TIP3   OH218986   5.561   5.269   1.064
 6341TIP3    H118987   5.515   5.289   1.145
 6341TIP3    H218988   5.618   5.196   1.086
 6342TIP3   OH218989   3.397   4.495   2.031
 6342TIP3    H118990   3.458   4.425   2.006
 6342TIP3    H218991   3.414   4.565   1.968
 6343TIP3   OH218992   7.031   6.650   0.802
 6343TIP3    H118993   7.027   6.710   0.876
 6343TIP3    H218994   7.025   6.563   0.841
 6344TIP3   OH218995   3.408   1.496   3.466
 6344TIP3    H118996   3.326   1.446   3.458
 6344TIP3    H218997   3.477   1.430   3.467
 6345TIP3   OH218998   2.444   4.714   0.951
 6345TIP3    H118999   2.382   4.649   0.982
 6345TIP3    H219000   2.393   4.769   0.891
 6346TIP3   OH219001   0.808   1.660   3.190
 6346TIP3    H119002   0.818   1.627   3.279
 6346TIP3    H219003   0.729   1.714   3.193
 6347TIP3   OH219004   2.141   3.267   4.518
 6347TIP3    H119005   2.163   3.322   4.443
 6347TIP3    H219006   2.167   3.319   4.594
 6348TIP3   OH219007   2.670   4.679   4.292
 6348TIP3    H119008   2.697   4.587   4.302
 6348TIP3    H219009   2.589   4.686   4.342
 6349TIP3   OH219010   1.954   1.622   1.435
 6349TIP3    H119011   1.920   1.662   1.355
 6349TIP3    H219012   2.048   1.614   1.419
 6350TIP3   OH219013   4.400   3.544   4.056
 6350TIP3    H119014   4.325   3.503   4.098
 6350TIP3    H219015   4.474   3.526   4.114
 6351TIP3   OH219016   0.279   4.184   1.973
 6351TIP3    H119017   0.219   4.112   1.952
 6351TIP3    H219018   0.358   4.141   2.004
 6352TIP3   OH219019   1.836   2.713   3.818
 6352TIP3    H119020   1.775   2.727   3.891
 6352TIP3    H219021   1.914   2.762   3.842
 6353TIP3   OH219022   2.828   6.460   0.881
 6353TIP3    H119023   2.800   6.377   0.918
 6353TIP3    H219024   2.919   6.445   0.853
 6354TIP3   OH219025   5.738   5.084   1.171
 6354TIP3    H119026   5.812   5.145   1.174
 6354TIP3    H219027   5.774   5.002   1.205
 6355TIP3   OH219028   2.458   6.400   1.697
 6355TIP3    H119029   2.543   6.439   1.677
 6355TIP3    H219030   2.413   6.396   1.612
 6356TIP3   OH219031   4.629   1.201   1.805
 6356TIP3    H119032   4.629   1.249   1.723
 6356TIP3    H219033   4.667   1.116   1.784
 6357TIP3   OH219034   3.430   3.508   5.752
 6357TIP3    H119035   3.392   3.427   5.785
 6357TIP3    H219036   3.356   3.557   5.716
 6358TIP3   OH219037   3.444   4.468   0.838
 6358TIP3    H119038   3.414   4.378   0.852
 6358TIP3    H219039   3.455   4.504   0.926
 6359TIP3   OH219040   5.732   4.022   3.903
 6359TIP3    H119041   5.717   3.937   3.944
 6359TIP3    H219042   5.651   4.040   3.855
 6360TIP3   OH219043   5.798   1.708   2.665
 6360TIP3    H119044   5.760   1.652   2.732
 6360TIP3    H219045   5.891   1.685   2.664
 6361TIP3   OH219046   0.879   5.696   0.242
 6361TIP3    H119047   0.868   5.791   0.249
 6361TIP3    H219048   0.917   5.669   0.326
 6362TIP3   OH219049   0.532   2.645   2.864
 6362TIP3    H119050   0.544   2.598   2.947
 6362TIP3    H219051   0.530   2.575   2.798
 6363TIP3   OH219052   1.736   3.481   5.713
 6363TIP3    H119053   1.659   3.449   5.760
 6363TIP3    H219054   1.736   3.434   5.630
 6364TIP3   OH219055   0.434   1.194   2.582
 6364TIP3    H119056   0.389   1.156   2.658
 6364TIP3    H219057   0.418   1.132   2.511
 6365TIP3   OH219058   1.819   2.779   5.772
 6365TIP3    H119059   1.809   2.861   5.821
 6365TIP3    H219060   1.748   2.781   5.708
 6366TIP3   OH219061   5.734   6.086   2.791
 6366TIP3    H119062   5.648   6.043   2.798
 6366TIP3    H219063   5.722   6.151   2.721
 6367TIP3   OH219064   4.388   5.155   1.661
 6367TIP3    H119065   4.467   5.171   1.610
 6367TIP3    H219066   4.390   5.061   1.680
 6368TIP3   OH219067   1.195   5.279   2.062
 6368TIP3    H119068   1.102   5.295   2.075
 6368TIP3    H219069   1.205   5.184   2.067
 6369TIP3   OH219070   3.175   1.627   4.959
 6369TIP3    H119071   3.169   1.533   4.978
 6369TIP3    H219072   3.217   1.631   4.873
 6370TIP3   OH219073   5.365   0.663   3.239
 6370TIP3    H119074   5.423   0.733   3.270
 6370TIP3    H219075   5.361   0.676   3.144
 6371TIP3   OH219076   0.738   2.708   0.024
 6371TIP3    H119077   0.667   2.644   0.030
 6371TIP3    H219078   0.816   2.658   0.045
 6372TIP3   OH219079   0.874   3.333   4.795
 6372TIP3    H119080   0.969   3.328   4.796
 6372TIP3    H219081   0.853   3.382   4.716
 6373TIP3   OH219082   6.652   6.507   3.454
 6373TIP3    H119083   6.707   6.536   3.381
 6373TIP3    H219084   6.706   6.445   3.502
 6374TIP3   OH219085   4.396   0.295   3.608
 6374TIP3    H119086   4.417   0.271   3.517
 6374TIP3    H219087   4.425   0.220   3.660
 6375TIP3   OH219088   6.832   5.043   1.468
 6375TIP3    H119089   6.872   5.093   1.396
 6375TIP3    H219090   6.900   4.980   1.493
 6376TIP3   OH219091   3.155   2.683   3.956
 6376TIP3    H119092   3.078   2.698   3.902
 6376TIP3    H219093   3.225   2.666   3.893
 6377TIP3   OH219094   2.897   3.334   4.366
 6377TIP3    H119095   2.819   3.281   4.382
 6377TIP3    H219096   2.958   3.308   4.435
 6378TIP3   OH219097   4.695   0.482   2.024
 6378TIP3    H119098   4.612   0.528   2.033
 6378TIP3    H219099   4.758   0.550   1.999
 6379TIP3   OH219100   3.962   4.238   4.257
 6379TIP3    H119101   3.918   4.250   4.341
 6379TIP3    H219102   3.950   4.322   4.212
 6380TIP3   OH219103   5.469   6.013   2.540
 6380TIP3    H119104   5.481   6.020   2.634
 6380TIP3    H219105   5.381   5.976   2.530
 6381TIP3   OH219106   1.346   1.637   1.721
 6381TIP3    H119107   1.340   1.732   1.724
 6381TIP3    H219108   1.440   1.619   1.726
 6382TIP3   OH219109   1.528   2.834   0.424
 6382TIP3    H119110   1.608   2.832   0.476
 6382TIP3    H219111   1.526   2.749   0.381
 6383TIP3   OH219112   1.527   3.729   2.268
 6383TIP3    H119113   1.459   3.742   2.202
 6383TIP3    H219114   1.543   3.635   2.268
 6384TIP3   OH219115   0.424   3.675   5.332
 6384TIP3    H119116   0.474   3.741   5.285
 6384TIP3    H219117   0.446   3.689   5.424
 6385TIP3   OH219118   2.887   2.481   4.068
 6385TIP3    H119119   2.831   2.546   4.026
 6385TIP3    H219120   2.961   2.532   4.102
 6386TIP3   OH219121   0.738   6.348   1.116
 6386TIP3    H119122   0.826   6.312   1.125
 6386TIP3    H219123   0.747   6.417   1.050
 6387TIP3   OH219124   2.151   5.222   1.756
 6387TIP3    H119125   2.084   5.161   1.787
 6387TIP3    H219126   2.211   5.233   1.830
 6388TIP3   OH219127   3.415   2.411   5.629
 6388TIP3    H119128   3.335   2.399   5.578
 6388TIP3    H219129   3.385   2.410   5.720
 6389TIP3   OH219130   4.181   6.442   0.276
 6389TIP3    H119131   4.181   6.412   0.368
 6389TIP3    H219132   4.154   6.533   0.280
 6390TIP3   OH219133   5.849   2.574   0.124
 6390TIP3    H119134   5.774   2.515   0.113
 6390TIP3    H219135   5.857   2.618   0.040
 6391TIP3   OH219136   6.855   3.367   5.040
 6391TIP3    H119137   6.818   3.373   4.952
 6391TIP3    H219138   6.888   3.278   5.047
 6392TIP3   OH219139   1.817   1.638   4.371
 6392TIP3    H119140   1.748   1.705   4.376
 6392TIP3    H219141   1.833   1.612   4.461
 6393TIP3   OH219142   6.984   6.605   1.777
 6393TIP3    H119143   7.005   6.686   1.823
 6393TIP3    H219144   6.917   6.630   1.714
 6394TIP3   OH219145   4.225   0.454   5.572
 6394TIP3    H119146   4.258   0.531   5.618
 6394TIP3    H219147   4.219   0.481   5.481
 6395TIP3   OH219148   5.208   6.446   5.122
 6395TIP3    H119149   5.288   6.498   5.132
 6395TIP3    H219150   5.232   6.359   5.154
 6396TIP3   OH219151   1.219   2.915   5.113
 6396TIP3    H119152   1.171   2.892   5.033
 6396TIP3    H219153   1.166   2.879   5.184
 6397TIP3   OH219154   1.441   2.589   3.982
 6397TIP3    H119155   1.497   2.513   3.996
 6397TIP3    H219156   1.489   2.642   3.918
 6398TIP3   OH219157   3.256   1.145   5.544
 6398TIP3    H119158   3.285   1.058   5.570
 6398TIP3    H219159   3.161   1.141   5.545
 6399TIP3   OH219160   6.856   5.102   0.618
 6399TIP3    H119161   6.870   5.053   0.699
 6399TIP3    H219162   6.944   5.119   0.585
 6400TIP3   OH219163   0.933   2.078   1.981
 6400TIP3    H119164   1.014   2.129   1.972
 6400TIP3    H219165   0.958   2.002   2.033
 6401TIP3   OH219166   3.513   4.907   3.179
 6401TIP3    H119167   3.421   4.915   3.151
 6401TIP3    H219168   3.537   4.817   3.156
 6402TIP3   OH219169   2.813   0.318   0.897
 6402TIP3    H119170   2.848   0.403   0.923
 6402TIP3    H219171   2.773   0.333   0.812
 6403TIP3   OH219172   7.016   5.295   3.666
 6403TIP3    H119173   7.071   5.355   3.615
 6403TIP3    H219174   6.928   5.307   3.631
 6404TIP3   OH219175   3.666   5.126   5.084
 6404TIP3    H119176   3.696   5.086   5.002
 6404TIP3    H219177   3.591   5.180   5.059
 6405TIP3   OH219178   0.771   2.960   0.261
 6405TIP3    H119179   0.684   2.921   0.254
 6405TIP3    H219180   0.754   3.053   0.278
 6406TIP3   OH219181   2.300   0.926   1.263
 6406TIP3    H119182   2.329   0.991   1.198
 6406TIP3    H219183   2.205   0.927   1.256
 6407TIP3   OH219184   1.054   3.298   2.761
 6407TIP3    H119185   1.078   3.233   2.696
 6407TIP3    H219186   1.080   3.261   2.845
 6408TIP3   OH219187   5.260   3.941   0.370
 6408TIP3    H119188   5.240   3.849   0.385
 6408TIP3    H219189   5.211   3.988   0.438
 6409TIP3   OH219190   0.388   5.457   0.500
 6409TIP3    H119191   0.449   5.418   0.563
 6409TIP3    H219192   0.441   5.519   0.450
 6410TIP3   OH219193   6.075   3.042   2.808
 6410TIP3    H119194   5.999   3.074   2.855
 6410TIP3    H219195   6.150   3.069   2.862
 6411TIP3   OH219196   4.217   6.676   4.064
 6411TIP3    H119197   4.256   6.747   4.014
 6411TIP3    H219198   4.220   6.601   4.004
 6412TIP3   OH219199   3.745   3.924   0.146
 6412TIP3    H119200   3.763   3.926   0.241
 6412TIP3    H219201   3.676   3.859   0.137
 6413TIP3   OH219202   0.480   0.770   3.548
 6413TIP3    H119203   0.505   0.827   3.475
 6413TIP3    H219204   0.552   0.779   3.610
 6414TIP3   OH219205   6.045   6.636   1.700
 6414TIP3    H119206   6.131   6.593   1.697
 6414TIP3    H219207   5.998   6.601   1.625
 6415TIP3   OH219208   5.289   1.046   3.423
 6415TIP3    H119209   5.282   1.114   3.356
 6415TIP3    H219210   5.368   0.997   3.399
 6416TIP3   OH219211   6.565   3.288   1.063
 6416TIP3    H119212   6.589   3.247   1.146
 6416TIP3    H219213   6.530   3.374   1.088
 6417TIP3   OH219214   3.341   5.731   3.128
 6417TIP3    H119215   3.291   5.728   3.210
 6417TIP3    H219216   3.274   5.733   3.059
 6418TIP3   OH219217   4.958   0.819   2.459
 6418TIP3    H119218   4.864   0.803   2.453
 6418TIP3    H219219   4.974   0.840   2.551
 6419TIP3   OH219220   1.097   3.386   3.045
 6419TIP3    H119221   1.160   3.359   3.112
 6419TIP3    H219222   1.117   3.477   3.027
 6420TIP3   OH219223   5.101   6.217   4.185
 6420TIP3    H119224   5.139   6.301   4.215
 6420TIP3    H219225   5.043   6.241   4.113
 6421TIP3   OH219226   3.413   0.285   0.508
 6421TIP3    H119227   3.375   0.301   0.422
 6421TIP3    H219228   3.501   0.322   0.503
 6422TIP3   OH219229   6.335   2.866   3.821
 6422TIP3    H119230   6.375   2.916   3.749
 6422TIP3    H219231   6.404   2.860   3.887
 6423TIP3   OH219232   0.811   4.631   5.745
 6423TIP3    H119233   0.791   4.713   5.789
 6423TIP3    H219234   0.728   4.604   5.706
 6424TIP3   OH219235   6.395   3.807   2.430
 6424TIP3    H119236   6.480   3.763   2.425
 6424TIP3    H219237   6.351   3.784   2.348
 6425TIP3   OH219238   6.802   0.233   3.539
 6425TIP3    H119239   6.717   0.241   3.494
 6425TIP3    H219240   6.801   0.303   3.604
 6426TIP3   OH219241   4.508   2.268   5.383
 6426TIP3    H119242   4.597   2.236   5.396
 6426TIP3    H219243   4.515   2.332   5.312
 6427TIP3   OH219244   4.634   2.877   3.832
 6427TIP3    H119245   4.582   2.875   3.752
 6427TIP3    H219246   4.597   2.807   3.886
 6428TIP3   OH219247   3.608   5.252   1.833
 6428TIP3    H119248   3.628   5.276   1.924
 6428TIP3    H219249   3.549   5.320   1.802
 6429TIP3   OH219250   6.422   6.260   0.896
 6429TIP3    H119251   6.356   6.234   0.960
 6429TIP3    H219252   6.414   6.355   0.890
 6430TIP3   OH219253   3.490   0.115   2.491
 6430TIP3    H119254   3.585   0.114   2.500
 6430TIP3    H219255   3.465   0.023   2.484
 6431TIP3   OH219256   4.649   0.859   0.070
 6431TIP3    H119257   4.733   0.881   0.029
 6431TIP3    H219258   4.606   0.944   0.082
 6432TIP3   OH219259   5.627   1.637   2.865
 6432TIP3    H119260   5.557   1.632   2.931
 6432TIP3    H219261   5.708   1.629   2.915
 6433TIP3   OH219262   1.841   1.508   0.386
 6433TIP3    H119263   1.807   1.560   0.313
 6433TIP3    H219264   1.792   1.539   0.462
 6434TIP3   OH219265   6.679   4.919   0.851
 6434TIP3    H119266   6.672   5.001   0.901
 6434TIP3    H219267   6.680   4.850   0.917
 6435TIP3   OH219268   4.261   0.630   0.976
 6435TIP3    H119269   4.279   0.626   1.070
 6435TIP3    H219270   4.345   0.656   0.938
 6436TIP3   OH219271   0.296   3.717   4.259
 6436TIP3    H119272   0.327   3.801   4.225
 6436TIP3    H219273   0.374   3.662   4.263
 6437TIP3   OH219274   4.988   2.063   2.544
 6437TIP3    H119275   4.926   2.059   2.617
 6437TIP3    H219276   5.069   2.026   2.580
 6438TIP3   OH219277   1.825   2.534   0.931
 6438TIP3    H119278   1.815   2.460   0.871
 6438TIP3    H219279   1.764   2.515   1.002
 6439TIP3   OH219280   6.811   2.305   1.067
 6439TIP3    H119281   6.779   2.392   1.094
 6439TIP3    H219282   6.798   2.250   1.144
 6440TIP3   OH219283   0.210   4.392   3.316
 6440TIP3    H119284   0.281   4.441   3.275
 6440TIP3    H219285   0.205   4.310   3.266
 6441TIP3   OH219286   0.728   3.490   4.986
 6441TIP3    H119287   0.774   3.450   4.912
 6441TIP3    H219288   0.639   3.502   4.955
 6442TIP3   OH219289   4.569   2.638   3.955
 6442TIP3    H119290   4.636   2.591   3.905
 6442TIP3    H219291   4.487   2.594   3.932
 6443TIP3   OH219292   6.529   5.538   1.629
 6443TIP3    H119293   6.440   5.566   1.649
 6443TIP3    H219294   6.517   5.458   1.576
 6444TIP3   OH219295   0.065   4.084   3.948
 6444TIP3    H119296   0.123   4.116   3.879
 6444TIP3    H219297   0.106   4.113   4.029
 6445TIP3   OH219298   4.516   0.067   4.064
 6445TIP3    H119299   4.422   0.051   4.052
 6445TIP3    H219300   4.549  -0.014   4.102
 6446TIP3   OH219301   5.257   3.546   5.562
 6446TIP3    H119302   5.261   3.476   5.627
 6446TIP3    H219303   5.175   3.592   5.580
 6447TIP3   OH219304   4.316   4.274   2.140
 6447TIP3    H119305   4.399   4.257   2.095
 6447TIP3    H219306   4.338   4.339   2.207
 6448TIP3   OH219307   5.604   5.701   1.901
 6448TIP3    H119308   5.608   5.656   1.817
 6448TIP3    H219309   5.629   5.791   1.882
 6449TIP3   OH219310   4.321   6.454   4.564
 6449TIP3    H119311   4.381   6.511   4.613
 6449TIP3    H219312   4.325   6.487   4.474
 6450TIP3   OH219313   2.514   1.025   5.558
 6450TIP3    H119314   2.432   1.005   5.604
 6450TIP3    H219315   2.583   1.010   5.622
 6451TIP3   OH219316   4.917   6.393   1.038
 6451TIP3    H119317   4.926   6.328   1.108
 6451TIP3    H219318   4.829   6.380   1.003
 6452TIP3   OH219319   4.757   6.135   5.516
 6452TIP3    H119320   4.831   6.192   5.498
 6452TIP3    H219321   4.715   6.174   5.593
 6453TIP3   OH219322   6.905   5.530   2.477
 6453TIP3    H119323   6.841   5.504   2.411
 6453TIP3    H219324   6.939   5.447   2.511
 6454TIP3   OH219325   6.548   0.343   5.032
 6454TIP3    H119326   6.472   0.385   5.072
 6454TIP3    H219327   6.619   0.359   5.094
 6455TIP3   OH219328   7.102   2.564   5.004
 6455TIP3    H119329   7.088   2.627   5.075
 6455TIP3    H219330   7.016   2.522   4.992
 6456TIP3   OH219331   1.897   1.991   1.963
 6456TIP3    H119332   1.892   1.942   1.880
 6456TIP3    H219333   1.847   2.071   1.946
 6457TIP3   OH219334   5.945   6.427   1.904
 6457TIP3    H119335   5.962   6.507   1.855
 6457TIP3    H219336   5.892   6.455   1.979
 6458TIP3   OH219337   3.509   2.842   1.523
 6458TIP3    H119338   3.492   2.935   1.534
 6458TIP3    H219339   3.585   2.824   1.579
 6459TIP3   OH219340   7.150   5.829   3.507
 6459TIP3    H119341   7.110   5.802   3.590
 6459TIP3    H219342   7.088   5.891   3.469
 6460TIP3   OH219343   3.732   1.137   0.854
 6460TIP3    H119344   3.737   1.111   0.946
 6460TIP3    H219345   3.722   1.232   0.856
 6461TIP3   OH219346   5.655   2.520   1.483
 6461TIP3    H119347   5.603   2.494   1.559
 6461TIP3    H219348   5.677   2.612   1.500
 6462TIP3   OH219349   0.038   3.205   3.908
 6462TIP3    H119350   0.014   3.255   3.830
 6462TIP3    H219351  -0.043   3.199   3.958
 6463TIP3   OH219352   0.782   3.076   1.267
 6463TIP3    H119353   0.817   3.003   1.216
 6463TIP3    H219354   0.812   3.154   1.220
 6464TIP3   OH219355   6.382   1.484   0.595
 6464TIP3    H119356   6.415   1.537   0.522
 6464TIP3    H219357   6.307   1.533   0.628
 6465TIP3   OH219358   2.074   2.840   2.628
 6465TIP3    H119359   2.156   2.792   2.627
 6465TIP3    H219360   2.099   2.931   2.646
 6466TIP3   OH219361   3.275   3.267   1.490
 6466TIP3    H119362   3.229   3.257   1.574
 6466TIP3    H219363   3.324   3.349   1.499
 6467TIP3   OH219364   6.627   0.732   5.100
 6467TIP3    H119365   6.542   0.724   5.058
 6467TIP3    H219366   6.690   0.709   5.032
 6468TIP3   OH219367   0.235   2.208   3.842
 6468TIP3    H119368   0.191   2.282   3.799
 6468TIP3    H219369   0.171   2.175   3.905
 6469TIP3   OH219370   2.658   6.406   2.113
 6469TIP3    H119371   2.614   6.465   2.053
 6469TIP3    H219372   2.751   6.414   2.090
 6470TIP3   OH219373   6.762   2.798   2.335
 6470TIP3    H119374   6.776   2.877   2.388
 6470TIP3    H219375   6.827   2.806   2.264
 6471TIP3   OH219376   0.913   0.977   4.618
 6471TIP3    H119377   0.938   0.885   4.628
 6471TIP3    H219378   0.996   1.025   4.626
 6472TIP3   OH219379   6.392   4.428   1.133
 6472TIP3    H119380   6.407   4.385   1.049
 6472TIP3    H219381   6.478   4.431   1.174
 6473TIP3   OH219382   6.174   3.869   0.958
 6473TIP3    H119383   6.148   3.937   1.021
 6473TIP3    H219384   6.108   3.873   0.889
 6474TIP3   OH219385   4.102   1.096   5.691
 6474TIP3    H119386   4.010   1.078   5.674
 6474TIP3    H219387   4.101   1.161   5.761
 6475TIP3   OH219388   4.540   4.405   3.004
 6475TIP3    H119389   4.600   4.452   3.062
 6475TIP3    H219390   4.461   4.394   3.056
 6476TIP3   OH219391   4.890   5.913   5.557
 6476TIP3    H119392   4.838   5.988   5.530
 6476TIP3    H219393   4.866   5.844   5.494
 6477TIP3   OH219394   7.106   3.600   0.056
 6477TIP3    H119395   7.014   3.626   0.048
 6477TIP3    H219396   7.110   3.551   0.138
 6478TIP3   OH219397   6.097   0.789   3.709
 6478TIP3    H119398   6.148   0.868   3.729
 6478TIP3    H219399   6.162   0.718   3.712
 6479TIP3   OH219400   4.956   3.338   4.334
 6479TIP3    H119401   5.047   3.322   4.309
 6479TIP3    H219402   4.945   3.289   4.415
 6480TIP3   OH219403   1.864   3.371   5.505
 6480TIP3    H119404   1.863   3.290   5.454
 6480TIP3    H219405   1.935   3.422   5.467
 6481TIP3   OH219406   1.541   3.192   3.417
 6481TIP3    H119407   1.513   3.252   3.348
 6481TIP3    H219408   1.581   3.118   3.370
 6482TIP3   OH219409   1.175   3.436  -0.023
 6482TIP3    H119410   1.146   3.398   0.060
 6482TIP3    H219411   1.216   3.519   0.001
 6483TIP3   OH219412   6.980   1.894   4.017
 6483TIP3    H119413   7.005   1.805   4.044
 6483TIP3    H219414   6.931   1.881   3.936
 6484TIP3   OH219415   3.191   5.420   5.615
 6484TIP3    H119416   3.166   5.483   5.547
 6484TIP3    H219417   3.286   5.427   5.621
 6485TIP3   OH219418   4.777   4.764   0.500
 6485TIP3    H119419   4.735   4.713   0.569
 6485TIP3    H219420   4.708   4.820   0.466
 6486TIP3   OH219421   0.542   4.413   2.642
 6486TIP3    H119422   0.594   4.488   2.615
 6486TIP3    H219423   0.559   4.403   2.736
 6487TIP3   OH219424   1.313   0.844   5.664
 6487TIP3    H119425   1.228   0.889   5.659
 6487TIP3    H219426   1.360   0.889   5.734
 6488TIP3   OH219427   0.556   0.552   0.356
 6488TIP3    H119428   0.473   0.592   0.329
 6488TIP3    H219429   0.607   0.547   0.275
 6489TIP3   OH219430   1.313   6.083   0.272
 6489TIP3    H119431   1.240   6.050   0.324
 6489TIP3    H219432   1.284   6.074   0.181
 6490TIP3   OH219433   6.614   4.378   0.171
 6490TIP3    H119434   6.667   4.454   0.146
 6490TIP3    H219435   6.524   4.402   0.146
 6491TIP3   OH219436   2.502   1.404   4.367
 6491TIP3    H119437   2.461   1.427   4.283
 6491TIP3    H219438   2.538   1.487   4.399
 6492TIP3   OH219439   4.116   3.101   5.615
 6492TIP3    H119440   4.201   3.144   5.614
 6492TIP3    H219441   4.060   3.156   5.560
 6493TIP3   OH219442   0.233   3.781   1.201
 6493TIP3    H119443   0.226   3.695   1.241
 6493TIP3    H219444   0.144   3.817   1.206
 6494TIP3   OH219445   5.273   5.431   3.972
 6494TIP3    H119446   5.237   5.355   4.018
 6494TIP3    H219447   5.366   5.410   3.962
 6495TIP3   OH219448   2.248   6.198   0.500
 6495TIP3    H119449   2.243   6.110   0.464
 6495TIP3    H219450   2.324   6.197   0.557
 6496TIP3   OH219451   0.368   5.126   4.219
 6496TIP3    H119452   0.410   5.091   4.141
 6496TIP3    H219453   0.307   5.192   4.186
 6497TIP3   OH219454   5.513   0.509   5.503
 6497TIP3    H119455   5.543   0.433   5.453
 6497TIP3    H219456   5.462   0.472   5.576
 6498TIP3   OH219457   1.075   3.896   2.415
 6498TIP3    H119458   1.120   3.976   2.443
 6498TIP3    H219459   1.001   3.889   2.475
 6499TIP3   OH219460   2.443   5.165   5.021
 6499TIP3    H119461   2.364   5.138   4.975
 6499TIP3    H219462   2.465   5.091   5.077
 6500TIP3   OH219463   1.435   3.504   5.419
 6500TIP3    H119464   1.352   3.545   5.445
 6500TIP3    H219465   1.419   3.410   5.426
 6501TIP3   OH219466   3.530   3.780   2.178
 6501TIP3    H119467   3.449   3.759   2.225
 6501TIP3    H219468   3.594   3.718   2.213
 6502TIP3   OH219469   1.652   0.363   5.412
 6502TIP3    H119470   1.571   0.382   5.460
 6502TIP3    H219471   1.702   0.307   5.471
 6503TIP3   OH219472   6.526   4.018   0.797
 6503TIP3    H119473   6.519   3.967   0.878
 6503TIP3    H219474   6.441   4.004   0.754
 6504TIP3   OH219475   3.298   2.119   1.714
 6504TIP3    H119476   3.281   2.051   1.649
 6504TIP3    H219477   3.328   2.072   1.791
 6505TIP3   OH219478   6.820   6.416   5.116
 6505TIP3    H119479   6.885   6.354   5.081
 6505TIP3    H219480   6.767   6.363   5.176
 6506TIP3   OH219481   1.700   1.566   3.075
 6506TIP3    H119482   1.722   1.496   3.137
 6506TIP3    H219483   1.778   1.576   3.020
 6507TIP3   OH219484   5.374   4.564   1.283
 6507TIP3    H119485   5.443   4.582   1.218
 6507TIP3    H219486   5.294   4.555   1.232
 6508TIP3   OH219487   4.768   2.658   2.607
 6508TIP3    H119488   4.851   2.666   2.654
 6508TIP3    H219489   4.701   2.663   2.675
 6509TIP3   OH219490   4.559   3.425   2.425
 6509TIP3    H119491   4.631   3.382   2.471
 6509TIP3    H219492   4.531   3.361   2.359
 6510TIP3   OH219493   1.591   0.322   2.610
 6510TIP3    H119494   1.605   0.349   2.519
 6510TIP3    H219495   1.621   0.397   2.662
 6511TIP3   OH219496   0.038   6.643   1.125
 6511TIP3    H119497   0.068   6.560   1.163
 6511TIP3    H219498  -0.057   6.632   1.116
 6512TIP3   OH219499   1.998   1.709   2.041
 6512TIP3    H119500   2.088   1.698   2.071
 6512TIP3    H219501   1.993   1.800   2.010
 6513TIP3   OH219502   2.710   2.998   4.477
 6513TIP3    H119503   2.649   3.042   4.419
 6513TIP3    H219504   2.751   2.931   4.423
 6514TIP3   OH219505   1.610   0.117   2.238
 6514TIP3    H119506   1.534   0.143   2.185
 6514TIP3    H219507   1.660   0.198   2.247
 6515TIP3   OH219508   0.294   5.498   0.927
 6515TIP3    H119509   0.323   5.570   0.870
 6515TIP3    H219510   0.275   5.426   0.866
 6516TIP3   OH219511   7.103   4.460   3.747
 6516TIP3    H119512   7.018   4.422   3.770
 6516TIP3    H219513   7.143   4.396   3.689
 6517TIP3   OH219514   5.362   6.724   3.550
 6517TIP3    H119515   5.293   6.689   3.494
 6517TIP3    H219516   5.443   6.693   3.510
 6518TIP3   OH219517   2.901   6.145   1.146
 6518TIP3    H119518   2.858   6.092   1.214
 6518TIP3    H219519   2.868   6.233   1.160
 6519TIP3   OH219520   7.213   2.970   1.786
 6519TIP3    H119521   7.145   3.037   1.774
 6519TIP3    H219522   7.279   3.013   1.840
 6520TIP3   OH219523   2.230   1.911   4.953
 6520TIP3    H119524   2.231   1.958   5.036
 6520TIP3    H219525   2.321   1.914   4.922
 6521TIP3   OH219526   1.917   1.845   0.128
 6521TIP3    H119527   1.847   1.780   0.135
 6521TIP3    H219528   1.901   1.887   0.043
 6522TIP3   OH219529   5.792   3.289   0.404
 6522TIP3    H119530   5.884   3.294   0.379
 6522TIP3    H219531   5.786   3.212   0.460
 6523TIP3   OH219532   2.582   4.134   2.353
 6523TIP3    H119533   2.536   4.188   2.289
 6523TIP3    H219534   2.584   4.188   2.433
 6524TIP3   OH219535   4.162   1.718   5.324
 6524TIP3    H119536   4.105   1.678   5.390
 6524TIP3    H219537   4.151   1.812   5.337
 6525TIP3   OH219538   7.016   4.622   1.288
 6525TIP3    H119539   7.007   4.590   1.198
 6525TIP3    H219540   7.104   4.596   1.314
 6526TIP3   OH219541   1.633   6.325   1.398
 6526TIP3    H119542   1.564   6.307   1.461
 6526TIP3    H219543   1.588   6.362   1.322
 6527TIP3   OH219544   2.792   2.144   0.452
 6527TIP3    H119545   2.878   2.182   0.436
 6527TIP3    H219546   2.804   2.088   0.529
 6528TIP3   OH219547   0.926   6.262   1.547
 6528TIP3    H119548   0.961   6.216   1.623
 6528TIP3    H219549   0.918   6.353   1.575
 6529TIP3   OH219550   4.644   4.856   0.028
 6529TIP3    H119551   4.635   4.812  -0.057
 6529TIP3    H219552   4.599   4.798   0.090
 6530TIP3   OH219553   2.025   2.557   4.842
 6530TIP3    H119554   1.957   2.533   4.904
 6530TIP3    H219555   2.099   2.500   4.864
 6531TIP3   OH219556   0.480   6.270   0.998
 6531TIP3    H119557   0.410   6.329   0.971
 6531TIP3    H219558   0.535   6.322   1.057
 6532TIP3   OH219559   6.376   0.824   3.140
 6532TIP3    H119560   6.408   0.743   3.101
 6532TIP3    H219561   6.409   0.893   3.082
 6533TIP3   OH219562   6.336   3.516   0.467
 6533TIP3    H119563   6.414   3.568   0.488
 6533TIP3    H219564   6.367   3.425   0.466
 6534TIP3   OH219565   3.742   1.567   5.482
 6534TIP3    H119566   3.676   1.606   5.426
 6534TIP3    H219567   3.793   1.511   5.424
 6535TIP3   OH219568   4.880   2.648   3.859
 6535TIP3    H119569   4.861   2.715   3.924
 6535TIP3    H219570   4.824   2.669   3.785
 6536TIP3   OH219571   2.819   2.903   1.652
 6536TIP3    H119572   2.833   2.971   1.587
 6536TIP3    H219573   2.827   2.821   1.602
 6537TIP3   OH219574   1.872   3.156   4.445
 6537TIP3    H119575   1.965   3.178   4.454
 6537TIP3    H219576   1.829   3.203   4.516
 6538TIP3   OH219577   3.001   6.720   4.425
 6538TIP3    H119578   2.994   6.653   4.356
 6538TIP3    H219579   2.960   6.680   4.501
 6539TIP3   OH219580   5.249   6.415   0.110
 6539TIP3    H119581   5.156   6.410   0.130
 6539TIP3    H219582   5.275   6.325   0.091
 6540TIP3   OH219583   4.552   3.482   0.463
 6540TIP3    H119584   4.581   3.526   0.383
 6540TIP3    H219585   4.465   3.518   0.479
 6541TIP3   OH219586   1.859   3.369   5.078
 6541TIP3    H119587   1.811   3.291   5.049
 6541TIP3    H219588   1.795   3.439   5.076
 6542TIP3   OH219589   5.090   2.156   5.495
 6542TIP3    H119590   5.136   2.218   5.439
 6542TIP3    H219591   5.054   2.209   5.566
 6543TIP3   OH219592   5.445   6.085   3.517
 6543TIP3    H119593   5.527   6.091   3.568
 6543TIP3    H219594   5.387   6.149   3.559
 6544TIP3   OH219595   2.950   4.618   3.926
 6544TIP3    H119596   2.859   4.649   3.931
 6544TIP3    H219597   2.952   4.564   3.847
 6545TIP3   OH219598   4.597   3.161   0.346
 6545TIP3    H119599   4.555   3.214   0.414
 6545TIP3    H219600   4.633   3.225   0.285
 6546TIP3   OH219601   3.399   1.259   4.133
 6546TIP3    H119602   3.385   1.242   4.226
 6546TIP3    H219603   3.486   1.224   4.115
 6547TIP3   OH219604  -0.016   3.363   3.056
 6547TIP3    H119605   0.017   3.333   2.972
 6547TIP3    H219606   0.058   3.355   3.116
 6548TIP3   OH219607   6.141   3.571   1.319
 6548TIP3    H119608   6.109   3.660   1.303
 6548TIP3    H219609   6.101   3.518   1.251
 6549TIP3   OH219610   5.233   5.696   4.096
 6549TIP3    H119611   5.315   5.715   4.140
 6549TIP3    H219612   5.252   5.620   4.040
 6550TIP3   OH219613   3.553   5.927   4.310
 6550TIP3    H119614   3.567   5.872   4.387
 6550TIP3    H219615   3.460   5.950   4.313
 6551TIP3   OH219616   5.508   0.260   4.983
 6551TIP3    H119617   5.498   0.322   5.054
 6551TIP3    H219618   5.602   0.259   4.964
 6552TIP3   OH219619   2.975   5.926   2.512
 6552TIP3    H119620   2.915   5.851   2.511
 6552TIP3    H219621   2.986   5.946   2.605
 6553TIP3   OH219622   1.205   0.073   5.066
 6553TIP3    H119623   1.241   0.114   4.987
 6553TIP3    H219624   1.110   0.076   5.053
 6554TIP3   OH219625   5.081   2.525   2.455
 6554TIP3    H119626   5.160   2.547   2.503
 6554TIP3    H219627   5.092   2.568   2.370
 6555TIP3   OH219628   0.059   3.022   2.442
 6555TIP3    H119629   0.119   2.980   2.379
 6555TIP3    H219630   0.012   3.087   2.390
 6556TIP3   OH219631   1.458   4.772   4.112
 6556TIP3    H119632   1.403   4.797   4.186
 6556TIP3    H219633   1.400   4.723   4.054
 6557TIP3   OH219634   7.086   1.053   0.202
 6557TIP3    H119635   6.998   1.084   0.219
 6557TIP3    H219636   7.132   1.061   0.286
 6558TIP3   OH219637   5.900   4.814   4.436
 6558TIP3    H119638   5.930   4.902   4.413
 6558TIP3    H219639   5.837   4.791   4.367
 6559TIP3   OH219640   6.830   2.883   5.846
 6559TIP3    H119641   6.766   2.950   5.870
 6559TIP3    H219642   6.822   2.817   5.914
 6560TIP3   OH219643   0.307   2.635   0.493
 6560TIP3    H119644   0.329   2.610   0.403
 6560TIP3    H219645   0.285   2.552   0.536
 6561TIP3   OH219646   0.255   5.183   3.867
 6561TIP3    H119647   0.191   5.184   3.796
 6561TIP3    H219648   0.236   5.102   3.915
 6562TIP3   OH219649   5.222   3.735   5.014
 6562TIP3    H119650   5.152   3.670   5.022
 6562TIP3    H219651   5.292   3.689   4.967
 6563TIP3   OH219652   3.363   4.842   1.961
 6563TIP3    H119653   3.387   4.769   1.905
 6563TIP3    H219654   3.424   4.912   1.936
 6564TIP3   OH219655   5.165   3.318   5.740
 6564TIP3    H119656   5.171   3.238   5.689
 6564TIP3    H219657   5.147   3.288   5.829
 6565TIP3   OH219658   3.717   2.922   0.896
 6565TIP3    H119659   3.737   2.829   0.902
 6565TIP3    H219660   3.797   2.966   0.923
 6566TIP3   OH219661   2.998   5.516   4.002
 6566TIP3    H119662   3.035   5.496   3.916
 6566TIP3    H219663   2.909   5.548   3.983
 6567TIP3   OH219664   1.249   5.093   3.729
 6567TIP3    H119665   1.208   5.056   3.808
 6567TIP3    H219666   1.222   5.034   3.658
 6568TIP3   OH219667   2.399   5.898   2.292
 6568TIP3    H119668   2.395   5.993   2.297
 6568TIP3    H219669   2.457   5.873   2.364
 6569TIP3   OH219670   4.828   5.919   1.677
 6569TIP3    H119671   4.808   6.007   1.708
 6569TIP3    H219672   4.923   5.918   1.667
 6570TIP3   OH219673   2.268   0.904   0.021
 6570TIP3    H119674   2.210   0.972  -0.011
 6570TIP3    H219675   2.210   0.841   0.064
 6571TIP3   OH219676   2.196   2.916   3.699
 6571TIP3    H119677   2.107   2.901   3.668
 6571TIP3    H219678   2.252   2.887   3.628
 6572TIP3   OH219679   3.694   3.858   4.498
 6572TIP3    H119680   3.681   3.952   4.483
 6572TIP3    H219681   3.692   3.819   4.411
 6573TIP3   OH219682   4.440   3.491   1.813
 6573TIP3    H119683   4.408   3.566   1.763
 6573TIP3    H219684   4.453   3.422   1.748
 6574TIP3   OH219685   6.742   3.150   0.499
 6574TIP3    H119686   6.733   3.230   0.550
 6574TIP3    H219687   6.665   3.149   0.442
 6575TIP3   OH219688   4.951   1.557   0.678
 6575TIP3    H119689   4.902   1.635   0.703
 6575TIP3    H219690   4.988   1.525   0.759
 6576TIP3   OH219691   5.163   1.928   4.853
 6576TIP3    H119692   5.231   1.969   4.800
 6576TIP3    H219693   5.203   1.847   4.886
 6577TIP3   OH219694   2.273   4.029   0.671
 6577TIP3    H119695   2.295   3.958   0.611
 6577TIP3    H219696   2.356   4.075   0.685
 6578TIP3   OH219697   4.809   1.242   2.237
 6578TIP3    H119698   4.714   1.242   2.245
 6578TIP3    H219699   4.837   1.326   2.273
 6579TIP3   OH219700   7.187   0.484   1.260
 6579TIP3    H119701   7.104   0.530   1.249
 6579TIP3    H219702   7.246   0.524   1.195
 6580TIP3   OH219703   2.378   0.261   1.929
 6580TIP3    H119704   2.452   0.238   1.985
 6580TIP3    H219705   2.417   0.286   1.845
 6581TIP3   OH219706   6.336   5.895   2.521
 6581TIP3    H119707   6.253   5.846   2.522
 6581TIP3    H219708   6.391   5.845   2.461
 6582TIP3   OH219709   1.990   6.276   0.467
 6582TIP3    H119710   2.084   6.260   0.462
 6582TIP3    H219711   1.961   6.230   0.545
 6583TIP3   OH219712   2.638   4.280   2.955
 6583TIP3    H119713   2.577   4.235   2.897
 6583TIP3    H219714   2.596   4.277   3.041
 6584TIP3   OH219715   3.577   6.219   4.592
 6584TIP3    H119716   3.515   6.152   4.619
 6584TIP3    H219717   3.533   6.265   4.520
 6585TIP3   OH219718   5.148   6.555   4.002
 6585TIP3    H119719   5.159   6.638   3.955
 6585TIP3    H219720   5.164   6.488   3.937
 6586TIP3   OH219721   6.647   1.251   3.546
 6586TIP3    H119722   6.579   1.318   3.538
 6586TIP3    H219723   6.685   1.266   3.633
 6587TIP3   OH219724   1.064   4.335   1.474
 6587TIP3    H119725   1.039   4.410   1.529
 6587TIP3    H219726   0.982   4.291   1.454
 6588TIP3   OH219727   2.375   4.879   1.493
 6588TIP3    H119728   2.332   4.796   1.474
 6588TIP3    H219729   2.431   4.896   1.417
 6589TIP3   OH219730   6.874   4.061   3.693
 6589TIP3    H119731   6.859   4.053   3.788
 6589TIP3    H219732   6.965   4.035   3.681
 6590TIP3   OH219733   6.166   2.844   4.957
 6590TIP3    H119734   6.129   2.893   5.031
 6590TIP3    H219735   6.239   2.796   4.994
 6591TIP3   OH219736   2.983   0.367   3.847
 6591TIP3    H119737   2.905   0.410   3.883
 6591TIP3    H219738   3.019   0.317   3.920
 6592TIP3   OH219739   3.917   1.084   3.140
 6592TIP3    H119740   3.993   1.074   3.198
 6592TIP3    H219741   3.943   1.039   3.059
 6593TIP3   OH219742   6.210   5.932   1.112
 6593TIP3    H119743   6.266   5.907   1.186
 6593TIP3    H219744   6.210   6.027   1.113
 6594TIP3   OH219745   6.538   1.307   3.280
 6594TIP3    H119746   6.445   1.282   3.284
 6594TIP3    H219747   6.573   1.279   3.365
 6595TIP3   OH219748   3.806   5.488   0.721
 6595TIP3    H119749   3.844   5.461   0.637
 6595TIP3    H219750   3.878   5.481   0.783
 6596TIP3   OH219751   0.991   2.543   0.433
 6596TIP3    H119752   1.012   2.533   0.526
 6596TIP3    H219753   1.072   2.576   0.393
 6597TIP3   OH219754   5.002   5.696   3.208
 6597TIP3    H119755   5.080   5.753   3.211
 6597TIP3    H219756   4.940   5.744   3.154
 6598TIP3   OH219757   6.138   2.212   3.298
 6598TIP3    H119758   6.076   2.188   3.229
 6598TIP3    H219759   6.083   2.232   3.374
 6599TIP3   OH219760   2.669   0.121   0.584
 6599TIP3    H119761   2.696   0.207   0.616
 6599TIP3    H219762   2.581   0.108   0.620
 6600TIP3   OH219763   5.878   4.671   0.824
 6600TIP3    H119764   5.788   4.704   0.826
 6600TIP3    H219765   5.880   4.610   0.750
 6601TIP3   OH219766   0.449   0.393   2.184
 6601TIP3    H119767   0.438   0.388   2.279
 6601TIP3    H219768   0.397   0.469   2.159
 6602TIP3   OH219769   0.497   6.440   3.506
 6602TIP3    H119770   0.588   6.440   3.475
 6602TIP3    H219771   0.476   6.532   3.521
 6603TIP3   OH219772   0.822   0.375   0.862
 6603TIP3    H119773   0.733   0.362   0.894
 6603TIP3    H219774   0.831   0.314   0.789
 6604TIP3   OH219775   2.438   4.950   4.635
 6604TIP3    H119776   2.348   4.980   4.622
 6604TIP3    H219777   2.492   5.024   4.605
 6605TIP3   OH219778   2.953   1.068   1.020
 6605TIP3    H119779   2.886   1.116   0.971
 6605TIP3    H219780   3.029   1.127   1.022
 6606TIP3   OH219781   5.379   1.977   4.669
 6606TIP3    H119782   5.416   2.066   4.665
 6606TIP3    H219783   5.446   1.921   4.629
 6607TIP3   OH219784   1.168   5.925   2.448
 6607TIP3    H119785   1.152   5.837   2.414
 6607TIP3    H219786   1.252   5.951   2.411
 6608TIP3   OH219787   2.693   3.135   1.245
 6608TIP3    H119788   2.638   3.058   1.262
 6608TIP3    H219789   2.665   3.167   1.160
 6609TIP3   OH219790   1.097   0.512   2.164
 6609TIP3    H119791   1.152   0.476   2.233
 6609TIP3    H219792   1.008   0.487   2.189
 6610TIP3   OH219793   4.722   4.490   3.239
 6610TIP3    H119794   4.718   4.420   3.305
 6610TIP3    H219795   4.749   4.567   3.288
 6611TIP3   OH219796   4.761   3.249   4.974
 6611TIP3    H119797   4.736   3.178   4.914
 6611TIP3    H219798   4.784   3.205   5.056
 6612TIP3   OH219799   4.299   2.428   2.840
 6612TIP3    H119800   4.216   2.462   2.873
 6612TIP3    H219801   4.274   2.375   2.764
 6613TIP3   OH219802   0.442   6.524   5.535
 6613TIP3    H119803   0.436   6.445   5.482
 6613TIP3    H219804   0.427   6.595   5.472
 6614TIP3   OH219805   5.465   6.633   2.255
 6614TIP3    H119806   5.387   6.638   2.311
 6614TIP3    H219807   5.535   6.603   2.314
 6615TIP3   OH219808   4.096   3.811   5.309
 6615TIP3    H119809   4.106   3.717   5.320
 6615TIP3    H219810   4.181   3.841   5.275
 6616TIP3   OH219811   6.274   6.003   4.410
 6616TIP3    H119812   6.315   5.968   4.331
 6616TIP3    H219813   6.334   6.072   4.439
 6617TIP3   OH219814   6.866   3.414   1.988
 6617TIP3    H119815   6.832   3.355   2.055
 6617TIP3    H219816   6.897   3.490   2.037
 6618TIP3   OH219817   5.093   3.001   4.018
 6618TIP3    H119818   5.046   2.942   4.077
 6618TIP3    H219819   5.166   3.034   4.071
 6619TIP3   OH219820   6.808   1.182   2.155
 6619TIP3    H119821   6.753   1.104   2.169
 6619TIP3    H219822   6.778   1.244   2.221
 6620TIP3   OH219823   3.851   1.998   2.877
 6620TIP3    H119824   3.777   2.053   2.851
 6620TIP3    H219825   3.920   2.059   2.902
 6621TIP3   OH219826   3.919   4.446   3.004
 6621TIP3    H119827   3.855   4.376   3.013
 6621TIP3    H219828   4.002   4.401   2.987
 6622TIP3   OH219829   3.981   6.557   4.360
 6622TIP3    H119830   4.007   6.475   4.401
 6622TIP3    H219831   4.052   6.618   4.379
 6623TIP3   OH219832   0.155   2.085   0.520
 6623TIP3    H119833   0.086   2.022   0.538
 6623TIP3    H219834   0.198   2.099   0.604
 6624TIP3   OH219835   6.004   3.471   1.552
 6624TIP3    H119836   5.946   3.406   1.512
 6624TIP3    H219837   6.013   3.540   1.486
 6625TIP3   OH219838   1.714   1.086   2.226
 6625TIP3    H119839   1.683   1.091   2.316
 6625TIP3    H219840   1.684   1.001   2.194
 6626TIP3   OH219841   3.628   4.322   5.583
 6626TIP3    H119842   3.679   4.244   5.560
 6626TIP3    H219843   3.638   4.329   5.678
 6627TIP3   OH219844   3.974   2.419   1.112
 6627TIP3    H119845   3.950   2.487   1.176
 6627TIP3    H219846   3.905   2.423   1.046
 6628TIP3   OH219847   3.040   3.373   1.318
 6628TIP3    H119848   3.103   3.360   1.389
 6628TIP3    H219849   3.013   3.464   1.327
 6629TIP3   OH219850   3.727   6.111   5.787
 6629TIP3    H119851   3.795   6.093   5.721
 6629TIP3    H219852   3.706   6.025   5.823
 6630TIP3   OH219853   5.829   2.764   4.832
 6630TIP3    H119854   5.865   2.852   4.827
 6630TIP3    H219855   5.890   2.710   4.782
 6631TIP3   OH219856   5.117   0.031   3.615
 6631TIP3    H119857   5.026   0.017   3.592
 6631TIP3    H219858   5.115   0.102   3.679
 6632TIP3   OH219859   1.950   4.856   1.548
 6632TIP3    H119860   1.905   4.857   1.464
 6632TIP3    H219861   2.038   4.891   1.529
 6633TIP3   OH219862   2.855   6.465   5.676
 6633TIP3    H119863   2.794   6.537   5.665
 6633TIP3    H219864   2.878   6.467   5.769
 6634TIP3   OH219865   1.325   3.600   1.287
 6634TIP3    H119866   1.403   3.575   1.238
 6634TIP3    H219867   1.334   3.694   1.301
 6635TIP3   OH219868   4.119   4.931   0.968
 6635TIP3    H119869   4.082   4.872   0.902
 6635TIP3    H219870   4.124   5.016   0.925
 6636TIP3   OH219871   2.576   1.356   5.572
 6636TIP3    H119872   2.539   1.386   5.489
 6636TIP3    H219873   2.648   1.299   5.546
 6637TIP3   OH219874   1.774   6.682   3.036
 6637TIP3    H119875   1.820   6.679   2.952
 6637TIP3    H219876   1.806   6.604   3.083
 6638TIP3   OH219877   0.962   4.695   1.916
 6638TIP3    H119878   0.978   4.746   1.995
 6638TIP3    H219879   1.049   4.675   1.882
 6639TIP3   OH219880   6.469   3.204   3.051
 6639TIP3    H119881   6.458   3.285   3.102
 6639TIP3    H219882   6.553   3.168   3.081
 6640TIP3   OH219883   5.098   3.740   3.998
 6640TIP3    H119884   5.041   3.814   3.980
 6640TIP3    H219885   5.098   3.732   4.093
 6641TIP3   OH219886   1.536   6.511   0.120
 6641TIP3    H119887   1.513   6.571   0.049
 6641TIP3    H219888   1.457   6.506   0.174
 6642TIP3   OH219889   6.744   3.372   4.788
 6642TIP3    H119890   6.687   3.316   4.734
 6642TIP3    H219891   6.827   3.373   4.741
 6643TIP3   OH219892   1.064   4.039   1.329
 6643TIP3    H119893   0.986   3.988   1.352
 6643TIP3    H219894   1.034   4.130   1.330
 6644TIP3   OH219895   2.641   3.731   1.280
 6644TIP3    H119896   2.575   3.671   1.316
 6644TIP3    H219897   2.591   3.786   1.219
 6645TIP3   OH219898   6.287   0.395   0.569
 6645TIP3    H119899   6.281   0.328   0.502
 6645TIP3    H219900   6.374   0.434   0.557
 6646TIP3   OH219901   1.409   0.647   5.009
 6646TIP3    H119902   1.351   0.706   4.962
 6646TIP3    H219903   1.426   0.691   5.092
 6647TIP3   OH219904   2.338   4.285   0.491
 6647TIP3    H119905   2.396   4.234   0.548
 6647TIP3    H219906   2.364   4.260   0.402
 6648TIP3   OH219907   5.483   0.682   0.975
 6648TIP3    H119908   5.468   0.765   1.020
 6648TIP3    H219909   5.466   0.615   1.041
 6649TIP3   OH219910   2.890   5.603   1.531
 6649TIP3    H119911   2.978   5.592   1.493
 6649TIP3    H219912   2.879   5.526   1.586
 6650TIP3   OH219913   4.588   3.497   2.086
 6650TIP3    H119914   4.600   3.591   2.104
 6650TIP3    H219915   4.540   3.494   2.004
 6651TIP3   OH219916   6.425   3.040   2.097
 6651TIP3    H119917   6.340   3.062   2.134
 6651TIP3    H219918   6.433   3.097   2.020
 6652TIP3   OH219919   4.532   2.523   2.195
 6652TIP3    H119920   4.524   2.511   2.290
 6652TIP3    H219921   4.626   2.517   2.178
 6653TIP3   OH219922   0.652   1.395   3.355
 6653TIP3    H119923   0.615   1.307   3.346
 6653TIP3    H219924   0.607   1.446   3.287
 6654TIP3   OH219925   3.053   1.218   4.325
 6654TIP3    H119926   3.149   1.218   4.324
 6654TIP3    H219927   3.030   1.280   4.395
 6655TIP3   OH219928   3.289   1.520   4.089
 6655TIP3    H119929   3.311   1.553   4.002
 6655TIP3    H219930   3.341   1.440   4.098
 6656TIP3   OH219931   2.496   1.514   5.002
 6656TIP3    H119932   2.530   1.428   4.979
 6656TIP3    H219933   2.514   1.568   4.924
 6657TIP3   OH219934   0.780   3.474   3.693
 6657TIP3    H119935   0.715   3.499   3.759
 6657TIP3    H219936   0.759   3.529   3.618
 6658TIP3   OH219937   3.310   5.098   0.840
 6658TIP3    H119938   3.233   5.045   0.816
 6658TIP3    H219939   3.353   5.047   0.908
 6659TIP3   OH219940   4.485   0.674   0.826
 6659TIP3    H119941   4.433   0.752   0.805
 6659TIP3    H219942   4.477   0.619   0.748
 6660TIP3   OH219943   4.503   5.890   1.424
 6660TIP3    H119944   4.489   5.920   1.334
 6660TIP3    H219945   4.597   5.868   1.427
 6661TIP3   OH219946   0.724   3.091   3.201
 6661TIP3    H119947   0.682   3.155   3.258
 6661TIP3    H219948   0.665   3.016   3.203
 6662TIP3   OH219949   5.773   6.395   5.038
 6662TIP3    H119950   5.701   6.368   4.982
 6662TIP3    H219951   5.816   6.466   4.990
 6663TIP3   OH219952   4.803   4.973   2.171
 6663TIP3    H119953   4.867   4.990   2.101
 6663TIP3    H219954   4.762   5.058   2.186
 6664TIP3   OH219955   6.880   0.922   0.639
 6664TIP3    H119956   6.808   0.878   0.686
 6664TIP3    H219957   6.922   0.977   0.705
 6665TIP3   OH219958   1.105   6.165   1.371
 6665TIP3    H119959   1.063   6.209   1.445
 6665TIP3    H219960   1.097   6.071   1.391
 6666TIP3   OH219961   1.711   2.349   3.018
 6666TIP3    H119962   1.657   2.270   3.018
 6666TIP3    H219963   1.800   2.317   3.031
 6667TIP3   OH219964   5.413   6.780   5.451
 6667TIP3    H119965   5.396   6.841   5.379
 6667TIP3    H219966   5.508   6.768   5.451
 6668TIP3   OH219967   0.717   4.187   2.519
 6668TIP3    H119968   0.689   4.254   2.581
 6668TIP3    H219969   0.662   4.202   2.442
 6669TIP3   OH219970   2.491   3.262   0.230
 6669TIP3    H119971   2.470   3.356   0.224
 6669TIP3    H219972   2.446   3.233   0.309
 6670TIP3   OH219973   7.180   4.317   1.586
 6670TIP3    H119974   7.141   4.390   1.538
 6670TIP3    H219975   7.228   4.268   1.520
 6671TIP3   OH219976   6.793   2.626   1.131
 6671TIP3    H119977   6.750   2.609   1.215
 6671TIP3    H219978   6.877   2.666   1.155
 6672TIP3   OH219979   6.499   1.070   3.935
 6672TIP3    H119980   6.434   1.059   4.005
 6672TIP3    H219981   6.449   1.057   3.854
 6673TIP3   OH219982   1.758   4.183   0.683
 6673TIP3    H119983   1.853   4.176   0.674
 6673TIP3    H219984   1.744   4.202   0.776
 6674TIP3   OH219985   5.151   2.097   2.834
 6674TIP3    H119986   5.198   2.053   2.763
 6674TIP3    H219987   5.197   2.180   2.845
 6675TIP3   OH219988   1.038   1.479   3.912
 6675TIP3    H119989   1.113   1.527   3.876
 6675TIP3    H219990   0.995   1.541   3.970
 6676TIP3   OH219991   5.648   5.100   5.364
 6676TIP3    H119992   5.557   5.085   5.342
 6676TIP3    H219993   5.654   5.078   5.457
 6677TIP3   OH219994   1.584   6.538   5.190
 6677TIP3    H119995   1.674   6.571   5.198
 6677TIP3    H219996   1.538   6.609   5.144
 6678TIP3   OH219997   3.464   0.893   1.406
 6678TIP3    H119998   3.522   0.954   1.359
 6678TIP3    H219999   3.405   0.861   1.338
 6679TIP3   OH220000   0.570   3.812   1.480
 6679TIP3    H120001   0.526   3.779   1.558
 6679TIP3    H220002   0.639   3.869   1.512
 6680TIP3   OH220003   6.112   1.258   3.537
 6680TIP3    H120004   6.118   1.353   3.547
 6680TIP3    H220005   6.019   1.239   3.551
 6681TIP3   OH220006   1.098   5.538   2.402
 6681TIP3    H120007   1.175   5.487   2.376
 6681TIP3    H220008   1.069   5.498   2.483
 6682TIP3   OH220009   3.066   5.302   4.167
 6682TIP3    H120010   3.085   5.326   4.258
 6682TIP3    H220011   3.060   5.386   4.121
 6683TIP3   OH220012   6.168   4.921   5.191
 6683TIP3    H120013   6.133   4.956   5.109
 6683TIP3    H220014   6.262   4.941   5.188
 6684TIP3   OH220015   0.689   2.584   3.746
 6684TIP3    H120016   0.639   2.648   3.797
 6684TIP3    H220017   0.767   2.631   3.718
 6685TIP3   OH220018   3.211   2.646   2.881
 6685TIP3    H120019   3.146   2.661   2.949
 6685TIP3    H220020   3.168   2.672   2.800
 6686TIP3   OH220021   5.994   4.730   1.556
 6686TIP3    H120022   5.958   4.765   1.638
 6686TIP3    H220023   6.083   4.765   1.552
 6687TIP3   OH220024   6.815   1.472   2.306
 6687TIP3    H120025   6.858   1.549   2.344
 6687TIP3    H220026   6.832   1.402   2.370
 6688TIP3   OH220027   0.967   3.651   1.849
 6688TIP3    H120028   0.898   3.686   1.905
 6688TIP3    H220029   0.971   3.558   1.871
 6689TIP3   OH220030   6.194   1.690   0.338
 6689TIP3    H120031   6.108   1.730   0.336
 6689TIP3    H220032   6.177   1.596   0.341
 6690TIP3   OH220033   5.593   4.420   5.752
 6690TIP3    H120034   5.548   4.444   5.833
 6690TIP3    H220035   5.588   4.325   5.748
 6691TIP3   OH220036   1.843   0.938   3.673
 6691TIP3    H120037   1.889   0.982   3.602
 6691TIP3    H220038   1.756   0.978   3.673
 6692TIP3   OH220039   6.903   5.539   1.376
 6692TIP3    H120040   6.815   5.503   1.373
 6692TIP3    H220041   6.892   5.634   1.371
 6693TIP3   OH220042   0.086   0.777   1.730
 6693TIP3    H120043   0.009   0.733   1.697
 6693TIP3    H220044   0.158   0.716   1.714
 6694TIP3   OH220045   2.100   2.032   4.448
 6694TIP3    H120046   2.103   2.032   4.352
 6694TIP3    H220047   2.009   2.011   4.469
 6695TIP3   OH220048   3.344   2.632   2.154
 6695TIP3    H120049   3.427   2.605   2.193
 6695TIP3    H220050   3.314   2.704   2.209
 6696TIP3   OH220051   0.429   6.212   4.470
 6696TIP3    H120052   0.488   6.223   4.396
 6696TIP3    H220053   0.354   6.164   4.434
 6697TIP3   OH220054   5.556   1.812   1.415
 6697TIP3    H120055   5.624   1.866   1.376
 6697TIP3    H220056   5.474   1.852   1.386
 6698TIP3   OH220057   1.028   1.648   2.314
 6698TIP3    H120058   0.937   1.637   2.342
 6698TIP3    H220059   1.024   1.717   2.248
 6699TIP3   OH220060   4.843   0.468   1.588
 6699TIP3    H120061   4.816   0.442   1.500
 6699TIP3    H220062   4.786   0.417   1.646
 6700TIP3   OH220063   7.167   6.050   5.191
 6700TIP3    H120064   7.168   5.987   5.263
 6700TIP3    H220065   7.238   6.021   5.133
 6701TIP3   OH220066   5.254   2.380   2.800
 6701TIP3    H120067   5.305   2.452   2.835
 6701TIP3    H220068   5.314   2.333   2.742
 6702TIP3   OH220069   0.082   5.889   2.213
 6702TIP3    H120070   0.135   5.838   2.152
 6702TIP3    H220071   0.013   5.926   2.158
 6703TIP3   OH220072   5.183   5.182   3.540
 6703TIP3    H120073   5.144   5.103   3.502
 6703TIP3    H220074   5.108   5.236   3.564
 6704TIP3   OH220075   3.317   3.288   5.418
 6704TIP3    H120076   3.383   3.225   5.446
 6704TIP3    H220077   3.239   3.236   5.400
 6705TIP3   OH220078   4.823   5.852   3.057
 6705TIP3    H120079   4.729   5.836   3.051
 6705TIP3    H220080   4.831   5.921   3.124
 6706TIP3   OH220081   5.250   2.933   4.767
 6706TIP3    H120082   5.292   2.905   4.848
 6706TIP3    H220083   5.287   3.019   4.749
 6707TIP3   OH220084   5.441   5.657   2.817
 6707TIP3    H120085   5.373   5.722   2.834
 6707TIP3    H220086   5.402   5.597   2.754
 6708TIP3   OH220087   1.593   0.751   5.747
 6708TIP3    H120088   1.559   0.838   5.765
 6708TIP3    H220089   1.665   0.765   5.685
 6709TIP3   OH220090   1.071   4.142   2.951
 6709TIP3    H120091   1.086   4.232   2.924
 6709TIP3    H220092   1.095   4.141   3.044
 6710TIP3   OH220093   0.272   5.625   4.979
 6710TIP3    H120094   0.351   5.576   4.955
 6710TIP3    H220095   0.266   5.695   4.914
 6711TIP3   OH220096   3.908   3.332   4.533
 6711TIP3    H120097   3.934   3.277   4.608
 6711TIP3    H220098   3.976   3.399   4.527
 6712TIP3   OH220099   3.402   4.708   5.600
 6712TIP3    H120100   3.495   4.683   5.598
 6712TIP3    H220101   3.403   4.804   5.599
 6713TIP3   OH220102   0.369   6.294   0.505
 6713TIP3    H120103   0.374   6.231   0.576
 6713TIP3    H220104   0.275   6.309   0.492
 6714TIP3   OH220105   1.888   3.194   5.306
 6714TIP3    H120106   1.961   3.142   5.338
 6714TIP3    H220107   1.928   3.263   5.254
 6715TIP3   OH220108   1.770   5.859   4.204
 6715TIP3    H120109   1.679   5.842   4.180
 6715TIP3    H220110   1.819   5.846   4.123
 6716TIP3   OH220111   4.507   2.079   2.950
 6716TIP3    H120112   4.518   2.110   2.860
 6716TIP3    H220113   4.571   2.129   3.001
 6717TIP3   OH220114   0.019   1.524   1.208
 6717TIP3    H120115   0.067   1.519   1.126
 6717TIP3    H220116  -0.003   1.617   1.218
 6718TIP3   OH220117   3.488   1.049   2.480
 6718TIP3    H120118   3.464   0.981   2.543
 6718TIP3    H220119   3.427   1.120   2.498
 6719TIP3   OH220120   2.857   3.152   1.455
 6719TIP3    H120121   2.928   3.188   1.402
 6719TIP3    H220122   2.781   3.152   1.396
 6720TIP3   OH220123   6.818   6.432   4.201
 6720TIP3    H120124   6.765   6.432   4.281
 6720TIP3    H220125   6.900   6.474   4.228
 6721TIP3   OH220126   5.591   0.243   0.965
 6721TIP3    H120127   5.572   0.153   0.938
 6721TIP3    H220128   5.683   0.255   0.944
 6722TIP3   OH220129   0.253   6.002   3.722
 6722TIP3    H120130   0.318   6.071   3.734
 6722TIP3    H220131   0.286   5.949   3.649
 6723TIP3   OH220132   5.089   1.999   0.718
 6723TIP3    H120133   5.168   1.946   0.734
 6723TIP3    H220134   5.122   2.089   0.709
 6724TIP3   OH220135   2.316   0.609   3.165
 6724TIP3    H120136   2.284   0.644   3.083
 6724TIP3    H220137   2.320   0.514   3.151
 6725TIP3   OH220138   4.498   6.617   0.111
 6725TIP3    H120139   4.483   6.539   0.057
 6725TIP3    H220140   4.495   6.690   0.048
 6726TIP3   OH220141   4.845   0.514   0.210
 6726TIP3    H120142   4.867   0.517   0.303
 6726TIP3    H220143   4.895   0.587   0.172
 6727TIP3   OH220144   1.750   4.876   0.916
 6727TIP3    H120145   1.679   4.827   0.958
 6727TIP3    H220146   1.817   4.810   0.899
 6728TIP3   OH220147   0.215   3.696   5.834
 6728TIP3    H120148   0.120   3.684   5.826
 6728TIP3    H220149   0.229   3.788   5.814
 6729TIP3   OH220150   2.750   2.982   3.023
 6729TIP3    H120151   2.780   3.072   3.025
 6729TIP3    H220152   2.723   2.967   2.932
 6730TIP3   OH220153   3.161   6.223   5.196
 6730TIP3    H120154   3.249   6.214   5.233
 6730TIP3    H220155   3.123   6.298   5.242
 6731TIP3   OH220156   2.510   1.123   3.312
 6731TIP3    H120157   2.507   1.180   3.235
 6731TIP3    H220158   2.463   1.044   3.284
 6732TIP3   OH220159   2.225   3.859   3.684
 6732TIP3    H120160   2.196   3.769   3.668
 6732TIP3    H220161   2.170   3.889   3.756
 6733TIP3   OH220162   0.866   5.358   5.453
 6733TIP3    H120163   0.820   5.305   5.518
 6733TIP3    H220164   0.797   5.412   5.414
 6734TIP3   OH220165   1.248   5.413   0.755
 6734TIP3    H120166   1.247   5.509   0.754
 6734TIP3    H220167   1.156   5.388   0.765
 6735TIP3   OH220168   4.812   3.432   3.353
 6735TIP3    H120169   4.874   3.498   3.322
 6735TIP3    H220170   4.758   3.477   3.417
 6736TIP3   OH220171  -0.003   6.261   4.437
 6736TIP3    H120172  -0.052   6.193   4.484
 6736TIP3    H220173   0.077   6.217   4.408
 6737TIP3   OH220174   0.314   2.968   5.788
 6737TIP3    H120175   0.383   2.905   5.814
 6737TIP3    H220176   0.299   3.020   5.867
 6738TIP3   OH220177   2.362   2.157   4.796
 6738TIP3    H120178   2.353   2.126   4.706
 6738TIP3    H220179   2.426   2.098   4.836
 6739TIP3   OH220180   0.459   1.557   3.896
 6739TIP3    H120181   0.535   1.539   3.840
 6739TIP3    H220182   0.459   1.652   3.906
 6740TIP3   OH220183   3.988   6.132   0.626
 6740TIP3    H120184   4.039   6.082   0.690
 6740TIP3    H220185   3.964   6.068   0.559
 6741TIP3   OH220186   0.521   3.091   1.155
 6741TIP3    H120187   0.470   3.011   1.170
 6741TIP3    H220188   0.606   3.074   1.195
 6742TIP3   OH220189   5.398   1.872   4.012
 6742TIP3    H120190   5.371   1.945   4.067
 6742TIP3    H220191   5.345   1.798   4.043
 6743TIP3   OH220192   6.319   1.986   3.018
 6743TIP3    H120193   6.228   2.006   3.040
 6743TIP3    H220194   6.342   1.914   3.078
 6744TIP3   OH220195   6.931   3.198   2.469
 6744TIP3    H120196   6.982   3.164   2.542
 6744TIP3    H220197   6.843   3.162   2.481
 6745TIP3   OH220198   6.516   3.535   4.759
 6745TIP3    H120199   6.605   3.501   4.770
 6745TIP3    H220200   6.518   3.584   4.677
 6746TIP3   OH220201   5.877   6.155   5.769
 6746TIP3    H120202   5.797   6.144   5.718
 6746TIP3    H220203   5.898   6.067   5.800
 6747TIP3   OH220204   4.822   3.837   1.807
 6747TIP3    H120205   4.831   3.744   1.785
 6747TIP3    H220206   4.910   3.864   1.834
 6748TIP3   OH220207   4.222   4.667   3.344
 6748TIP3    H120208   4.180   4.713   3.271
 6748TIP3    H220209   4.287   4.729   3.376
 6749TIP3   OH220210   3.158   6.223   0.123
 6749TIP3    H120211   3.094   6.280   0.164
 6749TIP3    H220212   3.183   6.161   0.192
 6750TIP3   OH220213   3.499   1.955   0.445
 6750TIP3    H120214   3.453   1.960   0.529
 6750TIP3    H220215   3.500   2.045   0.413
 6751TIP3   OH220216   4.862   4.437   1.856
 6751TIP3    H120217   4.874   4.489   1.935
 6751TIP3    H220218   4.925   4.366   1.863
 6752TIP3   OH220219   0.847   5.082   0.979
 6752TIP3    H120220   0.805   5.108   0.897
 6752TIP3    H220221   0.935   5.054   0.954
 6753TIP3   OH220222   3.436   5.692   2.511
 6753TIP3    H120223   3.508   5.753   2.494
 6753TIP3    H220224   3.477   5.606   2.512
 6754TIP3   OH220225   4.836   3.121   5.228
 6754TIP3    H120226   4.848   3.091   5.318
 6754TIP3    H220227   4.758   3.074   5.198
 6755TIP3   OH220228   6.557   0.626   3.026
 6755TIP3    H120229   6.566   0.531   3.030
 6755TIP3    H220230   6.602   0.658   3.104
 6756TIP3   OH220231   5.599   3.023   3.146
 6756TIP3    H120232   5.540   3.095   3.165
 6756TIP3    H220233   5.548   2.964   3.090
 6757TIP3   OH220234   0.741   4.038   2.173
 6757TIP3    H120235   0.674   4.103   2.196
 6757TIP3    H220236   0.732   3.969   2.239
 6758TIP3   OH220237   4.078   5.178   5.575
 6758TIP3    H120238   4.022   5.255   5.563
 6758TIP3    H220239   4.021   5.104   5.553
 6759TIP3   OH220240   1.184   4.472   2.537
 6759TIP3    H120241   1.254   4.407   2.545
 6759TIP3    H220242   1.219   4.550   2.582
 6760TIP3   OH220243   0.141   3.023   3.458
 6760TIP3    H120244   0.112   2.934   3.436
 6760TIP3    H220245   0.096   3.043   3.540
 6761TIP3   OH220246   3.688   3.418   3.039
 6761TIP3    H120247   3.773   3.407   2.996
 6761TIP3    H220248   3.665   3.331   3.069
 6762TIP3   OH220249   2.628   0.420   2.981
 6762TIP3    H120250   2.639   0.502   2.934
 6762TIP3    H220251   2.689   0.426   3.055
 6763TIP3   OH220252   1.477   3.910   3.675
 6763TIP3    H120253   1.552   3.962   3.702
 6763TIP3    H220254   1.510   3.820   3.670
 6764TIP3   OH220255   3.247   2.278   4.889
 6764TIP3    H120256   3.328   2.227   4.895
 6764TIP3    H220257   3.208   2.270   4.976
 6765TIP3   OH220258   3.819   1.917   2.128
 6765TIP3    H120259   3.853   1.908   2.039
 6765TIP3    H220260   3.775   2.002   2.128
 6766TIP3   OH220261   1.257   2.554   3.447
 6766TIP3    H120262   1.259   2.463   3.416
 6766TIP3    H220263   1.187   2.595   3.397
 6767TIP3   OH220264   2.785   2.720   2.551
 6767TIP3    H120265   2.766   2.765   2.469
 6767TIP3    H220266   2.760   2.629   2.535
 6768TIP3   OH220267   7.083   4.289   0.651
 6768TIP3    H120268   7.117   4.374   0.679
 6768TIP3    H220269   7.096   4.287   0.556
 6769TIP3   OH220270   6.819   0.675   3.568
 6769TIP3    H120271   6.886   0.698   3.504
 6769TIP3    H220272   6.741   0.724   3.541
 6770TIP3   OH220273   3.269   5.709   5.840
 6770TIP3    H120274   3.314   5.629   5.870
 6770TIP3    H220275   3.304   5.725   5.752
 6771TIP3   OH220276   4.210   5.964   2.311
 6771TIP3    H120277   4.248   5.985   2.397
 6771TIP3    H220278   4.277   5.992   2.248
 6772TIP3   OH220279   4.138   2.849   5.475
 6772TIP3    H120280   4.134   2.930   5.526
 6772TIP3    H220281   4.130   2.878   5.384
 6773TIP3   OH220282   4.415   0.179   3.173
 6773TIP3    H120283   4.373   0.095   3.193
 6773TIP3    H220284   4.507   0.157   3.157
 6774TIP3   OH220285   6.444   4.694   4.587
 6774TIP3    H120286   6.463   4.604   4.562
 6774TIP3    H220287   6.359   4.713   4.548
 6775TIP3   OH220288   5.587   2.142   4.375
 6775TIP3    H120289   5.540   2.184   4.304
 6775TIP3    H220290   5.538   2.166   4.454
 6776TIP3   OH220291   1.805   4.396   0.139
 6776TIP3    H120292   1.869   4.411   0.069
 6776TIP3    H220293   1.811   4.474   0.195
 6777TIP3   OH220294   6.774   2.753   5.609
 6777TIP3    H120295   6.799   2.787   5.695
 6777TIP3    H220296   6.823   2.807   5.546
 6778TIP3   OH220297   0.162   1.137   4.068
 6778TIP3    H120298   0.226   1.066   4.063
 6778TIP3    H220299   0.213   1.213   4.094
 6779TIP3   OH220300   6.882   5.666   4.282
 6779TIP3    H120301   6.825   5.652   4.357
 6779TIP3    H220302   6.970   5.644   4.314
 6780TIP3   OH220303   2.278   2.521   1.997
 6780TIP3    H120304   2.291   2.441   2.048
 6780TIP3    H220305   2.259   2.490   1.909
 6781TIP3   OH220306   2.900   4.630   1.366
 6781TIP3    H120307   2.928   4.707   1.415
 6781TIP3    H220308   2.805   4.637   1.361
 6782TIP3   OH220309   4.455   2.600   1.521
 6782TIP3    H120310   4.499   2.679   1.553
 6782TIP3    H220311   4.392   2.578   1.590
 6783TIP3   OH220312   0.409   3.844   0.129
 6783TIP3    H120313   0.450   3.930   0.117
 6783TIP3    H220314   0.379   3.844   0.219
 6784TIP3   OH220315   5.809   0.434   1.282
 6784TIP3    H120316   5.860   0.514   1.292
 6784TIP3    H220317   5.718   0.465   1.274
 6785TIP3   OH220318   5.018   5.787   2.849
 6785TIP3    H120319   4.967   5.823   2.776
 6785TIP3    H220320   4.976   5.822   2.927
 6786TIP3   OH220321   5.584   6.796   3.256
 6786TIP3    H120322   5.661   6.740   3.266
 6786TIP3    H220323   5.511   6.735   3.249
 6787TIP3   OH220324   4.846   5.645   3.440
 6787TIP3    H120325   4.867   5.557   3.470
 6787TIP3    H220326   4.906   5.661   3.367
 6788TIP3   OH220327   0.565   0.823   3.276
 6788TIP3    H120328   0.485   0.874   3.287
 6788TIP3    H220329   0.587   0.832   3.183
 6789TIP3   OH220330   4.297   6.001   2.624
 6789TIP3    H120331   4.297   5.905   2.629
 6789TIP3    H220332   4.307   6.030   2.714
 6790TIP3   OH220333   2.155   0.452   4.918
 6790TIP3    H120334   2.185   0.375   4.869
 6790TIP3    H220335   2.233   0.506   4.927
 6791TIP3   OH220336   2.921   1.799   2.033
 6791TIP3    H120337   2.958   1.840   2.112
 6791TIP3    H220338   2.831   1.831   2.030
 6792TIP3   OH220339   2.233   5.002   3.599
 6792TIP3    H120340   2.322   4.983   3.629
 6792TIP3    H220341   2.197   5.058   3.667
 6793TIP3   OH220342   3.276   4.565   1.572
 6793TIP3    H120343   3.228   4.555   1.490
 6793TIP3    H220344   3.252   4.487   1.624
 6794TIP3   OH220345   3.737   1.271   0.031
 6794TIP3    H120346   3.747   1.337   0.099
 6794TIP3    H220347   3.807   1.208   0.049
 6795TIP3   OH220348   4.213   6.442   3.912
 6795TIP3    H120349   4.118   6.446   3.902
 6795TIP3    H220350   4.239   6.365   3.861
 6796TIP3   OH220351   5.919   0.980   2.607
 6796TIP3    H120352   5.976   0.904   2.616
 6796TIP3    H220353   5.862   0.976   2.684
 6797TIP3   OH220354   5.154   6.572   4.640
 6797TIP3    H120355   5.141   6.477   4.633
 6797TIP3    H220356   5.069   6.606   4.665
 6798TIP3   OH220357   6.597   6.572   3.934
 6798TIP3    H120358   6.588   6.484   3.972
 6798TIP3    H220359   6.542   6.571   3.856
 6799TIP3   OH220360   3.900   6.458   3.557
 6799TIP3    H120361   3.808   6.450   3.532
 6799TIP3    H220362   3.932   6.368   3.554
 6800TIP3   OH220363   5.490   1.360   5.091
 6800TIP3    H120364   5.533   1.300   5.151
 6800TIP3    H220365   5.559   1.388   5.031
 6801TIP3   OH220366   2.798   2.518   1.735
 6801TIP3    H120367   2.757   2.603   1.747
 6801TIP3    H220368   2.857   2.531   1.661
 6802TIP3   OH220369   2.705   4.191   5.685
 6802TIP3    H120370   2.784   4.137   5.686
 6802TIP3    H220371   2.736   4.279   5.662
 6803TIP3   OH220372   0.742   3.878   1.753
 6803TIP3    H120373   0.795   3.926   1.816
 6803TIP3    H220374   0.694   3.814   1.805
 6804TIP3   OH220375   5.707   3.288   4.664
 6804TIP3    H120376   5.746   3.364   4.621
 6804TIP3    H220377   5.708   3.219   4.597
 6805TIP3   OH220378   2.984   5.986   3.831
 6805TIP3    H120379   2.961   6.048   3.900
 6805TIP3    H220380   2.904   5.978   3.779
 6806TIP3   OH220381   0.888   0.749   3.264
 6806TIP3    H120382   0.804   0.770   3.305
 6806TIP3    H220383   0.870   0.750   3.170
 6807TIP3   OH220384   3.076   3.512   4.693
 6807TIP3    H120385   3.062   3.420   4.672
 6807TIP3    H220386   2.988   3.550   4.692
 6808TIP3   OH220387   4.739   1.022   0.624
 6808TIP3    H120388   4.801   0.975   0.568
 6808TIP3    H220389   4.794   1.084   0.673
 6809TIP3   OH220390   5.138   4.171   0.223
 6809TIP3    H120391   5.214   4.183   0.280
 6809TIP3    H220392   5.164   4.103   0.162
 6810TIP3   OH220393   0.713   2.605   0.399
 6810TIP3    H120394   0.787   2.656   0.433
 6810TIP3    H220395   0.754   2.529   0.357
 6811TIP3   OH220396   4.032   2.787   2.251
 6811TIP3    H120397   3.950   2.795   2.299
 6811TIP3    H220398   4.075   2.872   2.260
 6812TIP3   OH220399   1.037   3.987   5.501
 6812TIP3    H120400   1.030   3.939   5.583
 6812TIP3    H220401   1.003   4.075   5.522
 6813TIP3   OH220402   1.931   0.037   1.958
 6813TIP3    H120403   1.875   0.036   1.880
 6813TIP3    H220404   2.020   0.030   1.924
 6814TIP3   OH220405   2.384   1.736   0.994
 6814TIP3    H120406   2.445   1.785   1.049
 6814TIP3    H220407   2.298   1.751   1.033
 6815TIP3   OH220408   3.635   1.220   4.663
 6815TIP3    H120409   3.574   1.149   4.642
 6815TIP3    H220410   3.711   1.203   4.607
 6816TIP3   OH220411   4.627   6.135   2.478
 6816TIP3    H120412   4.634   6.085   2.559
 6816TIP3    H220413   4.540   6.174   2.481
 6817TIP3   OH220414   5.443   1.718   1.664
 6817TIP3    H120415   5.505   1.746   1.596
 6817TIP3    H220416   5.496   1.706   1.742
 6818TIP3   OH220417   2.991   1.482   4.737
 6818TIP3    H120418   3.026   1.504   4.651
 6818TIP3    H220419   3.032   1.398   4.759
 6819TIP3   OH220420   0.276   4.945   4.477
 6819TIP3    H120421   0.300   4.992   4.398
 6819TIP3    H220422   0.227   4.869   4.445
 6820TIP3   OH220423   0.260   2.527   1.161
 6820TIP3    H120424   0.191   2.593   1.152
 6820TIP3    H220425   0.320   2.563   1.227
 6821TIP3   OH220426   1.662   6.125   3.513
 6821TIP3    H120427   1.709   6.044   3.529
 6821TIP3    H220428   1.571   6.104   3.534
 6822TIP3   OH220429   1.468   2.305   3.497
 6822TIP3    H120430   1.536   2.351   3.447
 6822TIP3    H220431   1.405   2.277   3.431
 6823TIP3   OH220432   7.066   2.732   3.139
 6823TIP3    H120433   7.053   2.803   3.202
 6823TIP3    H220434   6.986   2.731   3.087
 6824TIP3   OH220435   4.020   6.386   1.606
 6824TIP3    H120436   4.046   6.324   1.675
 6824TIP3    H220437   3.971   6.454   1.652
 6825TIP3   OH220438   1.641   0.650   0.638
 6825TIP3    H120439   1.697   0.727   0.640
 6825TIP3    H220440   1.557   0.682   0.605
 6826TIP3   OH220441   2.511   0.911   1.828
 6826TIP3    H120442   2.606   0.915   1.841
 6826TIP3    H220443   2.493   0.817   1.815
 6827TIP3   OH220444   5.650   3.206   1.209
 6827TIP3    H120445   5.695   3.147   1.149
 6827TIP3    H220446   5.679   3.294   1.182
 6828TIP3   OH220447   0.632   0.140   0.698
 6828TIP3    H120448   0.633   0.203   0.626
 6828TIP3    H220449   0.722   0.106   0.701
 6829TIP3   OH220450   3.886   5.478   1.983
 6829TIP3    H120451   3.819   5.425   2.027
 6829TIP3    H220452   3.876   5.456   1.890
 6830TIP3   OH220453   1.334   1.862   1.876
 6830TIP3    H120454   1.295   1.947   1.896
 6830TIP3    H220455   1.429   1.877   1.883
 6831TIP3   OH220456   6.033   6.119   4.080
 6831TIP3    H120457   6.112   6.134   4.131
 6831TIP3    H220458   6.059   6.057   4.012
 6832TIP3   OH220459   2.905   5.842   4.062
 6832TIP3    H120460   2.927   5.914   4.003
 6832TIP3    H220461   2.846   5.787   4.011
 6833TIP3   OH220462   3.335   4.016   4.085
 6833TIP3    H120463   3.253   4.041   4.129
 6833TIP3    H220464   3.311   3.940   4.032
 6834TIP3   OH220465   5.605   3.899   3.569
 6834TIP3    H120466   5.639   3.833   3.629
 6834TIP3    H220467   5.558   3.961   3.625
 6835TIP3   OH220468   3.542   4.924   0.763
 6835TIP3    H120469   3.588   4.921   0.846
 6835TIP3    H220470   3.471   4.987   0.777
 6836TIP3   OH220471   4.773   4.375   0.754
 6836TIP3    H120472   4.866   4.357   0.747
 6836TIP3    H220473   4.749   4.347   0.843
 6837TIP3   OH220474   0.193   5.739   0.348
 6837TIP3    H120475   0.100   5.759   0.343
 6837TIP3    H220476   0.203   5.692   0.431
 6838TIP3   OH220477   3.612   5.772   1.018
 6838TIP3    H120478   3.646   5.731   1.097
 6838TIP3    H220479   3.522   5.739   1.011
 6839TIP3   OH220480   1.438   5.774   0.194
 6839TIP3    H120481   1.415   5.685   0.167
 6839TIP3    H220482   1.523   5.790   0.153
 6840TIP3   OH220483   5.364   5.067   5.333
 6840TIP3    H120484   5.315   5.064   5.415
 6840TIP3    H220485   5.301   5.039   5.267
 6841TIP3   OH220486   3.455   3.471   1.426
 6841TIP3    H120487   3.374   3.513   1.395
 6841TIP3    H220488   3.488   3.530   1.494
 6842TIP3   OH220489   5.166  -0.019   1.175
 6842TIP3    H120490   5.238  -0.018   1.112
 6842TIP3    H220491   5.123   0.066   1.162
 6843TIP3   OH220492   3.473   0.571   2.071
 6843TIP3    H120493   3.395   0.518   2.059
 6843TIP3    H220494   3.541   0.528   2.019
 6844TIP3   OH220495   5.798   3.640   2.817
 6844TIP3    H120496   5.893   3.654   2.819
 6844TIP3    H220497   5.764   3.715   2.767
 6845TIP3   OH220498   5.447   4.334   1.183
 6845TIP3    H120499   5.438   4.390   1.260
 6845TIP3    H220500   5.493   4.256   1.214
 6846TIP3   OH220501   2.696   4.930   4.890
 6846TIP3    H120502   2.703   4.837   4.868
 6846TIP3    H220503   2.614   4.938   4.938
 6847TIP3   OH220504   6.759   3.069   1.937
 6847TIP3    H120505   6.701   3.021   1.878
 6847TIP3    H220506   6.800   3.136   1.882
 6848TIP3   OH220507   2.840   5.866   3.215
 6848TIP3    H120508   2.891   5.787   3.201
 6848TIP3    H220509   2.903   5.938   3.205
 6849TIP3   OH220510   4.373   5.300   2.422
 6849TIP3    H120511   4.287   5.292   2.381
 6849TIP3    H220512   4.427   5.235   2.377
 6850TIP3   OH220513   5.774   3.481   3.734
 6850TIP3    H120514   5.807   3.547   3.673
 6850TIP3    H220515   5.696   3.520   3.773
 6851TIP3   OH220516  -0.005   1.612   3.438
 6851TIP3    H120517  -0.054   1.656   3.508
 6851TIP3    H220518   0.085   1.641   3.449
 6852TIP3   OH220519   3.432   1.901   5.744
 6852TIP3    H120520   3.512   1.849   5.738
 6852TIP3    H220521   3.373   1.861   5.680
 6853TIP3   OH220522   1.897   2.578   0.637
 6853TIP3    H120523   1.883   2.563   0.730
 6853TIP3    H220524   1.972   2.523   0.615
 6854TIP3   OH220525   0.677   1.878   4.259
 6854TIP3    H120526   0.683   1.854   4.351
 6854TIP3    H220527   0.768   1.890   4.232
 6855TIP3   OH220528   4.857   6.758   4.019
 6855TIP3    H120529   4.938   6.708   4.015
 6855TIP3    H220530   4.831   6.756   4.111
 6856TIP3   OH220531   0.595   4.582   5.011
 6856TIP3    H120532   0.566   4.660   5.059
 6856TIP3    H220533   0.645   4.532   5.075
 6857TIP3   OH220534   2.635   2.021   0.830
 6857TIP3    H120535   2.674   2.013   0.918
 6857TIP3    H220536   2.708   2.008   0.770
 6858TIP3   OH220537   5.391   2.383   2.368
 6858TIP3    H120538   5.350   2.468   2.384
 6858TIP3    H220539   5.414   2.385   2.275
 6859TIP3   OH220540   6.763   5.466   5.685
 6859TIP3    H120541   6.759   5.419   5.602
 6859TIP3    H220542   6.724   5.406   5.748
 6860TIP3   OH220543   2.069   1.518   5.637
 6860TIP3    H120544   2.124   1.562   5.573
 6860TIP3    H220545   2.060   1.429   5.603
 6861TIP3   OH220546   1.885   4.055   0.426
 6861TIP3    H120547   1.846   4.112   0.360
 6861TIP3    H220548   1.834   3.974   0.420
 6862TIP3   OH220549   3.604   2.336   3.961
 6862TIP3    H120550   3.579   2.402   4.026
 6862TIP3    H220551   3.698   2.347   3.951
 6863TIP3   OH220552   3.902   5.015   4.106
 6863TIP3    H120553   3.974   4.980   4.054
 6863TIP3    H220554   3.830   5.027   4.044
 6864TIP3   OH220555   2.566   6.436   5.352
 6864TIP3    H120556   2.649   6.403   5.389
 6864TIP3    H220557   2.543   6.372   5.284
 6865TIP3   OH220558   6.292   1.216   0.584
 6865TIP3    H120559   6.280   1.305   0.617
 6865TIP3    H220560   6.231   1.163   0.636
 6866TIP3   OH220561   2.869   1.692   5.135
 6866TIP3    H120562   2.930   1.626   5.169
 6866TIP3    H220563   2.906   1.716   5.050
 6867TIP3   OH220564   2.548   4.742   0.135
 6867TIP3    H120565   2.529   4.808   0.202
 6867TIP3    H220566   2.580   4.667   0.185
 6868TIP3   OH220567   0.737   0.522   2.849
 6868TIP3    H120568   0.665   0.489   2.903
 6868TIP3    H220569   0.734   0.469   2.769
 6869TIP3   OH220570   6.618   3.661   0.823
 6869TIP3    H120571   6.707   3.662   0.855
 6869TIP3    H220572   6.566   3.705   0.890
 6870TIP3   OH220573   1.436   6.281   1.081
 6870TIP3    H120574   1.524   6.259   1.051
 6870TIP3    H220575   1.450   6.334   1.159
 6871TIP3   OH220576   6.102   2.994   0.456
 6871TIP3    H120577   6.089   2.963   0.367
 6871TIP3    H220578   6.139   2.920   0.503
 6872TIP3   OH220579   3.141   6.582   0.216
 6872TIP3    H120580   3.126   6.673   0.191
 6872TIP3    H220581   3.182   6.543   0.139
 6873TIP3   OH220582   6.864   5.115   5.453
 6873TIP3    H120583   6.852   5.026   5.485
 6873TIP3    H220584   6.905   5.162   5.526
 6874TIP3   OH220585   5.242   4.726   3.625
 6874TIP3    H120586   5.252   4.635   3.598
 6874TIP3    H220587   5.279   4.777   3.553
 6875TIP3   OH220588   6.348   1.081   3.716
 6875TIP3    H120589   6.275   1.138   3.741
 6875TIP3    H220590   6.333   1.062   3.623
 6876TIP3   OH220591   4.895   3.155   4.538
 6876TIP3    H120592   4.832   3.100   4.584
 6876TIP3    H220593   4.964   3.172   4.602
 6877TIP3   OH220594   2.745   0.690   1.507
 6877TIP3    H120595   2.671   0.748   1.490
 6877TIP3    H220596   2.822   0.748   1.510
 6878TIP3   OH220597   2.113   0.549   1.457
 6878TIP3    H120598   2.107   0.573   1.549
 6878TIP3    H220599   2.039   0.594   1.416
 6879TIP3   OH220600   0.288   3.956   5.012
 6879TIP3    H120601   0.342   4.031   4.986
 6879TIP3    H220602   0.218   3.954   4.947
 6880TIP3   OH220603   1.972   5.950   2.435
 6880TIP3    H120604   1.953   6.023   2.495
 6880TIP3    H220605   1.972   5.873   2.492
 6881TIP3   OH220606   5.056   6.022   4.398
 6881TIP3    H120607   5.074   6.085   4.328
 6881TIP3    H220608   4.981   6.058   4.445
 6882TIP3   OH220609   2.760   3.273   2.681
 6882TIP3    H120610   2.818   3.336   2.639
 6882TIP3    H220611   2.687   3.263   2.619
 6883TIP3   OH220612   2.211   2.155   5.428
 6883TIP3    H120613   2.306   2.163   5.440
 6883TIP3    H220614   2.175   2.180   5.513
 6884TIP3   OH220615   3.267   0.287   0.264
 6884TIP3    H120616   3.281   0.235   0.185
 6884TIP3    H220617   3.214   0.361   0.235
 6885TIP3   OH220618   0.280   3.571   3.568
 6885TIP3    H120619   0.224   3.496   3.550
 6885TIP3    H220620   0.222   3.647   3.559
 6886TIP3   OH220621   4.578   0.555   5.874
 6886TIP3    H120622   4.623   0.631   5.838
 6886TIP3    H220623   4.551   0.584   5.962
 6887TIP3   OH220624   2.383   4.048   4.293
 6887TIP3    H120625   2.325   4.124   4.300
 6887TIP3    H220626   2.346   3.995   4.223
 6888TIP3   OH220627   1.894   0.316   3.180
 6888TIP3    H120628   1.927   0.301   3.091
 6888TIP3    H220629   1.954   0.381   3.217
 6889TIP3   OH220630   1.789   5.652   2.777
 6889TIP3    H120631   1.795   5.562   2.810
 6889TIP3    H220632   1.738   5.698   2.843
 6890TIP3   OH220633   4.268   1.122   1.925
 6890TIP3    H120634   4.173   1.128   1.918
 6890TIP3    H220635   4.301   1.200   1.879
 6891TIP3   OH220636   1.375   3.599   0.084
 6891TIP3    H120637   1.365   3.531   0.150
 6891TIP3    H220638   1.460   3.583   0.044
 6892TIP3   OH220639   3.797   2.378   4.245
 6892TIP3    H120640   3.786   2.397   4.151
 6892TIP3    H220641   3.770   2.459   4.288
 6893TIP3   OH220642   7.106   5.446   1.248
 6893TIP3    H120643   7.160   5.523   1.229
 6893TIP3    H220644   7.025   5.482   1.284
 6894TIP3   OH220645   0.435   1.569   1.707
 6894TIP3    H120646   0.396   1.563   1.794
 6894TIP3    H220647   0.362   1.594   1.650
 6895TIP3   OH220648   3.933   1.034   5.104
 6895TIP3    H120649   3.874   0.964   5.132
 6895TIP3    H220650   3.882   1.085   5.041
 6896TIP3   OH220651   4.848   1.140   5.047
 6896TIP3    H120652   4.762   1.131   5.005
 6896TIP3    H220653   4.910   1.131   4.975
 6897TIP3   OH220654   0.746   2.770   2.741
 6897TIP3    H120655   0.768   2.717   2.664
 6897TIP3    H220656   0.654   2.751   2.757
 6898TIP3   OH220657   2.491   0.058   2.916
 6898TIP3    H120658   2.428   0.018   2.976
 6898TIP3    H220659   2.473   0.152   2.921
 6899TIP3   OH220660   6.594   6.657   4.304
 6899TIP3    H120661   6.547   6.579   4.274
 6899TIP3    H220662   6.577   6.723   4.237
 6900TIP3   OH220663   6.523   0.051   1.238
 6900TIP3    H120664   6.535  -0.027   1.293
 6900TIP3    H220665   6.612   0.076   1.212
 6901TIP3   OH220666   6.081   0.398   2.023
 6901TIP3    H120667   6.118   0.430   2.106
 6901TIP3    H220668   5.994   0.365   2.047
 6902TIP3   OH220669   1.982   5.053   3.967
 6902TIP3    H120670   1.930   5.078   4.044
 6902TIP3    H220671   2.022   4.969   3.992
 6903TIP3   OH220672   3.571   3.530   4.255
 6903TIP3    H120673   3.583   3.514   4.161
 6903TIP3    H220674   3.488   3.578   4.260
 6904TIP3   OH220675   4.318   2.459   4.946
 6904TIP3    H120676   4.238   2.500   4.980
 6904TIP3    H220677   4.320   2.373   4.987
 6905TIP3   OH220678   6.947   0.752   0.455
 6905TIP3    H120679   6.896   0.796   0.386
 6905TIP3    H220680   6.924   0.800   0.535
 6906TIP3   OH220681   1.364   1.232   2.163
 6906TIP3    H120682   1.325   1.159   2.211
 6906TIP3    H220683   1.458   1.218   2.169
 6907TIP3   OH220684   4.188   0.375   0.807
 6907TIP3    H120685   4.182   0.470   0.799
 6907TIP3    H220686   4.141   0.355   0.888
 6908TIP3   OH220687   1.800   0.233   3.463
 6908TIP3    H120688   1.837   0.261   3.379
 6908TIP3    H220689   1.708   0.258   3.458
 6909TIP3   OH220690   0.011   4.332   3.510
 6909TIP3    H120691  -0.044   4.284   3.449
 6909TIP3    H220692   0.078   4.373   3.456
 6910TIP3   OH220693   6.066   5.355   2.718
 6910TIP3    H120694   6.013   5.426   2.681
 6910TIP3    H220695   6.145   5.354   2.665
 6911TIP3   OH220696   4.109   6.354   4.711
 6911TIP3    H120697   4.176   6.398   4.657
 6911TIP3    H220698   4.111   6.400   4.794
 6912TIP3   OH220699   1.503   5.783   4.154
 6912TIP3    H120700   1.488   5.819   4.067
 6912TIP3    H220701   1.434   5.718   4.166
 6913TIP3   OH220702   6.735   4.863   3.470
 6913TIP3    H120703   6.640   4.878   3.475
 6913TIP3    H220704   6.745   4.793   3.406
 6914TIP3   OH220705   6.433   2.949   2.872
 6914TIP3    H120706   6.461   2.867   2.913
 6914TIP3    H220707   6.397   3.001   2.945
 6915TIP3   OH220708   0.285   0.772   1.320
 6915TIP3    H120709   0.242   0.693   1.288
 6915TIP3    H220710   0.311   0.819   1.240
 6916TIP3   OH220711   1.050   2.290   5.526
 6916TIP3    H120712   0.957   2.274   5.511
 6916TIP3    H220713   1.071   2.240   5.605
 6917TIP3   OH220714   6.925   4.663   0.959
 6917TIP3    H120715   6.994   4.599   0.977
 6917TIP3    H220716   6.936   4.729   1.028
 6918TIP3   OH220717   1.891   0.367   2.145
 6918TIP3    H120718   1.971   0.323   2.117
 6918TIP3    H220719   1.827   0.347   2.076
 6919TIP3   OH220720   6.891   2.411   4.887
 6919TIP3    H120721   6.926   2.325   4.909
 6919TIP3    H220722   6.809   2.417   4.936
 6920TIP3   OH220723   4.211   1.429   2.099
 6920TIP3    H120724   4.164   1.384   2.170
 6920TIP3    H220725   4.270   1.488   2.144
 6921TIP3   OH220726   5.636   4.784   0.499
 6921TIP3    H120727   5.646   4.855   0.562
 6921TIP3    H220728   5.593   4.714   0.547
 6922TIP3   OH220729   6.018   4.241   1.687
 6922TIP3    H120730   6.072   4.192   1.625
 6922TIP3    H220731   6.079   4.302   1.729
 6923TIP3   OH220732   1.406   2.657   4.310
 6923TIP3    H120733   1.318   2.622   4.326
 6923TIP3    H220734   1.391   2.734   4.255
 6924TIP3   OH220735   6.884   2.791   3.356
 6924TIP3    H120736   6.898   2.697   3.364
 6924TIP3    H220737   6.885   2.823   3.447
 6925TIP3   OH220738   4.087   1.971   5.048
 6925TIP3    H120739   4.053   1.901   4.991
 6925TIP3    H220740   4.014   1.991   5.107
 6926TIP3   OH220741   6.444   3.003   0.455
 6926TIP3    H120742   6.364   2.970   0.414
 6926TIP3    H220743   6.494   2.924   0.477
 6927TIP3   OH220744   0.772   5.877   2.797
 6927TIP3    H120745   0.717   5.952   2.819
 6927TIP3    H220746   0.790   5.835   2.881
 6928TIP3   OH220747   1.688   2.208   3.880
 6928TIP3    H120748   1.740   2.170   3.809
 6928TIP3    H220749   1.661   2.133   3.933
 6929TIP3   OH220750   4.944   0.096   0.888
 6929TIP3    H120751   5.010   0.029   0.904
 6929TIP3    H220752   4.975   0.143   0.811
 6930TIP3   OH220753   4.089   0.039   4.597
 6930TIP3    H120754   4.046  -0.047   4.593
 6930TIP3    H220755   4.161   0.032   4.535
 6931TIP3   OH220756   2.232   5.470   1.612
 6931TIP3    H120757   2.200   5.457   1.523
 6931TIP3    H220758   2.168   5.425   1.667
 6932TIP3   OH220759   3.376   3.537   0.044
 6932TIP3    H120760   3.428   3.563  -0.032
 6932TIP3    H220761   3.370   3.617   0.097
 6933TIP3   OH220762   6.901   3.409   0.933
 6933TIP3    H120763   6.956   3.385   1.008
 6933TIP3    H220764   6.890   3.327   0.885
 6934TIP3   OH220765   1.614   1.729   0.401
 6934TIP3    H120766   1.579   1.714   0.489
 6934TIP3    H220767   1.538   1.721   0.343
 6935TIP3   OH220768   4.489   2.333   3.555
 6935TIP3    H120769   4.541   2.403   3.516
 6935TIP3    H220770   4.531   2.252   3.526
 6936TIP3   OH220771   3.202   4.064   0.640
 6936TIP3    H120772   3.238   3.984   0.679
 6936TIP3    H220773   3.260   4.133   0.670
 6937TIP3   OH220774   6.904   1.907   3.009
 6937TIP3    H120775   6.894   1.833   2.950
 6937TIP3    H220776   6.994   1.901   3.041
 6938TIP3   OH220777   6.278   4.072   4.536
 6938TIP3    H120778   6.342   4.044   4.470
 6938TIP3    H220779   6.255   3.991   4.582
 6939TIP3   OH220780   1.359   4.191   0.140
 6939TIP3    H120781   1.324   4.237   0.216
 6939TIP3    H220782   1.369   4.101   0.168
 6940TIP3   OH220783   2.622   2.951   4.872
 6940TIP3    H120784   2.680   3.025   4.855
 6940TIP3    H220785   2.674   2.874   4.847
 6941TIP3   OH220786   2.331   6.152   3.547
 6941TIP3    H120787   2.394   6.184   3.483
 6941TIP3    H220788   2.383   6.100   3.608
 6942TIP3   OH220789   4.472   6.501   0.822
 6942TIP3    H120790   4.439   6.439   0.758
 6942TIP3    H220791   4.425   6.479   0.903
 6943TIP3   OH220792   3.195   2.588   0.170
 6943TIP3    H120793   3.229   2.664   0.218
 6943TIP3    H220794   3.104   2.611   0.152
 6944TIP3   OH220795   6.093   3.961   3.157
 6944TIP3    H120796   6.140   3.976   3.075
 6944TIP3    H220797   6.033   4.036   3.164
 6945TIP3   OH220798   3.712   1.466   1.212
 6945TIP3    H120799   3.719   1.373   1.233
 6945TIP3    H220800   3.617   1.481   1.207
 6946TIP3   OH220801   2.853   2.283   1.461
 6946TIP3    H120802   2.905   2.265   1.539
 6946TIP3    H220803   2.896   2.234   1.391
 6947TIP3   OH220804   1.666   2.588   3.647
 6947TIP3    H120805   1.729   2.629   3.707
 6947TIP3    H220806   1.708   2.594   3.561
 6948TIP3   OH220807   2.152   4.214   4.303
 6948TIP3    H120808   2.059   4.221   4.284
 6948TIP3    H220809   2.195   4.232   4.219
 6949TIP3   OH220810   5.102   0.402   4.611
 6949TIP3    H120811   5.184   0.406   4.660
 6949TIP3    H220812   5.044   0.462   4.658
 6950TIP3   OH220813   5.430   1.276   1.563
 6950TIP3    H120814   5.345   1.232   1.560
 6950TIP3    H220815   5.455   1.273   1.655
 6951TIP3   OH220816   5.198   1.947   4.471
 6951TIP3    H120817   5.267   1.944   4.537
 6951TIP3    H220818   5.128   1.998   4.512
 6952TIP3   OH220819   2.225   3.599   0.737
 6952TIP3    H120820   2.202   3.672   0.679
 6952TIP3    H220821   2.141   3.566   0.769
 6953TIP3   OH220822   2.710   6.348   1.292
 6953TIP3    H120823   2.676   6.397   1.217
 6953TIP3    H220824   2.773   6.407   1.332
 6954TIP3   OH220825   2.386   0.638   4.595
 6954TIP3    H120826   2.293   0.658   4.610
 6954TIP3    H220827   2.418   0.712   4.544
 6955TIP3   OH220828   2.321   0.711   4.863
 6955TIP3    H120829   2.376   0.782   4.896
 6955TIP3    H220830   2.368   0.677   4.787
 6956TIP3   OH220831   1.820   1.670   3.477
 6956TIP3    H120832   1.798   1.752   3.432
 6956TIP3    H220833   1.777   1.602   3.424
 6957TIP3   OH220834   6.096   4.109   5.254
 6957TIP3    H120835   6.096   4.150   5.340
 6957TIP3    H220836   6.185   4.120   5.222
 6958TIP3   OH220837   6.988   1.296   3.313
 6958TIP3    H120838   6.937   1.223   3.348
 6958TIP3    H220839   7.070   1.294   3.363
 6959TIP3   OH220840   5.083   5.912   2.001
 6959TIP3    H120841   5.055   6.004   2.001
 6959TIP3    H220842   5.151   5.908   1.934
 6960TIP3   OH220843   1.644   3.032   5.405
 6960TIP3    H120844   1.605   2.988   5.330
 6960TIP3    H220845   1.738   3.036   5.385
 6961TIP3   OH220846   6.025   5.025   5.806
 6961TIP3    H120847   6.086   5.086   5.848
 6961TIP3    H220848   6.053   5.022   5.714
 6962TIP3   OH220849   3.880   0.396   2.962
 6962TIP3    H120850   3.954   0.421   2.906
 6962TIP3    H220851   3.823   0.344   2.905
 6963TIP3   OH220852   5.983   1.156   1.452
 6963TIP3    H120853   5.983   1.169   1.357
 6963TIP3    H220854   5.894   1.182   1.479
 6964TIP3   OH220855   6.462   4.143   3.009
 6964TIP3    H120856   6.534   4.206   3.007
 6964TIP3    H220857   6.386   4.193   3.040
 6965TIP3   OH220858   0.056   5.495   4.875
 6965TIP3    H120859   0.116   5.547   4.928
 6965TIP3    H220860   0.099   5.410   4.866
 6966TIP3   OH220861   0.397   3.532   4.515
 6966TIP3    H120862   0.405   3.621   4.551
 6966TIP3    H220863   0.304   3.513   4.519
 6967TIP3   OH220864   2.462   4.676   2.924
 6967TIP3    H120865   2.370   4.657   2.904
 6967TIP3    H220866   2.490   4.735   2.854
 6968TIP3   OH220867   4.797   1.322   0.664
 6968TIP3    H120868   4.758   1.303   0.579
 6968TIP3    H220869   4.851   1.399   0.649
 6969TIP3   OH220870   3.803   2.625   3.603
 6969TIP3    H120871   3.745   2.660   3.671
 6969TIP3    H220872   3.744   2.580   3.543
 6970TIP3   OH220873   2.755   0.318   1.692
 6970TIP3    H120874   2.796   0.294   1.609
 6970TIP3    H220875   2.661   0.313   1.675
 6971TIP3   OH220876   2.921   2.115   4.732
 6971TIP3    H120877   2.948   2.142   4.644
 6971TIP3    H220878   2.989   2.053   4.760
 6972TIP3   OH220879   4.868   1.602   3.699
 6972TIP3    H120880   4.879   1.679   3.755
 6972TIP3    H220881   4.810   1.632   3.628
 6973TIP3   OH220882   0.248   3.531   1.296
 6973TIP3    H120883   0.317   3.504   1.356
 6973TIP3    H220884   0.206   3.450   1.269
 6974TIP3   OH220885   2.499   4.924   5.130
 6974TIP3    H120886   2.448   4.852   5.168
 6974TIP3    H220887   2.508   4.987   5.201
 6975TIP3   OH220888   0.732   6.828   4.002
 6975TIP3    H120889   0.804   6.780   3.960
 6975TIP3    H220890   0.710   6.776   4.079
 6976TIP3   OH220891   1.941   4.138   2.239
 6976TIP3    H120892   1.890   4.083   2.179
 6976TIP3    H220893   1.881   4.208   2.263
 6977TIP3   OH220894   4.304   3.609   4.640
 6977TIP3    H120895   4.372   3.549   4.609
 6977TIP3    H220896   4.350   3.666   4.702
 6978TIP3   OH220897   7.037   1.666   0.656
 6978TIP3    H120898   7.033   1.594   0.719
 6978TIP3    H220899   6.946   1.683   0.633
 6979TIP3   OH220900   1.965   2.599   0.043
 6979TIP3    H120901   1.982   2.578  -0.049
 6979TIP3    H220902   2.044   2.646   0.071
 6980TIP3   OH220903   3.008   2.287   1.038
 6980TIP3    H120904   2.989   2.253   1.125
 6980TIP3    H220905   3.025   2.380   1.052
 6981TIP3   OH220906   2.435   3.026   2.742
 6981TIP3    H120907   2.384   3.025   2.661
 6981TIP3    H220908   2.526   3.027   2.714
 6982TIP3   OH220909   0.346   3.415   2.037
 6982TIP3    H120910   0.367   3.354   1.967
 6982TIP3    H220911   0.426   3.419   2.090
 6983TIP3   OH220912   6.919   1.580   5.038
 6983TIP3    H120913   6.880   1.513   5.094
 6983TIP3    H220914   6.904   1.549   4.949
 6984TIP3   OH220915   5.657   1.066   1.767
 6984TIP3    H120916   5.625   0.975   1.761
 6984TIP3    H220917   5.701   1.070   1.851
 6985TIP3   OH220918   3.230   4.319   3.189
 6985TIP3    H120919   3.186   4.332   3.105
 6985TIP3    H220920   3.219   4.403   3.235
 6986TIP3   OH220921   0.756   5.248   3.998
 6986TIP3    H120922   0.726   5.204   4.078
 6986TIP3    H220923   0.709   5.204   3.928
 6987TIP3   OH220924   2.784   0.356   4.145
 6987TIP3    H120925   2.713   0.384   4.087
 6987TIP3    H220926   2.821   0.279   4.101
 6988TIP3   OH220927   7.100   6.179   1.187
 6988TIP3    H120928   7.103   6.254   1.247
 6988TIP3    H220929   7.161   6.116   1.225
 6989TIP3   OH220930   4.790   1.139   4.412
 6989TIP3    H120931   4.736   1.169   4.340
 6989TIP3    H220932   4.834   1.061   4.378
 6990TIP3   OH220933   2.102   3.523   1.957
 6990TIP3    H120934   2.017   3.539   1.917
 6990TIP3    H220935   2.146   3.608   1.957
 6991TIP3   OH220936   3.998   0.660   3.905
 6991TIP3    H120937   4.033   0.730   3.960
 6991TIP3    H220938   3.970   0.703   3.824
 6992TIP3   OH220939   6.473   2.594   2.382
 6992TIP3    H120940   6.548   2.618   2.436
 6992TIP3    H220941   6.430   2.524   2.431
 6993TIP3   OH220942   3.298   4.863   4.156
 6993TIP3    H120943   3.251   4.918   4.092
 6993TIP3    H220944   3.242   4.786   4.167
 6994TIP3   OH220945   6.142   5.773   0.159
 6994TIP3    H120946   6.186   5.706   0.211
 6994TIP3    H220947   6.145   5.739   0.070
 6995TIP3   OH220948   6.127   6.322   5.423
 6995TIP3    H120949   6.066   6.322   5.350
 6995TIP3    H220950   6.184   6.398   5.408
 6996TIP3   OH220951   5.063   6.569   0.786
 6996TIP3    H120952   5.062   6.662   0.807
 6996TIP3    H220953   5.064   6.566   0.691
 6997TIP3   OH220954   0.397   0.575   4.959
 6997TIP3    H120955   0.345   0.652   4.934
 6997TIP3    H220956   0.433   0.597   5.045
 6998TIP3   OH220957   1.301   2.840   0.147
 6998TIP3    H120958   1.300   2.936   0.142
 6998TIP3    H220959   1.316   2.811   0.057
 6999TIP3   OH220960   2.829   6.237   4.959
 6999TIP3    H120961   2.811   6.161   5.014
 6999TIP3    H220962   2.756   6.239   4.897
 7000TIP3   OH220963   5.865   0.218   3.073
 7000TIP3    H120964   5.846   0.195   3.164
 7000TIP3    H220965   5.782   0.250   3.037
 7001TIP3   OH220966   0.276   0.319   1.542
 7001TIP3    H120967   0.337   0.308   1.469
 7001TIP3    H220968   0.315   0.269   1.614
 7002TIP3   OH220969   0.437   5.162   0.868
 7002TIP3    H120970   0.367   5.198   0.814
 7002TIP3    H220971   0.511   5.152   0.809
 7003TIP3   OH220972   3.263   1.252   3.872
 7003TIP3    H120973   3.286   1.277   3.961
 7003TIP3    H220974   3.314   1.173   3.855
 7004TIP3   OH220975   0.603   5.299   1.585
 7004TIP3    H120976   0.543   5.362   1.546
 7004TIP3    H220977   0.552   5.218   1.591
 7005TIP3   OH220978   4.415   0.051   2.536
 7005TIP3    H120979   4.408  -0.026   2.478
 7005TIP3    H220980   4.499   0.090   2.514
 7006TIP3   OH220981   5.078   0.553   4.375
 7006TIP3    H120982   5.086   0.475   4.430
 7006TIP3    H220983   4.985   0.555   4.351
 7007TIP3   OH220984   4.266   6.282   3.300
 7007TIP3    H120985   4.252   6.372   3.271
 7007TIP3    H220986   4.336   6.249   3.244
 7008TIP3   OH220987   4.388   1.516   4.196
 7008TIP3    H120988   4.425   1.512   4.108
 7008TIP3    H220989   4.349   1.430   4.210
 7009TIP3   OH220990   0.247   0.469   2.422
 7009TIP3    H120991   0.280   0.525   2.493
 7009TIP3    H220992   0.238   0.383   2.461
 7010TIP3   OH220993   6.716   0.881   1.139
 7010TIP3    H120994   6.705   0.965   1.181
 7010TIP3    H220995   6.770   0.830   1.199
 7011TIP3   OH220996   4.627   4.077   5.742
 7011TIP3    H120997   4.643   4.152   5.685
 7011TIP3    H220998   4.661   4.103   5.827
 7012TIP3   OH220999   4.076   0.416   4.113
 7012TIP3    H121000   4.028   0.393   4.034
 7012TIP3    H221001   4.053   0.507   4.130
 7013TIP3   OH221002  -0.009   2.600   5.839
 7013TIP3    H121003   0.044   2.656   5.782
 7013TIP3    H221004  -0.008   2.645   5.924
 7014TIP3   OH221005   4.610   2.759   4.226
 7014TIP3    H121006   4.588   2.693   4.161
 7014TIP3    H221007   4.555   2.834   4.203
 7015TIP3   OH221008   6.314   2.764   5.326
 7015TIP3    H121009   6.396   2.812   5.341
 7015TIP3    H221010   6.252   2.803   5.387
 7016TIP3   OH221011   0.124   0.070   1.234
 7016TIP3    H121012   0.078   0.015   1.170
 7016TIP3    H221013   0.072   0.063   1.314
 7017TIP3   OH221014   5.408   0.152   0.390
 7017TIP3    H121015   5.468   0.098   0.441
 7017TIP3    H221016   5.323   0.108   0.398
 7018TIP3   OH221017   6.286   1.682   4.004
 7018TIP3    H121018   6.337   1.671   3.924
 7018TIP3    H221019   6.309   1.770   4.035
 7019TIP3   OH221020   5.592   1.168   1.238
 7019TIP3    H121021   5.623   1.187   1.326
 7019TIP3    H221022   5.659   1.205   1.180
 7020TIP3   OH221023   0.248   6.128   4.976
 7020TIP3    H121024   0.300   6.110   4.898
 7020TIP3    H221025   0.192   6.202   4.951
 7021TIP3   OH221026   4.446   3.132   1.964
 7021TIP3    H121027   4.432   3.165   1.875
 7021TIP3    H221028   4.541   3.130   1.974
 7022TIP3   OH221029   2.996   6.737   2.474
 7022TIP3    H121030   2.943   6.715   2.397
 7022TIP3    H221031   3.083   6.754   2.439
 7023TIP3   OH221032   5.884   3.050   4.765
 7023TIP3    H121033   5.979   3.053   4.761
 7023TIP3    H221034   5.856   3.136   4.732
 7024TIP3   OH221035   5.275   1.544   1.523
 7024TIP3    H121036   5.326   1.464   1.531
 7024TIP3    H221037   5.328   1.611   1.565
 7025TIP3   OH221038   3.572   0.611   3.027
 7025TIP3    H121039   3.566   0.521   2.994
 7025TIP3    H221040   3.640   0.652   2.974
 7026TIP3   OH221041   3.387   4.255   0.026
 7026TIP3    H121042   3.456   4.194   0.004
 7026TIP3    H221043   3.321   4.202   0.071
 7027TIP3   OH221044   5.158   1.189   3.620
 7027TIP3    H121045   5.068   1.189   3.588
 7027TIP3    H221046   5.208   1.149   3.548
 7028TIP3   OH221047   1.994   1.865   3.858
 7028TIP3    H121048   2.085   1.890   3.873
 7028TIP3    H221049   2.000   1.784   3.806
 7029TIP3   OH221050   2.213   3.235   0.821
 7029TIP3    H121051   2.276   3.281   0.876
 7029TIP3    H221052   2.144   3.300   0.804
 7030TIP3   OH221053   0.007   3.451   0.871
 7030TIP3    H121054   0.094   3.463   0.909
 7030TIP3    H221055  -0.052   3.449   0.946
 7031TIP3   OH221056   3.945   0.201   0.952
 7031TIP3    H121057   3.990   0.267   1.005
 7031TIP3    H221058   3.920   0.133   1.015
 7032TIP3   OH221059   6.039   2.435   2.214
 7032TIP3    H121060   5.992   2.354   2.234
 7032TIP3    H221061   6.131   2.413   2.229
 7033TIP3   OH221062   2.125   2.699   1.274
 7033TIP3    H121063   2.131   2.631   1.206
 7033TIP3    H221064   2.068   2.766   1.235
 7034TIP3   OH221065   5.812   1.297   2.182
 7034TIP3    H121066   5.905   1.318   2.194
 7034TIP3    H221067   5.779   1.283   2.271
 7035TIP3   OH221068   5.665   6.048   5.616
 7035TIP3    H121069   5.583   6.090   5.592
 7035TIP3    H221070   5.721   6.056   5.539
 7036TIP3   OH221071   4.355   1.042   3.474
 7036TIP3    H121072   4.428   1.103   3.461
 7036TIP3    H221073   4.370   0.973   3.409
 7037TIP3   OH221074   6.631   1.563   4.925
 7037TIP3    H121075   6.679   1.528   4.850
 7037TIP3    H221076   6.551   1.511   4.929
 7038TIP3   OH221077   2.047   6.141   5.680
 7038TIP3    H121078   2.060   6.047   5.670
 7038TIP3    H221079   2.130   6.174   5.714
 7039TIP3   OH221080   4.819   0.776   1.219
 7039TIP3    H121081   4.841   0.856   1.171
 7039TIP3    H221082   4.728   0.758   1.197
 7040TIP3   OH221083   5.179   5.541   2.842
 7040TIP3    H121084   5.086   5.547   2.862
 7040TIP3    H221085   5.190   5.592   2.762
 7041TIP3   OH221086   6.953   0.060   4.164
 7041TIP3    H121087   6.934  -0.026   4.126
 7041TIP3    H221088   6.931   0.122   4.094
 7042TIP3   OH221089   1.058   0.423   2.757
 7042TIP3    H121090   0.991   0.373   2.804
 7042TIP3    H221091   1.084   0.492   2.817
 7043TIP3   OH221092   6.814   0.660   4.912
 7043TIP3    H121093   6.792   0.645   4.820
 7043TIP3    H221094   6.907   0.641   4.917
 7044TIP3   OH221095   6.246   4.766   4.144
 7044TIP3    H121096   6.188   4.690   4.138
 7044TIP3    H221097   6.329   4.736   4.106
 7045TIP3   OH221098   4.297   2.107   2.505
 7045TIP3    H121099   4.256   2.033   2.549
 7045TIP3    H221100   4.389   2.101   2.528
 7046TIP3   OH221101   4.693   1.732   3.557
 7046TIP3    H121102   4.684   1.796   3.486
 7046TIP3    H221103   4.603   1.701   3.572
 7047TIP3   OH221104   5.619   3.752   4.685
 7047TIP3    H121105   5.710   3.782   4.692
 7047TIP3    H221106   5.609   3.724   4.594
 7048TIP3   OH221107   0.296   2.219   1.678
 7048TIP3    H121108   0.257   2.273   1.746
 7048TIP3    H221109   0.390   2.234   1.687
 7049TIP3   OH221110   0.556   4.828   3.864
 7049TIP3    H121111   0.614   4.770   3.815
 7049TIP3    H221112   0.494   4.862   3.799
 7050TIP3   OH221113   2.540   6.363   0.465
 7050TIP3    H121114   2.474   6.351   0.397
 7050TIP3    H221115   2.583   6.446   0.442
 7051TIP3   OH221116   2.557   5.692   3.615
 7051TIP3    H121117   2.556   5.627   3.685
 7051TIP3    H221118   2.618   5.658   3.550
 7052TIP3   OH221119   2.513   1.653   3.363
 7052TIP3    H121120   2.569   1.727   3.340
 7052TIP3    H221121   2.435   1.694   3.401
 7053TIP3   OH221122   0.309   1.062   2.785
 7053TIP3    H121123   0.310   1.126   2.855
 7053TIP3    H221124   0.342   0.981   2.826
 7054TIP3   OH221125   6.298   3.651   1.517
 7054TIP3    H121126   6.258   3.596   1.450
 7054TIP3    H221127   6.227   3.709   1.545
 7055TIP3   OH221128   2.963   0.086   0.915
 7055TIP3    H121129   2.913   0.020   0.867
 7055TIP3    H221130   2.920   0.169   0.893
 7056TIP3   OH221131   4.067   6.031   3.438
 7056TIP3    H121132   3.978   6.066   3.450
 7056TIP3    H221133   4.053   5.944   3.401
 7057TIP3   OH221134   5.917   2.919   1.696
 7057TIP3    H121135   6.002   2.926   1.741
 7057TIP3    H221136   5.854   2.953   1.760
 7058TIP3   OH221137   5.883   0.253   0.407
 7058TIP3    H121138   5.820   0.203   0.459
 7058TIP3    H221139   5.846   0.252   0.318
 7059TIP3   OH221140   6.773   0.633   4.637
 7059TIP3    H121141   6.851   0.670   4.594
 7059TIP3    H221142   6.734   0.576   4.571
 7060TIP3   OH221143   1.858   2.153   5.754
 7060TIP3    H121144   1.788   2.204   5.713
 7060TIP3    H221145   1.819   2.067   5.767
 7061TIP3   OH221146   2.138   3.749   0.504
 7061TIP3    H121147   2.174   3.678   0.451
 7061TIP3    H221148   2.049   3.721   0.524
 7062TIP3   OH221149   5.959   0.269   2.410
 7062TIP3    H121150   5.975   0.244   2.319
 7062TIP3    H221151   5.865   0.259   2.421
 7063TIP3   OH221152   7.129   2.182   1.929
 7063TIP3    H121153   7.209   2.139   1.900
 7063TIP3    H221154   7.159   2.251   1.988
 7064TIP3   OH221155   4.445   6.271   0.099
 7064TIP3    H121156   4.371   6.303   0.046
 7064TIP3    H221157   4.421   6.181   0.122
 7065TIP3   OH221158   2.253   1.641   5.103
 7065TIP3    H121159   2.325   1.579   5.091
 7065TIP3    H221160   2.258   1.699   5.027
 7066TIP3   OH221161   3.873   2.420   0.625
 7066TIP3    H121162   3.918   2.352   0.674
 7066TIP3    H221163   3.915   2.502   0.652
 7067TIP3   OH221164   4.216   4.107   4.239
 7067TIP3    H121165   4.126   4.138   4.249
 7067TIP3    H221166   4.210   4.012   4.250
 7068TIP3   OH221167   5.307   3.267   3.698
 7068TIP3    H121168   5.261   3.278   3.781
 7068TIP3    H221169   5.303   3.354   3.657
 7069TIP3   OH221170   3.395   5.608   4.184
 7069TIP3    H121171   3.310   5.650   4.192
 7069TIP3    H221172   3.386   5.525   4.231
 7070TIP3   OH221173   3.994   2.824   2.546
 7070TIP3    H121174   3.939   2.898   2.522
 7070TIP3    H221175   4.079   2.863   2.567
 7071TIP3   OH221176   5.824   1.187   3.413
 7071TIP3    H121177   5.782   1.143   3.487
 7071TIP3    H221178   5.796   1.278   3.420
 7072TIP3   OH221179   4.218   6.345   5.511
 7072TIP3    H121180   4.164   6.423   5.502
 7072TIP3    H221181   4.198   6.312   5.599
 7073TIP3   OH221182   2.693   5.107   1.346
 7073TIP3    H121183   2.752   5.175   1.378
 7073TIP3    H221184   2.719   5.093   1.256
 7074TIP3   OH221185   3.391   3.663   0.508
 7074TIP3    H121186   3.402   3.698   0.419
 7074TIP3    H221187   3.439   3.723   0.564
 7075TIP3   OH221188   0.043   2.679   2.481
 7075TIP3    H121189  -0.032   2.734   2.462
 7075TIP3    H221190   0.113   2.712   2.424
 7076TIP3   OH221191   4.343   2.008   4.385
 7076TIP3    H121192   4.266   2.001   4.328
 7076TIP3    H221193   4.333   1.937   4.448
 7077TIP3   OH221194   2.829   5.057   4.709
 7077TIP3    H121195   2.767   5.051   4.782
 7077TIP3    H221196   2.787   5.115   4.646
 7078TIP3   OH221197   7.063   5.344   0.961
 7078TIP3    H121198   7.066   5.440   0.968
 7078TIP3    H221199   7.069   5.314   1.051
 7079TIP3   OH221200   6.629   4.816   3.901
 7079TIP3    H121201   6.586   4.736   3.931
 7079TIP3    H221202   6.715   4.815   3.943
 7080TIP3   OH221203   2.809   2.063   4.049
 7080TIP3    H121204   2.802   2.138   3.989
 7080TIP3    H221205   2.832   2.102   4.133
 7081TIP3   OH221206   1.261   5.498   5.857
 7081TIP3    H121207   1.227   5.515   5.945
 7081TIP3    H221208   1.189   5.453   5.812
 7082TIP3   OH221209   5.047   0.649   1.136
 7082TIP3    H121210   4.967   0.700   1.127
 7082TIP3    H221211   5.051   0.625   1.228
 7083TIP3   OH221212   5.860   3.036   5.034
 7083TIP3    H121213   5.783   3.086   5.062
 7083TIP3    H221214   5.863   3.046   4.939
 7084TIP3   OH221215   3.091   0.408   4.715
 7084TIP3    H121216   3.113   0.324   4.676
 7084TIP3    H221217   3.175   0.441   4.748
 7085TIP3   OH221218   5.390   3.468   3.044
 7085TIP3    H121219   5.361   3.559   3.052
 7085TIP3    H221220   5.360   3.440   2.958
 7086TIP3   OH221221   1.703   0.475   5.087
 7086TIP3    H121222   1.617   0.440   5.110
 7086TIP3    H221223   1.689   0.521   5.004
 7087TIP3   OH221224   6.964   5.146   3.880
 7087TIP3    H121225   6.871   5.152   3.904
 7087TIP3    H221226   6.980   5.223   3.826
 7088TIP3   OH221227   2.037   1.224   3.797
 7088TIP3    H121228   2.092   1.238   3.720
 7088TIP3    H221229   1.973   1.295   3.795
 7089TIP3   OH221230   3.834   1.716   0.188
 7089TIP3    H121231   3.789   1.791   0.227
 7089TIP3    H221232   3.891   1.755   0.122
 7090TIP3   OH221233   1.541   4.851   2.016
 7090TIP3    H121234   1.498   4.799   2.084
 7090TIP3    H221235   1.615   4.892   2.062
 7091TIP3   OH221236   2.591   0.137   5.823
 7091TIP3    H121237   2.517   0.153   5.763
 7091TIP3    H221238   2.627   0.053   5.794
 7092TIP3   OH221239   2.095   1.675   2.665
 7092TIP3    H121240   2.039   1.698   2.590
 7092TIP3    H221241   2.118   1.583   2.650
 7093TIP3   OH221242   0.881   2.534   1.832
 7093TIP3    H121243   0.819   2.607   1.831
 7093TIP3    H221244   0.829   2.458   1.856
 7094TIP3   OH221245   5.599   2.338   1.744
 7094TIP3    H121246   5.652   2.261   1.722
 7094TIP3    H221247   5.620   2.355   1.836
 7095TIP3   OH221248   5.346   0.163   3.538
 7095TIP3    H121249   5.265   0.115   3.552
 7095TIP3    H221250   5.323   0.254   3.556
 7096TIP3   OH221251   4.998   2.752   2.772
 7096TIP3    H121252   4.973   2.835   2.812
 7096TIP3    H221253   5.059   2.776   2.703
 7097TIP3   OH221254   4.669   2.115   1.223
 7097TIP3    H121255   4.744   2.077   1.178
 7097TIP3    H221256   4.674   2.079   1.312
 7098TIP3   OH221257   1.156   4.612   3.516
 7098TIP3    H121258   1.236   4.613   3.464
 7098TIP3    H221259   1.187   4.611   3.607
 7099TIP3   OH221260   0.173   6.492   4.273
 7099TIP3    H121261   0.256   6.539   4.263
 7099TIP3    H221262   0.144   6.513   4.362
 7100TIP3   OH221263   3.138   5.149   0.582
 7100TIP3    H121264   3.164   5.195   0.503
 7100TIP3    H221265   3.209   5.086   0.598
 7101TIP3   OH221266   6.540   2.757   0.576
 7101TIP3    H121267   6.619   2.706   0.593
 7101TIP3    H221268   6.534   2.817   0.650
 7102TIP3   OH221269   5.119   1.024   1.207
 7102TIP3    H121270   5.030   0.996   1.188
 7102TIP3    H221271   5.125   1.024   1.302
 7103TIP3   OH221272   1.196   5.123   2.607
 7103TIP3    H121273   1.269   5.185   2.613
 7103TIP3    H221274   1.158   5.124   2.695
 7104TIP3   OH221275   6.659   4.108   2.659
 7104TIP3    H121276   6.693   4.116   2.569
 7104TIP3    H221277   6.711   4.037   2.697
 7105TIP3   OH221278   2.721   3.022   0.868
 7105TIP3    H121279   2.757   3.041   0.955
 7105TIP3    H221280   2.798   3.014   0.811
 7106TIP3   OH221281   0.269   2.298   2.602
 7106TIP3    H121282   0.301   2.213   2.572
 7106TIP3    H221283   0.347   2.354   2.603
 7107TIP3   OH221284   0.973   4.597   2.649
 7107TIP3    H121285   1.000   4.683   2.616
 7107TIP3    H221286   1.050   4.542   2.640
 7108TIP3   OH221287   1.207   0.649   4.487
 7108TIP3    H121288   1.226   0.638   4.394
 7108TIP3    H221289   1.174   0.564   4.515
 7109TIP3   OH221290   1.964   5.208   5.816
 7109TIP3    H121291   1.927   5.281   5.865
 7109TIP3    H221292   2.031   5.247   5.761
 7110TIP3   OH221293   4.995   4.552   2.314
 7110TIP3    H121294   4.929   4.564   2.382
 7110TIP3    H221295   5.075   4.530   2.362
 7111TIP3   OH221296   1.634   3.922   1.510
 7111TIP3    H121297   1.572   3.917   1.438
 7111TIP3    H221298   1.699   3.986   1.481
 7112TIP3   OH221299   4.756   5.841   2.110
 7112TIP3    H121300   4.761   5.757   2.064
 7112TIP3    H221301   4.662   5.855   2.121
 7113TIP3   OH221302   1.112   1.731   1.035
 7113TIP3    H121303   1.144   1.680   0.961
 7113TIP3    H221304   1.159   1.814   1.029
 7114TIP3   OH221305   6.768   4.513   1.730
 7114TIP3    H121306   6.738   4.503   1.640
 7114TIP3    H221307   6.861   4.489   1.727
 7115TIP3   OH221308   6.685   0.225   0.616
 7115TIP3    H121309   6.678   0.240   0.522
 7115TIP3    H221310   6.686   0.130   0.626
 7116TIP3   OH221311   5.406   5.225   0.744
 7116TIP3    H121312   5.338   5.288   0.768
 7116TIP3    H221313   5.440   5.193   0.828
 7117TIP3   OH221314   6.493   3.858   1.807
 7117TIP3    H121315   6.429   3.927   1.824
 7117TIP3    H221316   6.576   3.904   1.800
 7118TIP3   OH221317   4.423   2.294   3.845
 7118TIP3    H121318   4.441   2.311   3.753
 7118TIP3    H221319   4.338   2.251   3.846
 7119TIP3   OH221320   1.758   2.973   2.316
 7119TIP3    H121321   1.817   2.905   2.347
 7119TIP3    H221322   1.771   2.977   2.222
 7120TIP3   OH221323   4.684   2.768   1.230
 7120TIP3    H121324   4.635   2.846   1.256
 7120TIP3    H221325   4.618   2.709   1.194
 7121TIP3   OH221326   0.137   3.612   0.271
 7121TIP3    H121327   0.219   3.570   0.243
 7121TIP3    H221328   0.075   3.540   0.277
 7122TIP3   OH221329   5.235   5.602   2.570
 7122TIP3    H121330   5.260   5.516   2.536
 7122TIP3    H221331   5.234   5.659   2.492
 7123TIP3   OH221332   1.678   4.462   3.410
 7123TIP3    H121333   1.622   4.442   3.335
 7123TIP3    H221334   1.765   4.475   3.372
 7124TIP3   OH221335   4.467   0.344   5.715
 7124TIP3    H121336   4.389   0.393   5.688
 7124TIP3    H221337   4.501   0.394   5.790
 7125TIP3   OH221338   7.152   0.520   4.560
 7125TIP3    H121339   7.143   0.614   4.574
 7125TIP3    H221340   7.217   0.512   4.490
 7126TIP3   OH221341   0.200   5.364   4.187
 7126TIP3    H121342   0.136   5.435   4.175
 7126TIP3    H221343   0.273   5.388   4.130
 7127TIP3   OH221344   0.373   4.959   0.388
 7127TIP3    H121345   0.279   4.949   0.370
 7127TIP3    H221346   0.415   4.900   0.325
 7128TIP3   OH221347   2.119   5.940   3.809
 7128TIP3    H121348   2.159   5.864   3.766
 7128TIP3    H221349   2.177   5.959   3.883
 7129TIP3   OH221350   3.542   1.735   1.817
 7129TIP3    H121351   3.467   1.701   1.769
 7129TIP3    H221352   3.507   1.763   1.901
 7130TIP3   OH221353   0.869   2.085   4.500
 7130TIP3    H121354   0.807   2.144   4.457
 7130TIP3    H221355   0.828   2.063   4.583
 7131TIP3   OH221356   5.936   3.852   3.694
 7131TIP3    H121357   5.970   3.942   3.697
 7131TIP3    H221358   5.949   3.820   3.783
 7132TIP3   OH221359   0.178   5.084   1.411
 7132TIP3    H121360   0.260   5.124   1.381
 7132TIP3    H221361   0.130   5.156   1.453
 7133TIP3   OH221362   6.453   1.597   5.286
 7133TIP3    H121363   6.465   1.632   5.374
 7133TIP3    H221364   6.532   1.624   5.238
 7134TIP3   OH221365   0.330   4.398   0.281
 7134TIP3    H121366   0.321   4.314   0.326
 7134TIP3    H221367   0.250   4.445   0.304
 7135TIP3   OH221368   3.416   3.856   2.921
 7135TIP3    H121369   3.423   3.894   2.833
 7135TIP3    H221370   3.378   3.926   2.974
 7136TIP3   OH221371   1.548   0.906   4.955
 7136TIP3    H121372   1.498   0.887   5.034
 7136TIP3    H221373   1.589   0.822   4.932
 7137TIP3   OH221374   2.283   5.258   3.189
 7137TIP3    H121375   2.329   5.222   3.114
 7137TIP3    H221376   2.348   5.257   3.260
 7138TIP3   OH221377   2.355   2.034   1.628
 7138TIP3    H121378   2.358   2.086   1.548
 7138TIP3    H221379   2.268   2.051   1.665
 7139TIP3   OH221380   5.299   0.869   4.871
 7139TIP3    H121381   5.390   0.851   4.894
 7139TIP3    H221382   5.258   0.899   4.952
 7140TIP3   OH221383   3.817   0.758   2.175
 7140TIP3    H121384   3.735   0.795   2.209
 7140TIP3    H221385   3.814   0.666   2.200
 7141TIP3   OH221386   1.705   5.394   3.605
 7141TIP3    H121387   1.732   5.407   3.696
 7141TIP3    H221388   1.648   5.317   3.607
 7142TIP3   OH221389   2.330   5.905   3.986
 7142TIP3    H121390   2.340   5.950   4.071
 7142TIP3    H221391   2.346   5.813   4.006
 7143TIP3   OH221392   6.250   5.342   1.066
 7143TIP3    H121393   6.265   5.324   1.159
 7143TIP3    H221394   6.197   5.267   1.036
 7144TIP3   OH221395   1.932   0.364   2.715
 7144TIP3    H121396   1.866   0.433   2.705
 7144TIP3    H221397   1.965   0.349   2.626
 7145TIP3   OH221398   4.040   0.062   1.865
 7145TIP3    H121399   4.097   0.038   1.938
 7145TIP3    H221400   3.953   0.032   1.892
 7146TIP3   OH221401   6.346   2.363   4.905
 7146TIP3    H121402   6.375   2.323   4.987
 7146TIP3    H221403   6.266   2.315   4.881
 7147TIP3   OH221404   5.739   2.916   4.038
 7147TIP3    H121405   5.683   2.859   4.091
 7147TIP3    H221406   5.775   2.858   3.971
 7148TIP3   OH221407   6.154   2.613   1.370
 7148TIP3    H121408   6.159   2.706   1.350
 7148TIP3    H221409   6.128   2.610   1.462
 7149TIP3   OH221410   4.622   0.280   0.665
 7149TIP3    H121411   4.664   0.362   0.690
 7149TIP3    H221412   4.694   0.221   0.645
 7150TIP3   OH221413   3.499   5.214   2.731
 7150TIP3    H121414   3.506   5.239   2.824
 7150TIP3    H221415   3.590   5.199   2.704
 7151TIP3   OH221416   4.736   0.033   1.727
 7151TIP3    H121417   4.828   0.029   1.701
 7151TIP3    H221418   4.716  -0.057   1.755
 7152TIP3   OH221419   1.492   4.083   1.738
 7152TIP3    H121420   1.550   4.012   1.711
 7152TIP3    H221421   1.489   4.142   1.663
 7153TIP3   OH221422   5.987   1.872   2.175
 7153TIP3    H121423   5.965   1.904   2.088
 7153TIP3    H221424   5.998   1.777   2.164
 7154TIP3   OH221425   4.835   2.470   1.712
 7154TIP3    H121426   4.846   2.388   1.664
 7154TIP3    H221427   4.914   2.477   1.765
 7155TIP3   OH221428   2.226   4.319   5.266
 7155TIP3    H121429   2.150   4.263   5.280
 7155TIP3    H221430   2.296   4.258   5.241
 7156TIP3   OH221431   2.426   5.448   0.199
 7156TIP3    H121432   2.517   5.459   0.170
 7156TIP3    H221433   2.418   5.505   0.275
 7157TIP3   OH221434   1.433   1.865   0.696
 7157TIP3    H121435   1.362   1.881   0.758
 7157TIP3    H221436   1.413   1.922   0.622
 7158TIP3   OH221437   4.807   5.819   0.844
 7158TIP3    H121438   4.793   5.731   0.881
 7158TIP3    H221439   4.719   5.855   0.835
 7159TIP3   OH221440   3.584   1.306   2.129
 7159TIP3    H121441   3.590   1.224   2.080
 7159TIP3    H221442   3.628   1.371   2.074
 7160TIP3   OH221443   6.874   1.157   1.874
 7160TIP3    H121444   6.897   1.169   1.966
 7160TIP3    H221445   6.788   1.199   1.865
 7161TIP3   OH221446   3.418   6.036   4.686
 7161TIP3    H121447   3.382   5.951   4.661
 7161TIP3    H221448   3.458   6.021   4.772
 7162TIP3   OH221449   4.223   5.765   0.084
 7162TIP3    H121450   4.209   5.677   0.049
 7162TIP3    H221451   4.243   5.819   0.007
 7163TIP3   OH221452   1.391   1.036   3.955
 7163TIP3    H121453   1.331   1.065   4.023
 7163TIP3    H221454   1.411   1.115   3.905
 7164TIP3   OH221455   4.489   0.549   4.114
 7164TIP3    H121456   4.572   0.561   4.067
 7164TIP3    H221457   4.510   0.485   4.182
 7165TIP3   OH221458   4.696   5.748   4.349
 7165TIP3    H121459   4.688   5.843   4.348
 7165TIP3    H221460   4.652   5.722   4.430
 7166TIP3   OH221461   2.557   6.046   1.083
 7166TIP3    H121462   2.550   5.959   1.045
 7166TIP3    H221463   2.600   6.033   1.167
 7167TIP3   OH221464   5.363   5.345   1.776
 7167TIP3    H121465   5.409   5.397   1.841
 7167TIP3    H221466   5.295   5.403   1.742
 7168TIP3   OH221467   7.125   1.163   5.342
 7168TIP3    H121468   7.057   1.114   5.389
 7168TIP3    H221469   7.093   1.168   5.252
 7169TIP3   OH221470   6.133   2.213   4.787
 7169TIP3    H121471   6.160   2.123   4.806
 7169TIP3    H221472   6.102   2.210   4.696
 7170TIP3   OH221473   0.555   2.872   3.184
 7170TIP3    H121474   0.542   2.793   3.131
 7170TIP3    H221475   0.580   2.838   3.270
 7171TIP3   OH221476   7.173   1.858   1.948
 7171TIP3    H121477   7.103   1.906   1.990
 7171TIP3    H221478   7.171   1.771   1.988
 7172TIP3   OH221479   5.521   3.783   3.310
 7172TIP3    H121480   5.558   3.798   3.398
 7172TIP3    H221481   5.589   3.814   3.250
 7173TIP3   OH221482   3.885   6.581   5.130
 7173TIP3    H121483   3.910   6.639   5.059
 7173TIP3    H221484   3.967   6.556   5.172
 7174TIP3   OH221485   4.079   5.751   3.374
 7174TIP3    H121486   4.118   5.679   3.324
 7174TIP3    H221487   4.063   5.713   3.461
 7175TIP3   OH221488   5.124   1.762   3.136
 7175TIP3    H121489   5.054   1.814   3.175
 7175TIP3    H221490   5.138   1.690   3.198
 7176TIP3   OH221491   0.833   3.349   3.067
 7176TIP3    H121492   0.795   3.262   3.076
 7176TIP3    H221493   0.927   3.334   3.062
 7177TIP3   OH221494   4.095   6.288   5.781
 7177TIP3    H121495   4.091   6.278   5.876
 7177TIP3    H221496   4.052   6.209   5.748
 7178TIP3   OH221497   1.573   5.910   2.721
 7178TIP3    H121498   1.644   5.974   2.719
 7178TIP3    H221499   1.494   5.963   2.728
 7179TIP3   OH221500   5.655   5.535   2.606
 7179TIP3    H121501   5.599   5.563   2.534
 7179TIP3    H221502   5.704   5.613   2.631
 7180TIP3   OH221503   2.164   4.310   2.851
 7180TIP3    H121504   2.179   4.288   2.943
 7180TIP3    H221505   2.218   4.388   2.836
 7181TIP3   OH221506   2.782   0.515   3.198
 7181TIP3    H121507   2.841   0.589   3.211
 7181TIP3    H221508   2.695   0.549   3.219
 7182TIP3   OH221509   4.058   5.908   3.111
 7182TIP3    H121510   4.078   5.831   3.164
 7182TIP3    H221511   3.963   5.916   3.115
 7183TIP3   OH221512   1.251   3.741   1.865
 7183TIP3    H121513   1.239   3.796   1.787
 7183TIP3    H221514   1.164   3.705   1.881
 7184TIP3   OH221515   1.506   0.650   1.607
 7184TIP3    H121516   1.463   0.733   1.587
 7184TIP3    H221517   1.542   0.621   1.524
 7185TIP3   OH221518   5.497   6.230   3.020
 7185TIP3    H121519   5.534   6.311   3.055
 7185TIP3    H221520   5.567   6.165   3.032
 7186TIP3   OH221521   3.610   1.652   4.459
 7186TIP3    H121522   3.662   1.726   4.426
 7186TIP3    H221523   3.671   1.604   4.515
 7187TIP3   OH221524   1.287   4.020   3.111
 7187TIP3    H121525   1.373   3.978   3.115
 7187TIP3    H221526   1.231   3.964   3.165
 7188TIP3   OH221527   1.780   2.763   4.143
 7188TIP3    H121528   1.726   2.809   4.080
 7188TIP3    H221529   1.752   2.796   4.228
 7189TIP3   OH221530   6.217   4.782   2.182
 7189TIP3    H121531   6.209   4.841   2.257
 7189TIP3    H221532   6.266   4.707   2.216
 7190TIP3   OH221533   4.366   3.905   0.466
 7190TIP3    H121534   4.435   3.939   0.523
 7190TIP3    H221535   4.412   3.880   0.385
 7191TIP3   OH221536   2.972   2.529   3.244
 7191TIP3    H121537   2.986   2.536   3.339
 7191TIP3    H221538   2.916   2.603   3.222
 7192TIP3   OH221539   2.691   2.281   2.443
 7192TIP3    H121540   2.602   2.288   2.407
 7192TIP3    H221541   2.739   2.234   2.375
 7193TIP3   OH221542   6.665   1.545   5.600
 7193TIP3    H121543   6.594   1.607   5.585
 7193TIP3    H221544   6.690   1.559   5.692
 7194TIP3   OH221545   0.410   3.232   3.921
 7194TIP3    H121546   0.362   3.236   4.004
 7194TIP3    H221547   0.377   3.305   3.870
 7195TIP3   OH221548   2.900   4.539   3.676
 7195TIP3    H121549   2.965   4.485   3.633
 7195TIP3    H221550   2.818   4.519   3.631
 7196TIP3   OH221551   4.532   6.758   5.729
 7196TIP3    H121552   4.577   6.707   5.662
 7196TIP3    H221553   4.577   6.843   5.728
 7197TIP3   OH221554   6.850   6.624   0.577
 7197TIP3    H121555   6.766   6.586   0.602
 7197TIP3    H221556   6.909   6.600   0.649
 7198TIP3   OH221557   4.065   1.983   5.363
 7198TIP3    H121558   4.139   2.036   5.332
 7198TIP3    H221559   3.997   2.047   5.383
 7199TIP3   OH221560   4.492   3.101   4.956
 7199TIP3    H121561   4.506   3.191   4.925
 7199TIP3    H221562   4.525   3.046   4.885
 7200TIP3   OH221563   6.249   5.606   0.630
 7200TIP3    H121564   6.247   5.675   0.697
 7200TIP3    H221565   6.301   5.644   0.559
 7201TIP3   OH221566   2.339   2.375   2.981
 7201TIP3    H121567   2.269   2.422   2.935
 7201TIP3    H221568   2.339   2.411   3.069
 7202TIP3   OH221569   6.528   6.747   0.814
 7202TIP3    H121570   6.543   6.810   0.885
 7202TIP3    H221571   6.530   6.800   0.735
 7203TIP3   OH221572   1.732   2.282   1.601
 7203TIP3    H121573   1.799   2.214   1.610
 7203TIP3    H221574   1.705   2.277   1.510
 7204TIP3   OH221575   2.014   6.246   3.345
 7204TIP3    H121576   1.966   6.320   3.308
 7204TIP3    H221577   1.988   6.245   3.438
 7205TIP3   OH221578   0.261   6.128   3.320
 7205TIP3    H121579   0.291   6.055   3.266
 7205TIP3    H221580   0.168   6.136   3.301
 7206TIP3   OH221581   4.457   1.292   0.429
 7206TIP3    H121582   4.433   1.226   0.494
 7206TIP3    H221583   4.405   1.271   0.352
 7207TIP3   OH221584   3.435   3.408   0.637
 7207TIP3    H121585   3.362   3.347   0.637
 7207TIP3    H221586   3.401   3.487   0.594
 7208TIP3   OH221587   1.073   4.442   5.023
 7208TIP3    H121588   1.167   4.458   5.026
 7208TIP3    H221589   1.054   4.427   4.931
 7209TIP3   OH221590   0.028   6.542   1.695
 7209TIP3    H121591   0.063   6.471   1.748
 7209TIP3    H221592  -0.066   6.542   1.714
 7210TIP3   OH221593   1.757   1.634   1.967
 7210TIP3    H121594   1.843   1.633   2.008
 7210TIP3    H221595   1.706   1.695   2.021
 7211TIP3   OH221596   2.672   3.221   2.425
 7211TIP3    H121597   2.646   3.278   2.353
 7211TIP3    H221598   2.739   3.164   2.388
 7212TIP3   OH221599   0.571   5.205   5.602
 7212TIP3    H121600   0.483   5.168   5.599
 7212TIP3    H221601   0.558   5.299   5.587
 7213TIP3   OH221602   5.114   0.699   3.343
 7213TIP3    H121603   5.208   0.691   3.324
 7213TIP3    H221604   5.088   0.613   3.375
 7214TIP3   OH221605   0.891   2.416   0.998
 7214TIP3    H121606   0.945   2.380   0.928
 7214TIP3    H221607   0.838   2.484   0.955
 7215TIP3   OH221608   6.816   5.512   4.078
 7215TIP3    H121609   6.811   5.420   4.105
 7215TIP3    H221610   6.848   5.558   4.155
 7216TIP3   OH221611   1.508   3.189   1.219
 7216TIP3    H121612   1.532   3.171   1.311
 7216TIP3    H221613   1.415   3.167   1.214
 7217TIP3   OH221614   0.673   5.188   4.773
 7217TIP3    H121615   0.727   5.207   4.850
 7217TIP3    H221616   0.731   5.205   4.698
 7218TIP3   OH221617   2.200   4.619   1.562
 7218TIP3    H121618   2.163   4.631   1.474
 7218TIP3    H221619   2.231   4.529   1.563
 7219TIP3   OH221620   5.752   4.121   3.434
 7219TIP3    H121621   5.698   4.056   3.479
 7219TIP3    H221622   5.842   4.091   3.446
 7220TIP3   OH221623   2.075   2.904   4.505
 7220TIP3    H121624   1.994   2.954   4.517
 7220TIP3    H221625   2.083   2.852   4.585
 7221TIP3   OH221626   1.100   2.304   4.226
 7221TIP3    H121627   1.007   2.321   4.240
 7221TIP3    H221628   1.108   2.294   4.131
 7222TIP3   OH221629   4.905   1.247   3.514
 7222TIP3    H121630   4.901   1.278   3.605
 7222TIP3    H221631   4.839   1.178   3.509
 7223TIP3   OH221632   6.692   5.214   3.875
 7223TIP3    H121633   6.660   5.238   3.788
 7223TIP3    H221634   6.617   5.227   3.933
 7224TIP3   OH221635   2.459   2.184   2.679
 7224TIP3    H121636   2.486   2.102   2.721
 7224TIP3    H221637   2.434   2.241   2.752
 7225TIP3   OH221638   1.317   1.487   2.746
 7225TIP3    H121639   1.236   1.497   2.797
 7225TIP3    H221640   1.384   1.466   2.811
 7226TIP3   OH221641   3.646   5.552   4.014
 7226TIP3    H121642   3.610   5.623   4.068
 7226TIP3    H221643   3.635   5.474   4.068
 7227TIP3   OH221644   0.471   5.288   3.090
 7227TIP3    H121645   0.475   5.284   3.186
 7227TIP3    H221646   0.399   5.348   3.072
 7228TIP3   OH221647   6.648   4.088   3.967
 7228TIP3    H121648   6.683   4.148   4.033
 7228TIP3    H221649   6.673   4.001   4.000
 7229TIP3   OH221650   0.785   2.537   4.684
 7229TIP3    H121651   0.855   2.491   4.638
 7229TIP3    H221652   0.824   2.621   4.710
 7230TIP3   OH221653   6.225   2.816   0.677
 7230TIP3    H121654   6.216   2.740   0.736
 7230TIP3    H221655   6.319   2.834   0.676
 7231TIP3   OH221656   4.787   2.703   4.735
 7231TIP3    H121657   4.753   2.790   4.751
 7231TIP3    H221658   4.712   2.653   4.703
 7232TIP3   OH221659   6.911   6.016   5.596
 7232TIP3    H121660   7.005   6.010   5.616
 7232TIP3    H221661   6.869   5.973   5.670
 7233TIP3   OH221662   5.119   1.887   3.682
 7233TIP3    H121663   5.135   1.956   3.746
 7233TIP3    H221664   5.047   1.921   3.628
 7234TIP3   OH221665   2.784   6.201   0.467
 7234TIP3    H121666   2.696   6.237   0.480
 7234TIP3    H221667   2.843   6.272   0.491
 7235TIP3   OH221668   7.015   3.642   4.755
 7235TIP3    H121669   6.971   3.573   4.705
 7235TIP3    H221670   7.099   3.603   4.780
 7236TIP3   OH221671   4.340   3.793   2.671
 7236TIP3    H121672   4.289   3.755   2.600
 7236TIP3    H221673   4.278   3.800   2.744
 7237TIP3   OH221674   6.301   0.309   5.709
 7237TIP3    H121675   6.356   0.338   5.637
 7237TIP3    H221676   6.360   0.304   5.784
 7238TIP3   OH221677   0.188   5.508   5.229
 7238TIP3    H121678   0.099   5.473   5.220
 7238TIP3    H221679   0.213   5.532   5.140
 7239TIP3   OH221680   4.983   5.027   1.971
 7239TIP3    H121681   4.919   5.058   1.907
 7239TIP3    H221682   5.036   5.104   1.992
 7240TIP3   OH221683   2.944   0.830   1.416
 7240TIP3    H121684   2.956   0.773   1.340
 7240TIP3    H221685   2.946   0.919   1.379
 7241TIP3   OH221686   0.877   2.003   2.274
 7241TIP3    H121687   0.835   1.956   2.345
 7241TIP3    H221688   0.970   1.982   2.283
 7242TIP3   OH221689   4.596   3.115   3.231
 7242TIP3    H121690   4.611   3.204   3.202
 7242TIP3    H221691   4.602   3.119   3.327
 7243TIP3   OH221692   6.337   1.948   1.319
 7243TIP3    H121693   6.403   1.904   1.265
 7243TIP3    H221694   6.293   2.008   1.258
 7244TIP3   OH221695   0.253   1.352   0.979
 7244TIP3    H121696   0.286   1.422   0.923
 7244TIP3    H221697   0.296   1.367   1.064
 7245TIP3   OH221698   4.836   1.170   0.876
 7245TIP3    H121699   4.823   1.227   0.952
 7245TIP3    H221700   4.818   1.226   0.800
 7246TIP3   OH221701   0.291   0.652   0.304
 7246TIP3    H121702   0.268   0.694   0.221
 7246TIP3    H221703   0.238   0.572   0.306
 7247TIP3   OH221704   0.086   6.565   2.033
 7247TIP3    H121705   0.121   6.475   2.025
 7247TIP3    H221706  -0.006   6.553   2.055
 7248TIP3   OH221707   1.437   3.292   2.450
 7248TIP3    H121708   1.407   3.321   2.537
 7248TIP3    H221709   1.503   3.225   2.469
 7249TIP3   OH221710   4.373   3.485   4.956
 7249TIP3    H121711   4.330   3.570   4.950
 7249TIP3    H221712   4.466   3.505   4.952
 7250TIP3   OH221713   2.128   1.650   0.326
 7250TIP3    H121714   2.119   1.563   0.288
 7250TIP3    H221715   2.074   1.706   0.271
 7251TIP3   OH221716   4.012   3.957   0.045
 7251TIP3    H121717   3.920   3.931   0.047
 7251TIP3    H221718   4.017   4.023  -0.025
 7252TIP3   OH221719   1.229   6.772   5.260
 7252TIP3    H121720   1.164   6.764   5.330
 7252TIP3    H221721   1.196   6.716   5.190
 7253TIP3   OH221722   5.466   2.218   0.524
 7253TIP3    H121723   5.472   2.133   0.482
 7253TIP3    H221724   5.537   2.219   0.588
 7254TIP3   OH221725   0.602   4.550   1.076
 7254TIP3    H121726   0.556   4.515   1.153
 7254TIP3    H221727   0.690   4.514   1.083
 7255TIP3   OH221728   5.662   0.216   4.529
 7255TIP3    H121729   5.696   0.143   4.477
 7255TIP3    H221730   5.567   0.212   4.518
 7256TIP3   OH221731   1.826   3.170   4.842
 7256TIP3    H121732   1.912   3.132   4.862
 7256TIP3    H221733   1.775   3.158   4.922
 7257TIP3   OH221734   6.915   5.361   4.512
 7257TIP3    H121735   6.994   5.324   4.473
 7257TIP3    H221736   6.844   5.308   4.479
 7258TIP3   OH221737   6.162   4.357   4.476
 7258TIP3    H121738   6.118   4.362   4.561
 7258TIP3    H221739   6.179   4.263   4.464
 7259TIP3   OH221740   0.719   4.471   2.223
 7259TIP3    H121741   0.752   4.457   2.312
 7259TIP3    H221742   0.788   4.436   2.166
 7260TIP3   OH221743   3.523   2.392   2.718
 7260TIP3    H121744   3.537   2.386   2.624
 7260TIP3    H221745   3.428   2.388   2.729
 7261TIP3   OH221746   4.069   4.574   2.391
 7261TIP3    H121747   4.163   4.565   2.409
 7261TIP3    H221748   4.052   4.509   2.323
 7262TIP3   OH221749   1.506   5.714   2.357
 7262TIP3    H121750   1.596   5.686   2.340
 7262TIP3    H221751   1.462   5.704   2.273
 7263TIP3   OH221752   1.265   5.952   3.079
 7263TIP3    H121753   1.339   5.987   3.129
 7263TIP3    H221754   1.294   5.957   2.987
 7264TIP3   OH221755   1.732   5.382   4.324
 7264TIP3    H121756   1.757   5.452   4.264
 7264TIP3    H221757   1.762   5.413   4.410
 7265TIP3   OH221758   7.042   0.316   2.294
 7265TIP3    H121759   6.962   0.276   2.327
 7265TIP3    H221760   7.050   0.399   2.342
 7266TIP3   OH221761   6.032   3.119   3.233
 7266TIP3    H121762   5.963   3.087   3.175
 7266TIP3    H221763   5.989   3.185   3.287
 7267TIP3   OH221764   2.222   6.518   0.755
 7267TIP3    H121765   2.259   6.430   0.758
 7267TIP3    H221766   2.250   6.559   0.837
 7268TIP3   OH221767   4.482   2.761   4.736
 7268TIP3    H121768   4.391   2.784   4.758
 7268TIP3    H221769   4.527   2.845   4.731
 7269TIP3   OH221770   5.185   1.659   1.287
 7269TIP3    H121771   5.242   1.734   1.272
 7269TIP3    H221772   5.229   1.607   1.353
 7270TIP3   OH221773   4.025   3.798   1.719
 7270TIP3    H121774   3.939   3.758   1.735
 7270TIP3    H221775   4.072   3.789   1.802
 7271TIP3   OH221776   1.969   6.611   0.685
 7271TIP3    H121777   2.058   6.578   0.678
 7271TIP3    H221778   1.971   6.698   0.644
 7272TIP3   OH221779   4.827   2.281   3.778
 7272TIP3    H121780   4.753   2.275   3.839
 7272TIP3    H221781   4.787   2.295   3.693
 7273TIP3   OH221782   6.892   5.471   0.099
 7273TIP3    H121783   6.839   5.464   0.019
 7273TIP3    H221784   6.973   5.513   0.069
 7274TIP3   OH221785   2.156   6.424   4.904
 7274TIP3    H121786   2.213   6.437   4.980
 7274TIP3    H221787   2.073   6.393   4.941
 7275TIP3   OH221788   6.295   3.640   3.390
 7275TIP3    H121789   6.302   3.565   3.450
 7275TIP3    H221790   6.283   3.600   3.304
 7276TIP3   OH221791   4.249   5.358   5.201
 7276TIP3    H121792   4.219   5.415   5.271
 7276TIP3    H221793   4.310   5.412   5.151
 7277TIP3   OH221794   5.114   0.103   4.835
 7277TIP3    H121795   5.157   0.058   4.907
 7277TIP3    H221796   5.153   0.191   4.834
 7278TIP3   OH221797   2.217   5.188   5.448
 7278TIP3    H121798   2.263   5.252   5.393
 7278TIP3    H221799   2.173   5.130   5.387
 7279TIP3   OH221800   7.043   1.176   3.064
 7279TIP3    H121801   7.138   1.186   3.063
 7279TIP3    H221802   7.014   1.230   3.137
 7280TIP3   OH221803   1.324   5.032   5.401
 7280TIP3    H121804   1.268   5.074   5.335
 7280TIP3    H221805   1.270   4.962   5.437
 7281TIP3   OH221806   2.201   2.287   4.288
 7281TIP3    H121807   2.180   2.361   4.345
 7281TIP3    H221808   2.202   2.323   4.200
 7282TIP3   OH221809   5.064   0.559   2.504
 7282TIP3    H121810   5.004   0.516   2.444
 7282TIP3    H221811   5.055   0.652   2.484
 7283TIP3   OH221812   6.022   6.124   0.783
 7283TIP3    H121813   5.935   6.126   0.824
 7283TIP3    H221814   6.073   6.187   0.833
 7284TIP3   OH221815   2.970   3.038   1.996
 7284TIP3    H121816   3.040   3.020   1.934
 7284TIP3    H221817   2.936   2.951   2.019
 7285TIP3   OH221818   6.497   4.262   1.890
 7285TIP3    H121819   6.488   4.354   1.866
 7285TIP3    H221820   6.565   4.261   1.957
 7286TIP3   OH221821   7.143   0.269   0.508
 7286TIP3    H121822   7.110   0.283   0.419
 7286TIP3    H221823   7.233   0.238   0.495
 7287TIP3   OH221824   5.498   5.470   1.989
 7287TIP3    H121825   5.575   5.413   1.979
 7287TIP3    H221826   5.530   5.557   1.968
 7288TIP3   OH221827   4.871   2.109   1.035
 7288TIP3    H121828   4.916   2.194   1.032
 7288TIP3    H221829   4.850   2.090   0.943
 7289TIP3   OH221830   2.059   6.787   0.440
 7289TIP3    H121831   2.154   6.800   0.447
 7289TIP3    H221832   2.049   6.697   0.409
 7290TIP3   OH221833   5.070   2.984   4.369
 7290TIP3    H121834   4.999   2.920   4.377
 7290TIP3    H221835   5.028   3.068   4.386
 7291TIP3   OH221836   1.905   6.069   3.735
 7291TIP3    H121837   1.974   6.041   3.795
 7291TIP3    H221838   1.844   5.996   3.733
 7292TIP3   OH221839   2.926   1.880   1.323
 7292TIP3    H121840   2.993   1.816   1.300
 7292TIP3    H221841   2.877   1.839   1.394
 7293TIP3   OH221842   2.703   0.672   5.383
 7293TIP3    H121843   2.787   0.642   5.347
 7293TIP3    H221844   2.646   0.678   5.307
 7294TIP3   OH221845   4.071   4.073   0.852
 7294TIP3    H121846   4.153   4.032   0.879
 7294TIP3    H221847   4.076   4.163   0.885
 7295TIP3   OH221848   4.401   3.878   2.333
 7295TIP3    H121849   4.426   3.960   2.375
 7295TIP3    H221850   4.428   3.810   2.395
 7296TIP3   OH221851   0.011   4.575   5.601
 7296TIP3    H121852   0.107   4.574   5.602
 7296TIP3    H221853  -0.012   4.664   5.572
 7297TIP3   OH221854   6.682   3.073   2.200
 7297TIP3    H121855   6.588   3.082   2.180
 7297TIP3    H221856   6.722   3.051   2.116
 7298TIP3   OH221857   3.783   6.523   0.370
 7298TIP3    H121858   3.842   6.560   0.436
 7298TIP3    H221859   3.761   6.597   0.314
 7299TIP3   OH221860   2.807   6.016   5.408
 7299TIP3    H121861   2.778   6.086   5.350
 7299TIP3    H221862   2.865   6.059   5.471
 7300TIP3   OH221863   5.052   6.752   2.260
 7300TIP3    H121864   5.008   6.802   2.329
 7300TIP3    H221865   5.064   6.665   2.298
 7301TIP3   OH221866   5.165   1.754   2.274
 7301TIP3    H121867   5.197   1.680   2.223
 7301TIP3    H221868   5.218   1.828   2.245
 7302TIP3   OH221869   6.048   1.165   0.753
 7302TIP3    H121870   6.022   1.145   0.663
 7302TIP3    H221871   5.975   1.215   0.788
 7303TIP3   OH221872   2.295   6.268   5.768
 7303TIP3    H121873   2.266   6.300   5.853
 7303TIP3    H221874   2.389   6.284   5.767
 7304TIP3   OH221875   3.680   1.678   1.481
 7304TIP3    H121876   3.706   1.591   1.514
 7304TIP3    H221877   3.732   1.690   1.401
 7305TIP3   OH221878   5.496   5.036   4.006
 7305TIP3    H121879   5.477   4.942   3.994
 7305TIP3    H221880   5.578   5.037   4.054
 7306TIP3   OH221881   1.234   1.522   1.226
 7306TIP3    H121882   1.224   1.598   1.283
 7306TIP3    H221883   1.167   1.534   1.158
 7307TIP3   OH221884   6.985   0.700   3.317
 7307TIP3    H121885   7.033   0.643   3.377
 7307TIP3    H221886   6.999   0.788   3.353
 7308TIP3   OH221887   5.872   5.273   0.910
 7308TIP3    H121888   5.818   5.201   0.879
 7308TIP3    H221889   5.907   5.313   0.831
 7309TIP3   OH221890   4.427   4.490   4.291
 7309TIP3    H121891   4.444   4.565   4.235
 7309TIP3    H221892   4.483   4.503   4.367
 7310TIP3   OH221893   0.621   6.118   2.908
 7310TIP3    H121894   0.641   6.187   2.971
 7310TIP3    H221895   0.527   6.102   2.921
 7311TIP3   OH221896   3.733   6.357   5.138
 7311TIP3    H121897   3.806   6.316   5.091
 7311TIP3    H221898   3.765   6.445   5.160
 7312TIP3   OH221899   2.111   2.526   4.086
 7312TIP3    H121900   2.147   2.602   4.041
 7312TIP3    H221901   2.106   2.458   4.019
 7313TIP3   OH221902   6.563   0.476   4.531
 7313TIP3    H121903   6.565   0.416   4.606
 7313TIP3    H221904   6.478   0.518   4.536
 7314TIP3   OH221905   2.313   3.910   5.760
 7314TIP3    H121906   2.283   3.954   5.681
 7314TIP3    H221907   2.282   3.820   5.750
 7315TIP3   OH221908   1.965   4.700   0.495
 7315TIP3    H121909   1.906   4.773   0.513
 7315TIP3    H221910   1.957   4.686   0.401
 7316TIP3   OH221911   5.060   6.352   2.932
 7316TIP3    H121912   5.151   6.360   2.902
 7316TIP3    H221913   5.030   6.269   2.895
 7317TIP3   OH221914   5.854   4.796   2.812
 7317TIP3    H121915   5.869   4.884   2.779
 7317TIP3    H221916   5.758   4.787   2.813
 7318TIP3   OH221917   2.827   2.715   0.976
 7318TIP3    H121918   2.807   2.806   0.997
 7318TIP3    H221919   2.813   2.708   0.882
 7319TIP3   OH221920   2.473   2.166   5.489
 7319TIP3    H121921   2.497   2.255   5.513
 7319TIP3    H221922   2.477   2.116   5.571
 7320TIP3   OH221923   0.050   4.557   4.979
 7320TIP3    H121924   0.140   4.570   4.950
 7320TIP3    H221925   0.013   4.496   4.916
 7321TIP3   OH221926   3.118   4.378   2.961
 7321TIP3    H121927   3.048   4.314   2.978
 7321TIP3    H221928   3.089   4.425   2.883
 7322TIP3   OH221929   2.951   1.613   3.412
 7322TIP3    H121930   3.022   1.676   3.398
 7322TIP3    H221931   2.897   1.620   3.333
 7323TIP3   OH221932   6.157   0.658   3.329
 7323TIP3    H121933   6.080   0.643   3.384
 7323TIP3    H221934   6.202   0.732   3.370
 7324TIP3   OH221935   4.255   5.517   4.011
 7324TIP3    H121936   4.199   5.482   4.081
 7324TIP3    H221937   4.323   5.565   4.057
 7325TIP3   OH221938   2.690   4.053   2.745
 7325TIP3    H121939   2.671   3.979   2.802
 7325TIP3    H221940   2.785   4.056   2.739
 7326TIP3   OH221941   5.357   2.323   4.336
 7326TIP3    H121942   5.289   2.344   4.271
 7326TIP3    H221943   5.318   2.346   4.420
 7327TIP3   OH221944   0.924   5.521   2.195
 7327TIP3    H121945   1.001   5.527   2.252
 7327TIP3    H221946   0.911   5.427   2.182
 7328TIP3   OH221947   2.124   2.958   0.049
 7328TIP3    H121948   2.182   3.033   0.036
 7328TIP3    H221949   2.042   2.983   0.005
 7329TIP3   OH221950   2.805   1.476   1.467
 7329TIP3    H121951   2.852   1.484   1.550
 7329TIP3    H221952   2.782   1.384   1.461
 7330TIP3   OH221953   6.946   3.541   1.534
 7330TIP3    H121954   7.032   3.504   1.554
 7330TIP3    H221955   6.966   3.619   1.481
 7331TIP3   OH221956   0.829   4.415   2.804
 7331TIP3    H121957   0.883   4.474   2.752
 7331TIP3    H221958   0.827   4.455   2.892
 7332TIP3   OH221959   1.558   2.197   0.342
 7332TIP3    H121960   1.586   2.109   0.317
 7332TIP3    H221961   1.483   2.182   0.401
 7333TIP3   OH221962   2.279   6.215   4.766
 7333TIP3    H121963   2.221   6.273   4.815
 7333TIP3    H221964   2.342   6.273   4.725
 7334TIP3   OH221965   3.617   0.534   2.498
 7334TIP3    H121966   3.535   0.486   2.487
 7334TIP3    H221967   3.602   0.617   2.453
 7335TIP3   OH221968   0.653   0.796   0.484
 7335TIP3    H121969   0.648   0.709   0.444
 7335TIP3    H221970   0.737   0.831   0.454
 7336TIP3   OH221971   6.215   1.954   2.744
 7336TIP3    H121972   6.277   1.955   2.817
 7336TIP3    H221973   6.223   2.042   2.706
 7337TIP3   OH221974   3.614   5.890   2.450
 7337TIP3    H121975   3.674   5.934   2.511
 7337TIP3    H221976   3.630   5.932   2.366
 7338TIP3   OH221977   2.027   6.780   1.228
 7338TIP3    H121978   1.951   6.766   1.172
 7338TIP3    H221979   2.002   6.743   1.313
 7339TIP3   OH221980   3.327   0.633   4.447
 7339TIP3    H121981   3.321   0.598   4.358
 7339TIP3    H221982   3.417   0.665   4.455
 7340TIP3   OH221983   0.844   4.630   4.072
 7340TIP3    H121984   0.806   4.555   4.117
 7340TIP3    H221985   0.794   4.705   4.104
 7341TIP3   OH221986   3.769   3.536   2.111
 7341TIP3    H121987   3.843   3.595   2.122
 7341TIP3    H221988   3.753   3.534   2.017
 7342TIP3   OH221989   1.497   3.899   4.747
 7342TIP3    H121990   1.488   3.838   4.673
 7342TIP3    H221991   1.436   3.970   4.727
 7343TIP3   OH221992   6.022   6.263   2.771
 7343TIP3    H121993   6.110   6.272   2.734
 7343TIP3    H221994   5.963   6.279   2.698
 7344TIP3   OH221995   1.515   5.690   5.167
 7344TIP3    H121996   1.463   5.688   5.087
 7344TIP3    H221997   1.527   5.783   5.187
 7345TIP3   OH221998   6.443   1.499   1.937
 7345TIP3    H121999   6.393   1.428   1.977
 7345TIP3    H222000   6.388   1.577   1.950
 7346TIP3   OH222001   1.617   1.552   1.750
 7346TIP3    H122002   1.691   1.532   1.692
 7346TIP3    H222003   1.655   1.608   1.818
 7347TIP3   OH222004   6.971   0.522   3.935
 7347TIP3    H122005   6.934   0.606   3.961
 7347TIP3    H222006   7.059   0.522   3.972
 7348TIP3   OH222007   5.906   3.635   3.524
 7348TIP3    H122008   5.918   3.704   3.590
 7348TIP3    H222009   5.878   3.682   3.445
 7349TIP3   OH222010   1.725   6.734   3.460
 7349TIP3    H122011   1.663   6.666   3.485
 7349TIP3    H222012   1.671   6.813   3.449
 7350TIP3   OH222013   7.160   1.935   0.618
 7350TIP3    H122014   7.070   1.967   0.614
 7350TIP3    H222015   7.151   1.842   0.639
 7351TIP3   OH222016   0.344   4.458   4.204
 7351TIP3    H122017   0.339   4.543   4.161
 7351TIP3    H222018   0.263   4.413   4.177
 7352TIP3   OH222019   5.266   1.425   4.187
 7352TIP3    H122020   5.202   1.354   4.183
 7352TIP3    H222021   5.319   1.415   4.108
 7353TIP3   OH222022   5.492   6.253   5.763
 7353TIP3    H122023   5.583   6.279   5.749
 7353TIP3    H222024   5.461   6.312   5.832
 7354TIP3   OH222025   1.523   5.326   4.632
 7354TIP3    H122026   1.466   5.332   4.555
 7354TIP3    H222027   1.472   5.275   4.695
 7355TIP3   OH222028   3.107   6.243   4.935
 7355TIP3    H122029   3.014   6.221   4.936
 7355TIP3    H222030   3.138   6.221   5.022
 7356TIP3   OH222031   3.505   2.210   3.183
 7356TIP3    H122032   3.503   2.305   3.172
 7356TIP3    H222033   3.446   2.193   3.257
 7357TIP3   OH222034   6.105   2.281   2.597
 7357TIP3    H122035   6.021   2.302   2.636
 7357TIP3    H222036   6.086   2.210   2.535
 7358TIP3   OH222037   2.322   5.801   3.433
 7358TIP3    H122038   2.326   5.707   3.414
 7358TIP3    H222039   2.408   5.834   3.407
 7359TIP3   OH222040   2.760   5.935   4.841
 7359TIP3    H122041   2.839   5.954   4.791
 7359TIP3    H222042   2.778   5.970   4.929
 7360TIP3   OH222043   5.465   5.891   5.205
 7360TIP3    H122044   5.445   5.854   5.291
 7360TIP3    H222045   5.547   5.938   5.217
 7361TIP3   OH222046  -0.009   5.193   5.401
 7361TIP3    H122047   0.079   5.206   5.366
 7361TIP3    H222048  -0.054   5.142   5.334
 7362TIP3   OH222049   0.176   5.253   4.764
 7362TIP3    H122050   0.268   5.264   4.739
 7362TIP3    H222051   0.134   5.221   4.684
 7363TIP3   OH222052   4.166   2.018   0.329
 7363TIP3    H122053   4.225   2.093   0.336
 7363TIP3    H222054   4.199   1.955   0.393
 7364TIP3   OH222055   6.196   0.833   2.832
 7364TIP3    H122056   6.274   0.779   2.847
 7364TIP3    H222057   6.152   0.835   2.917
 7365TIP3   OH222058   0.030   1.874   0.264
 7365TIP3    H122059  -0.050   1.901   0.309
 7365TIP3    H222060   0.033   1.779   0.275
 7366TIP3   OH222061   1.504   2.708   3.193
 7366TIP3    H122062   1.488   2.733   3.284
 7366TIP3    H222063   1.433   2.749   3.144
 7367TIP3   OH222064   0.265   1.369   4.327
 7367TIP3    H122065   0.194   1.348   4.387
 7367TIP3    H222066   0.335   1.405   4.382
 7368TIP3   OH222067   3.575   0.208   2.244
 7368TIP3    H122068   3.557   0.197   2.337
 7368TIP3    H222069   3.667   0.182   2.235
 7369TIP3   OH222070   2.003   4.484   4.210
 7369TIP3    H122071   1.950   4.404   4.220
 7369TIP3    H222072   1.977   4.519   4.125
 7370TIP3   OH222073   0.577   3.196   1.444
 7370TIP3    H122074   0.647   3.144   1.405
 7370TIP3    H222075   0.512   3.132   1.472
 7371TIP3   OH222076   0.642   5.018   1.157
 7371TIP3    H122077   0.605   4.959   1.091
 7371TIP3    H222078   0.726   5.045   1.121
 7372TIP3   OH222079   0.905   6.151   4.898
 7372TIP3    H122080   0.852   6.148   4.978
 7372TIP3    H222081   0.865   6.221   4.845
 7373TIP3   OH222082   6.546   2.963   1.785
 7373TIP3    H122083   6.529   2.879   1.744
 7373TIP3    H222084   6.482   3.022   1.746
 7374TIP3   OH222085   1.734   6.571   4.843
 7374TIP3    H122086   1.821   6.609   4.857
 7374TIP3    H222087   1.731   6.553   4.749
 7375TIP3   OH222088   5.309   2.367   1.703
 7375TIP3    H122089   5.298   2.274   1.681
 7375TIP3    H222090   5.387   2.370   1.758
 7376TIP3   OH222091   5.956   0.471   4.255
 7376TIP3    H122092   5.884   0.428   4.210
 7376TIP3    H222093   6.035   0.433   4.218
 7377TIP3   OH222094   5.173   0.417   3.016
 7377TIP3    H122095   5.102   0.387   2.960
 7377TIP3    H222096   5.139   0.408   3.105
 7378TIP3   OH222097   4.572   3.007   1.316
 7378TIP3    H122098   4.483   3.006   1.351
 7378TIP3    H222099   4.627   3.030   1.391
 7379TIP3   OH222100   0.524   5.116   0.561
 7379TIP3    H122101   0.590   5.054   0.594
 7379TIP3    H222102   0.486   5.071   0.485
 7380TIP3   OH222103   3.271   4.712   0.139
 7380TIP3    H122104   3.238   4.644   0.080
 7380TIP3    H222105   3.364   4.692   0.150
 7381TIP3   OH222106   4.298   4.056   1.985
 7381TIP3    H122107   4.288   4.120   2.055
 7381TIP3    H222108   4.320   3.974   2.031
 7382TIP3   OH222109   2.572   6.172   0.124
 7382TIP3    H122110   2.641   6.147   0.062
 7382TIP3    H222111   2.611   6.243   0.175
 7383TIP3   OH222112   6.348   2.459   3.794
 7383TIP3    H122113   6.272   2.424   3.841
 7383TIP3    H222114   6.313   2.531   3.742
 7384TIP3   OH222115   6.389   3.210   4.882
 7384TIP3    H122116   6.338   3.289   4.865
 7384TIP3    H222117   6.474   3.242   4.912
 7385TIP3   OH222118   6.431   4.213   4.718
 7385TIP3    H122119   6.372   4.166   4.659
 7385TIP3    H222120   6.508   4.157   4.725
 7386TIP3   OH222121   6.286   6.519   1.566
 7386TIP3    H122122   6.265   6.516   1.473
 7386TIP3    H222123   6.311   6.430   1.588
 7387TIP3   OH222124   3.279   0.630   5.118
 7387TIP3    H122125   3.201   0.635   5.064
 7387TIP3    H222126   3.267   0.697   5.184
 7388TIP3   OH222127   0.147   0.043   3.506
 7388TIP3    H122128   0.131  -0.001   3.589
 7388TIP3    H222129   0.061   0.051   3.465
 7389TIP3   OH222130   5.332   4.560   0.222
 7389TIP3    H122131   5.292   4.563   0.136
 7389TIP3    H222132   5.309   4.644   0.262
 7390TIP3   OH222133   4.149   1.167   1.326
 7390TIP3    H122134   4.242   1.184   1.309
 7390TIP3    H222135   4.106   1.189   1.243
 7391TIP3   OH222136   4.146   4.291   1.038
 7391TIP3    H122137   4.230   4.319   0.999
 7391TIP3    H222138   4.121   4.365   1.094
 7392TIP3   OH222139   2.515   5.090   5.340
 7392TIP3    H122140   2.608   5.110   5.331
 7392TIP3    H222141   2.492   5.122   5.428
 7393TIP3   OH222142   0.464   0.549   0.749
 7393TIP3    H122143   0.478   0.643   0.737
 7393TIP3    H222144   0.445   0.539   0.842
 7394TIP3   OH222145   1.372   0.765   0.114
 7394TIP3    H122146   1.283   0.742   0.139
 7394TIP3    H222147   1.418   0.681   0.109
 7395TIP3   OH222148   3.128   6.597   5.539
 7395TIP3    H122149   3.068   6.565   5.607
 7395TIP3    H222150   3.076   6.659   5.488
 7396TIP3   OH222151   2.281   5.765   5.117
 7396TIP3    H122152   2.192   5.747   5.148
 7396TIP3    H222153   2.271   5.775   5.022
 7397TIP3   OH222154   3.222   2.387   2.036
 7397TIP3    H122155   3.272   2.358   1.960
 7397TIP3    H222156   3.282   2.445   2.083
 7398TIP3   OH222157   5.120   5.116   0.744
 7398TIP3    H122158   5.069   5.127   0.664
 7398TIP3    H222159   5.211   5.115   0.715
 7399TIP3   OH222160   4.683   4.295   5.272
 7399TIP3    H122161   4.759   4.297   5.213
 7399TIP3    H222162   4.640   4.212   5.253
 7400TIP3   OH222163   4.345   6.175   4.582
 7400TIP3    H122164   4.269   6.121   4.604
 7400TIP3    H222165   4.312   6.265   4.587
 7401TIP3   OH222166   7.052   1.907   4.436
 7401TIP3    H122167   7.021   1.879   4.522
 7401TIP3    H222168   7.095   1.829   4.400
 7402TIP3   OH222169   1.555   2.958   1.759
 7402TIP3    H122170   1.482   2.968   1.697
 7402TIP3    H222171   1.526   3.004   1.838
 7403TIP3   OH222172   7.038   0.353   3.237
 7403TIP3    H122173   7.052   0.419   3.169
 7403TIP3    H222174   7.063   0.397   3.318
 7404TIP3   OH222175   1.086   3.243   5.777
 7404TIP3    H122176   1.068   3.236   5.683
 7404TIP3    H222177   1.077   3.153   5.810
 7405TIP3   OH222178   3.924   3.247   3.649
 7405TIP3    H122179   3.989   3.316   3.635
 7405TIP3    H222180   3.974   3.166   3.643
 7406TIP3   OH222181   2.757   0.938   2.442
 7406TIP3    H122182   2.810   0.906   2.369
 7406TIP3    H222183   2.706   0.862   2.470
 7407TIP3   OH222184   6.419   3.820   0.108
 7407TIP3    H122185   6.328   3.796   0.089
 7407TIP3    H222186   6.431   3.903   0.062
 7408TIP3   OH222187   3.058   0.654   2.406
 7408TIP3    H122188   3.049   0.560   2.417
 7408TIP3    H222189   3.047   0.690   2.495
 7409TIP3   OH222190   4.234   3.720   5.026
 7409TIP3    H122191   4.196   3.683   5.105
 7409TIP3    H222192   4.161   3.764   4.982
 7410TIP3   OH222193   5.158   0.931   5.092
 7410TIP3    H122194   5.141   1.002   5.153
 7410TIP3    H222195   5.240   0.892   5.124
 7411TIP3   OH222196   3.757   2.101   3.181
 7411TIP3    H122197   3.808   2.172   3.142
 7411TIP3    H222198   3.669   2.137   3.189
 7412TIP3   OH222199   1.145   3.053   2.845
 7412TIP3    H122200   1.164   3.000   2.767
 7412TIP3    H222201   1.196   3.012   2.915
 7413TIP3   OH222202   3.631   2.995   1.764
 7413TIP3    H122203   3.622   3.078   1.718
 7413TIP3    H222204   3.721   2.995   1.797
 7414TIP3   OH222205   0.409   1.634   2.197
 7414TIP3    H122206   0.499   1.636   2.231
 7414TIP3    H222207   0.356   1.666   2.270
 7415TIP3   OH222208   6.093   3.421   2.215
 7415TIP3    H122209   6.037   3.462   2.149
 7415TIP3    H222210   6.064   3.460   2.298
 7416TIP3   OH222211   6.391   5.182   3.985
 7416TIP3    H122212   6.394   5.105   3.928
 7416TIP3    H222213   6.380   5.255   3.925
 7417TIP3   OH222214   5.165   1.563   0.518
 7417TIP3    H122215   5.084   1.584   0.565
 7417TIP3    H222216   5.137   1.513   0.442
 7418TIP3   OH222217   3.386   1.770   2.058
 7418TIP3    H122218   3.382   1.781   2.153
 7418TIP3    H222219   3.357   1.680   2.043
 7419TIP3   OH222220   1.057   5.401   5.689
 7419TIP3    H122221   1.032   5.309   5.696
 7419TIP3    H222222   1.020   5.430   5.605
 7420TIP3   OH222223   5.367   5.254   0.457
 7420TIP3    H122224   5.428   5.329   0.461
 7420TIP3    H222225   5.371   5.216   0.545
 7421TIP3   OH222226   1.633   0.956   0.095
 7421TIP3    H122227   1.672   0.871   0.117
 7421TIP3    H222228   1.570   0.936   0.026
 7422TIP3   OH222229   2.716   3.890   2.354
 7422TIP3    H122230   2.697   3.982   2.369
 7422TIP3    H222231   2.704   3.878   2.260
 7423TIP3   OH222232   1.455   5.720   5.711
 7423TIP3    H122233   1.506   5.799   5.692
 7423TIP3    H222234   1.381   5.750   5.763
 7424TIP3   OH222235   5.205   6.482   2.247
 7424TIP3    H122236   5.120   6.439   2.235
 7424TIP3    H222237   5.269   6.418   2.215
 7425TIP3   OH222238   6.656   5.325   5.056
 7425TIP3    H122239   6.715   5.289   5.123
 7425TIP3    H222240   6.697   5.301   4.973
 7426TIP3   OH222241   2.427   2.527   5.794
 7426TIP3    H122242   2.374   2.606   5.803
 7426TIP3    H222243   2.373   2.458   5.834
 7427TIP3   OH222244   2.179   3.690   5.896
 7427TIP3    H122245   2.157   3.601   5.871
 7427TIP3    H222246   2.120   3.745   5.844
 7428TIP3   OH222247   6.051   5.563   5.332
 7428TIP3    H122248   6.059   5.514   5.251
 7428TIP3    H222249   6.122   5.531   5.388
 7429TIP3   OH222250   6.983   1.639   0.313
 7429TIP3    H122251   6.944   1.612   0.231
 7429TIP3    H222252   6.988   1.735   0.308
 7430TIP3   OH222253   5.397   1.658   3.228
 7430TIP3    H122254   5.490   1.635   3.223
 7430TIP3    H222255   5.386   1.727   3.163
 7431TIP3   OH222256   6.258   3.483   4.838
 7431TIP3    H122257   6.342   3.511   4.800
 7431TIP3    H222258   6.212   3.565   4.856
 7432TIP3   OH222259   1.178   5.949   3.810
 7432TIP3    H122260   1.135   5.906   3.736
 7432TIP3    H222261   1.148   6.039   3.806
 7433TIP3   OH222262   2.861   2.576   0.300
 7433TIP3    H122263   2.864   2.655   0.245
 7433TIP3    H222264   2.905   2.509   0.248
 7434TIP3   OH222265   2.711   4.534   0.632
 7434TIP3    H122266   2.772   4.605   0.653
 7434TIP3    H222267   2.685   4.499   0.717
 7435TIP3   OH222268   5.788   0.310   5.057
 7435TIP3    H122269   5.848   0.340   5.125
 7435TIP3    H222270   5.802   0.215   5.053
 7436TIP3   OH222271   6.744   4.330   4.103
 7436TIP3    H122272   6.807   4.394   4.136
 7436TIP3    H222273   6.690   4.309   4.180
 7437TIP3   OH222274   0.269   0.684   4.419
 7437TIP3    H122275   0.259   0.736   4.499
 7437TIP3    H222276   0.187   0.697   4.371
 7438TIP3   OH222277   3.485   3.242   0.876
 7438TIP3    H122278   3.495   3.310   0.809
 7438TIP3    H222279   3.484   3.160   0.827
 7439TIP3   OH222280   1.313   4.300   1.635
 7439TIP3    H122281   1.264   4.359   1.578
 7439TIP3    H222282   1.246   4.245   1.675
 7440TIP3   OH222283   4.912   3.518   2.524
 7440TIP3    H122284   4.838   3.578   2.519
 7440TIP3    H222285   4.937   3.519   2.617
 7441TIP3   OH222286   3.644   0.623   0.384
 7441TIP3    H122287   3.740   0.627   0.380
 7441TIP3    H222288   3.625   0.574   0.464
 7442TIP3   OH222289   5.517   0.414   3.643
 7442TIP3    H122290   5.521   0.390   3.735
 7442TIP3    H222291   5.424   0.432   3.627
 7443TIP3   OH222292   2.692   0.323   5.419
 7443TIP3    H122293   2.722   0.356   5.504
 7443TIP3    H222294   2.640   0.246   5.441
 7444TIP3   OH222295   2.987   6.317   1.910
 7444TIP3    H122296   2.977   6.231   1.950
 7444TIP3    H222297   3.056   6.305   1.844
 7445TIP3   OH222298   6.763   4.178   5.632
 7445TIP3    H122299   6.712   4.110   5.587
 7445TIP3    H222300   6.747   4.161   5.725
 7446TIP3   OH222301   0.051   3.293   5.196
 7446TIP3    H122302   0.123   3.306   5.258
 7446TIP3    H222303   0.025   3.382   5.172
 7447TIP3   OH222304   3.356   0.860   4.742
 7447TIP3    H122305   3.406   0.879   4.662
 7447TIP3    H222306   3.277   0.815   4.710
 7448TIP3   OH222307   0.305   5.965   4.074
 7448TIP3    H122308   0.373   5.994   4.013
 7448TIP3    H222309   0.341   5.886   4.114
 7449TIP3   OH222310   3.030   2.781   2.698
 7449TIP3    H122311   2.954   2.834   2.724
 7449TIP3    H222312   2.997   2.725   2.628
 7450TIP3   OH222313   5.385   5.319   3.698
 7450TIP3    H122314   5.355   5.337   3.609
 7450TIP3    H222315   5.334   5.243   3.725
 7451TIP3   OH222316   2.195   1.034   5.821
 7451TIP3    H122317   2.209   1.062   5.731
 7451TIP3    H222318   2.278   0.993   5.846
 7452TIP3   OH222319   3.456   4.042   5.246
 7452TIP3    H122320   3.377   4.019   5.198
 7452TIP3    H222321   3.479   3.962   5.294
 7453TIP3   OH222322   1.456   4.848   5.164
 7453TIP3    H122323   1.422   4.759   5.156
 7453TIP3    H222324   1.551   4.838   5.166
 7454TIP3   OH222325   7.031   5.695   5.206
 7454TIP3    H122326   7.018   5.760   5.137
 7454TIP3    H222327   6.943   5.662   5.225
 7455TIP3   OH222328   1.985   1.178   0.918
 7455TIP3    H122329   1.906   1.159   0.867
 7455TIP3    H222330   2.051   1.118   0.882
 7456TIP3   OH222331   1.844   4.086   0.126
 7456TIP3    H122332   1.938   4.100   0.115
 7456TIP3    H222333   1.804   4.169   0.100
 7457TIP3   OH222334   4.659   5.419   0.290
 7457TIP3    H122335   4.680   5.480   0.219
 7457TIP3    H222336   4.678   5.333   0.254
 7458TIP3   OH222337   0.145   4.090   1.454
 7458TIP3    H122338   0.200   4.097   1.377
 7458TIP3    H222339   0.203   4.110   1.528
 7459TIP3   OH222340   6.488   2.168   1.617
 7459TIP3    H122341   6.465   2.146   1.707
 7459TIP3    H222342   6.410   2.209   1.581
 7460TIP3   OH222343   0.949   4.792   0.247
 7460TIP3    H122344   0.906   4.874   0.224
 7460TIP3    H222345   0.879   4.727   0.244
 7461TIP3   OH222346   3.020   2.443   2.602
 7461TIP3    H122347   3.049   2.476   2.516
 7461TIP3    H222348   2.925   2.451   2.600
 7462TIP3   OH222349   4.835   4.346   4.391
 7462TIP3    H122350   4.765   4.407   4.413
 7462TIP3    H222351   4.844   4.290   4.468
 7463TIP3   OH222352   3.317   0.132   0.030
 7463TIP3    H122353   3.396   0.092  -0.008
 7463TIP3    H222354   3.257   0.059   0.042
 7464TIP3   OH222355   0.732   3.811   2.336
 7464TIP3    H122356   0.773   3.845   2.415
 7464TIP3    H222357   0.655   3.763   2.367
 7465TIP3   OH222358   1.897   0.530   5.416
 7465TIP3    H122359   1.938   0.539   5.330
 7465TIP3    H222360   1.812   0.491   5.398
 7466TIP3   OH222361   4.633   4.506   4.516
 7466TIP3    H122362   4.633   4.495   4.611
 7466TIP3    H222363   4.699   4.573   4.500
 7467TIP3   OH222364   1.143   2.396   2.213
 7467TIP3    H122365   1.128   2.394   2.119
 7467TIP3    H222366   1.064   2.358   2.251
 7468TIP3   OH222367   5.307   1.618   0.169
 7468TIP3    H122368   5.252   1.675   0.115
 7468TIP3    H222369   5.249   1.546   0.194
 7469TIP3   OH222370   6.546   2.412   4.591
 7469TIP3    H122371   6.618   2.458   4.634
 7469TIP3    H222372   6.564   2.421   4.498
 7470TIP3   OH222373   6.996   2.972   2.875
 7470TIP3    H122374   6.903   2.958   2.890
 7470TIP3    H222375   7.001   3.022   2.793
 7471TIP3   OH222376   7.113   5.025   0.640
 7471TIP3    H122377   7.071   5.029   0.727
 7471TIP3    H222378   7.069   4.954   0.595
 7472TIP3   OH222379   0.229   4.025   5.293
 7472TIP3    H122380   0.159   4.088   5.277
 7472TIP3    H222381   0.284   4.029   5.215
 7473TIP3   OH222382   6.275   0.123   3.611
 7473TIP3    H122383   6.268   0.216   3.592
 7473TIP3    H222384   6.202   0.083   3.563
 7474TIP3   OH222385   2.870   2.165   5.508
 7474TIP3    H122386   2.889   2.235   5.570
 7474TIP3    H222387   2.869   2.085   5.561
 7475TIP3   OH222388   2.012   5.723   4.250
 7475TIP3    H122389   1.991   5.701   4.159
 7475TIP3    H222390   1.946   5.788   4.273
 7476TIP3   OH222391   5.700   2.042   3.326
 7476TIP3    H122392   5.608   2.016   3.335
 7476TIP3    H222393   5.706   2.128   3.368
 7477TIP3   OH222394   0.853   3.860   1.504
 7477TIP3    H122395   0.925   3.797   1.504
 7477TIP3    H222396   0.818   3.857   1.593
 7478TIP3   OH222397   3.428   2.266   0.768
 7478TIP3    H122398   3.386   2.186   0.737
 7478TIP3    H222399   3.487   2.291   0.697
 7479TIP3   OH222400   3.424   3.403   3.113
 7479TIP3    H122401   3.504   3.421   3.063
 7479TIP3    H222402   3.365   3.362   3.050
 7480TIP3   OH222403   2.719   4.560   2.966
 7480TIP3    H122404   2.695   4.470   2.944
 7480TIP3    H222405   2.637   4.609   2.958
 7481TIP3   OH222406   5.959   4.093   4.538
 7481TIP3    H122407   6.008   4.146   4.601
 7481TIP3    H222408   5.879   4.143   4.521
 7482TIP3   OH222409   5.185   6.477   4.256
 7482TIP3    H122410   5.126   6.545   4.287
 7482TIP3    H222411   5.193   6.492   4.162
 7483TIP3   OH222412   1.511   5.402   5.853
 7483TIP3    H122413   1.438   5.463   5.836
 7483TIP3    H222414   1.589   5.457   5.852
 7484TIP3   OH222415   0.800   6.116   3.318
 7484TIP3    H122416   0.718   6.071   3.339
 7484TIP3    H222417   0.842   6.060   3.253
 7485TIP3   OH222418   0.541   4.451   2.921
 7485TIP3    H122419   0.513   4.460   3.012
 7485TIP3    H222420   0.545   4.541   2.888
 7486TIP3   OH222421   1.826   1.338   1.962
 7486TIP3    H122422   1.862   1.411   1.911
 7486TIP3    H222423   1.901   1.303   2.010
 7487TIP3   OH222424   6.586   1.818   2.375
 7487TIP3    H122425   6.583   1.888   2.440
 7487TIP3    H222426   6.576   1.862   2.291
 7488TIP3   OH222427   4.090   0.182   0.465
 7488TIP3    H122428   4.086   0.134   0.548
 7488TIP3    H222429   4.057   0.270   0.487
 7489TIP3   OH222430   5.209   0.593   2.116
 7489TIP3    H122431   5.183   0.610   2.025
 7489TIP3    H222432   5.185   0.501   2.131
 7490TIP3   OH222433   0.067   0.059   0.036
 7490TIP3    H122434  -0.005  -0.003   0.020
 7490TIP3    H222435   0.088   0.094  -0.051
 7491TIP3   OH222436   2.799   1.568   1.222
 7491TIP3    H122437   2.883   1.527   1.202
 7491TIP3    H222438   2.777   1.538   1.310
 7492TIP3   OH222439   6.341   5.579   1.278
 7492TIP3    H122440   6.318   5.576   1.186
 7492TIP3    H222441   6.257   5.584   1.324
 7493TIP3   OH222442   6.849   4.029   4.491
 7493TIP3    H122443   6.880   3.939   4.501
 7493TIP3    H222444   6.793   4.044   4.566
 7494TIP3   OH222445   6.133   1.337   4.075
 7494TIP3    H122446   6.105   1.416   4.030
 7494TIP3    H222447   6.058   1.278   4.072
 7495TIP3   OH222448   1.660   1.716   5.172
 7495TIP3    H122449   1.572   1.727   5.137
 7495TIP3    H222450   1.658   1.761   5.257
 7496TIP3   OH222451   6.358   6.674   2.410
 7496TIP3    H122452   6.318   6.703   2.328
 7496TIP3    H222453   6.378   6.755   2.457
 7497TIP3   OH222454   4.508   3.865   0.205
 7497TIP3    H122455   4.466   3.782   0.181
 7497TIP3    H222456   4.590   3.866   0.156
 7498TIP3   OH222457   6.695   1.047   0.407
 7498TIP3    H122458   6.662   1.090   0.486
 7498TIP3    H222459   6.785   1.023   0.428
 7499TIP3   OH222460   4.927   1.180   5.854
 7499TIP3    H122461   5.017   1.186   5.885
 7499TIP3    H222462   4.887   1.263   5.880
 7500TIP3   OH222463   4.931   3.268   3.545
 7500TIP3    H122464   4.919   3.175   3.525
 7500TIP3    H222465   4.877   3.314   3.481
 7501TIP3   OH222466   4.310   2.792   5.699
 7501TIP3    H122467   4.232   2.799   5.644
 7501TIP3    H222468   4.285   2.730   5.768
 7502TIP3   OH222469   5.570   1.784   4.515
 7502TIP3    H122470   5.558   1.744   4.429
 7502TIP3    H222471   5.637   1.730   4.557
 7503TIP3   OH222472   4.014   5.137   2.546
 7503TIP3    H122473   3.962   5.106   2.471
 7503TIP3    H222474   4.092   5.081   2.545
 7504TIP3   OH222475   5.049   2.897   3.747
 7504TIP3    H122476   5.028   2.824   3.806
 7504TIP3    H222477   4.979   2.961   3.764
 7505TIP3   OH222478   2.877   0.098   1.271
 7505TIP3    H122479   2.845   0.022   1.224
 7505TIP3    H222480   2.830   0.172   1.234
 7506TIP3   OH222481   2.148   2.263   3.954
 7506TIP3    H122482   2.115   2.327   3.891
 7506TIP3    H222483   2.189   2.195   3.901
 7507TIP3   OH222484   4.569   1.298   3.108
 7507TIP3    H122485   4.661   1.283   3.129
 7507TIP3    H222486   4.564   1.393   3.093
 7508TIP3   OH222487   5.016   0.443   5.287
 7508TIP3    H122488   5.111   0.441   5.302
 7508TIP3    H222489   5.000   0.370   5.227
 7509TIP3   OH222490   1.230   6.640   0.672
 7509TIP3    H122491   1.244   6.721   0.624
 7509TIP3    H222492   1.278   6.652   0.754
 7510TIP3   OH222493   6.486   3.715   4.308
 7510TIP3    H122494   6.575   3.681   4.306
 7510TIP3    H222495   6.467   3.727   4.402
 7511TIP3   OH222496   1.354   1.831   2.935
 7511TIP3    H122497   1.282   1.772   2.955
 7511TIP3    H222498   1.400   1.790   2.862
 7512TIP3   OH222499   5.073   5.013   4.573
 7512TIP3    H122500   5.138   5.082   4.573
 7512TIP3    H222501   4.991   5.057   4.599
 7513TIP3   OH222502   4.274   2.692   2.298
 7513TIP3    H122503   4.248   2.600   2.289
 7513TIP3    H222504   4.193   2.741   2.285
 7514TIP3   OH222505   5.909   5.171   4.662
 7514TIP3    H122506   5.860   5.231   4.719
 7514TIP3    H222507   5.858   5.168   4.581
 7515TIP3   OH222508   6.847   1.942   2.260
 7515TIP3    H122509   6.858   2.002   2.186
 7515TIP3    H222510   6.753   1.941   2.277
 7516TIP3   OH222511   3.889   4.641   5.110
 7516TIP3    H122512   3.802   4.661   5.077
 7516TIP3    H222513   3.910   4.714   5.169
 7517TIP3   OH222514   2.721   3.816   2.079
 7517TIP3    H122515   2.767   3.742   2.040
 7517TIP3    H222516   2.744   3.890   2.024
 7518TIP3   OH222517   6.343   4.716   1.096
 7518TIP3    H122518   6.300   4.719   1.011
 7518TIP3    H222519   6.334   4.625   1.125
 7519TIP3   OH222520   0.673   6.805   5.335
 7519TIP3    H122521   0.620   6.727   5.349
 7519TIP3    H222522   0.713   6.823   5.420
 7520TIP3   OH222523   1.689   2.398   3.345
 7520TIP3    H122524   1.729   2.476   3.306
 7520TIP3    H222525   1.742   2.325   3.312
 7521TIP3   OH222526   2.501   5.178   2.355
 7521TIP3    H122527   2.538   5.239   2.419
 7521TIP3    H222528   2.421   5.220   2.325
 7522TIP3   OH222529   1.181   3.169   0.764
 7522TIP3    H122530   1.174   3.186   0.858
 7522TIP3    H222531   1.090   3.165   0.734
 7523TIP3   OH222532   0.123   0.823   5.842
 7523TIP3    H122533   0.216   0.822   5.817
 7523TIP3    H222534   0.120   0.772   5.923
 7524TIP3   OH222535   4.962   0.812   3.101
 7524TIP3    H122536   5.046   0.766   3.095
 7524TIP3    H222537   4.982   0.892   3.149
 7525TIP3   OH222538   6.086   4.789   0.170
 7525TIP3    H122539   6.019   4.828   0.227
 7525TIP3    H222540   6.086   4.845   0.093
 7526TIP3   OH222541   2.046   3.753   1.081
 7526TIP3    H122542   2.070   3.825   1.024
 7526TIP3    H222543   2.003   3.794   1.156
 7527TIP3   OH222544   4.678   4.024   2.106
 7527TIP3    H122545   4.769   4.038   2.134
 7527TIP3    H222546   4.626   4.058   2.179
 7528TIP3   OH222547   6.209   3.932   2.018
 7528TIP3    H122548   6.232   3.960   1.930
 7528TIP3    H222549   6.168   4.009   2.058
 7529TIP3   OH222550   4.362   5.583   0.523
 7529TIP3    H122551   4.411   5.629   0.592
 7529TIP3    H222552   4.328   5.504   0.567
 7530TIP3   OH222553   7.250   4.652   3.906
 7530TIP3    H122554   7.191   4.588   3.865
 7530TIP3    H222555   7.194   4.727   3.925
 7531TIP3   OH222556   4.071   5.556   3.607
 7531TIP3    H122557   4.023   5.559   3.690
 7531TIP3    H222558   4.163   5.555   3.632
 7532TIP3   OH222559   3.717   3.971   2.322
 7532TIP3    H122560   3.682   3.965   2.233
 7532TIP3    H222561   3.705   4.063   2.346
 7533TIP3   OH222562   3.291   6.300   4.063
 7533TIP3    H122563   3.378   6.311   4.024
 7533TIP3    H222564   3.230   6.317   3.992
 7534TIP3   OH222565   2.800   6.603   1.373
 7534TIP3    H122566   2.795   6.662   1.298
 7534TIP3    H222567   2.876   6.634   1.423
 7535TIP3   OH222568   2.465   3.880   3.555
 7535TIP3    H122569   2.375   3.894   3.586
 7535TIP3    H222570   2.514   3.856   3.634
 7536TIP3   OH222571   6.312   5.256   0.498
 7536TIP3    H122572   6.267   5.309   0.564
 7536TIP3    H222573   6.340   5.178   0.545
 7537TIP3   OH222574   2.804   6.530   2.668
 7537TIP3    H122575   2.864   6.504   2.597
 7537TIP3    H222576   2.731   6.469   2.661
 7538TIP3   OH222577   1.896   2.827   2.950
 7538TIP3    H122578   1.870   2.763   3.016
 7538TIP3    H222579   1.892   2.911   2.995
 7539TIP3   OH222580   1.720   5.832   5.594
 7539TIP3    H122581   1.724   5.746   5.552
 7539TIP3    H222582   1.781   5.886   5.544
 7540TIP3   OH222583   6.166   2.170   1.234
 7540TIP3    H122584   6.145   2.258   1.201
 7540TIP3    H222585   6.082   2.124   1.236
 7541TIP3   OH222586   3.313   3.825   5.865
 7541TIP3    H122587   3.353   3.903   5.828
 7541TIP3    H222588   3.384   3.781   5.912
 7542TIP3   OH222589   2.314   0.765   4.186
 7542TIP3    H122590   2.340   0.822   4.259
 7542TIP3    H222591   2.222   0.745   4.204
 7543TIP3   OH222592   5.975   4.427   1.990
 7543TIP3    H122593   5.984   4.416   2.084
 7543TIP3    H222594   6.022   4.509   1.970
 7544TIP3   OH222595   4.335   1.200   0.673
 7544TIP3    H122596   4.418   1.211   0.719
 7544TIP3    H222597   4.279   1.268   0.711
 7545TIP3   OH222598   3.300   2.755   1.696
 7545TIP3    H122599   3.376   2.748   1.754
 7545TIP3    H222600   3.337   2.775   1.610
 7546TIP3   OH222601   0.655   0.376   4.961
 7546TIP3    H122602   0.638   0.470   4.961
 7546TIP3    H222603   0.578   0.338   5.002
 7547TIP3   OH222604   1.034   6.585   1.149
 7547TIP3    H122605   1.078   6.621   1.071
 7547TIP3    H222606   0.948   6.628   1.149
 7548TIP3   OH222607   5.544   3.531  -0.015
 7548TIP3    H122608   5.461   3.482  -0.014
 7548TIP3    H222609   5.545   3.578   0.068
 7549TIP3   OH222610   5.023   2.317   1.131
 7549TIP3    H122611   4.961   2.326   1.204
 7549TIP3    H222612   5.029   2.405   1.094
 7550TIP3   OH222613   5.440   0.362   5.712
 7550TIP3    H122614   5.462   0.423   5.781
 7550TIP3    H222615   5.421   0.280   5.758
 7551TIP3   OH222616   5.678   4.160   1.141
 7551TIP3    H122617   5.654   4.068   1.131
 7551TIP3    H222618   5.728   4.181   1.062
 7552TIP3   OH222619   4.102   0.801   3.030
 7552TIP3    H122620   4.098   0.805   3.126
 7552TIP3    H222621   4.181   0.850   3.008
 7553TIP3   OH222622   6.865   1.244   2.507
 7553TIP3    H122623   6.930   1.223   2.574
 7553TIP3    H222624   6.809   1.167   2.501
 7554TIP3   OH222625   2.926   3.648   5.599
 7554TIP3    H122626   3.015   3.649   5.636
 7554TIP3    H222627   2.879   3.715   5.648
 7555TIP3   OH222628   7.204   0.804   5.606
 7555TIP3    H122629   7.248   0.801   5.691
 7555TIP3    H222630   7.158   0.888   5.605
 7556TIP3   OH222631   5.172   5.956   3.198
 7556TIP3    H122632   5.238   5.970   3.267
 7556TIP3    H222633   5.092   5.993   3.234
 7557TIP3   OH222634   2.581   2.281   4.186
 7557TIP3    H122635   2.530   2.214   4.140
 7557TIP3    H222636   2.518   2.324   4.244
 7558TIP3   OH222637   3.916   4.682   4.681
 7558TIP3    H122638   3.966   4.698   4.761
 7558TIP3    H222639   3.980   4.692   4.610
 7559TIP3   OH222640   1.379   0.014   5.530
 7559TIP3    H122641   1.323   0.091   5.519
 7559TIP3    H222642   1.418   0.025   5.617
 7560TIP3   OH222643   1.442   1.194   0.756
 7560TIP3    H122644   1.519   1.145   0.726
 7560TIP3    H222645   1.392   1.211   0.676
 7561TIP3   OH222646   3.269   2.417   4.243
 7561TIP3    H122647   3.273   2.389   4.334
 7561TIP3    H222648   3.221   2.499   4.246
 7562TIP3   OH222649   4.075   4.672   4.106
 7562TIP3    H122650   4.027   4.697   4.185
 7562TIP3    H222651   4.133   4.746   4.088
 7563TIP3   OH222652   2.241   2.383   4.864
 7563TIP3    H122653   2.268   2.292   4.856
 7563TIP3    H222654   2.288   2.429   4.794
 7564TIP3   OH222655   1.879   3.957   4.377
 7564TIP3    H122656   1.869   3.877   4.429
 7564TIP3    H222657   1.926   3.929   4.299
 7565TIP3   OH222658   5.038   3.832   2.819
 7565TIP3    H122659   5.030   3.824   2.724
 7565TIP3    H222660   5.083   3.915   2.833
 7566TIP3   OH222661   3.575   4.681   0.613
 7566TIP3    H122662   3.621   4.618   0.667
 7566TIP3    H222663   3.534   4.741   0.675
 7567TIP3   OH222664   1.025   4.240   2.675
 7567TIP3    H122665   0.947   4.285   2.708
 7567TIP3    H222666   1.096   4.273   2.730
 7568TIP3   OH222667   0.617   0.535   3.265
 7568TIP3    H122668   0.580   0.622   3.277
 7568TIP3    H222669   0.600   0.491   3.349
 7569TIP3   OH222670   5.875   4.829   1.783
 7569TIP3    H122671   5.782   4.807   1.785
 7569TIP3    H222672   5.877   4.923   1.766
 7570TIP3   OH222673   4.302   6.287   5.261
 7570TIP3    H122674   4.380   6.336   5.237
 7570TIP3    H222675   4.292   6.304   5.355
 7571TIP3   OH222676   1.838   0.452   0.118
 7571TIP3    H122677   1.889   0.490   0.047
 7571TIP3    H222678   1.903   0.426   0.183
 7572TIP3   OH222679   0.805   5.525   2.886
 7572TIP3    H122680   0.790   5.605   2.937
 7572TIP3    H222681   0.782   5.454   2.946
 7573TIP3   OH222682   0.755   5.312   3.045
 7573TIP3    H122683   0.764   5.220   3.020
 7573TIP3    H222684   0.668   5.318   3.084
 7574TIP3   OH222685   4.643   1.835   0.836
 7574TIP3    H122686   4.729   1.875   0.818
 7574TIP3    H222687   4.589   1.908   0.866
 7575TIP3   OH222688   2.664   6.513   4.487
 7575TIP3    H122689   2.721   6.559   4.548
 7575TIP3    H222690   2.597   6.577   4.463
 7576TIP3   OH222691   2.971   4.071   5.814
 7576TIP3    H122692   2.993   4.121   5.736
 7576TIP3    H222693   2.948   4.138   5.879
 7577TIP3   OH222694   2.143   0.353   4.508
 7577TIP3    H122695   2.236   0.350   4.485
 7577TIP3    H222696   2.133   0.437   4.554
 7578TIP3   OH222697   1.579   4.550   4.937
 7578TIP3    H122698   1.549   4.463   4.962
 7578TIP3    H222699   1.540   4.566   4.851
 7579TIP3   OH222700   4.694   0.704   0.526
 7579TIP3    H122701   4.643   0.724   0.448
 7579TIP3    H222702   4.643   0.637   0.571
 7580TIP3   OH222703   0.798   3.971   3.955
 7580TIP3    H122704   0.798   3.954   3.861
 7580TIP3    H222705   0.886   3.948   3.984
 7581TIP3   OH222706   6.137   5.428   0.276
 7581TIP3    H122707   6.136   5.425   0.180
 7581TIP3    H222708   6.223   5.392   0.299
 7582TIP3   OH222709   2.341   6.679   4.477
 7582TIP3    H122710   2.251   6.709   4.489
 7582TIP3    H222711   2.389   6.718   4.551
 7583TIP3   OH222712   0.047   2.793   3.371
 7583TIP3    H122713  -0.008   2.741   3.429
 7583TIP3    H222714   0.031   2.757   3.284
 7584TIP3   OH222715   5.120   6.195   2.003
 7584TIP3    H122716   5.131   6.235   1.916
 7584TIP3    H222717   5.056   6.251   2.047
 7585TIP3   OH222718   0.489   6.785   4.416
 7585TIP3    H122719   0.465   6.876   4.429
 7585TIP3    H222720   0.405   6.739   4.413
 7586TIP3   OH222721   4.828   2.563   0.917
 7586TIP3    H122722   4.807   2.650   0.884
 7586TIP3    H222723   4.849   2.577   1.009
 7587TIP3   OH222724   3.230   4.866   3.070
 7587TIP3    H122725   3.255   4.789   3.020
 7587TIP3    H222726   3.165   4.834   3.133
 7588TIP3   OH222727   3.084   6.604   1.827
 7588TIP3    H122728   3.077   6.578   1.919
 7588TIP3    H222729   3.055   6.695   1.826
 7589TIP3   OH222730   2.022   5.721   0.497
 7589TIP3    H122731   2.061   5.635   0.486
 7589TIP3    H222732   2.008   5.729   0.592
 7590TIP3   OH222733   3.600   0.227   3.810
 7590TIP3    H122734   3.649   0.232   3.893
 7590TIP3    H222735   3.514   0.264   3.832
 7591TIP3   OH222736   1.989   2.054   3.495
 7591TIP3    H122737   2.032   2.022   3.416
 7591TIP3    H222738   2.048   2.122   3.529
 7592TIP3   OH222739   6.382   1.915   0.770
 7592TIP3    H122740   6.461   1.863   0.780
 7592TIP3    H222741   6.316   1.853   0.738
 7593TIP3   OH222742   2.012   0.889   3.052
 7593TIP3    H122743   2.039   0.866   3.141
 7593TIP3    H222744   1.970   0.810   3.018
 7594TIP3   OH222745   6.259   6.484   1.281
 7594TIP3    H122746   6.351   6.493   1.258
 7594TIP3    H222747   6.216   6.558   1.237
 7595TIP3   OH222748   5.662   4.018   2.980
 7595TIP3    H122749   5.713   4.081   2.930
 7595TIP3    H222750   5.572   4.031   2.951
 7596TIP3   OH222751   4.933   3.768   1.301
 7596TIP3    H122752   4.961   3.688   1.346
 7596TIP3    H222753   4.848   3.788   1.340
 7597TIP3   OH222754   4.643   6.701   0.746
 7597TIP3    H122755   4.574   6.638   0.766
 7597TIP3    H222756   4.723   6.648   0.742
 7598TIP3   OH222757   0.139   1.219   5.032
 7598TIP3    H122758   0.087   1.298   5.046
 7598TIP3    H222759   0.170   1.195   5.119
 7599TIP3   OH222760   0.457   2.600   0.250
 7599TIP3    H122761   0.537   2.605   0.302
 7599TIP3    H222762   0.474   2.657   0.175
 7600TIP3   OH222763   3.034   6.171   3.436
 7600TIP3    H122764   2.977   6.199   3.507
 7600TIP3    H222765   3.002   6.084   3.412
 7601TIP3   OH222766   1.539   5.202   2.851
 7601TIP3    H122767   1.620   5.162   2.821
 7601TIP3    H222768   1.474   5.178   2.784
 7602TIP3   OH222769   6.636   2.899   4.329
 7602TIP3    H122770   6.718   2.923   4.286
 7602TIP3    H222771   6.655   2.818   4.375
 7603TIP3   OH222772   1.113   4.426   0.961
 7603TIP3    H122773   1.202   4.454   0.985
 7603TIP3    H222774   1.084   4.493   0.898
 7604TIP3   OH222775   6.534   0.504   2.659
 7604TIP3    H122776   6.533   0.477   2.567
 7604TIP3    H222777   6.627   0.505   2.682
 7605TIP3   OH222778   5.547   4.482   1.461
 7605TIP3    H122779   5.616   4.542   1.489
 7605TIP3    H222780   5.473   4.539   1.442
 7606TIP3   OH222781   0.223   4.231   0.485
 7606TIP3    H122782   0.146   4.261   0.437
 7606TIP3    H222783   0.210   4.136   0.494
 7607TIP3   OH222784   6.383   3.389   4.485
 7607TIP3    H122785   6.341   3.472   4.506
 7607TIP3    H222786   6.318   3.322   4.507
 7608TIP3   OH222787   5.891   3.989   5.130
 7608TIP3    H122788   5.952   4.018   5.198
 7608TIP3    H222789   5.910   3.895   5.120
 7609TIP3   OH222790   2.526   2.270   3.797
 7609TIP3    H122791   2.465   2.197   3.786
 7609TIP3    H222792   2.477   2.335   3.848
 7610TIP3   OH222793   6.356   4.599   2.334
 7610TIP3    H122794   6.434   4.558   2.372
 7610TIP3    H222795   6.323   4.533   2.273
 7611TIP3   OH222796   1.107   1.109   3.674
 7611TIP3    H122797   1.062   1.069   3.749
 7611TIP3    H222798   1.074   1.199   3.672
 7612TIP3   OH222799   3.711   5.264   2.315
 7612TIP3    H122800   3.719   5.186   2.369
 7612TIP3    H222801   3.800   5.284   2.287
 7613TIP3   OH222802   4.138   1.710   0.245
 7613TIP3    H122803   4.052   1.681   0.276
 7613TIP3    H222804   4.184   1.740   0.324
 7614TIP3   OH222805   6.473   0.071   5.095
 7614TIP3    H122806   6.496   0.159   5.067
 7614TIP3    H222807   6.398   0.047   5.041
 7615TIP3   OH222808   0.878   0.034   4.132
 7615TIP3    H122809   0.965  -0.004   4.144
 7615TIP3    H222810   0.858   0.020   4.039
 7616TIP3   OH222811   0.897   5.320   0.142
 7616TIP3    H122812   0.885   5.280   0.228
 7616TIP3    H222813   0.814   5.367   0.127
 7617TIP3   OH222814   5.912   3.327   4.261
 7617TIP3    H122815   5.821   3.350   4.243
 7617TIP3    H222816   5.924   3.241   4.220
 7618TIP3   OH222817   2.516   5.534   5.682
 7618TIP3    H122818   2.559   5.539   5.767
 7618TIP3    H222819   2.582   5.563   5.619
 7619TIP3   OH222820   2.032   3.253   3.194
 7619TIP3    H122821   1.998   3.282   3.109
 7619TIP3    H222822   2.096   3.185   3.171
 7620TIP3   OH222823   1.301   0.369   0.661
 7620TIP3    H122824   1.215   0.391   0.697
 7620TIP3    H222825   1.363   0.397   0.728
 7621TIP3   OH222826   5.331   2.661   0.774
 7621TIP3    H122827   5.324   2.683   0.867
 7621TIP3    H222828   5.320   2.745   0.729
 7622TIP3   OH222829   4.703   2.151   2.481
 7622TIP3    H122830   4.790   2.113   2.473
 7622TIP3    H222831   4.718   2.244   2.497
 7623TIP3   OH222832   1.300   2.385   4.999
 7623TIP3    H122833   1.301   2.293   4.973
 7623TIP3    H222834   1.218   2.419   4.963
 7624TIP3   OH222835   3.408   3.045   3.178
 7624TIP3    H122836   3.317   3.035   3.153
 7624TIP3    H222837   3.414   3.134   3.212
 7625TIP3   OH222838   1.386   1.150   0.168
 7625TIP3    H122839   1.385   1.232   0.217
 7625TIP3    H222840   1.373   1.082   0.234
 7626TIP3   OH222841   6.467   5.147   3.113
 7626TIP3    H122842   6.498   5.206   3.045
 7626TIP3    H222843   6.529   5.159   3.185
 7627TIP3   OH222844   3.020   6.797   5.334
 7627TIP3    H122845   3.027   6.865   5.267
 7627TIP3    H222846   2.995   6.718   5.286
 7628TIP3   OH222847   3.480   0.867   3.022
 7628TIP3    H122848   3.512   0.886   3.110
 7628TIP3    H222849   3.498   0.774   3.010
 7629TIP3   OH222850   2.801   6.072   4.359
 7629TIP3    H122851   2.802   6.151   4.414
 7629TIP3    H222852   2.736   6.091   4.291
 7630TIP3   OH222853   3.157   2.786   4.734
 7630TIP3    H122854   3.146   2.694   4.760
 7630TIP3    H222855   3.247   2.806   4.756
 7631TIP3   OH222856   6.875  -0.015   3.859
 7631TIP3    H122857   6.889   0.077   3.880
 7631TIP3    H222858   6.806  -0.015   3.792
 7632TIP3   OH222859   2.904   1.275   3.682
 7632TIP3    H122860   2.920   1.203   3.743
 7632TIP3    H222861   2.847   1.335   3.730
 7633TIP3   OH222862   5.909   4.896   1.258
 7633TIP3    H122863   5.933   4.852   1.176
 7633TIP3    H222864   5.880   4.825   1.315
 7634TIP3   OH222865   1.969   3.880   0.819
 7634TIP3    H122866   1.940   3.817   0.753
 7634TIP3    H222867   1.965   3.965   0.775
 7635TIP3   OH222868   1.051   2.132   5.239
 7635TIP3    H122869   1.029   2.223   5.259
 7635TIP3    H222870   0.997   2.081   5.300
 7636TIP3   OH222871   0.524   2.288   5.509
 7636TIP3    H122872   0.495   2.359   5.567
 7636TIP3    H222873   0.447   2.268   5.456
 7637TIP3   OH222874   5.365   2.179   0.884
 7637TIP3    H122875   5.375   2.101   0.829
 7637TIP3    H222876   5.452   2.218   0.887
 7638TIP3   OH222877   1.378   5.962   5.538
 7638TIP3    H122878   1.422   6.032   5.490
 7638TIP3    H222879   1.427   5.883   5.515
 7639TIP3   OH222880   4.125   3.460   1.397
 7639TIP3    H122881   4.145   3.553   1.396
 7639TIP3    H222882   4.211   3.418   1.397
 7640TIP3   OH222883   4.285   0.017   4.364
 7640TIP3    H122884   4.293   0.098   4.313
 7640TIP3    H222885   4.297  -0.053   4.300
 7641TIP3   OH222886   2.320   1.620   0.734
 7641TIP3    H122887   2.279   1.678   0.670
 7641TIP3    H222888   2.350   1.679   0.803
 7642TIP3   OH222889   0.477   6.473   5.812
 7642TIP3    H122890   0.555   6.418   5.810
 7642TIP3    H222891   0.449   6.477   5.721
 7643TIP3   OH222892  -0.014   3.723   1.445
 7643TIP3    H122893   0.027   3.641   1.472
 7643TIP3    H222894   0.052   3.790   1.463
 7644TIP3   OH222895   1.508   0.278   3.090
 7644TIP3    H122896   1.532   0.188   3.114
 7644TIP3    H222897   1.470   0.269   3.003
 7645TIP3   OH222898   1.376   5.191   4.835
 7645TIP3    H122899   1.459   5.183   4.882
 7645TIP3    H222900   1.318   5.128   4.877
 7646TIP3   OH222901   2.177   0.050   1.036
 7646TIP3    H122902   2.216   0.048   1.123
 7646TIP3    H222903   2.119   0.126   1.037
 7647TIP3   OH222904   2.792   4.155   4.455
 7647TIP3    H122905   2.828   4.101   4.384
 7647TIP3    H222906   2.868   4.178   4.509
 7648TIP3   OH222907   0.382   1.347   4.685
 7648TIP3    H122908   0.292   1.350   4.654
 7648TIP3    H222909   0.422   1.428   4.653
 7649TIP3   OH222910   5.116   5.245   4.273
 7649TIP3    H122911   5.140   5.253   4.365
 7649TIP3    H222912   5.031   5.289   4.266
 7650TIP3   OH222913   5.541   3.840   1.696
 7650TIP3    H122914   5.480   3.914   1.691
 7650TIP3    H222915   5.590   3.844   1.614
 7651TIP3   OH222916   3.448   5.166   0.612
 7651TIP3    H122917   3.408   5.180   0.698
 7651TIP3    H222918   3.402   5.091   0.576
 7652TIP3   OH222919   2.811   2.739   4.376
 7652TIP3    H122920   2.864   2.700   4.307
 7652TIP3    H222921   2.867   2.736   4.454
 7653TIP3   OH222922   5.112   4.216   5.243
 7653TIP3    H122923   5.150   4.159   5.176
 7653TIP3    H222924   5.187   4.257   5.285
 7654TIP3   OH222925   0.448   3.400   3.043
 7654TIP3    H122926   0.468   3.324   2.988
 7654TIP3    H222927   0.528   3.416   3.092
 7655TIP3   OH222928   0.076   1.137   2.026
 7655TIP3    H122929   0.032   1.081   2.090
 7655TIP3    H222930   0.165   1.102   2.020
 7656TIP3   OH222931   4.586   5.642   4.581
 7656TIP3    H122932   4.566   5.563   4.531
 7656TIP3    H222933   4.501   5.685   4.593
 7657TIP3   OH222934   5.632   3.468   5.630
 7657TIP3    H122935   5.696   3.530   5.666
 7657TIP3    H222936   5.580   3.440   5.705
 7658TIP3   OH222937   5.873   5.737   0.627
 7658TIP3    H122938   5.900   5.692   0.547
 7658TIP3    H222939   5.944   5.799   0.645
 7659TIP3   OH222940   4.480   2.731   3.605
 7659TIP3    H122941   4.436   2.811   3.632
 7659TIP3    H222942   4.431   2.701   3.528
 7660TIP3   OH222943   5.796   0.733   2.170
 7660TIP3    H122944   5.775   0.813   2.219
 7660TIP3    H222945   5.891   0.723   2.178
 7661TIP3   OH222946   4.444   6.316   1.877
 7661TIP3    H122947   4.382   6.357   1.938
 7661TIP3    H222948   4.398   6.316   1.793
 7662TIP3   OH222949   7.014   5.266   0.453
 7662TIP3    H122950   7.016   5.211   0.374
 7662TIP3    H222951   6.969   5.345   0.426
 7663TIP3   OH222952   1.763   6.454   2.582
 7663TIP3    H122953   1.754   6.374   2.529
 7663TIP3    H222954   1.687   6.507   2.557
 7664TIP3   OH222955   5.160   5.604   4.976
 7664TIP3    H122956   5.065   5.611   4.988
 7664TIP3    H222957   5.190   5.694   4.971
 7665TIP3   OH222958   5.419   1.489   0.501
 7665TIP3    H122959   5.331   1.516   0.528
 7665TIP3    H222960   5.404   1.427   0.430
 7666TIP3   OH222961   0.566   5.597   1.577
 7666TIP3    H122962   0.567   5.691   1.562
 7666TIP3    H222963   0.598   5.559   1.496
 7667TIP3   OH222964   2.522   3.367   1.825
 7667TIP3    H122965   2.577   3.371   1.747
 7667TIP3    H222966   2.537   3.451   1.869
 7668TIP3   OH222967   3.676   3.521   4.012
 7668TIP3    H122968   3.758   3.492   3.972
 7668TIP3    H222969   3.631   3.568   3.942
 7669TIP3   OH222970   4.822   2.268   5.085
 7669TIP3    H122971   4.837   2.174   5.084
 7669TIP3    H222972   4.727   2.277   5.094
 7670TIP3   OH222973   5.684   6.604   0.182
 7670TIP3    H122974   5.604   6.555   0.203
 7670TIP3    H222975   5.692   6.598   0.087
 7671TIP3   OH222976   5.989   1.522   1.284
 7671TIP3    H122977   5.955   1.437   1.256
 7671TIP3    H222978   6.078   1.503   1.315
 7672TIP3   OH222979   6.098   1.211   5.371
 7672TIP3    H122980   6.066   1.159   5.297
 7672TIP3    H222981   6.114   1.297   5.333
 7673TIP3   OH222982   1.990   3.196   0.544
 7673TIP3    H122983   1.912   3.189   0.490
 7673TIP3    H222984   2.007   3.107   0.574
 7674TIP3   OH222985   0.877   6.704   1.833
 7674TIP3    H122986   0.797   6.738   1.873
 7674TIP3    H222987   0.880   6.744   1.747
 7675TIP3   OH222988   6.335   2.664   3.175
 7675TIP3    H122989   6.310   2.578   3.141
 7675TIP3    H222990   6.282   2.726   3.125
 7676TIP3   OH222991   0.074   4.139   2.197
 7676TIP3    H122992   0.152   4.164   2.246
 7676TIP3    H222993   0.093   4.051   2.164
 7677TIP3   OH222994   5.371   1.749   5.230
 7677TIP3    H122995   5.399   1.839   5.213
 7677TIP3    H222996   5.349   1.714   5.144
 7678TIP3   OH222997   3.800   3.590   3.237
 7678TIP3    H122998   3.725   3.551   3.190
 7678TIP3    H222999   3.844   3.515   3.277
 7679TIP3   OH223000   6.899   1.696   1.083
 7679TIP3    H123001   6.947   1.732   1.157
 7679TIP3    H223002   6.819   1.660   1.121
 7680TIP3   OH223003   4.408   6.071   4.036
 7680TIP3    H123004   4.365   6.058   3.952
 7680TIP3    H223005   4.470   6.142   4.021
 7681TIP3   OH223006   0.614   4.134   1.499
 7681TIP3    H123007   0.664   4.216   1.508
 7681TIP3    H223008   0.560   4.130   1.578
 7682TIP3   OH223009   2.895   6.162   4.045
 7682TIP3    H123010   2.935   6.139   4.128
 7682TIP3    H223011   2.803   6.176   4.066
 7683TIP3   OH223012   6.761   1.711   0.606
 7683TIP3    H123013   6.693   1.711   0.539
 7683TIP3    H223014   6.731   1.776   0.670
 7684TIP3   OH223015   2.541   1.667   4.397
 7684TIP3    H123016   2.598   1.702   4.329
 7684TIP3    H223017   2.580   1.698   4.479
 7685TIP3   OH223018   7.168   4.566   3.292
 7685TIP3    H123019   7.172   4.497   3.226
 7685TIP3    H223020   7.254   4.607   3.289
 7686TIP3   OH223021   1.771   2.684   0.293
 7686TIP3    H123022   1.767   2.649   0.204
 7686TIP3    H223023   1.763   2.608   0.349
 7687TIP3   OH223024   4.282   4.734   1.539
 7687TIP3    H123025   4.222   4.678   1.588
 7687TIP3    H223026   4.294   4.690   1.455
 7688TIP3   OH223027   4.664   6.766   4.441
 7688TIP3    H123028   4.619   6.839   4.398
 7688TIP3    H223029   4.633   6.688   4.394
 7689TIP3   OH223030   1.725   4.339   0.412
 7689TIP3    H123031   1.782   4.320   0.337
 7689TIP3    H223032   1.732   4.434   0.424
 7690TIP3   OH223033   6.434   0.827   0.148
 7690TIP3    H123034   6.397   0.865   0.069
 7690TIP3    H223035   6.433   0.899   0.212
 7691TIP3   OH223036   3.490   1.289   5.602
 7691TIP3    H123037   3.467   1.307   5.694
 7691TIP3    H223038   3.426   1.224   5.574
 7692TIP3   OH223039   6.856   0.523   2.374
 7692TIP3    H123040   6.786   0.557   2.319
 7692TIP3    H223041   6.930   0.582   2.358
 7693TIP3   OH223042   1.295   2.917   2.185
 7693TIP3    H123043   1.282   2.822   2.179
 7693TIP3    H223044   1.356   2.929   2.257
 7694TIP3   OH223045   7.041   1.986   3.690
 7694TIP3    H123046   7.108   1.918   3.695
 7694TIP3    H223047   6.959   1.938   3.679
 7695TIP3   OH223048   1.143   1.685   3.016
 7695TIP3    H123049   1.143   1.609   3.075
 7695TIP3    H223050   1.054   1.687   2.981
 7696TIP3   OH223051   2.122   5.427   4.980
 7696TIP3    H123052   2.106   5.485   4.906
 7696TIP3    H223053   2.209   5.451   5.012
 7697TIP3   OH223054   3.697   4.572   2.791
 7697TIP3    H123055   3.620   4.515   2.783
 7697TIP3    H223056   3.695   4.602   2.882
 7698TIP3   OH223057   2.459   0.127   5.134
 7698TIP3    H123058   2.492   0.101   5.220
 7698TIP3    H223059   2.377   0.172   5.152
 7699TIP3   OH223060   3.108   3.492   3.437
 7699TIP3    H123061   3.080   3.557   3.373
 7699TIP3    H223062   3.120   3.542   3.518
 7700TIP3   OH223063   6.957   5.842   4.086
 7700TIP3    H123064   6.898   5.788   4.139
 7700TIP3    H223065   6.905   5.866   4.009
 7701TIP3   OH223066   3.292   4.247   5.684
 7701TIP3    H123067   3.207   4.204   5.672
 7701TIP3    H223068   3.342   4.185   5.737
 7702TIP3   OH223069   4.351   2.227   0.276
 7702TIP3    H123070   4.296   2.283   0.220
 7702TIP3    H223071   4.441   2.252   0.254
 7703TIP3   OH223072   4.224   4.804   0.511
 7703TIP3    H123073   4.234   4.897   0.490
 7703TIP3    H223074   4.156   4.773   0.451
 7704TIP3   OH223075   0.013   4.419   2.807
 7704TIP3    H123076   0.074   4.394   2.876
 7704TIP3    H223077   0.027   4.513   2.795
 7705TIP3   OH223078   5.250   2.463   5.037
 7705TIP3    H123079   5.313   2.461   5.109
 7705TIP3    H223080   5.171   2.500   5.076
 7706TIP3   OH223081   4.098   1.000   4.654
 7706TIP3    H123082   4.110   0.907   4.670
 7706TIP3    H223083   4.129   1.043   4.734
 7707TIP3   OH223084   3.825   1.218   5.809
 7707TIP3    H123085   3.792   1.299   5.768
 7707TIP3    H223086   3.746   1.169   5.831
 7708TIP3   OH223087   3.882   3.075   3.255
 7708TIP3    H123088   3.977   3.089   3.255
 7708TIP3    H223089   3.868   3.003   3.316
 7709TIP3   OH223090   1.513   6.322   5.013
 7709TIP3    H123091   1.533   6.402   5.061
 7709TIP3    H223092   1.456   6.351   4.942
 7710TIP3   OH223093   5.601   5.720   1.572
 7710TIP3    H123094   5.672   5.658   1.586
 7710TIP3    H223095   5.640   5.788   1.516
 7711TIP3   OH223096   0.073   3.489   1.539
 7711TIP3    H123097   0.056   3.473   1.632
 7711TIP3    H223098   0.165   3.465   1.526
 7712TIP3   OH223099   3.584   5.083   2.076
 7712TIP3    H123100   3.538   5.074   2.160
 7712TIP3    H223101   3.520   5.126   2.019
 7713TIP3   OH223102   3.704   1.543   0.597
 7713TIP3    H123103   3.718   1.618   0.539
 7713TIP3    H223104   3.624   1.502   0.563
 7714TIP3   OH223105   5.820   0.925   4.023
 7714TIP3    H123106   5.776   0.841   4.039
 7714TIP3    H223107   5.761   0.970   3.962
 7715TIP3   OH223108   6.793   0.999   3.683
 7715TIP3    H123109   6.875   0.950   3.674
 7715TIP3    H223110   6.771   0.992   3.775
 7716TIP3   OH223111   3.451   2.032   1.945
 7716TIP3    H123112   3.424   1.970   2.013
 7716TIP3    H223113   3.547   2.027   1.945
 7717TIP3   OH223114   5.872   5.394   0.267
 7717TIP3    H123115   5.968   5.399   0.271
 7717TIP3    H223116   5.842   5.454   0.336
 7718TIP3   OH223117   3.584   2.186   1.636
 7718TIP3    H123118   3.581   2.090   1.634
 7718TIP3    H223119   3.493   2.213   1.627
 7719TIP3   OH223120   1.292   2.813   1.685
 7719TIP3    H123121   1.308   2.783   1.775
 7719TIP3    H223122   1.197   2.823   1.681
 7720TIP3   OH223123   4.388   4.631   0.822
 7720TIP3    H123124   4.476   4.639   0.784
 7720TIP3    H223125   4.358   4.545   0.793
 7721TIP3   OH223126   3.106   3.021   3.993
 7721TIP3    H123127   3.113   3.009   3.898
 7721TIP3    H223128   3.180   2.972   4.028
 7722TIP3   OH223129   4.142   3.062   3.345
 7722TIP3    H123130   4.235   3.038   3.347
 7722TIP3    H223131   4.128   3.110   3.426
 7723TIP3   OH223132   1.039   2.921  -0.020
 7723TIP3    H123133   1.018   2.888   0.067
 7723TIP3    H223134   1.036   3.016  -0.011
 7724TIP3   OH223135   1.194   3.836   4.819
 7724TIP3    H123136   1.151   3.846   4.904
 7724TIP3    H223137   1.207   3.741   4.810
 7725TIP3   OH223138   2.768   0.859   3.662
 7725TIP3    H123139   2.857   0.890   3.676
 7725TIP3    H223140   2.745   0.816   3.745
 7726TIP3   OH223141   4.615   3.250   1.156
 7726TIP3    H123142   4.542   3.305   1.183
 7726TIP3    H223143   4.618   3.180   1.221
 7727TIP3   OH223144   4.753   0.547   4.985
 7727TIP3    H123145   4.773   0.577   5.074
 7727TIP3    H223146   4.714   0.460   4.998
 7728TIP3   OH223147   1.264   6.084   1.092
 7728TIP3    H123148   1.247   6.042   1.177
 7728TIP3    H223149   1.329   6.152   1.111
 7729TIP3   OH223150   2.988   4.166   3.831
 7729TIP3    H123151   3.065   4.189   3.779
 7729TIP3    H223152   3.018   4.172   3.922
 7730TIP3   OH223153   0.960   1.189   2.070
 7730TIP3    H123154   0.882   1.197   2.015
 7730TIP3    H223155   0.938   1.238   2.149
 7731TIP3   OH223156   6.262   5.049   2.960
 7731TIP3    H123157   6.331   5.092   3.009
 7731TIP3    H223158   6.273   4.956   2.977
 7732TIP3   OH223159   1.299   2.539   5.252
 7732TIP3    H123160   1.251   2.500   5.178
 7732TIP3    H223161   1.230   2.570   5.311
 7733TIP3   OH223162   0.747   3.832   5.470
 7733TIP3    H123163   0.736   3.862   5.560
 7733TIP3    H223164   0.831   3.868   5.443
 7734TIP3   OH223165   5.041   0.182   1.959
 7734TIP3    H123166   5.005   0.122   1.893
 7734TIP3    H223167   5.024   0.269   1.924
 7735TIP3   OH223168   5.949   4.450   2.582
 7735TIP3    H123169   6.003   4.527   2.563
 7735TIP3    H223170   5.861   4.486   2.598
 7736TIP3   OH223171   1.168   4.113   4.386
 7736TIP3    H123172   1.201   4.039   4.336
 7736TIP3    H223173   1.175   4.086   4.478
 7737TIP3   OH223174   5.104   1.406   5.885
 7737TIP3    H123175   5.012   1.429   5.873
 7737TIP3    H223176   5.146   1.488   5.912
 7738TIP3   OH223177   6.246   2.774   1.945
 7738TIP3    H123178   6.194   2.849   1.917
 7738TIP3    H223179   6.294   2.805   2.022
 7739TIP3   OH223180   6.954   6.582   3.435
 7739TIP3    H123181   7.016   6.565   3.506
 7739TIP3    H223182   6.892   6.645   3.472
 7740TIP3   OH223183   6.968   3.976   1.904
 7740TIP3    H123184   7.036   4.027   1.859
 7740TIP3    H223185   7.007   3.890   1.917
 7741TIP3   OH223186   1.145   0.647   5.806
 7741TIP3    H123187   1.163   0.567   5.855
 7741TIP3    H223188   1.210   0.646   5.735
 7742TIP3   OH223189   1.929   2.557   4.591
 7742TIP3    H123190   1.965   2.563   4.680
 7742TIP3    H223191   1.865   2.627   4.586
 7743TIP3   OH223192   4.597   3.821   2.832
 7743TIP3    H123193   4.619   3.914   2.829
 7743TIP3    H223194   4.513   3.814   2.788
 7744TIP3   OH223195   6.962   3.905   0.243
 7744TIP3    H123196   6.878   3.921   0.288
 7744TIP3    H223197   6.940   3.846   0.172
 7745TIP3   OH223198   3.196   5.560   4.433
 7745TIP3    H123199   3.163   5.626   4.373
 7745TIP3    H223200   3.139   5.485   4.420
 7746TIP3   OH223201   0.911   5.828   4.994
 7746TIP3    H123202   0.967   5.850   5.068
 7746TIP3    H223203   0.879   5.912   4.962
 7747TIP3   OH223204   5.564   2.688   4.903
 7747TIP3    H123205   5.645   2.720   4.864
 7747TIP3    H223206   5.584   2.678   4.996
 7748TIP3   OH223207   6.983   2.737   2.538
 7748TIP3    H123208   6.909   2.717   2.480
 7748TIP3    H223209   6.958   2.698   2.623
 7749TIP3   OH223210   4.611   1.900   1.416
 7749TIP3    H123211   4.574   1.815   1.390
 7749TIP3    H223212   4.549   1.933   1.481
 7750TIP3   OH223213   4.453   4.952   0.765
 7750TIP3    H123214   4.534   4.990   0.801
 7750TIP3    H223215   4.417   4.900   0.837
 7751TIP3   OH223216   4.469   6.535   5.358
 7751TIP3    H123217   4.513   6.475   5.298
 7751TIP3    H223218   4.502   6.622   5.334
 7752TIP3   OH223219   1.200   5.389   4.507
 7752TIP3    H123220   1.164   5.473   4.539
 7752TIP3    H223221   1.156   5.323   4.561
 7753TIP3   OH223222   3.979   5.065   3.254
 7753TIP3    H123223   3.935   5.075   3.339
 7753TIP3    H223224   3.911   5.030   3.197
 7754TIP3   OH223225   5.359   3.239   2.582
 7754TIP3    H123226   5.276   3.200   2.608
 7754TIP3    H223227   5.422   3.168   2.588
 7755TIP3   OH223228   4.515   1.449   1.217
 7755TIP3    H123229   4.526   1.475   1.125
 7755TIP3    H223230   4.552   1.522   1.267
 7756TIP3   OH223231   1.985   4.666   1.772
 7756TIP3    H123232   1.958   4.575   1.789
 7756TIP3    H223233   2.042   4.660   1.695
 7757TIP3   OH223234   2.035   0.979   4.579
 7757TIP3    H123235   2.065   0.935   4.658
 7757TIP3    H223236   2.081   1.063   4.579
 7758TIP3   OH223237   5.004   5.118   3.893
 7758TIP3    H123238   4.972   5.064   3.820
 7758TIP3    H223239   5.091   5.145   3.866
 7759TIP3   OH223240   0.407   1.431   2.903
 7759TIP3    H123241   0.456   1.513   2.910
 7759TIP3    H223242   0.365   1.436   2.817
 7760TIP3   OH223243   5.415   1.423   2.317
 7760TIP3    H123244   5.390   1.426   2.409
 7760TIP3    H223245   5.381   1.339   2.286
 7761TIP3   OH223246   1.195   4.954   4.610
 7761TIP3    H123247   1.275   4.972   4.560
 7761TIP3    H223248   1.125   4.954   4.544
 7762TIP3   OH223249   4.503   0.117   3.782
 7762TIP3    H123250   4.539   0.109   3.871
 7762TIP3    H223251   4.545   0.046   3.733
 7763TIP3   OH223252   4.884   6.546   2.477
 7763TIP3    H123253   4.818   6.488   2.438
 7763TIP3    H223254   4.948   6.487   2.517
 7764TIP3   OH223255   5.021   1.602   2.451
 7764TIP3    H123256   5.073   1.526   2.477
 7764TIP3    H223257   5.076   1.647   2.386
 7765TIP3   OH223258   2.010   2.940   0.765
 7765TIP3    H123259   2.090   2.934   0.714
 7765TIP3    H223260   2.000   2.854   0.806
 7766TIP3   OH223261   4.352   1.887   5.119
 7766TIP3    H123262   4.265   1.927   5.122
 7766TIP3    H223263   4.339   1.806   5.071
 7767TIP3   OH223264   1.766   6.115   0.076
 7767TIP3    H123265   1.688   6.137   0.126
 7767TIP3    H223266   1.838   6.156   0.124
 7768TIP3   OH223267   4.400   5.638   2.219
 7768TIP3    H123268   4.423   5.653   2.127
 7768TIP3    H223269   4.478   5.600   2.257
 7769TIP3   OH223270   5.812   6.093   1.887
 7769TIP3    H123271   5.894   6.044   1.886
 7769TIP3    H223272   5.835   6.180   1.855
 7770TIP3   OH223273   0.258   4.860   4.769
 7770TIP3    H123274   0.264   4.919   4.693
 7770TIP3    H223275   0.244   4.918   4.843
 7771TIP3   OH223276   2.328   5.677   2.599
 7771TIP3    H123277   2.246   5.686   2.550
 7771TIP3    H223278   2.325   5.747   2.664
 7772TIP3   OH223279   3.081   6.235   4.246
 7772TIP3    H123280   3.134   6.252   4.169
 7772TIP3    H223281   3.100   6.143   4.268
 7773TIP3   OH223282   6.767   0.998   2.629
 7773TIP3    H123283   6.673   1.014   2.631
 7773TIP3    H223284   6.804   1.068   2.684
 7774TIP3   OH223285   6.414   6.176   5.536
 7774TIP3    H123286   6.472   6.115   5.490
 7774TIP3    H223287   6.374   6.228   5.466
 7775TIP3   OH223288   1.062   6.588   5.597
 7775TIP3    H123289   1.038   6.634   5.517
 7775TIP3    H223290   1.106   6.653   5.651
 7776TIP3   OH223291   0.075   6.119   3.904
 7776TIP3    H123292   0.122   6.085   3.828
 7776TIP3    H223293   0.124   6.085   3.979
 7777TIP3   OH223294   0.945   5.233   3.460
 7777TIP3    H123295   0.962   5.253   3.369
 7777TIP3    H223296   0.860   5.188   3.460
 7778TIP3   OH223297   5.583   0.611   5.842
 7778TIP3    H123298   5.660   0.669   5.841
 7778TIP3    H223299   5.542   0.624   5.756
 7779TIP3   OH223300   5.625   1.323   3.683
 7779TIP3    H123301   5.531   1.342   3.685
 7779TIP3    H223302   5.659   1.376   3.611
 7780TIP3   OH223303   0.459   1.926   1.967
 7780TIP3    H123304   0.496   1.839   1.953
 7780TIP3    H223305   0.377   1.925   1.919
 7781TIP3   OH223306   2.292   0.315   3.119
 7781TIP3    H123307   2.197   0.303   3.126
 7781TIP3    H223308   2.328   0.228   3.138
 7782TIP3   OH223309   6.323   5.700   3.726
 7782TIP3    H123310   6.245   5.684   3.672
 7782TIP3    H223311   6.343   5.615   3.765
 7783TIP3   OH223312   1.508   4.223   1.455
 7783TIP3    H123313   1.581   4.275   1.488
 7783TIP3    H223314   1.437   4.239   1.518
 7784TIP3   OH223315   6.699   5.002   4.139
 7784TIP3    H123316   6.627   4.976   4.196
 7784TIP3    H223317   6.677   4.967   4.054
 7785TIP3   OH223318   3.336   6.394   4.940
 7785TIP3    H123319   3.312   6.487   4.942
 7785TIP3    H223320   3.255   6.348   4.962
 7786TIP3   OH223321   6.753   0.362   5.642
 7786TIP3    H123322   6.677   0.417   5.620
 7786TIP3    H223323   6.793   0.406   5.718
 7787TIP3   OH223324   1.430   4.131   2.892
 7787TIP3    H123325   1.400   4.133   2.982
 7787TIP3    H223326   1.520   4.163   2.896
 7788TIP3   OH223327   2.015   0.133   4.104
 7788TIP3    H123328   1.933   0.126   4.154
 7788TIP3    H223329   2.083   0.135   4.171
 7789TIP3   OH223330   5.954   6.483   2.940
 7789TIP3    H123331   5.969   6.437   3.023
 7789TIP3    H223332   5.942   6.413   2.876
 7790TIP3   OH223333   4.863   0.196   4.890
 7790TIP3    H123334   4.850   0.203   4.985
 7790TIP3    H223335   4.952   0.160   4.881
 7791TIP3   OH223336   6.097   6.529   5.853
 7791TIP3    H123337   6.192   6.535   5.839
 7791TIP3    H223338   6.069   6.456   5.798
 7792TIP3   OH223339   3.386   0.111   4.144
 7792TIP3    H123340   3.434   0.051   4.087
 7792TIP3    H223341   3.294   0.088   4.131
 7793TIP3   OH223342   2.491   6.321   2.846
 7793TIP3    H123343   2.426   6.389   2.865
 7793TIP3    H223344   2.525   6.344   2.759
 7794TIP3   OH223345   6.558   3.607   2.371
 7794TIP3    H123346   6.500   3.559   2.313
 7794TIP3    H223347   6.645   3.571   2.354
 7795TIP3   OH223348   2.452   1.155   4.483
 7795TIP3    H123349   2.420   1.211   4.554
 7795TIP3    H223350   2.457   1.214   4.408
 7796TIP3   OH223351   5.810   6.175   3.881
 7796TIP3    H123352   5.753   6.249   3.901
 7796TIP3    H223353   5.875   6.175   3.951
 7797TIP3   OH223354   3.428   6.088   3.349
 7797TIP3    H123355   3.413   6.034   3.426
 7797TIP3    H223356   3.385   6.041   3.278
 7798TIP3   OH223357   0.994   3.835   0.181
 7798TIP3    H123358   1.001   3.772   0.253
 7798TIP3    H223359   0.972   3.918   0.223
 7799TIP3   OH223360   1.263   5.519   5.107
 7799TIP3    H123361   1.334   5.466   5.143
 7799TIP3    H223362   1.183   5.471   5.132
 7800TIP3   OH223363   0.590   0.788   0.765
 7800TIP3    H123364   0.596   0.866   0.820
 7800TIP3    H223365   0.634   0.813   0.683
 7801TIP3   OH223366   5.235   1.130   3.867
 7801TIP3    H123367   5.226   1.159   3.776
 7801TIP3    H223368   5.178   1.190   3.916
 7802TIP3   OH223369   2.436   4.750   3.210
 7802TIP3    H123370   2.478   4.817   3.158
 7802TIP3    H223371   2.357   4.727   3.161
 7803TIP3   OH223372   4.157   6.729   0.309
 7803TIP3    H123373   4.077   6.762   0.267
 7803TIP3    H223374   4.228   6.770   0.261
 7804TIP3   OH223375   3.209   1.788   5.166
 7804TIP3    H123376   3.194   1.777   5.073
 7804TIP3    H223377   3.175   1.876   5.185
 7805TIP3   OH223378   4.381   4.960   3.140
 7805TIP3    H123379   4.306   5.019   3.143
 7805TIP3    H223380   4.349   4.882   3.094
 7806TIP3   OH223381   4.723   0.739   3.248
 7806TIP3    H123382   4.682   0.812   3.202
 7806TIP3    H223383   4.816   0.763   3.252
 7807TIP3   OH223384   4.699   6.687   2.986
 7807TIP3    H123385   4.741   6.649   2.908
 7807TIP3    H223386   4.746   6.648   3.059
 7808TIP3   OH223387   4.748   2.158   5.380
 7808TIP3    H123388   4.841   2.177   5.373
 7808TIP3    H223389   4.737   2.073   5.338
 7809TIP3   OH223390   2.488   3.321   4.096
 7809TIP3    H123391   2.536   3.370   4.029
 7809TIP3    H223392   2.397   3.321   4.065
 7810TIP3   OH223393   0.492   3.568   4.871
 7810TIP3    H123394   0.428   3.593   4.937
 7810TIP3    H223395   0.475   3.627   4.797
 7811TIP3   OH223396   6.309   1.538   2.935
 7811TIP3    H123397   6.307   1.611   2.873
 7811TIP3    H223398   6.386   1.556   2.990
 7812TIP3   OH223399   1.479   4.754   0.143
 7812TIP3    H123400   1.384   4.763   0.153
 7812TIP3    H223401   1.493   4.661   0.126
 7813TIP3   OH223402   3.921   2.738   5.001
 7813TIP3    H123403   3.949   2.808   4.944
 7813TIP3    H223404   3.825   2.743   5.001
 7814TIP3   OH223405   1.336   5.717   1.854
 7814TIP3    H123406   1.311   5.747   1.766
 7814TIP3    H223407   1.409   5.657   1.839
 7815TIP3   OH223408   4.785   3.726   5.307
 7815TIP3    H123409   4.838   3.802   5.328
 7815TIP3    H223410   4.746   3.745   5.222
 7816TIP3   OH223411   5.298   0.343   0.634
 7816TIP3    H123412   5.301   0.370   0.542
 7816TIP3    H223413   5.390   0.341   0.661
 7817TIP3   OH223414   3.299   5.810   4.601
 7817TIP3    H123415   3.256   5.751   4.538
 7817TIP3    H223416   3.392   5.786   4.596
 7818TIP3   OH223417   1.093   5.429   1.849
 7818TIP3    H123418   1.148   5.395   1.920
 7818TIP3    H223419   1.049   5.505   1.887
 7819TIP3   OH223420   1.169   3.961   2.176
 7819TIP3    H123421   1.222   3.882   2.186
 7819TIP3    H223422   1.115   3.964   2.255
 7820TIP3   OH223423   5.046   5.010   2.961
 7820TIP3    H123424   5.079   4.977   3.044
 7820TIP3    H223425   5.083   5.098   2.953
 7821TIP3   OH223426   7.051   0.908   3.941
 7821TIP3    H123427   7.041   1.001   3.959
 7821TIP3    H223428   7.045   0.867   4.028
 7822TIP3   OH223429   0.318   2.749   4.300
 7822TIP3    H123430   0.368   2.680   4.257
 7822TIP3    H223431   0.304   2.814   4.232
 7823TIP3   OH223432   5.648   4.214   1.433
 7823TIP3    H123433   5.716   4.214   1.365
 7823TIP3    H223434   5.611   4.303   1.429
 7824TIP3   OH223435   3.651   2.553   0.060
 7824TIP3    H123436   3.618   2.467   0.087
 7824TIP3    H223437   3.678   2.540  -0.031
 7825TIP3   OH223438   1.225   1.918   4.349
 7825TIP3    H123439   1.211   1.987   4.414
 7825TIP3    H223440   1.241   1.964   4.267
 7826TIP3   OH223441   0.673   6.652   5.593
 7826TIP3    H123442   0.589   6.613   5.618
 7826TIP3    H223443   0.717   6.585   5.541
 7827TIP3   OH223444   3.194   5.308   5.065
 7827TIP3    H123445   3.164   5.326   5.154
 7827TIP3    H223446   3.187   5.213   5.056
 7828TIP3   OH223447   0.782   5.037   3.554
 7828TIP3    H123448   0.799   5.017   3.462
 7828TIP3    H223449   0.852   4.991   3.602
 7829TIP3   OH223450   0.206   2.305   1.297
 7829TIP3    H123451   0.235   2.382   1.249
 7829TIP3    H223452   0.159   2.252   1.233
 7830TIP3   OH223453   4.083   6.761   5.692
 7830TIP3    H123454   4.067   6.668   5.674
 7830TIP3    H223455   4.016   6.807   5.642
 7831TIP3   OH223456   5.007   5.680   1.369
 7831TIP3    H123457   5.057   5.599   1.379
 7831TIP3    H223458   4.982   5.681   1.276
 7832TIP3   OH223459   5.627   5.575   5.161
 7832TIP3    H123460   5.572   5.533   5.095
 7832TIP3    H223461   5.600   5.537   5.244
 7833TIP3   OH223462   0.897   1.625   2.926
 7833TIP3    H123463   0.869   1.614   3.017
 7833TIP3    H223464   0.821   1.663   2.882
 7834TIP3   OH223465   1.500   0.087   3.324
 7834TIP3    H123466   1.426   0.129   3.279
 7834TIP3    H223467   1.506   0.134   3.407
 7835TIP3   OH223468   4.385   2.367   5.622
 7835TIP3    H123469   4.424   2.314   5.553
 7835TIP3    H223470   4.340   2.438   5.575
 7836TIP3   OH223471   1.558   0.357   4.596
 7836TIP3    H123472   1.589   0.405   4.520
 7836TIP3    H223473   1.480   0.310   4.565
 7837TIP3   OH223474   5.098   3.267   2.183
 7837TIP3    H123475   5.079   3.251   2.090
 7837TIP3    H223476   5.055   3.196   2.229
 7838TIP3   OH223477   0.597   1.122   3.205
 7838TIP3    H123478   0.675   1.116   3.149
 7838TIP3    H223479   0.525   1.094   3.148
 7839TIP3   OH223480   4.889   4.292   5.093
 7839TIP3    H123481   4.913   4.336   5.012
 7839TIP3    H223482   4.973   4.270   5.133
 7840TIP3   OH223483   6.160   2.637   0.888
 7840TIP3    H123484   6.067   2.648   0.907
 7840TIP3    H223485   6.201   2.621   0.973
 7841TIP3   OH223486   3.552   2.100   5.317
 7841TIP3    H123487   3.495   2.065   5.385
 7841TIP3    H223488   3.536   2.194   5.318
 7842TIP3   OH223489   0.223   4.229   4.867
 7842TIP3    H123490   0.206   4.202   4.777
 7842TIP3    H223491   0.136   4.252   4.902
 7843TIP3   OH223492   7.194   5.366   3.864
 7843TIP3    H123493   7.168   5.297   3.803
 7843TIP3    H223494   7.280   5.394   3.834
 7844TIP3   OH223495   3.484   2.189   4.998
 7844TIP3    H123496   3.578   2.171   4.992
 7844TIP3    H223497   3.473   2.229   5.084
 7845TIP3   OH223498   3.209   4.809   1.664
 7845TIP3    H123499   3.244   4.721   1.646
 7845TIP3    H223500   3.165   4.801   1.748
 7846TIP3   OH223501   2.623   3.543   2.666
 7846TIP3    H123502   2.699   3.489   2.684
 7846TIP3    H223503   2.589   3.567   2.753
 7847TIP3   OH223504   3.434   0.259   5.412
 7847TIP3    H123505   3.517   0.271   5.459
 7847TIP3    H223506   3.455   0.281   5.321
 7848TIP3   OH223507   5.358   5.027   1.684
 7848TIP3    H123508   5.345   5.051   1.776
 7848TIP3    H223509   5.274   5.043   1.643
 7849TIP3   OH223510   4.768   5.069   0.587
 7849TIP3    H123511   4.852   5.076   0.542
 7849TIP3    H223512   4.719   5.005   0.536
 7850TIP3   OH223513   6.561   6.382   5.667
 7850TIP3    H123514   6.488   6.322   5.661
 7850TIP3    H223515   6.632   6.339   5.619
 7851TIP3   OH223516   1.423   3.217   5.439
 7851TIP3    H123517   1.358   3.187   5.375
 7851TIP3    H223518   1.494   3.153   5.433
 7852TIP3   OH223519   4.003   0.368   4.694
 7852TIP3    H123520   3.980   0.315   4.617
 7852TIP3    H223521   4.062   0.436   4.659
 7853TIP3   OH223522   3.507   2.671   5.769
 7853TIP3    H123523   3.592   2.709   5.744
 7853TIP3    H223524   3.506   2.585   5.728
 7854TIP3   OH223525   0.106   2.103   3.424
 7854TIP3    H123526   0.051   2.181   3.434
 7854TIP3    H223527   0.103   2.059   3.509
 7855TIP3   OH223528   4.603   6.184   0.981
 7855TIP3    H123529   4.551   6.258   1.014
 7855TIP3    H223530   4.669   6.169   1.048
 7856TIP3   OH223531   5.547   0.469   5.203
 7856TIP3    H123532   5.619   0.520   5.240
 7856TIP3    H223533   5.537   0.394   5.262
 7857TIP3   OH223534   6.537   3.556   0.188
 7857TIP3    H123535   6.469   3.623   0.178
 7857TIP3    H223536   6.574   3.546   0.101
 7858TIP3   OH223537   1.914   6.220   1.468
 7858TIP3    H123538   1.829   6.237   1.427
 7858TIP3    H223539   1.974   6.209   1.394
 7859TIP3   OH223540   3.785   4.869   5.220
 7859TIP3    H123541   3.718   4.830   5.164
 7859TIP3    H223542   3.776   4.963   5.208
 7860TIP3   OH223543   5.716   0.494   4.852
 7860TIP3    H123544   5.767   0.499   4.771
 7860TIP3    H223545   5.756   0.422   4.901
 7861TIP3   OH223546   0.341   1.302   3.288
 7861TIP3    H123547   0.318   1.395   3.291
 7861TIP3    H223548   0.331   1.273   3.379
 7862TIP3   OH223549   6.441   3.238   1.914
 7862TIP3    H123550   6.495   3.317   1.913
 7862TIP3    H223551   6.405   3.231   1.826
 7863TIP3   OH223552   2.285   6.530   1.034
 7863TIP3    H123553   2.295   6.435   1.040
 7863TIP3    H223554   2.337   6.565   1.106
 7864TIP3   OH223555   5.532   1.934   5.753
 7864TIP3    H123556   5.580   2.013   5.726
 7864TIP3    H223557   5.582   1.861   5.717
 7865TIP3   OH223558   5.805   3.737   5.586
 7865TIP3    H123559   5.877   3.790   5.552
 7865TIP3    H223560   5.847   3.658   5.620
 7866TIP3   OH223561   3.136   5.452   1.163
 7866TIP3    H123562   3.090   5.521   1.114
 7866TIP3    H223563   3.219   5.442   1.117
 7867TIP3   OH223564   3.682   1.370   3.428
 7867TIP3    H123565   3.704   1.375   3.335
 7867TIP3    H223566   3.668   1.276   3.445
 7868TIP3   OH223567   3.883   1.323   3.788
 7868TIP3    H123568   3.829   1.400   3.771
 7868TIP3    H223569   3.953   1.328   3.723
 7869TIP3   OH223570   0.069   6.602   4.912
 7869TIP3    H123571   0.112   6.684   4.887
 7869TIP3    H223572  -0.016   6.605   4.869
 7870TIP3   OH223573   0.363   6.222   1.863
 7870TIP3    H123574   0.387   6.257   1.948
 7870TIP3    H223575   0.441   6.234   1.809
 7871TIP3   OH223576   0.811   1.018   3.045
 7871TIP3    H123577   0.890   0.991   3.091
 7871TIP3    H223578   0.839   1.092   2.991
 7872TIP3   OH223579   0.529   5.710   0.258
 7872TIP3    H123580   0.509   5.723   0.351
 7872TIP3    H223581   0.562   5.795   0.228
 7873TIP3   OH223582   4.589   2.679   0.405
 7873TIP3    H123583   4.559   2.750   0.348
 7873TIP3    H223584   4.513   2.622   0.414
 7874TIP3   OH223585   5.757   6.499   3.752
 7874TIP3    H123586   5.801   6.414   3.749
 7874TIP3    H223587   5.814   6.554   3.805
 7875TIP3   OH223588   2.036   3.641   4.248
 7875TIP3    H123589   2.028   3.622   4.155
 7875TIP3    H223590   2.127   3.670   4.258
 7876TIP3   OH223591   3.458   5.468   2.784
 7876TIP3    H123592   3.546   5.503   2.779
 7876TIP3    H223593   3.466   5.378   2.752
 7877TIP3   OH223594   6.504   6.621   0.312
 7877TIP3    H123595   6.458   6.552   0.265
 7877TIP3    H223596   6.584   6.636   0.262
 7878TIP3   OH223597   0.610   4.181   0.139
 7878TIP3    H123598   0.535   4.170   0.080
 7878TIP3    H223599   0.608   4.104   0.195
 7879TIP3   OH223600   4.834   0.684   2.903
 7879TIP3    H123601   4.742   0.711   2.899
 7879TIP3    H223602   4.871   0.737   2.974
 7880TIP3   OH223603   2.282   2.732   4.400
 7880TIP3    H123604   2.367   2.775   4.391
 7880TIP3    H223605   2.222   2.803   4.426
 7881TIP3   OH223606   6.049   6.439   3.572
 7881TIP3    H123607   6.022   6.450   3.663
 7881TIP3    H223608   6.123   6.498   3.562
 7882TIP3   OH223609   0.663   1.332   5.016
 7882TIP3    H123610   0.670   1.307   5.108
 7882TIP3    H223611   0.570   1.321   4.995
 7883TIP3   OH223612   2.100   1.586   3.378
 7883TIP3    H123613   2.050   1.636   3.313
 7883TIP3    H223614   2.160   1.650   3.416
 7884TIP3   OH223615   0.720   2.509   0.777
 7884TIP3    H123616   0.737   2.597   0.745
 7884TIP3    H223617   0.747   2.452   0.705
 7885TIP3   OH223618   6.335   0.044   1.508
 7885TIP3    H123619   6.333   0.091   1.424
 7885TIP3    H223620   6.352  -0.047   1.483
 7886TIP3   OH223621   1.349   4.243   2.291
 7886TIP3    H123622   1.285   4.200   2.348
 7886TIP3    H223623   1.423   4.183   2.287
 7887TIP3   OH223624   5.598   0.633   1.534
 7887TIP3    H123625   5.653   0.563   1.569
 7887TIP3    H223626   5.632   0.649   1.446
 7888TIP3   OH223627   2.087   4.191   5.003
 7888TIP3    H123628   2.037   4.268   5.029
 7888TIP3    H223629   2.022   4.121   4.996
 7889TIP3   OH223630   1.292   6.418   0.238
 7889TIP3    H123631   1.282   6.407   0.333
 7889TIP3    H223632   1.228   6.357   0.201
 7890TIP3   OH223633   5.420   1.928   5.494
 7890TIP3    H123634   5.464   1.972   5.566
 7890TIP3    H223635   5.372   1.856   5.536
 7891TIP3   OH223636   4.409   5.807   4.058
 7891TIP3    H123637   4.316   5.796   4.079
 7891TIP3    H223638   4.425   5.901   4.071
 7892TIP3   OH223639   0.468   6.350   1.264
 7892TIP3    H123640   0.480   6.381   1.354
 7892TIP3    H223641   0.557   6.346   1.228
 7893TIP3   OH223642   3.136   4.035   0.925
 7893TIP3    H123643   3.169   3.965   0.869
 7893TIP3    H223644   3.097   3.989   0.999
 7894TIP3   OH223645   5.354   4.553   2.907
 7894TIP3    H123646   5.262   4.526   2.900
 7894TIP3    H223647   5.376   4.541   2.999
 7895TIP3   OH223648   4.247   3.242   2.380
 7895TIP3    H123649   4.333   3.240   2.338
 7895TIP3    H223650   4.200   3.313   2.335
 7896TIP3   OH223651   6.676   5.506   3.852
 7896TIP3    H123652   6.723   5.520   3.935
 7896TIP3    H223653   6.724   5.558   3.788
 7897TIP3   OH223654   0.629   3.816   3.023
 7897TIP3    H123655   0.678   3.735   3.011
 7897TIP3    H223656   0.551   3.790   3.072
 7898TIP3   OH223657   4.787   5.019   1.314
 7898TIP3    H123658   4.859   5.082   1.316
 7898TIP3    H223659   4.807   4.962   1.240
 7899TIP3   OH223660   4.401   1.499   4.768
 7899TIP3    H123661   4.441   1.442   4.834
 7899TIP3    H223662   4.443   1.474   4.686
 7900TIP3   OH223663   2.817   0.345   5.656
 7900TIP3    H123664   2.769   0.331   5.738
 7900TIP3    H223665   2.864   0.262   5.642
 7901TIP3   OH223666   7.157   2.394   2.500
 7901TIP3    H123667   7.099   2.374   2.427
 7901TIP3    H223668   7.186   2.484   2.485
 7902TIP3   OH223669   5.144   0.386   5.578
 7902TIP3    H123670   5.072   0.439   5.542
 7902TIP3    H223671   5.220   0.410   5.524
 7903TIP3   OH223672   1.353   4.847   1.355
 7903TIP3    H123673   1.350   4.940   1.377
 7903TIP3    H223674   1.340   4.803   1.439
 7904TIP3   OH223675   5.455   2.224   4.604
 7904TIP3    H123676   5.525   2.275   4.645
 7904TIP3    H223677   5.381   2.285   4.600
 7905TIP3   OH223678   6.090   5.439   1.471
 7905TIP3    H123679   6.080   5.486   1.387
 7905TIP3    H223680   6.162   5.378   1.455
 7906TIP3   OH223681   6.807   6.162   1.535
 7906TIP3    H123682   6.763   6.126   1.612
 7906TIP3    H223683   6.884   6.206   1.569
 7907TIP3   OH223684   6.551   4.250   4.309
 7907TIP3    H123685   6.517   4.306   4.379
 7907TIP3    H223686   6.483   4.184   4.296
 7908TIP3   OH223687   4.104   3.525   4.492
 7908TIP3    H123688   4.197   3.531   4.515
 7908TIP3    H223689   4.099   3.566   4.406
 7909TIP3   OH223690   3.256   5.091   1.709
 7909TIP3    H123691   3.178   5.141   1.685
 7909TIP3    H223692   3.231   5.000   1.696
 7910TIP3   OH223693   5.328   0.809   2.752
 7910TIP3    H123694   5.375   0.738   2.707
 7910TIP3    H223695   5.310   0.873   2.683
 7911TIP3   OH223696   1.216   6.682   0.231
 7911TIP3    H123697   1.238   6.590   0.245
 7911TIP3    H223698   1.193   6.715   0.318
 7912TIP3   OH223699   2.350   3.030   0.671
 7912TIP3    H123700   2.347   3.070   0.584
 7912TIP3    H223701   2.292   3.084   0.724
 7913TIP3   OH223702   4.525   1.541   5.604
 7913TIP3    H123703   4.620   1.538   5.606
 7913TIP3    H223704   4.501   1.504   5.519
 7914TIP3   OH223705   3.120   4.592   3.146
 7914TIP3    H123706   3.038   4.640   3.133
 7914TIP3    H223707   3.126   4.536   3.069
 7915TIP3   OH223708   4.936   4.024   4.310
 7915TIP3    H123709   4.983   4.092   4.358
 7915TIP3    H223710   4.853   4.065   4.286
 7916TIP3   OH223711   2.329   1.297   5.694
 7916TIP3    H123712   2.412   1.291   5.645
 7916TIP3    H223713   2.262   1.297   5.626
 7917TIP3   OH223714   6.769   3.823   1.008
 7917TIP3    H123715   6.737   3.805   1.096
 7917TIP3    H223716   6.717   3.897   0.978
 7918TIP3   OH223717   7.162   2.488   0.730
 7918TIP3    H123718   7.167   2.417   0.666
 7918TIP3    H223719   7.194   2.448   0.812
 7919TIP3   OH223720   3.425   3.009   2.085
 7919TIP3    H123721   3.515   3.042   2.081
 7919TIP3    H223722   3.430   2.921   2.048
 7920TIP3   OH223723   1.903   4.640   5.879
 7920TIP3    H123724   1.961   4.694   5.826
 7920TIP3    H223725   1.905   4.554   5.837
 7921TIP3   OH223726   6.248   6.231   1.114
 7921TIP3    H123727   6.269   6.304   1.172
 7921TIP3    H223728   6.159   6.249   1.083
 7922TIP3   OH223729   5.387   3.302   1.348
 7922TIP3    H123730   5.378   3.390   1.312
 7922TIP3    H223731   5.480   3.283   1.343
 7923TIP3   OH223732   0.745   0.469   2.299
 7923TIP3    H123733   0.737   0.519   2.218
 7923TIP3    H223734   0.727   0.379   2.274
 7924TIP3   OH223735   0.178   2.819   2.295
 7924TIP3    H123736   0.144   2.833   2.207
 7924TIP3    H223737   0.273   2.817   2.284
 7925TIP3   OH223738   2.817   0.051   2.509
 7925TIP3    H123739   2.872  -0.013   2.554
 7925TIP3    H223740   2.738   0.056   2.562
 7926TIP3   OH223741   5.682   6.722   5.815
 7926TIP3    H123742   5.758   6.691   5.767
 7926TIP3    H223743   5.716   6.794   5.869
 7927TIP3   OH223744   7.182   3.016   5.504
 7927TIP3    H123745   7.120   3.025   5.576
 7927TIP3    H223746   7.240   3.091   5.513
 7928TIP3   OH223747   4.603   6.614   4.012
 7928TIP3    H123748   4.696   6.620   3.990
 7928TIP3    H223749   4.558   6.655   3.938
 7929TIP3   OH223750   0.610   4.574   5.551
 7929TIP3    H123751   0.679   4.628   5.513
 7929TIP3    H223752   0.545   4.565   5.481
 7930TIP3   OH223753   2.299   0.395   0.450
 7930TIP3    H123754   2.362   0.331   0.418
 7930TIP3    H223755   2.257   0.352   0.525
 7931TIP3   OH223756   1.921   2.714   1.766
 7931TIP3    H123757   1.892   2.801   1.738
 7931TIP3    H223758   1.853   2.655   1.733
 7932TIP3   OH223759   4.534   2.774   1.908
 7932TIP3    H123760   4.618   2.802   1.944
 7932TIP3    H223761   4.479   2.852   1.910
 7933TIP3   OH223762   0.232   3.046   1.223
 7933TIP3    H123763   0.276   2.975   1.175
 7933TIP3    H223764   0.285   3.058   1.302
 7934TIP3   OH223765   5.983   0.366   4.845
 7934TIP3    H123766   6.052   0.314   4.805
 7934TIP3    H223767   5.961   0.319   4.925
 7935TIP3   OH223768   0.790   2.632   5.362
 7935TIP3    H123769   0.706   2.621   5.407
 7935TIP3    H223770   0.795   2.725   5.340
 7936TIP3   OH223771   4.385   4.078   0.115
 7936TIP3    H123772   4.436   4.014   0.165
 7936TIP3    H223773   4.309   4.097   0.170
 7937TIP3   OH223774   0.445   2.170   3.583
 7937TIP3    H123775   0.432   2.099   3.520
 7937TIP3    H223776   0.385   2.150   3.655
 7938TIP3   OH223777   6.098   5.866   2.756
 7938TIP3    H123778   6.126   5.792   2.701
 7938TIP3    H223779   6.010   5.886   2.725
 7939TIP3   OH223780   2.746   4.408   1.773
 7939TIP3    H123781   2.824   4.461   1.787
 7939TIP3    H223782   2.686   4.435   1.843
 7940TIP3   OH223783   4.324   4.356   0.842
 7940TIP3    H123784   4.353   4.335   0.754
 7940TIP3    H223785   4.404   4.356   0.895
 7941TIP3   OH223786   4.655   3.204   1.684
 7941TIP3    H123787   4.663   3.286   1.635
 7941TIP3    H223788   4.707   3.141   1.634
 7942TIP3   OH223789   3.604   3.551   0.297
 7942TIP3    H123790   3.545   3.626   0.291
 7942TIP3    H223791   3.671   3.578   0.359
 7943TIP3   OH223792   0.351   4.222   1.630
 7943TIP3    H123793   0.395   4.217   1.715
 7943TIP3    H223794   0.328   4.314   1.621
 7944TIP3   OH223795   5.362   0.387   0.974
 7944TIP3    H123796   5.441   0.334   0.972
 7944TIP3    H223797   5.362   0.434   0.891
 7945TIP3   OH223798   7.049   2.716   0.390
 7945TIP3    H123799   7.125   2.775   0.381
 7945TIP3    H223800   6.988   2.765   0.445
 7946TIP3   OH223801   4.720   4.343   1.336
 7946TIP3    H123802   4.803   4.323   1.292
 7946TIP3    H223803   4.685   4.418   1.287
 7947TIP3   OH223804   3.330   6.187   1.652
 7947TIP3    H123805   3.269   6.135   1.704
 7947TIP3    H223806   3.324   6.275   1.688
 7948TIP3   OH223807   3.422   1.475   0.602
 7948TIP3    H123808   3.394   1.389   0.633
 7948TIP3    H223809   3.437   1.525   0.682
 7949TIP3   OH223810   2.005   1.165   3.016
 7949TIP3    H123811   2.006   1.073   3.041
 7949TIP3    H223812   1.922   1.176   2.969
 7950TIP3   OH223813   5.941   2.538   2.736
 7950TIP3    H123814   5.989   2.572   2.660
 7950TIP3    H223815   5.928   2.614   2.792
 7951TIP3   OH223816   1.967   5.041   0.846
 7951TIP3    H123817   1.961   5.095   0.925
 7951TIP3    H223818   1.892   4.982   0.851
 7952TIP3   OH223819   6.404   5.557   2.143
 7952TIP3    H123820   6.446   5.539   2.059
 7952TIP3    H223821   6.311   5.565   2.122
 7953TIP3   OH223822   5.852   6.074   3.378
 7953TIP3    H123823   5.792   6.069   3.453
 7953TIP3    H223824   5.939   6.081   3.418
 7954TIP3   OH223825   2.972   1.892   3.908
 7954TIP3    H123826   2.907   1.945   3.954
 7954TIP3    H223827   2.925   1.813   3.881
 7955TIP3   OH223828   2.403   6.404   1.352
 7955TIP3    H123829   2.317   6.383   1.389
 7955TIP3    H223830   2.407   6.354   1.271
 7956TIP3   OH223831   4.989   3.349   1.407
 7956TIP3    H123832   5.042   3.428   1.401
 7956TIP3    H223833   4.907   3.378   1.447
 7957TIP3   OH223834   5.098   0.360   0.286
 7957TIP3    H123835   5.169   0.421   0.269
 7957TIP3    H223836   5.035   0.377   0.216
 7958TIP3   OH223837   5.343   4.829   1.079
 7958TIP3    H123838   5.383   4.822   1.166
 7958TIP3    H223839   5.386   4.761   1.028
 7959TIP3   OH223840   2.258   5.706   3.712
 7959TIP3    H123841   2.241   5.626   3.762
 7959TIP3    H223842   2.321   5.681   3.645
 7960TIP3   OH223843   6.164   3.590   2.829
 7960TIP3    H123844   6.178   3.620   2.919
 7960TIP3    H223845   6.213   3.653   2.775
 7961TIP3   OH223846   0.211   6.799   2.675
 7961TIP3    H123847   0.160   6.822   2.753
 7961TIP3    H223848   0.194   6.705   2.662
 7962TIP3   OH223849   3.372   4.284   5.384
 7962TIP3    H123850   3.318   4.272   5.463
 7962TIP3    H223851   3.438   4.214   5.389
 7963TIP3   OH223852   0.384   1.069   5.723
 7963TIP3    H123853   0.397   1.036   5.634
 7963TIP3    H223854   0.424   1.156   5.722
 7964TIP3   OH223855   2.070   2.908   5.426
 7964TIP3    H123856   2.150   2.961   5.418
 7964TIP3    H223857   2.067   2.857   5.345
 7965TIP3   OH223858   0.200   0.170   0.567
 7965TIP3    H123859   0.262   0.241   0.581
 7965TIP3    H223860   0.221   0.137   0.479
 7966TIP3   OH223861   1.005   5.885   4.310
 7966TIP3    H123862   1.076   5.906   4.370
 7966TIP3    H223863   0.971   5.971   4.282
 7967TIP3   OH223864   1.657   5.163   4.894
 7967TIP3    H123865   1.746   5.189   4.871
 7967TIP3    H223866   1.663   5.132   4.984
 7968TIP3   OH223867   1.094   0.951   5.099
 7968TIP3    H123868   1.085   0.885   5.167
 7968TIP3    H223869   1.130   0.904   5.023
 7969TIP3   OH223870   1.620   3.026   5.669
 7969TIP3    H123871   1.632   2.995   5.579
 7969TIP3    H223872   1.697   3.081   5.685
 7970TIP3   OH223873   5.092   3.661   0.164
 7970TIP3    H123874   5.065   3.630   0.078
 7970TIP3    H223875   5.063   3.593   0.224
 7971TIP3   OH223876   2.775   4.461   3.301
 7971TIP3    H123877   2.724   4.380   3.295
 7971TIP3    H223878   2.764   4.503   3.216
 7972TIP3   OH223879   1.107   3.918   0.522
 7972TIP3    H123880   1.071   4.006   0.534
 7972TIP3    H223881   1.194   3.922   0.561
 7973TIP3   OH223882   4.560   0.501   3.409
 7973TIP3    H123883   4.616   0.428   3.382
 7973TIP3    H223884   4.573   0.567   3.340
 7974TIP3   OH223885   0.216   4.922   2.628
 7974TIP3    H123886   0.169   4.962   2.702
 7974TIP3    H223887   0.160   4.939   2.553
 7975TIP3   OH223888   4.886   5.610   4.935
 7975TIP3    H123889   4.849   5.670   4.870
 7975TIP3    H223890   4.871   5.653   5.019
 7976TIP3   OH223891   6.748   3.757   5.507
 7976TIP3    H123892   6.693   3.737   5.583
 7976TIP3    H223893   6.832   3.718   5.528
 7977TIP3   OH223894   6.203   4.933   1.628
 7977TIP3    H123895   6.222   5.021   1.662
 7977TIP3    H223896   6.286   4.886   1.637
 7978TIP3   OH223897   1.258   1.214   2.762
 7978TIP3    H123898   1.316   1.172   2.699
 7978TIP3    H223899   1.253   1.306   2.734
 7979TIP3   OH223900   4.832   6.390   4.770
 7979TIP3    H123901   4.919   6.351   4.768
 7979TIP3    H223902   4.846   6.480   4.799
 7980TIP3   OH223903   2.290   1.884   0.017
 7980TIP3    H123904   2.244   1.811  -0.024
 7980TIP3    H223905   2.309   1.853   0.106
 7981TIP3   OH223906   6.916   5.196   5.193
 7981TIP3    H123907   6.961   5.120   5.157
 7981TIP3    H223908   6.886   5.168   5.279
 7982TIP3   OH223909   6.249   0.042   0.700
 7982TIP3    H123910   6.257   0.130   0.736
 7982TIP3    H223911   6.208  -0.009   0.770
 7983TIP3   OH223912   5.555   4.628   3.484
 7983TIP3    H123913   5.596   4.652   3.567
 7983TIP3    H223914   5.501   4.704   3.462
 7984TIP3   OH223915   1.654   0.488   0.399
 7984TIP3    H123916   1.748   0.495   0.417
 7984TIP3    H223917   1.612   0.516   0.480
 7985TIP3   OH223918   5.675   2.738   4.558
 7985TIP3    H123919   5.765   2.765   4.579
 7985TIP3    H223920   5.679   2.643   4.556
 7986TIP3   OH223921   5.460   6.017   2.808
 7986TIP3    H123922   5.398   5.947   2.830
 7986TIP3    H223923   5.436   6.089   2.866
 7987TIP3   OH223924   0.564   5.362   0.707
 7987TIP3    H123925   0.554   5.290   0.645
 7987TIP3    H223926   0.650   5.399   0.687
 7988TIP3   OH223927   2.915   4.942   2.071
 7988TIP3    H123928   2.974   4.980   2.136
 7988TIP3    H223929   2.874   4.868   2.116
 7989TIP3   OH223930   3.291   4.879   4.621
 7989TIP3    H123931   3.315   4.791   4.592
 7989TIP3    H223932   3.196   4.877   4.630
 7990TIP3   OH223933   0.083   0.596   3.721
 7990TIP3    H123934   0.014   0.530   3.719
 7990TIP3    H223935   0.128   0.583   3.804
 7991TIP3   OH223936   3.250   3.975   3.295
 7991TIP3    H123937   3.306   4.024   3.234
 7991TIP3    H223938   3.296   3.892   3.308
 7992TIP3   OH223939   6.043   5.968   1.862
 7992TIP3    H123940   6.094   5.916   1.923
 7992TIP3    H223941   5.999   5.902   1.806
 7993TIP3   OH223942   0.801   1.785   5.188
 7993TIP3    H123943   0.837   1.794   5.099
 7993TIP3    H223944   0.709   1.763   5.175
 7994TIP3   OH223945   3.643   6.549   3.618
 7994TIP3    H123946   3.645   6.593   3.702
 7994TIP3    H223947   3.563   6.496   3.621
 7995TIP3   OH223948   5.060   3.667   3.025
 7995TIP3    H123949   5.047   3.743   2.967
 7995TIP3    H223950   5.148   3.680   3.060
 7996TIP3   OH223951   3.703   1.528   3.694
 7996TIP3    H123952   3.652   1.551   3.772
 7996TIP3    H223953   3.637   1.506   3.628
 7997TIP3   OH223954   1.571   3.626   3.914
 7997TIP3    H123955   1.618   3.560   3.965
 7997TIP3    H223956   1.638   3.669   3.861
 7998TIP3   OH223957   2.200   0.213   5.521
 7998TIP3    H123958   2.202   0.175   5.609
 7998TIP3    H223959   2.125   0.171   5.478
 7999TIP3   OH223960   4.943   5.726   2.359
 7999TIP3    H123961   4.898   5.697   2.279
 7999TIP3    H223962   4.984   5.809   2.334
 8000TIP3   OH223963   1.202   5.033   0.561
 8000TIP3    H123964   1.197   5.122   0.527
 8000TIP3    H223965   1.111   5.007   0.574
 8001TIP3   OH223966   3.201   0.142   3.473
 8001TIP3    H123967   3.176   0.217   3.420
 8001TIP3    H223968   3.287   0.165   3.509
 8002TIP3   OH223969   4.091   5.031   2.272
 8002TIP3    H123970   4.166   5.046   2.330
 8002TIP3    H223971   4.122   4.965   2.210
 8003TIP3   OH223972   3.081   0.998   5.299
 8003TIP3    H123973   3.053   1.045   5.378
 8003TIP3    H223974   3.125   0.919   5.332
 8004TIP3   OH223975   6.607   3.503   2.693
 8004TIP3    H123976   6.607   3.562   2.618
 8004TIP3    H223977   6.598   3.560   2.769
 8005TIP3   OH223978   0.362   6.103   4.698
 8005TIP3    H123979   0.363   6.023   4.645
 8005TIP3    H223980   0.408   6.167   4.645
 8006TIP3   OH223981   0.579   4.488   3.449
 8006TIP3    H123982   0.600   4.571   3.492
 8006TIP3    H223983   0.488   4.471   3.475
 8007TIP3   OH223984   6.130   6.085   2.958
 8007TIP3    H123985   6.121   6.158   2.896
 8007TIP3    H223986   6.154   6.127   3.041
 8008TIP3   OH223987   6.853   1.504   4.762
 8008TIP3    H123988   6.862   1.411   4.779
 8008TIP3    H223989   6.902   1.519   4.681
 8009TIP3   OH223990   3.661   1.084   3.468
 8009TIP3    H123991   3.614   1.026   3.528
 8009TIP3    H223992   3.610   1.081   3.387
 8010TIP3   OH223993   6.024   5.061   1.432
 8010TIP3    H123994   5.967   5.006   1.378
 8010TIP3    H223995   6.096   5.004   1.457
 8011TIP3   OH223996   1.124   3.727   0.751
 8011TIP3    H123997   1.089   3.762   0.669
 8011TIP3    H223998   1.180   3.654   0.724
 8012TIP3   OH223999   1.504   0.925   1.024
 8012TIP3    H124000   1.555   1.005   1.036
 8012TIP3    H224001   1.430   0.952   0.970
 8013TIP3   OH224002   2.542   2.073   5.227
 8013TIP3    H124003   2.483   2.143   5.198
 8013TIP3    H224004   2.551   2.088   5.322
 8014TIP3   OH224005   2.974   2.893   2.318
 8014TIP3    H124006   2.886   2.857   2.306
 8014TIP3    H224007   2.959   2.976   2.365
 8015TIP3   OH224008   1.310   1.056   5.231
 8015TIP3    H124009   1.232   1.035   5.181
 8015TIP3    H224010   1.355   1.123   5.179
 8016TIP3   OH224011   1.053   4.880   2.854
 8016TIP3    H124012   0.983   4.915   2.910
 8016TIP3    H224013   1.007   4.848   2.776
 8017TIP3   OH224014   6.644   2.939   1.213
 8017TIP3    H124015   6.650   2.929   1.308
 8017TIP3    H224016   6.562   2.895   1.189
 8018TIP3   OH224017   1.672   3.128   5.067
 8018TIP3    H124018   1.587   3.161   5.037
 8018TIP3    H224019   1.675   3.150   5.160
 8019TIP3   OH224020   5.822   3.295   1.454
 8019TIP3    H124021   5.760   3.268   1.522
 8019TIP3    H224022   5.772   3.354   1.398
 8020TIP3   OH224023   4.686   2.035   0.008
 8020TIP3    H124024   4.626   1.997   0.072
 8020TIP3    H224025   4.771   1.995   0.027
 8021TIP3   OH224026   1.417   6.151   5.916
 8021TIP3    H124027   1.394   6.074   5.863
 8021TIP3    H224028   1.389   6.226   5.863
 8022TIP3   OH224029   4.899   1.923   5.528
 8022TIP3    H124030   4.872   1.876   5.607
 8022TIP3    H224031   4.855   1.876   5.456
 8023TIP3   OH224032   6.827   1.344   5.183
 8023TIP3    H124033   6.882   1.277   5.143
 8023TIP3    H224034   6.738   1.324   5.154
 8024TIP3   OH224035   0.390   0.652   1.922
 8024TIP3    H124036   0.340   0.617   1.996
 8024TIP3    H224037   0.379   0.747   1.929
 8025TIP3   OH224038   6.808   5.772   1.262
 8025TIP3    H124039   6.748   5.826   1.210
 8025TIP3    H224040   6.881   5.754   1.203
 8026TIP3   OH224041   3.666   0.992   3.203
 8026TIP3    H124042   3.693   0.906   3.234
 8026TIP3    H224043   3.746   1.030   3.166
 8027TIP3   OH224044   6.226   2.610   4.362
 8027TIP3    H124045   6.219   2.547   4.433
 8027TIP3    H224046   6.283   2.679   4.396
 8028TIP3   OH224047   4.486   5.265   1.251
 8028TIP3    H124048   4.485   5.173   1.276
 8028TIP3    H224049   4.439   5.268   1.167
 8029TIP3   OH224050   5.204   0.340   1.352
 8029TIP3    H124051   5.152   0.402   1.404
 8029TIP3    H224052   5.142   0.271   1.328
 8030TIP3   OH224053   1.721   0.701   0.006
 8030TIP3    H124054   1.799   0.706  -0.049
 8030TIP3    H224055   1.742   0.634   0.072
 8031TIP3   OH224056   6.377   2.326   3.276
 8031TIP3    H124057   6.404   2.314   3.185
 8031TIP3    H224058   6.290   2.288   3.281
 8032TIP3   OH224059   2.393   3.395   5.188
 8032TIP3    H124060   2.297   3.390   5.196
 8032TIP3    H224061   2.410   3.360   5.100
 8033TIP3   OH224062   0.047   1.296   3.387
 8033TIP3    H124063   0.108   1.300   3.461
 8033TIP3    H224064   0.034   1.388   3.362
 8034TIP3   OH224065   6.911   0.751   2.716
 8034TIP3    H124066   6.971   0.782   2.784
 8034TIP3    H224067   6.860   0.828   2.691
 8035TIP3   OH224068   7.189   3.179   4.950
 8035TIP3    H124069   7.181   3.218   5.037
 8035TIP3    H224070   7.217   3.089   4.967
 8036TIP3   OH224071   1.254   6.290   2.787
 8036TIP3    H124072   1.289   6.366   2.740
 8036TIP3    H224073   1.166   6.278   2.751
 8037TIP3   OH224074   3.416   6.155   5.656
 8037TIP3    H124075   3.433   6.235   5.705
 8037TIP3    H224076   3.401   6.088   5.723
 8038TIP3   OH224077   5.874   3.118   0.805
 8038TIP3    H124078   5.962   3.082   0.792
 8038TIP3    H224079   5.822   3.080   0.734
 8039TIP3   OH224080   0.361   1.161   1.377
 8039TIP3    H124081   0.385   1.236   1.324
 8039TIP3    H224082   0.304   1.197   1.445
 8040TIP3   OH224083   6.186   5.447   5.559
 8040TIP3    H124084   6.242   5.381   5.519
 8040TIP3    H224085   6.148   5.403   5.635
 8041TIP3   OH224086   0.495   3.648   0.626
 8041TIP3    H124087   0.580   3.681   0.653
 8041TIP3    H224088   0.434   3.681   0.692
 8042TIP3   OH224089   3.981   4.203   2.507
 8042TIP3    H124090   4.018   4.117   2.490
 8042TIP3    H224091   4.001   4.253   2.427
 8043TIP3   OH224092   6.690   3.830   3.456
 8043TIP3    H124093   6.773   3.798   3.421
 8043TIP3    H224094   6.626   3.814   3.387
 8044TIP3   OH224095   6.467   5.960   4.794
 8044TIP3    H124096   6.385   5.911   4.797
 8044TIP3    H224097   6.446   6.044   4.836
 8045TIP3   OH224098   2.092   3.053   4.918
 8045TIP3    H124099   2.056   2.965   4.928
 8045TIP3    H224100   2.136   3.051   4.833
 8046TIP3   OH224101   3.810   4.052   5.071
 8046TIP3    H124102   3.717   4.064   5.049
 8046TIP3    H224103   3.813   3.968   5.117
 8047TIP3   OH224104   5.088   4.085   2.782
 8047TIP3    H124105   5.156   4.133   2.830
 8047TIP3    H224106   5.061   4.145   2.712
 8048TIP3   OH224107   1.472   1.575   4.631
 8048TIP3    H124108   1.431   1.510   4.574
 8048TIP3    H224109   1.424   1.655   4.615
 8049TIP3   OH224110   5.762   2.103   1.706
 8049TIP3    H124111   5.797   2.090   1.618
 8049TIP3    H224112   5.839   2.116   1.761
 8050TIP3   OH224113   5.159   0.956   1.933
 8050TIP3    H124114   5.194   1.036   1.973
 8050TIP3    H224115   5.068   0.954   1.961
 8051TIP3   OH224116   0.269   5.577   5.477
 8051TIP3    H124117   0.235   5.549   5.392
 8051TIP3    H224118   0.226   5.661   5.493
 8052TIP3   OH224119   6.074   3.465   4.415
 8052TIP3    H124120   6.137   3.408   4.460
 8052TIP3    H224121   6.036   3.408   4.348
 8053TIP3   OH224122   0.536   0.363   3.465
 8053TIP3    H124123   0.575   0.277   3.449
 8053TIP3    H224124   0.442   0.347   3.465
 8054TIP3   OH224125   0.040   6.455   3.187
 8054TIP3    H124126   0.003   6.508   3.117
 8054TIP3    H224127   0.102   6.513   3.232
 8055TIP3   OH224128   1.471   2.185   5.212
 8055TIP3    H124129   1.398   2.170   5.151
 8055TIP3    H224130   1.454   2.125   5.284
 8056TIP3   OH224131   1.372   5.017   2.969
 8056TIP3    H124132   1.429   5.091   2.944
 8056TIP3    H224133   1.381   4.955   2.897
 8057TIP3   OH224134   6.033   0.500   5.185
 8057TIP3    H124135   6.077   0.554   5.250
 8057TIP3    H224136   6.007   0.562   5.117
 8058TIP3   OH224137   2.407   2.484   4.652
 8058TIP3    H124138   2.327   2.506   4.605
 8058TIP3    H224139   2.477   2.529   4.604
 8059TIP3   OH224140   3.413   3.203   4.788
 8059TIP3    H124141   3.466   3.280   4.767
 8059TIP3    H224142   3.392   3.212   4.881
 8060TIP3   OH224143   1.268   2.217   1.631
 8060TIP3    H124144   1.299   2.305   1.655
 8060TIP3    H224145   1.216   2.232   1.552
 8061TIP3   OH224146   2.496   2.432   5.551
 8061TIP3    H124147   2.405   2.454   5.531
 8061TIP3    H224148   2.513   2.474   5.635
 8062TIP3   OH224149   3.730   0.875   4.738
 8062TIP3    H124150   3.679   0.908   4.665
 8062TIP3    H224151   3.811   0.844   4.699
 8063TIP3   OH224152   2.723   4.432   0.896
 8063TIP3    H124153   2.681   4.432   0.981
 8063TIP3    H224154   2.797   4.371   0.906
 8064TIP3   OH224155   3.041   3.376   3.739
 8064TIP3    H124156   3.025   3.450   3.798
 8064TIP3    H224157   2.962   3.372   3.684
 8065TIP3   OH224158   2.854   5.338   1.364
 8065TIP3    H124159   2.919   5.370   1.426
 8065TIP3    H224160   2.825   5.417   1.318
 8066TIP3   OH224161   3.968   5.648   4.173
 8066TIP3    H124162   3.884   5.636   4.218
 8066TIP3    H224163   4.017   5.568   4.191
 8067TIP3   OH224164   2.615   0.636   2.837
 8067TIP3    H124165   2.546   0.700   2.850
 8067TIP3    H224166   2.694   0.688   2.822
 8068TIP3   OH224167   6.824   4.857   5.533
 8068TIP3    H124168   6.831   4.778   5.479
 8068TIP3    H224169   6.776   4.827   5.611
 8069TIP3   OH224170   0.811   0.107   1.008
 8069TIP3    H124171   0.825   0.017   0.980
 8069TIP3    H224172   0.899   0.142   1.022
 8070TIP3   OH224173   1.645   3.937   4.068
 8070TIP3    H124174   1.604   4.007   4.119
 8070TIP3    H224175   1.620   3.856   4.112
 8071TIP3   OH224176   1.491   2.569   0.309
 8071TIP3    H124177   1.521   2.497   0.364
 8071TIP3    H224178   1.550   2.568   0.234
 8072TIP3   OH224179   1.391   5.853   1.292
 8072TIP3    H124180   1.298   5.834   1.303
 8072TIP3    H224181   1.420   5.792   1.224
 8073TIP3   OH224182   6.142   0.285   0.943
 8073TIP3    H124183   6.103   0.371   0.932
 8073TIP3    H224184   6.086   0.242   1.008
 8074TIP3   OH224185   1.687   0.237   0.211
 8074TIP3    H124186   1.734   0.321   0.207
 8074TIP3    H224187   1.723   0.193   0.288
 8075TIP3   OH224188   4.932   2.280   3.448
 8075TIP3    H124189   4.924   2.367   3.488
 8075TIP3    H224190   4.885   2.287   3.366
 8076TIP3   OH224191   2.649   3.974   1.789
 8076TIP3    H124192   2.595   3.899   1.815
 8076TIP3    H224193   2.671   4.018   1.872
 8077TIP3   OH224194   3.579   6.022   5.482
 8077TIP3    H124195   3.530   6.078   5.542
 8077TIP3    H224196   3.619   5.955   5.538
 8078TIP3   OH224197   2.036   0.523   3.275
 8078TIP3    H124198   2.050   0.499   3.366
 8078TIP3    H224199   2.104   0.587   3.255
 8079TIP3   OH224200   3.431   3.956   4.643
 8079TIP3    H124201   3.379   3.972   4.564
 8079TIP3    H224202   3.511   4.006   4.629
 8080TIP3   OH224203   1.492   0.770   3.947
 8080TIP3    H124204   1.584   0.790   3.965
 8080TIP3    H224205   1.450   0.856   3.940
 8081TIP3   OH224206   0.342   1.195   3.035
 8081TIP3    H124207   0.363   1.209   3.128
 8081TIP3    H224208   0.360   1.280   2.993
 8082TIP3   OH224209   0.067   2.048   1.670
 8082TIP3    H124210   0.107   1.971   1.710
 8082TIP3    H224211   0.140   2.105   1.648
 8083TIP3   OH224212   6.218   2.996   1.061
 8083TIP3    H124213   6.201   3.081   1.101
 8083TIP3    H224214   6.192   3.006   0.970
 8084TIP3   OH224215   2.964   4.570   5.427
 8084TIP3    H124216   2.938   4.661   5.419
 8084TIP3    H224217   3.055   4.573   5.456
 8085TIP3   OH224218   6.399   2.488   0.166
 8085TIP3    H124219   6.367   2.514   0.253
 8085TIP3    H224220   6.370   2.397   0.156
 8086TIP3   OH224221   1.015   3.815   5.693
 8086TIP3    H124222   1.088   3.826   5.755
 8086TIP3    H224223   0.937   3.812   5.749
 8087TIP3   OH224224   2.030   6.530   5.467
 8087TIP3    H124225   2.047   6.621   5.490
 8087TIP3    H224226   2.051   6.481   5.547
 8088TIP3   OH224227   5.411   4.690   3.189
 8088TIP3    H124228   5.451   4.775   3.173
 8088TIP3    H224229   5.460   4.654   3.263
 8089TIP3   OH224230   7.002   4.127   3.936
 8089TIP3    H124231   7.091   4.095   3.928
 8089TIP3    H224232   7.004   4.188   4.009
 8090TIP3   OH224233   1.273   0.869   2.492
 8090TIP3    H124234   1.265   0.820   2.574
 8090TIP3    H224235   1.223   0.819   2.428
 8091TIP3   OH224236   1.071   5.509   0.079
 8091TIP3    H124237   1.050   5.591   0.123
 8091TIP3    H224238   1.013   5.444   0.119
 8092TIP3   OH224239  -0.004   5.414   3.510
 8092TIP3    H124240   0.060   5.417   3.581
 8092TIP3    H224241  -0.002   5.501   3.472
 8093TIP3   OH224242   4.561   5.613   4.143
 8093TIP3    H124243   4.626   5.639   4.208
 8093TIP3    H224244   4.517   5.694   4.118
 8094TIP3   OH224245   5.515   3.329   0.935
 8094TIP3    H124246   5.450   3.383   0.889
 8094TIP3    H224247   5.562   3.283   0.865
 8095TIP3   OH224248   1.700   6.184   0.913
 8095TIP3    H124249   1.746   6.104   0.939
 8095TIP3    H224250   1.756   6.255   0.945
 8096TIP3   OH224251   4.279   4.503   1.910
 8096TIP3    H124252   4.217   4.572   1.885
 8096TIP3    H224253   4.263   4.432   1.848
 8097TIP3   OH224254   0.923   5.234   2.112
 8097TIP3    H124255   0.925   5.193   2.198
 8097TIP3    H224256   0.860   5.183   2.062
 8098TIP3   OH224257   4.234   4.890   4.043
 8098TIP3    H124258   4.198   4.933   3.966
 8098TIP3    H224259   4.246   4.961   4.107
 8099TIP3   OH224260   0.804   0.593   3.851
 8099TIP3    H124261   0.810   0.510   3.803
 8099TIP3    H224262   0.893   0.628   3.847
 8100TIP3   OH224263   6.280   2.289   2.254
 8100TIP3    H124264   6.312   2.354   2.316
 8100TIP3    H224265   6.281   2.206   2.302
 8101TIP3   OH224266   3.849   1.910   1.842
 8101TIP3    H124267   3.919   1.897   1.778
 8101TIP3    H224268   3.812   1.823   1.856
 8102TIP3   OH224269   4.991   6.263   0.347
 8102TIP3    H124270   4.993   6.257   0.252
 8102TIP3    H224271   4.976   6.356   0.365
 8103TIP3   OH224272   1.952   4.760   3.099
 8103TIP3    H124273   2.008   4.829   3.133
 8103TIP3    H224274   1.944   4.698   3.171
 8104TIP3   OH224275   1.641   5.425   1.504
 8104TIP3    H124276   1.602   5.508   1.532
 8104TIP3    H224277   1.610   5.412   1.414
 8105TIP3   OH224278   4.362   2.493   0.412
 8105TIP3    H124279   4.335   2.529   0.496
 8105TIP3    H224280   4.314   2.410   0.404
 8106TIP3   OH224281   5.961   1.654   3.491
 8106TIP3    H124282   5.898   1.725   3.478
 8106TIP3    H224283   6.023   1.663   3.419
 8107TIP3   OH224284   4.538   5.850   2.994
 8107TIP3    H124285   4.494   5.876   3.074
 8107TIP3    H224286   4.471   5.856   2.926
 8108TIP3   OH224287   5.208   2.418   0.808
 8108TIP3    H124288   5.268   2.492   0.812
 8108TIP3    H224289   5.252   2.349   0.858
 8109TIP3   OH224290   3.941   4.834   2.707
 8109TIP3    H124291   3.975   4.760   2.756
 8109TIP3    H224292   3.851   4.845   2.739
 8110TIP3   OH224293   2.154   1.844   1.861
 8110TIP3    H124294   2.229   1.814   1.810
 8110TIP3    H224295   2.099   1.890   1.798
 8111TIP3   OH224296   5.358   5.504   1.506
 8111TIP3    H124297   5.437   5.451   1.512
 8111TIP3    H224298   5.369   5.570   1.575
 8112TIP3   OH224299   5.683   5.697   0.844
 8112TIP3    H124300   5.738   5.680   0.768
 8112TIP3    H224301   5.635   5.615   0.857
 8113TIP3   OH224302   0.049   3.270   5.804
 8113TIP3    H124303   0.081   3.252   5.715
 8113TIP3    H224304   0.052   3.186   5.849
 8114TIP3   OH224305   2.676   6.474   4.107
 8114TIP3    H124306   2.647   6.403   4.163
 8114TIP3    H224307   2.752   6.511   4.152
 8115TIP3   OH224308   5.341   2.656   0.441
 8115TIP3    H124309   5.263   2.653   0.495
 8115TIP3    H224310   5.352   2.566   0.409
 8116TIP3   OH224311   4.756   5.900   3.451
 8116TIP3    H124312   4.804   5.932   3.528
 8116TIP3    H224313   4.779   5.808   3.446
 8117TIP3   OH224314   1.265   5.361   4.242
 8117TIP3    H124315   1.253   5.389   4.333
 8117TIP3    H224316   1.176   5.342   4.211
 8118TIP3   OH224317   2.523   2.628   1.428
 8118TIP3    H124318   2.500   2.644   1.337
 8118TIP3    H224319   2.610   2.587   1.424
 8119TIP3   OH224320   6.485   2.466   1.564
 8119TIP3    H124321   6.472   2.514   1.646
 8119TIP3    H224322   6.419   2.396   1.567
 8120TIP3   OH224323   1.971   2.038   5.328
 8120TIP3    H124324   1.975   2.094   5.251
 8120TIP3    H224325   2.023   2.084   5.394
 8121TIP3   OH224326   6.353   3.323   1.432
 8121TIP3    H124327   6.355   3.353   1.523
 8121TIP3    H224328   6.294   3.384   1.388
 8122TIP3   OH224329   0.204   4.645   0.679
 8122TIP3    H124330   0.249   4.729   0.671
 8122TIP3    H224331   0.117   4.668   0.712
 8123TIP3   OH224332   4.298   1.813   0.456
 8123TIP3    H124333   4.298   1.773   0.542
 8123TIP3    H224334   4.387   1.797   0.422
 8124TIP3   OH224335   4.748   1.423   2.020
 8124TIP3    H124336   4.823   1.460   2.068
 8124TIP3    H224337   4.766   1.445   1.929
 8125TIP3   OH224338   3.467   4.184   4.959
 8125TIP3    H124339   3.487   4.126   5.033
 8125TIP3    H224340   3.372   4.179   4.950
 8126TIP3   OH224341   2.288   6.121   1.550
 8126TIP3    H124342   2.215   6.089   1.603
 8126TIP3    H224343   2.366   6.095   1.598
 8127TIP3   OH224344   4.962   1.654   0.132
 8127TIP3    H124345   5.020   1.725   0.102
 8127TIP3    H224346   4.940   1.679   0.222
 8128TIP3   OH224347   3.659   3.003   3.781
 8128TIP3    H124348   3.653   3.093   3.748
 8128TIP3    H224349   3.713   3.011   3.860
 8129TIP3   OH224350   4.065   4.107   5.140
 8129TIP3    H124351   4.068   4.198   5.168
 8129TIP3    H224352   3.973   4.090   5.122
 8130TIP3   OH224353   0.511   1.999   5.235
 8130TIP3    H124354   0.571   2.067   5.265
 8130TIP3    H224355   0.515   1.931   5.303
 8131TIP3   OH224356   6.688   2.062   1.863
 8131TIP3    H124357   6.678   2.155   1.842
 8131TIP3    H224358   6.598   2.029   1.868
 8132TIP3   OH224359   7.246   4.913   2.355
 8132TIP3    H124360   7.213   4.917   2.265
 8132TIP3    H224361   7.175   4.948   2.409
 8133TIP3   OH224362   3.630   2.153   0.924
 8133TIP3    H124363   3.548   2.181   0.884
 8133TIP3    H224364   3.612   2.065   0.958
 8134TIP3   OH224365   1.787   3.735   3.722
 8134TIP3    H124366   1.832   3.711   3.803
 8134TIP3    H224367   1.801   3.660   3.663
 8135TIP3   OH224368   3.449   5.440   1.515
 8135TIP3    H124369   3.388   5.509   1.541
 8135TIP3    H224370   3.535   5.471   1.545
 8136TIP3   OH224371   7.003   1.108   1.170
 8136TIP3    H124372   6.952   1.152   1.102
 8136TIP3    H224373   6.987   1.014   1.156
 8137TIP3   OH224374   1.129   6.242   3.339
 8137TIP3    H124375   1.190   6.295   3.391
 8137TIP3    H224376   1.173   6.231   3.254
 8138TIP3   OH224377   3.376   6.744   3.225
 8138TIP3    H124378   3.349   6.772   3.137
 8138TIP3    H224379   3.372   6.824   3.277
 8139TIP3   OH224380   4.497   2.231   1.021
 8139TIP3    H124381   4.534   2.202   1.105
 8139TIP3    H224382   4.420   2.283   1.046
 8140TIP3   OH224383   3.287   6.785   4.380
 8140TIP3    H124384   3.199   6.761   4.410
 8140TIP3    H224385   3.329   6.702   4.360
 8141TIP3   OH224386   1.372   3.010   3.215
 8141TIP3    H124387   1.364   2.971   3.128
 8141TIP3    H224388   1.458   2.980   3.246
 8142TIP3   OH224389   3.296   6.549   4.227
 8142TIP3    H124390   3.328   6.469   4.269
 8142TIP3    H224391   3.264   6.520   4.141
 8143TIP3   OH224392   5.282   6.186   5.113
 8143TIP3    H124393   5.204   6.134   5.136
 8143TIP3    H224394   5.335   6.185   5.193
 8144TIP3   OH224395   6.435   6.408   2.468
 8144TIP3    H124396   6.403   6.498   2.461
 8144TIP3    H224397   6.446   6.379   2.378
 8145TIP3   OH224398   7.024   6.575   3.706
 8145TIP3    H124399   7.041   6.669   3.715
 8145TIP3    H224400   6.971   6.553   3.782
 8146TIP3   OH224401   0.864   5.982   0.278
 8146TIP3    H124402   0.775   6.014   0.259
 8146TIP3    H224403   0.920   6.058   0.264
 8147TIP3   OH224404   6.871   4.166   1.269
 8147TIP3    H124405   6.913   4.218   1.200
 8147TIP3    H224406   6.941   4.147   1.331
 8148TIP3   OH224407   3.735   3.557   2.582
 8148TIP3    H124408   3.698   3.491   2.524
 8148TIP3    H224409   3.672   3.629   2.580
 8149TIP3   OH224410   5.238   5.790   5.779
 8149TIP3    H124411   5.214   5.875   5.743
 8149TIP3    H224412   5.177   5.728   5.740
 8150TIP3   OH224413   6.905   5.689   0.969
 8150TIP3    H124414   6.980   5.671   0.911
 8150TIP3    H224415   6.844   5.617   0.952
 8151TIP3   OH224416   4.687   6.083   4.960
 8151TIP3    H124417   4.752   6.149   4.985
 8151TIP3    H224418   4.619   6.133   4.914
 8152TIP3   OH224419   5.868   2.225   1.294
 8152TIP3    H124420   5.873   2.299   1.233
 8152TIP3    H224421   5.876   2.264   1.380
 8153TIP3   OH224422   3.590   6.396   1.414
 8153TIP3    H124423   3.684   6.381   1.403
 8153TIP3    H224424   3.584   6.464   1.481
 8154TIP3   OH224425   5.447   2.505   5.237
 8154TIP3    H124426   5.469   2.434   5.298
 8154TIP3    H224427   5.532   2.532   5.201
 8155TIP3   OH224428   3.787   5.201   2.722
 8155TIP3    H124429   3.859   5.213   2.660
 8155TIP3    H224430   3.750   5.116   2.701
 8156TIP3   OH224431   4.521   6.270   3.446
 8156TIP3    H124432   4.432   6.278   3.413
 8156TIP3    H224433   4.519   6.197   3.507
 8157TIP3   OH224434   5.764   5.728   4.223
 8157TIP3    H124435   5.734   5.675   4.149
 8157TIP3    H224436   5.741   5.818   4.198
 8158TIP3   OH224437   1.509   1.384   4.394
 8158TIP3    H124438   1.534   1.469   4.359
 8158TIP3    H224439   1.560   1.321   4.343
 8159TIP3   OH224440   4.954   0.791   3.579
 8159TIP3    H124441   4.880   0.850   3.569
 8159TIP3    H224442   4.996   0.791   3.493
 8160TIP3   OH224443   6.669   0.002   3.683
 8160TIP3    H124444   6.717   0.066   3.631
 8160TIP3    H224445   6.613  -0.043   3.619
 8161TIP3   OH224446   4.385   3.179   1.704
 8161TIP3    H124447   4.350   3.118   1.640
 8161TIP3    H224448   4.479   3.181   1.686
 8162TIP3   OH224449   3.091   0.717   4.924
 8162TIP3    H124450   3.114   0.738   4.833
 8162TIP3    H224451   3.013   0.663   4.917
 8163TIP3   OH224452   6.388   1.351   5.600
 8163TIP3    H124453   6.374   1.420   5.665
 8163TIP3    H224454   6.320   1.286   5.619
 8164TIP3   OH224455   4.762   3.792   2.385
 8164TIP3    H124456   4.668   3.780   2.396
 8164TIP3    H224457   4.778   3.774   2.293
 8165TIP3   OH224458   0.728   1.129   1.182
 8165TIP3    H124459   0.707   1.094   1.095
 8165TIP3    H224460   0.787   1.065   1.220
 8166TIP3   OH224461   4.533   2.567   1.128
 8166TIP3    H124462   4.460   2.517   1.092
 8166TIP3    H224463   4.567   2.512   1.199
 8167TIP3   OH224464   6.719   0.138   5.479
 8167TIP3    H124465   6.730   0.217   5.533
 8167TIP3    H224466   6.806   0.097   5.479
 8168TIP3   OH224467   0.543   0.427   3.024
 8168TIP3    H124468   0.571   0.454   3.112
 8168TIP3    H224469   0.459   0.384   3.038
 8169TIP3   OH224470   1.392   6.089   3.540
 8169TIP3    H124471   1.416   5.999   3.561
 8169TIP3    H224472   1.304   6.082   3.502
 8170TIP3   OH224473   2.948   4.727   2.944
 8170TIP3    H124474   2.943   4.785   3.020
 8170TIP3    H224475   2.877   4.664   2.956
 8171TIP3   OH224476   1.289   3.114   1.624
 8171TIP3    H124477   1.270   3.021   1.625
 8171TIP3    H224478   1.215   3.153   1.578
 8172TIP3   OH224479   6.342   1.699   5.057
 8172TIP3    H124480   6.355   1.650   5.137
 8172TIP3    H224481   6.382   1.784   5.074
 8173TIP3   OH224482   0.275   5.158   2.008
 8173TIP3    H124483   0.321   5.078   2.033
 8173TIP3    H224484   0.245   5.141   1.919
 8174TIP3   OH224485   4.862   5.348   5.331
 8174TIP3    H124486   4.851   5.434   5.373
 8174TIP3    H224487   4.938   5.360   5.274
 8175TIP3   OH224488   5.780   6.401   5.747
 8175TIP3    H124489   5.773   6.418   5.653
 8175TIP3    H224490   5.853   6.339   5.754
 8176TIP3   OH224491   4.040   4.553   2.753
 8176TIP3    H124492   4.010   4.488   2.816
 8176TIP3    H224493   3.987   4.537   2.674
 8177TIP3   OH224494   7.067   4.321   4.117
 8177TIP3    H124495   7.075   4.265   4.194
 8177TIP3    H224496   7.157   4.332   4.085
 8178TIP3   OH224497   0.213   5.400   3.083
 8178TIP3    H124498   0.208   5.405   2.988
 8178TIP3    H224499   0.147   5.463   3.114
 8179TIP3   OH224500   6.714   2.020   4.608
 8179TIP3    H124501   6.730   1.926   4.599
 8179TIP3    H224502   6.666   2.028   4.690
 8180TIP3   OH224503   4.834   1.339   3.779
 8180TIP3    H124504   4.741   1.357   3.785
 8180TIP3    H224505   4.873   1.419   3.744
 8181TIP3   OH224506   6.245   2.453   4.589
 8181TIP3    H124507   6.339   2.440   4.602
 8181TIP3    H224508   6.205   2.428   4.673
 8182TIP3   OH224509   3.909   0.405   2.053
 8182TIP3    H124510   3.820   0.401   2.019
 8182TIP3    H224511   3.900   0.436   2.143
 8183TIP3   OH224512   1.699   6.286   4.222
 8183TIP3    H124513   1.619   6.236   4.203
 8183TIP3    H224514   1.770   6.222   4.210
 8184TIP3   OH224515   2.646   2.099   4.414
 8184TIP3    H124516   2.569   2.120   4.465
 8184TIP3    H224517   2.628   2.136   4.327
 8185TIP3   OH224518   5.238   0.642   0.157
 8185TIP3    H124519   5.158   0.690   0.134
 8185TIP3    H224520   5.240   0.643   0.253
 8186TIP3   OH224521   2.777   1.214   5.844
 8186TIP3    H124522   2.684   1.232   5.859
 8186TIP3    H224523   2.816   1.299   5.824
 8187TIP3   OH224524   6.427   4.255   5.498
 8187TIP3    H124525   6.463   4.166   5.503
 8187TIP3    H224526   6.332   4.242   5.493
 8188TIP3   OH224527   2.535   3.721   4.331
 8188TIP3    H124528   2.530   3.784   4.259
 8188TIP3    H224529   2.446   3.687   4.340
 8189TIP3   OH224530   6.109   6.449   4.951
 8189TIP3    H124531   6.036   6.510   4.964
 8189TIP3    H224532   6.085   6.401   4.871
 8190TIP3   OH224533   6.529   3.459   3.337
 8190TIP3    H124534   6.554   3.398   3.407
 8190TIP3    H224535   6.494   3.536   3.382
 8191TIP3   OH224536   1.253   4.461   5.851
 8191TIP3    H124537   1.181   4.523   5.844
 8191TIP3    H224538   1.277   4.462   5.944
 8192TIP3   OH224539   4.710   4.291   3.448
 8192TIP3    H124540   4.634   4.319   3.499
 8192TIP3    H224541   4.735   4.207   3.489
 8193TIP3   OH224542   2.279   6.659   5.644
 8193TIP3    H124543   2.261   6.573   5.606
 8193TIP3    H224544   2.355   6.692   5.596
 8194TIP3   OH224545   5.279   2.986   2.082
 8194TIP3    H124546   5.292   3.000   1.988
 8194TIP3    H224547   5.301   3.070   2.122
 8195TIP3   OH224548   1.393   1.463   0.914
 8195TIP3    H124549   1.486   1.483   0.901
 8195TIP3    H224550   1.386   1.369   0.898
 8196TIP3   OH224551   1.070   0.189   1.093
 8196TIP3    H124552   1.039   0.279   1.105
 8196TIP3    H224553   1.163   0.193   1.119
 8197TIP3   OH224554   3.049   2.578   3.515
 8197TIP3    H124555   3.039   2.524   3.593
 8197TIP3    H224556   2.990   2.652   3.530
 8198TIP3   OH224557   1.684   1.891   4.280
 8198TIP3    H124558   1.741   1.882   4.204
 8198TIP3    H224559   1.659   1.983   4.282
 8199TIP3   OH224560   6.867   3.159   4.237
 8199TIP3    H124561   6.844   3.125   4.324
 8199TIP3    H224562   6.887   3.251   4.251
 8200TIP3   OH224563   3.773   1.716   3.184
 8200TIP3    H124564   3.765   1.623   3.205
 8200TIP3    H224565   3.867   1.732   3.184
 8201TIP3   OH224566   2.791   2.756   5.644
 8201TIP3    H124567   2.736   2.700   5.699
 8201TIP3    H224568   2.739   2.768   5.564
 8202TIP3   OH224569   3.507   5.256   3.018
 8202TIP3    H124570   3.594   5.279   3.050
 8202TIP3    H224571   3.455   5.335   3.033
 8203TIP3   OH224572   1.776   5.022   2.200
 8203TIP3    H124573   1.819   4.984   2.123
 8203TIP3    H224574   1.735   4.947   2.243
 8204TIP3   OH224575   7.155   5.358   0.693
 8204TIP3    H124576   7.118   5.339   0.780
 8204TIP3    H224577   7.091   5.323   0.632
 8205TIP3   OH224578   3.430   0.667   0.132
 8205TIP3    H124579   3.421   0.581   0.092
 8205TIP3    H224580   3.369   0.665   0.207
 8206TIP3   OH224581   2.550   0.445   3.509
 8206TIP3    H124582   2.495   0.413   3.580
 8206TIP3    H224583   2.503   0.520   3.474
 8207TIP3   OH224584   0.207   1.840   1.846
 8207TIP3    H124585   0.118   1.853   1.878
 8207TIP3    H224586   0.225   1.747   1.865
 8208TIP3   OH224587   5.115   0.479   3.962
 8208TIP3    H124588   5.094   0.550   4.023
 8208TIP3    H224589   5.182   0.428   4.008
 8209TIP3   OH224590   7.194   4.816   4.175
 8209TIP3    H124591   7.133   4.890   4.175
 8209TIP3    H224592   7.139   4.739   4.187
 8210TIP3   OH224593   2.158   6.416   5.226
 8210TIP3    H124594   2.242   6.456   5.204
 8210TIP3    H224595   2.141   6.443   5.316
 8211TIP3   OH224596   2.518   6.695   5.459
 8211TIP3    H124597   2.563   6.695   5.544
 8211TIP3    H224598   2.541   6.610   5.421
 8212TIP3   OH224599   5.174   6.250   1.744
 8212TIP3    H124600   5.109   6.258   1.674
 8212TIP3    H224601   5.254   6.221   1.699
 8213TIP3   OH224602   4.065   2.020   0.841
 8213TIP3    H124603   4.116   1.998   0.918
 8213TIP3    H224604   3.983   1.970   0.851
 8214TIP3   OH224605   5.492   5.804   4.149
 8214TIP3    H124606   5.490   5.900   4.153
 8214TIP3    H224607   5.519   5.784   4.060
 8215TIP3   OH224608   1.834   3.696   2.746
 8215TIP3    H124609   1.742   3.680   2.767
 8215TIP3    H224610   1.835   3.707   2.651
 8216TIP3   OH224611   2.691   5.808   1.030
 8216TIP3    H124612   2.747   5.863   1.086
 8216TIP3    H224613   2.706   5.719   1.062
 8217TIP3   OH224614   5.627   1.666   0.507
 8217TIP3    H124615   5.548   1.613   0.521
 8217TIP3    H224616   5.697   1.602   0.494
 8218TIP3   OH224617   2.006   6.375   3.873
 8218TIP3    H124618   1.958   6.295   3.850
 8218TIP3    H224619   2.021   6.419   3.790
 8219TIP3   OH224620   0.109   1.889   2.652
 8219TIP3    H124621   0.046   1.818   2.633
 8219TIP3    H224622   0.148   1.909   2.567
 8220TIP3   OH224623   4.455   2.408   5.886
 8220TIP3    H124624   4.404   2.395   5.806
 8220TIP3    H224625   4.505   2.327   5.897
 8221TIP3   OH224626   3.682   2.852   1.302
 8221TIP3    H124627   3.639   2.850   1.387
 8221TIP3    H224628   3.620   2.811   1.242
 8222TIP3   OH224629   3.671   4.869   4.776
 8222TIP3    H124630   3.603   4.812   4.811
 8222TIP3    H224631   3.716   4.817   4.710
 8223TIP3   OH224632   6.563   3.715   3.929
 8223TIP3    H124633   6.656   3.697   3.938
 8223TIP3    H224634   6.547   3.715   3.835
 8224TIP3   OH224635   3.518   6.302   3.887
 8224TIP3    H124636   3.521   6.266   3.798
 8224TIP3    H224637   3.590   6.258   3.932
 8225TIP3   OH224638   3.164   5.582   0.096
 8225TIP3    H124639   3.152   5.641   0.022
 8225TIP3    H224640   3.136   5.496   0.064
 8226TIP3   OH224641   4.081   5.372   2.671
 8226TIP3    H124642   4.171   5.349   2.692
 8226TIP3    H224643   4.046   5.294   2.626
 8227TIP3   OH224644   4.756   0.475   3.787
 8227TIP3    H124645   4.784   0.538   3.854
 8227TIP3    H224646   4.662   0.491   3.778
 8228TIP3   OH224647   1.824   0.115   0.441
 8228TIP3    H124648   1.882   0.040   0.429
 8228TIP3    H224649   1.859   0.161   0.518
 8229TIP3   OH224650   1.056   1.473   5.866
 8229TIP3    H124651   1.102   1.434   5.792
 8229TIP3    H224652   0.964   1.448   5.853
 8230TIP3   OH224653   0.688   2.915   5.051
 8230TIP3    H124654   0.747   2.902   5.125
 8230TIP3    H224655   0.642   2.997   5.071
 8231TIP3   OH224656   2.379   2.115   4.490
 8231TIP3    H124657   2.363   2.021   4.497
 8231TIP3    H224658   2.294   2.152   4.465
 8232TIP3   OH224659   2.448   6.379   4.576
 8232TIP3    H124660   2.522   6.387   4.515
 8232TIP3    H224661   2.384   6.442   4.544
 8233TIP3   OH224662   4.550   5.372   0.910
 8233TIP3    H124663   4.471   5.319   0.919
 8233TIP3    H224664   4.592   5.340   0.830
 8234TIP3   OH224665   1.001   0.524   5.002
 8234TIP3    H124666   0.932   0.510   4.938
 8234TIP3    H224667   0.995   0.449   5.061
 8235TIP3   OH224668   0.555   6.288   2.668
 8235TIP3    H124669   0.557   6.256   2.758
 8235TIP3    H224670   0.553   6.208   2.615
 8236TIP3   OH224671   3.827   6.399   0.154
 8236TIP3    H124672   3.849   6.312   0.188
 8236TIP3    H224673   3.823   6.455   0.231
 8237TIP3   OH224674   6.528   5.039   5.528
 8237TIP3    H124675   6.565   4.951   5.526
 8237TIP3    H224676   6.520   5.059   5.622
 8238TIP3   OH224677   0.711   6.311   5.823
 8238TIP3    H124678   0.701   6.321   5.918
 8238TIP3    H224679   0.803   6.286   5.812
 8239TIP3   OH224680   2.778   1.156   2.959
 8239TIP3    H124681   2.695   1.159   3.005
 8239TIP3    H224682   2.757   1.116   2.874
 8240TIP3   OH224683   1.166   6.203   4.536
 8240TIP3    H124684   1.073   6.224   4.527
 8240TIP3    H224685   1.173   6.166   4.624
 8241TIP3   OH224686   3.287   4.148   2.370
 8241TIP3    H124687   3.372   4.140   2.411
 8241TIP3    H224688   3.225   4.121   2.437
 8242TIP3   OH224689   7.128   5.438   1.807
 8242TIP3    H124690   7.163   5.445   1.719
 8242TIP3    H224691   7.042   5.480   1.802
 8243TIP3   OH224692   0.093   4.667   2.681
 8243TIP3    H124693   0.135   4.672   2.595
 8243TIP3    H224694   0.158   4.705   2.741
 8244TIP3   OH224695   5.928   1.926   0.656
 8244TIP3    H124696   6.014   1.969   0.654
 8244TIP3    H224697   5.888   1.949   0.573
 8245TIP3   OH224698   6.271   2.265   1.512
 8245TIP3    H124699   6.212   2.267   1.588
 8245TIP3    H224700   6.214   2.243   1.438
 8246TIP3   OH224701   2.998   2.140   1.267
 8246TIP3    H124702   3.093   2.144   1.282
 8246TIP3    H224703   2.976   2.048   1.280
 8247TIP3   OH224704   5.585   2.285   1.004
 8247TIP3    H124705   5.612   2.209   1.056
 8247TIP3    H224706   5.665   2.315   0.961
 8248TIP3   OH224707   2.714   5.000   0.424
 8248TIP3    H124708   2.747   5.012   0.513
 8248TIP3    H224709   2.777   4.941   0.383
 8249TIP3   OH224710   1.289   0.063   3.697
 8249TIP3    H124711   1.207   0.113   3.700
 8249TIP3    H224712   1.323   0.068   3.787
 8250TIP3   OH224713   3.583   5.293   1.320
 8250TIP3    H124714   3.645   5.227   1.352
 8250TIP3    H224715   3.547   5.334   1.398
 8251TIP3   OH224716   0.208   0.218   2.538
 8251TIP3    H124717   0.149   0.268   2.595
 8251TIP3    H224718   0.153   0.148   2.502
 8252TIP3   OH224719   5.728   1.534   3.856
 8252TIP3    H124720   5.767   1.517   3.942
 8252TIP3    H224721   5.714   1.448   3.818
 8253TIP3   OH224722   5.306   3.331   0.312
 8253TIP3    H124723   5.334   3.352   0.223
 8253TIP3    H224724   5.387   3.332   0.363
 8254TIP3   OH224725   3.136   2.283   2.351
 8254TIP3    H124726   3.148   2.378   2.343
 8254TIP3    H224727   3.222   2.250   2.374
 8255TIP3   OH224728   0.739   6.753   0.665
 8255TIP3    H124729   0.725   6.822   0.599
 8255TIP3    H224730   0.745   6.800   0.748
 8256TIP3   OH224731   7.025   3.433   4.294
 8256TIP3    H124732   6.954   3.460   4.235
 8256TIP3    H224733   7.093   3.400   4.236
 8257TIP3   OH224734   3.099   1.583   4.278
 8257TIP3    H124735   3.132   1.572   4.367
 8257TIP3    H224736   3.177   1.573   4.222
 8258TIP3   OH224737   0.516   1.821   5.431
 8258TIP3    H124738   0.446   1.780   5.481
 8258TIP3    H224739   0.595   1.773   5.458
 8259TIP3   OH224740   1.713   4.533   4.387
 8259TIP3    H124741   1.712   4.484   4.469
 8259TIP3    H224742   1.733   4.623   4.414
 8260TIP3   OH224743   2.652   0.392   2.681
 8260TIP3    H124744   2.685   0.326   2.741
 8260TIP3    H224745   2.599   0.450   2.735
 8261TIP3   OH224746   5.021   3.363   5.458
 8261TIP3    H124747   4.940   3.372   5.508
 8261TIP3    H224748   5.064   3.286   5.494
 8262TIP3   OH224749   2.684   3.351   3.294
 8262TIP3    H124750   2.711   3.342   3.203
 8262TIP3    H224751   2.631   3.430   3.296
 8263TIP3   OH224752   4.089   0.840   4.091
 8263TIP3    H124753   4.119   0.803   4.174
 8263TIP3    H224754   4.011   0.891   4.115
 8264TIP3   OH224755   0.658   3.242   0.666
 8264TIP3    H124756   0.623   3.154   0.677
 8264TIP3    H224757   0.659   3.255   0.571
 8265TIP3   OH224758   4.204   0.198   1.661
 8265TIP3    H124759   4.124   0.218   1.710
 8265TIP3    H224760   4.273   0.196   1.727
 8266TIP3   OH224761   0.399   1.270   4.942
 8266TIP3    H124762   0.310   1.288   4.972
 8266TIP3    H224763   0.399   1.297   4.850
 8267TIP3   OH224764   1.872   6.514   1.438
 8267TIP3    H124765   1.854   6.604   1.466
 8267TIP3    H224766   1.787   6.471   1.442
 8268TIP3   OH224767   4.186   1.840   1.776
 8268TIP3    H124768   4.191   1.918   1.830
 8268TIP3    H224769   4.130   1.780   1.826
 8269TIP3   OH224770   2.524   1.432   4.080
 8269TIP3    H124771   2.590   1.363   4.081
 8269TIP3    H224772   2.569   1.508   4.044
 8270TIP3   OH224773   6.183   0.750   1.524
 8270TIP3    H124774   6.227   0.814   1.580
 8270TIP3    H224775   6.116   0.801   1.478
 8271TIP3   OH224776   7.041   3.248   1.321
 8271TIP3    H124777   6.957   3.242   1.366
 8271TIP3    H224778   7.030   3.194   1.243
 8272TIP3   OH224779   3.268   0.650   1.786
 8272TIP3    H124780   3.260   0.566   1.741
 8272TIP3    H224781   3.228   0.713   1.726
 8273TIP3   OH224782   0.229   5.589   0.118
 8273TIP3    H124783   0.280   5.638   0.053
 8273TIP3    H224784   0.212   5.652   0.188
 8274TIP3   OH224785   5.638   2.216   2.517
 8274TIP3    H124786   5.665   2.124   2.520
 8274TIP3    H224787   5.695   2.259   2.581
 8275TIP3   OH224788   5.306   4.853   1.356
 8275TIP3    H124789   5.369   4.789   1.388
 8275TIP3    H224790   5.234   4.801   1.320
 8276TIP3   OH224791   6.853   3.159   3.570
 8276TIP3    H124792   6.784   3.166   3.637
 8276TIP3    H224793   6.809   3.182   3.488
 8277TIP3   OH224794   1.467   5.894   3.906
 8277TIP3    H124795   1.541   5.853   3.862
 8277TIP3    H224796   1.403   5.910   3.836
 8278TIP3   OH224797   6.115   2.535   1.950
 8278TIP3    H124798   6.158   2.617   1.972
 8278TIP3    H224799   6.075   2.507   2.033
 8279TIP3   OH224800   5.429   5.459   5.004
 8279TIP3    H124801   5.416   5.401   5.079
 8279TIP3    H224802   5.340   5.484   4.978
 8280TIP3   OH224803   0.879   5.597   4.160
 8280TIP3    H124804   0.962   5.599   4.111
 8280TIP3    H224805   0.906   5.601   4.251
 8281TIP3   OH224806   5.945   1.095   5.166
 8281TIP3    H124807   5.904   1.028   5.220
 8281TIP3    H224808   5.886   1.104   5.091
 8282TIP3   OH224809   5.386   2.606   1.931
 8282TIP3    H124810   5.418   2.679   1.878
 8282TIP3    H224811   5.297   2.590   1.899
 8283TIP3   OH224812   0.777   4.715   1.700
 8283TIP3    H124813   0.760   4.684   1.788
 8283TIP3    H224814   0.757   4.808   1.703
 8284TIP3   OH224815   5.404   6.321   4.405
 8284TIP3    H124816   5.352   6.383   4.354
 8284TIP3    H224817   5.486   6.368   4.424
 8285TIP3   OH224818   4.586   4.803   4.918
 8285TIP3    H124819   4.548   4.882   4.957
 8285TIP3    H224820   4.514   4.740   4.915
 8286TIP3   OH224821   6.086   0.756   0.196
 8286TIP3    H124822   6.123   0.843   0.183
 8286TIP3    H224823   6.039   0.738   0.115
 8287TIP3   OH224824   4.554   1.286   0.811
 8287TIP3    H124825   4.632   1.256   0.764
 8287TIP3    H224826   4.578   1.371   0.847
 8288TIP3   OH224827   2.652   1.271   5.132
 8288TIP3    H124828   2.738   1.313   5.137
 8288TIP3    H224829   2.633   1.266   5.039
 8289TIP3   OH224830   5.206   0.698   1.830
 8289TIP3    H124831   5.219   0.718   1.737
 8289TIP3    H224832   5.208   0.784   1.873
 8290TIP3   OH224833   4.270   0.015   1.468
 8290TIP3    H124834   4.363   0.038   1.473
 8290TIP3    H224835   4.230   0.063   1.541
 8291TIP3   OH224836   3.905   0.005   5.106
 8291TIP3    H124837   3.889   0.000   5.012
 8291TIP3    H224838   3.846   0.073   5.138
 8292TIP3   OH224839   7.016   6.248   3.918
 8292TIP3    H124840   6.934   6.296   3.907
 8292TIP3    H224841   6.989   6.160   3.944
 8293TIP3   OH224842   0.888   3.647   2.828
 8293TIP3    H124843   0.883   3.743   2.837
 8293TIP3    H224844   0.871   3.614   2.915
 8294TIP3   OH224845   2.764   5.647   3.892
 8294TIP3    H124846   2.750   5.650   3.798
 8294TIP3    H224847   2.686   5.601   3.926
 8295TIP3   OH224848   4.831   0.372   4.409
 8295TIP3    H124849   4.844   0.287   4.368
 8295TIP3    H224850   4.804   0.352   4.499
 8296TIP3   OH224851   5.453   1.382   4.692
 8296TIP3    H124852   5.405   1.368   4.773
 8296TIP3    H224853   5.545   1.378   4.717
 8297TIP3   OH224854   3.455   4.188   3.600
 8297TIP3    H124855   3.516   4.233   3.540
 8297TIP3    H224856   3.372   4.187   3.553
 8298TIP3   OH224857   5.271   2.796   1.362
 8298TIP3    H124858   5.278   2.887   1.333
 8298TIP3    H224859   5.279   2.744   1.282
 8299TIP3   OH224860   4.634   4.977   0.355
 8299TIP3    H124861   4.672   5.041   0.295
 8299TIP3    H224862   4.541   4.974   0.332
 8300TIP3   OH224863   5.491   2.779   1.770
 8300TIP3    H124864   5.498   2.709   1.705
 8300TIP3    H224865   5.440   2.847   1.726
 8301TIP3   OH224866   1.592   5.617   0.861
 8301TIP3    H124867   1.604   5.670   0.783
 8301TIP3    H224868   1.524   5.664   0.911
 8302TIP3   OH224869   1.874   3.842   1.708
 8302TIP3    H124870   1.798   3.828   1.764
 8302TIP3    H224871   1.840   3.889   1.632
 8303TIP3   OH224872   3.189   3.268   3.947
 8303TIP3    H124873   3.135   3.280   3.868
 8303TIP3    H224874   3.160   3.185   3.983
 8304TIP3   OH224875   4.927   1.791   2.124
 8304TIP3    H124876   4.983   1.785   2.201
 8304TIP3    H224877   4.973   1.739   2.058
 8305TIP3   OH224878   5.081   4.153   4.511
 8305TIP3    H124879   5.076   4.248   4.504
 8305TIP3    H224880   5.030   4.132   4.590
 8306TIP3   OH224881   3.061   3.796   2.379
 8306TIP3    H124882   3.016   3.716   2.353
 8306TIP3    H224883   3.035   3.809   2.471
 8307TIP3   OH224884   5.822   6.157   4.771
 8307TIP3    H124885   5.847   6.245   4.742
 8307TIP3    H224886   5.733   6.146   4.739
 8308TIP3   OH224887   1.583   2.012   1.166
 8308TIP3    H124888   1.575   1.925   1.206
 8308TIP3    H224889   1.672   2.015   1.133
 8309TIP3   OH224890   1.971   5.781   0.231
 8309TIP3    H124891   1.880   5.797   0.204
 8309TIP3    H224892   1.965   5.763   0.325
 8310TIP3   OH224893   5.422   5.087   4.699
 8310TIP3    H124894   5.339   5.102   4.743
 8310TIP3    H224895   5.413   5.000   4.659
 8311TIP3   OH224896   3.721   0.889   0.644
 8311TIP3    H124897   3.655   0.943   0.599
 8311TIP3    H224898   3.719   0.920   0.735
 8312TIP3   OH224899   6.705   0.113   2.671
 8312TIP3    H124900   6.685   0.179   2.606
 8312TIP3    H224901   6.625   0.060   2.677
 8313TIP3   OH224902   6.113   1.002   1.698
 8313TIP3    H124903   6.060   0.996   1.778
 8313TIP3    H224904   6.055   1.045   1.635
 8314TIP3   OH224905   0.158   3.862   2.102
 8314TIP3    H124906   0.253   3.863   2.092
 8314TIP3    H224907   0.144   3.820   2.187
 8315TIP3   OH224908   5.355   3.190   5.158
 8315TIP3    H124909   5.340   3.268   5.212
 8315TIP3    H224910   5.273   3.177   5.111
 8316TIP3   OH224911   6.083   4.595   5.147
 8316TIP3    H124912   5.993   4.562   5.143
 8316TIP3    H224913   6.079   4.681   5.104
 8317TIP3   OH224914   4.346   0.986   5.750
 8317TIP3    H124915   4.349   0.896   5.718
 8317TIP3    H224916   4.253   1.010   5.749
 8318TIP3   OH224917   0.322   0.950   1.782
 8318TIP3    H124918   0.376   0.911   1.713
 8318TIP3    H224919   0.233   0.923   1.762
 8319TIP3   OH224920   5.839   3.691   5.043
 8319TIP3    H124921   5.876   3.662   5.127
 8319TIP3    H224922   5.746   3.670   5.049
 8320TIP3   OH224923   0.988   1.529   0.058
 8320TIP3    H124924   1.010   1.439   0.034
 8320TIP3    H224925   1.005   1.580  -0.021
 8321TIP3   OH224926   6.705   3.552   3.141
 8321TIP3    H124927   6.755   3.473   3.120
 8321TIP3    H224928   6.646   3.524   3.212
 8322TIP3   OH224929   6.341   6.463   5.084
 8322TIP3    H124930   6.258   6.436   5.043
 8322TIP3    H224931   6.325   6.551   5.116
 8323TIP3   OH224932   5.389   5.166   2.554
 8323TIP3    H124933   5.344   5.089   2.519
 8323TIP3    H224934   5.333   5.197   2.625
 8324TIP3   OH224935   1.184   0.940   2.871
 8324TIP3    H124936   1.193   1.031   2.844
 8324TIP3    H224937   1.246   0.930   2.944
 8325TIP3   OH224938   4.364   4.565   0.034
 8325TIP3    H124939   4.431   4.514  -0.011
 8325TIP3    H224940   4.413   4.629   0.086
 8326TIP3   OH224941   3.947   0.672   5.106
 8326TIP3    H124942   3.879   0.734   5.078
 8326TIP3    H224943   4.009   0.726   5.156
 8327TIP3   OH224944   1.490   6.772   0.444
 8327TIP3    H124945   1.572   6.812   0.475
 8327TIP3    H224946   1.488   6.687   0.488
 8328TIP3   OH224947   4.301   1.677   1.603
 8328TIP3    H124948   4.260   1.749   1.651
 8328TIP3    H224949   4.235   1.608   1.601
 8329TIP3   OH224950   3.666   0.194   3.384
 8329TIP3    H124951   3.719   0.271   3.363
 8329TIP3    H224952   3.615   0.177   3.305
 8330TIP3   OH224953   3.732   1.463   0.242
 8330TIP3    H124954   3.749   1.554   0.220
 8330TIP3    H224955   3.637   1.458   0.252
 8331TIP3   OH224956   1.195   0.989   2.150
 8331TIP3    H124957   1.172   0.906   2.192
 8331TIP3    H224958   1.110   1.029   2.129
 8332TIP3   OH224959   4.015   0.822   2.362
 8332TIP3    H124960   3.933   0.832   2.313
 8332TIP3    H224961   3.990   0.783   2.445
 8333TIP3   OH224962   0.390   3.676   3.157
 8333TIP3    H124963   0.311   3.709   3.200
 8333TIP3    H224964   0.357   3.628   3.080
 8334TIP3   OH224965   3.621   2.394   3.605
 8334TIP3    H124966   3.571   2.467   3.569
 8334TIP3    H224967   3.563   2.319   3.596
 8335TIP3   OH224968   5.413   4.841   4.564
 8335TIP3    H124969   5.362   4.807   4.491
 8335TIP3    H224970   5.500   4.803   4.551
 8336TIP3   OH224971   3.043   6.430   3.187
 8336TIP3    H124972   3.054   6.467   3.275
 8336TIP3    H224973   2.987   6.494   3.142
 8337TIP3   OH224974   0.905   5.696   1.217
 8337TIP3    H124975   0.867   5.774   1.258
 8337TIP3    H224976   0.882   5.704   1.124
 8338TIP3   OH224977   5.744   1.836   0.859
 8338TIP3    H124978   5.806   1.879   0.801
 8338TIP3    H224979   5.797   1.805   0.932
 8339TIP3   OH224980   3.160   2.765   0.871
 8339TIP3    H124981   3.206   2.681   0.860
 8339TIP3    H224982   3.093   2.747   0.937
 8340TIP3   OH224983   0.908   3.390   3.995
 8340TIP3    H124984   0.845   3.453   4.028
 8340TIP3    H224985   0.855   3.316   3.965
 8341TIP3   OH224986   3.262   3.502   4.127
 8341TIP3    H124987   3.256   3.446   4.204
 8341TIP3    H224988   3.257   3.591   4.162
 8342TIP3   OH224989   5.087   4.501   4.370
 8342TIP3    H124990   5.130   4.525   4.288
 8342TIP3    H224991   5.018   4.440   4.343
 8343TIP3   OH224992   6.197   6.160   1.788
 8343TIP3    H124993   6.139   6.094   1.826
 8343TIP3    H224994   6.284   6.120   1.790
 8344TIP3   OH224995   2.352   4.444   5.484
 8344TIP3    H124996   2.416   4.494   5.434
 8344TIP3    H224997   2.310   4.387   5.420
 8345TIP3   OH224998   2.779   5.147   4.450
 8345TIP3    H124999   2.790   5.054   4.431
 8345TIP3    H225000   2.795   5.191   4.367
 8346TIP3   OH225001   1.725   3.482   0.861
 8346TIP3    H125002   1.656   3.443   0.807
 8346TIP3    H225003   1.735   3.422   0.935
 8347TIP3   OH225004   6.856   4.272   1.843
 8347TIP3    H125005   6.831   4.353   1.799
 8347TIP3    H225006   6.946   4.256   1.814
 8348TIP3   OH225007   5.806   0.812   3.157
 8348TIP3    H125008   5.740   0.761   3.109
 8348TIP3    H225009   5.827   0.759   3.233
 8349TIP3   OH225010   4.001   1.208   0.719
 8349TIP3    H125011   4.055   1.287   0.720
 8349TIP3    H225012   3.921   1.234   0.764
 8350TIP3   OH225013   4.492   0.572   3.734
 8350TIP3    H125014   4.399   0.573   3.755
 8350TIP3    H225015   4.501   0.503   3.668
 8351TIP3   OH225016   5.681   1.506   1.122
 8351TIP3    H125017   5.757   1.450   1.131
 8351TIP3    H225018   5.609   1.447   1.100
 8352TIP3   OH225019   1.543   0.544   3.695
 8352TIP3    H125020   1.534   0.631   3.734
 8352TIP3    H225021   1.621   0.507   3.737
 8353TIP3   OH225022   4.595   1.113   4.951
 8353TIP3    H125023   4.531   1.046   4.926
 8353TIP3    H225024   4.543   1.192   4.963
 8354TIP3   OH225025   0.437   4.395   0.623
 8354TIP3    H125026   0.513   4.363   0.573
 8354TIP3    H225027   0.362   4.353   0.581
 8355TIP3   OH225028   6.521   2.759   3.526
 8355TIP3    H125029   6.503   2.666   3.513
 8355TIP3    H225030   6.566   2.785   3.446
 8356TIP3   OH225031   1.833   4.109   1.447
 8356TIP3    H125032   1.859   4.083   1.358
 8356TIP3    H225033   1.915   4.112   1.496
 8357TIP3   OH225034   0.304   2.028   2.478
 8357TIP3    H125035   0.355   1.956   2.441
 8357TIP3    H225036   0.297   2.092   2.407
 8358TIP3   OH225037   0.423   4.618   0.465
 8358TIP3    H125038   0.360   4.668   0.517
 8358TIP3    H225039   0.430   4.534   0.510
 8359TIP3   OH225040   0.463   1.546   5.033
 8359TIP3    H125041   0.549   1.518   5.001
 8359TIP3    H225042   0.433   1.473   5.087
 8360TIP3   OH225043   3.690   4.242   0.448
 8360TIP3    H125044   3.715   4.256   0.539
 8360TIP3    H225045   3.625   4.172   0.452
 8361TIP3   OH225046   5.221   5.317   1.146
 8361TIP3    H125047   5.145   5.317   1.088
 8361TIP3    H225048   5.269   5.397   1.122
 8362TIP3   OH225049   1.721   0.028   4.083
 8362TIP3    H125050   1.730  -0.065   4.064
 8362TIP3    H225051   1.791   0.070   4.034
 8363TIP3   OH225052   6.794   6.186   0.883
 8363TIP3    H125053   6.773   6.097   0.856
 8363TIP3    H225054   6.711   6.233   0.879
 8364TIP3   OH225055   2.672   0.740   0.937
 8364TIP3    H125056   2.641   0.779   1.018
 8364TIP3    H225057   2.662   0.810   0.872
 8365TIP3   OH225058   1.257   1.945   0.230
 8365TIP3    H125059   1.315   1.876   0.262
 8365TIP3    H225060   1.209   1.904   0.159
 8366TIP3   OH225061   5.140   5.549   1.825
 8366TIP3    H125062   5.066   5.554   1.765
 8366TIP3    H225063   5.207   5.604   1.785
 8367TIP3   OH225064   6.842   5.623   4.579
 8367TIP3    H125065   6.875   5.535   4.563
 8367TIP3    H225066   6.760   5.609   4.628
 8368TIP3   OH225067   3.867   5.515   2.567
 8368TIP3    H125068   3.881   5.610   2.566
 8368TIP3    H225069   3.951   5.479   2.595
 8369TIP3   OH225070   3.961   5.356   5.830
 8369TIP3    H125071   3.953   5.450   5.843
 8369TIP3    H225072   3.971   5.346   5.735
 8370TIP3   OH225073   0.774   2.364   5.755
 8370TIP3    H125074   0.800   2.395   5.668
 8370TIP3    H225075   0.690   2.407   5.771
 8371TIP3   OH225076   4.291   4.024   3.861
 8371TIP3    H125077   4.205   4.059   3.885
 8371TIP3    H225078   4.325   3.986   3.942
 8372TIP3   OH225079   1.098   0.883   4.134
 8372TIP3    H125080   1.174   0.903   4.187
 8372TIP3    H225081   1.040   0.959   4.143
 8373TIP3   OH225082   6.322   3.128   1.680
 8373TIP3    H125083   6.267   3.051   1.693
 8373TIP3    H225084   6.340   3.130   1.586
 8374TIP3   OH225085   5.439   1.910   3.483
 8374TIP3    H125086   5.418   1.970   3.555
 8374TIP3    H225087   5.433   1.823   3.521
 8375TIP3   OH225088   0.934   6.684   0.439
 8375TIP3    H125089   0.889   6.715   0.518
 8375TIP3    H225090   1.017   6.732   0.438
 8376TIP3   OH225091   6.745   1.217   1.040
 8376TIP3    H125092   6.798   1.294   1.058
 8376TIP3    H225093   6.714   1.188   1.126
 8377TIP3   OH225094   1.547   5.961   2.459
 8377TIP3    H125095   1.540   5.936   2.551
 8377TIP3    H225096   1.535   5.880   2.411
 8378TIP3   OH225097   2.153   1.926   3.280
 8378TIP3    H125098   2.116   1.869   3.212
 8378TIP3    H225099   2.195   1.997   3.231
 8379TIP3   OH225100   3.380   0.833   2.572
 8379TIP3    H125101   3.387   0.748   2.616
 8379TIP3    H225102   3.418   0.819   2.486
 8380TIP3   OH225103   0.440   0.329   5.428
 8380TIP3    H125104   0.516   0.347   5.484
 8380TIP3    H225105   0.373   0.299   5.489
 8381TIP3   OH225106   4.047   6.666   2.140
 8381TIP3    H125107   3.956   6.640   2.157
 8381TIP3    H225108   4.080   6.695   2.225
 8382TIP3   OH225109   5.141   1.647   2.876
 8382TIP3    H125110   5.092   1.577   2.920
 8382TIP3    H225111   5.131   1.723   2.934
 8383TIP3   OH225112   3.407   5.171   4.192
 8383TIP3    H125113   3.437   5.094   4.143
 8383TIP3    H225114   3.345   5.214   4.133
 8384TIP3   OH225115   2.741   6.072   3.673
 8384TIP3    H125116   2.735   6.046   3.581
 8384TIP3    H225117   2.658   6.045   3.711
 8385TIP3   OH225118   6.784   6.682   1.152
 8385TIP3    H125119   6.844   6.751   1.123
 8385TIP3    H225120   6.749   6.645   1.071
 8386TIP3   OH225121   6.377   1.551   3.340
 8386TIP3    H125122   6.425   1.471   3.315
 8386TIP3    H225123   6.369   1.545   3.435
 8387TIP3   OH225124   3.533   1.064   2.009
 8387TIP3    H125125   3.446   1.103   2.015
 8387TIP3    H225126   3.519   0.976   1.975
 8388TIP3   OH225127   2.771   3.579   0.186
 8388TIP3    H125128   2.817   3.496   0.195
 8388TIP3    H225129   2.691   3.556   0.137
 8389TIP3   OH225130   1.542   3.658   0.674
 8389TIP3    H125131   1.508   3.742   0.704
 8389TIP3    H225132   1.634   3.659   0.701
 8390TIP3   OH225133   2.372   3.634   3.884
 8390TIP3    H125134   2.463   3.609   3.897
 8390TIP3    H225135   2.351   3.603   3.796
 8391TIP3   OH225136   0.526   0.649   4.637
 8391TIP3    H125137   0.510   0.738   4.669
 8391TIP3    H225138   0.491   0.649   4.548
 8392TIP3   OH225139   4.746   1.354   0.079
 8392TIP3    H125140   4.708   1.404   0.007
 8392TIP3    H225141   4.841   1.366   0.069
 8393TIP3   OH225142   1.092   6.659   2.012
 8393TIP3    H125143   1.013   6.673   1.960
 8393TIP3    H225144   1.069   6.691   2.099
 8394TIP3   OH225145   3.456   5.444   5.493
 8394TIP3    H125146   3.539   5.437   5.541
 8394TIP3    H225147   3.476   5.406   5.407
 8395TIP3   OH225148   5.415   5.243   4.207
 8395TIP3    H125149   5.421   5.155   4.170
 8395TIP3    H225150   5.323   5.253   4.231
 8396TIP3   OH225151   2.476   3.192   4.480
 8396TIP3    H125152   2.477   3.281   4.444
 8396TIP3    H225153   2.512   3.202   4.568
 8397TIP3   OH225154   1.398   3.458   4.130
 8397TIP3    H125155   1.404   3.553   4.141
 8397TIP3    H225156   1.467   3.423   4.186
 8398TIP3   OH225157   6.637   1.761   4.286
 8398TIP3    H125158   6.658   1.743   4.194
 8398TIP3    H225159   6.691   1.700   4.335
 8399TIP3   OH225160   4.345   4.645   4.601
 8399TIP3    H125161   4.260   4.648   4.555
 8399TIP3    H225162   4.350   4.730   4.645
 8400TIP3   OH225163   5.081   5.046   5.867
 8400TIP3    H125164   5.027   5.124   5.855
 8400TIP3    H225165   5.035   4.978   5.819
 8401TIP3   OH225166   4.864   6.065   4.727
 8401TIP3    H125167   4.819   6.113   4.657
 8401TIP3    H225168   4.827   6.099   4.808
 8402TIP3   OH225169   6.446   3.252   4.102
 8402TIP3    H125170   6.427   3.327   4.046
 8402TIP3    H225171   6.360   3.218   4.126
 8403TIP3   OH225172   3.153   5.050   1.319
 8403TIP3    H125173   3.236   5.017   1.284
 8403TIP3    H225174   3.176   5.133   1.360
 8404TIP3   OH225175   6.079   1.500   0.919
 8404TIP3    H125176   6.040   1.580   0.886
 8404TIP3    H225177   6.012   1.463   0.977
 8405TIP3   OH225178   2.771   0.980   3.220
 8405TIP3    H125179   2.731   0.893   3.218
 8405TIP3    H225180   2.832   0.980   3.146
 8406TIP3   OH225181   2.237   6.531   2.519
 8406TIP3    H125182   2.237   6.456   2.460
 8406TIP3    H225183   2.160   6.582   2.492
 8407TIP3   OH225184   5.679   2.348   5.343
 8407TIP3    H125185   5.731   2.354   5.422
 8407TIP3    H225186   5.725   2.284   5.288
 8408TIP3   OH225187   0.818   0.723   5.179
 8408TIP3    H125188   0.873   0.646   5.195
 8408TIP3    H225189   0.769   0.700   5.100
 8409TIP3   OH225190   1.863   0.790   5.011
 8409TIP3    H125191   1.827   0.707   5.042
 8409TIP3    H225192   1.836   0.854   5.077
 8410TIP3   OH225193   2.827   3.237   0.566
 8410TIP3    H125194   2.893   3.248   0.497
 8410TIP3    H225195   2.866   3.278   0.643
 8411TIP3   OH225196   1.527   0.835   2.629
 8411TIP3    H125197   1.482   0.835   2.714
 8411TIP3    H225198   1.584   0.758   2.632
 8412TIP3   OH225199   6.368   5.444   3.245
 8412TIP3    H125200   6.332   5.368   3.198
 8412TIP3    H225201   6.399   5.503   3.175
 8413TIP3   OH225202   4.819   5.569   5.555
 8413TIP3    H125203   4.799   5.560   5.648
 8413TIP3    H225204   4.737   5.598   5.515
 8414TIP3   OH225205   3.910   2.405   2.524
 8414TIP3    H125206   3.880   2.481   2.573
 8414TIP3    H225207   3.914   2.434   2.433
 8415TIP3   OH225208   4.031   1.258   1.053
 8415TIP3    H125209   4.004   1.350   1.059
 8415TIP3    H225210   3.950   1.208   1.064
 8416TIP3   OH225211   2.927   1.354   5.084
 8416TIP3    H125212   2.991   1.409   5.129
 8416TIP3    H225213   2.974   1.318   5.009
 8417TIP3   OH225214   0.718   1.456   0.077
 8417TIP3    H125215   0.802   1.498   0.057
 8417TIP3    H225216   0.728   1.424   0.167
 8418TIP3   OH225217   4.137   4.989   4.986
 8418TIP3    H125218   4.161   5.016   5.074
 8418TIP3    H225219   4.091   5.065   4.949
 8419TIP3   OH225220   5.310   1.089   4.116
 8419TIP3    H125221   5.231   1.132   4.147
 8419TIP3    H225222   5.313   1.106   4.022
 8420TIP3   OH225223   6.336   6.215   3.629
 8420TIP3    H125224   6.331   6.256   3.543
 8420TIP3    H225225   6.429   6.199   3.643
 8421TIP3   OH225226   0.736   1.345   4.064
 8421TIP3    H125227   0.724   1.250   4.052
 8421TIP3    H225228   0.817   1.365   4.018
 8422TIP3   OH225229   1.169   4.311   2.031
 8422TIP3    H125230   1.248   4.291   2.082
 8422TIP3    H225231   1.154   4.232   1.978
 8423TIP3   OH225232   0.638   0.290   0.462
 8423TIP3    H125233   0.650   0.374   0.418
 8423TIP3    H225234   0.685   0.228   0.408
 8424TIP3   OH225235   0.083   2.177   1.090
 8424TIP3    H125236  -0.011   2.164   1.098
 8424TIP3    H225237   0.115   2.099   1.044
 8425TIP3   OH225238   6.674   1.315   1.518
 8425TIP3    H125239   6.687   1.265   1.598
 8425TIP3    H225240   6.608   1.380   1.540
 8426TIP3   OH225241   3.772   3.638   1.794
 8426TIP3    H125242   3.678   3.631   1.776
 8426TIP3    H225243   3.805   3.549   1.781
 8427TIP3   OH225244   1.772   4.761   3.647
 8427TIP3    H125245   1.852   4.767   3.595
 8427TIP3    H225246   1.803   4.744   3.736
 8428TIP3   OH225247   3.972   1.426   0.396
 8428TIP3    H125248   4.010   1.494   0.452
 8428TIP3    H225249   3.899   1.469   0.352
 8429TIP3   OH225250   1.383   0.155   2.054
 8429TIP3    H125251   1.360   0.213   2.127
 8429TIP3    H225252   1.304   0.103   2.040
 8430TIP3   OH225253   2.670   4.133   2.019
 8430TIP3    H125254   2.756   4.158   1.986
 8430TIP3    H225255   2.614   4.208   2.000
 8431TIP3   OH225256   4.436   1.905   5.626
 8431TIP3    H125257   4.448   1.869   5.538
 8431TIP3    H225258   4.505   1.970   5.635
 8432TIP3   OH225259   5.011   4.903   3.695
 8432TIP3    H125260   5.071   4.829   3.705
 8432TIP3    H225261   5.025   4.933   3.605
 8433TIP3   OH225262   5.568   6.696   2.026
 8433TIP3    H125263   5.515   6.684   2.105
 8433TIP3    H225264   5.561   6.790   2.007
 8434TIP3   OH225265   4.991   2.259   2.342
 8434TIP3    H125266   5.030   2.334   2.388
 8434TIP3    H225267   4.988   2.190   2.409
 8435TIP3   OH225268   7.092   0.848   2.423
 8435TIP3    H125269   7.123   0.760   2.442
 8435TIP3    H225270   6.998   0.839   2.411
 8436TIP3   OH225271   3.845   6.655   2.848
 8436TIP3    H125272   3.778   6.693   2.906
 8436TIP3    H225273   3.806   6.573   2.818
 8437TIP3   OH225274   0.249   3.510   0.989
 8437TIP3    H125275   0.308   3.436   1.000
 8437TIP3    H225276   0.243   3.550   1.076
 8438TIP3   OH225277   2.717   5.298   2.117
 8438TIP3    H125278   2.664   5.361   2.164
 8438TIP3    H225279   2.756   5.243   2.185
 8439TIP3   OH225280   6.027   4.310   3.571
 8439TIP3    H125281   5.948   4.289   3.620
 8439TIP3    H225282   6.070   4.225   3.558
 8440TIP3   OH225283   4.249   0.758   4.943
 8440TIP3    H125284   4.224   0.723   4.858
 8440TIP3    H225285   4.281   0.681   4.991
 8441TIP3   OH225286   3.922   4.716   0.487
 8441TIP3    H125287   3.894   4.696   0.397
 8441TIP3    H225288   3.936   4.631   0.528
 8442TIP3   OH225289   2.071   2.854   5.687
 8442TIP3    H125290   1.993   2.802   5.707
 8442TIP3    H225291   2.059   2.882   5.597
 8443TIP3   OH225292   3.658   0.476   0.135
 8443TIP3    H125293   3.625   0.542   0.195
 8443TIP3    H225294   3.753   0.480   0.144
 8444TIP3   OH225295   1.537   3.681   3.560
 8444TIP3    H125296   1.631   3.660   3.557
 8444TIP3    H225297   1.501   3.622   3.625
 8445TIP3   OH225298   5.697   4.852   2.546
 8445TIP3    H125299   5.628   4.837   2.611
 8445TIP3    H225300   5.704   4.947   2.540
 8446TIP3   OH225301   1.187   5.903   4.598
 8446TIP3    H125302   1.236   5.907   4.516
 8446TIP3    H225303   1.254   5.902   4.667
 8447TIP3   OH225304   3.860   2.011   4.062
 8447TIP3    H125305   3.839   1.923   4.090
 8447TIP3    H225306   3.846   2.010   3.967
 8448TIP3   OH225307   1.671   3.544   3.010
 8448TIP3    H125308   1.620   3.580   2.938
 8448TIP3    H225309   1.689   3.619   3.067
 8449TIP3   OH225310   4.076   3.018   3.703
 8449TIP3    H125311   3.999   2.987   3.751
 8449TIP3    H225312   4.096   2.947   3.641
 8450TIP3   OH225313   0.547   0.893   4.732
 8450TIP3    H125314   0.528   0.920   4.822
 8450TIP3    H225315   0.513   0.965   4.679
 8451TIP3   OH225316   4.512   3.138   4.544
 8451TIP3    H125317   4.548   3.078   4.610
 8451TIP3    H225318   4.435   3.093   4.509
 8452TIP3   OH225319   0.574   6.547   2.304
 8452TIP3    H125320   0.589   6.499   2.223
 8452TIP3    H225321   0.640   6.617   2.303
 8453TIP3   OH225322   1.216   2.593   0.294
 8453TIP3    H125323   1.228   2.670   0.350
 8453TIP3    H225324   1.305   2.564   0.273
 8454TIP3   OH225325   1.246   2.320   1.001
 8454TIP3    H125326   1.227   2.249   1.062
 8454TIP3    H225327   1.185   2.306   0.928
 8455TIP3   OH225328   2.486   4.729   3.470
 8455TIP3    H125329   2.472   4.721   3.376
 8455TIP3    H225330   2.555   4.794   3.480
 8456TIP3   OH225331   4.694   0.605   0.007
 8456TIP3    H125332   4.730   0.555   0.080
 8456TIP3    H225333   4.677   0.692   0.043
 8457TIP3   OH225334   5.393   2.964   4.990
 8457TIP3    H125335   5.460   2.917   5.038
 8457TIP3    H225336   5.376   3.042   5.042
 8458TIP3   OH225337   5.930   3.082   2.472
 8458TIP3    H125338   5.991   3.143   2.514
 8458TIP3    H225339   5.985   3.027   2.417
 8459TIP3   OH225340   3.750   1.241   5.445
 8459TIP3    H125341   3.676   1.247   5.505
 8459TIP3    H225342   3.750   1.150   5.415
 8460TIP3   OH225343   5.939   1.960   2.748
 8460TIP3    H125344   5.963   1.932   2.660
 8460TIP3    H225345   6.021   1.957   2.798
 8461TIP3   OH225346   1.126   5.790   3.606
 8461TIP3    H125347   1.119   5.707   3.558
 8461TIP3    H225348   1.110   5.857   3.539
 8462TIP3   OH225349   4.437   5.510   5.664
 8462TIP3    H125350   4.454   5.419   5.689
 8462TIP3    H225351   4.459   5.513   5.571
 8463TIP3   OH225352   1.149   4.760   5.191
 8463TIP3    H125353   1.087   4.715   5.133
 8463TIP3    H225354   1.097   4.830   5.231
 8464TIP3   OH225355   5.992   4.133   1.125
 8464TIP3    H125356   5.938   4.210   1.106
 8464TIP3    H225357   6.079   4.168   1.144
 8465TIP3   OH225358   3.166   2.512   5.531
 8465TIP3    H125359   3.174   2.422   5.562
 8465TIP3    H225360   3.080   2.516   5.489
 8466TIP3   OH225361   2.339   4.676   4.100
 8466TIP3    H125362   2.323   4.659   4.192
 8466TIP3    H225363   2.354   4.590   4.061
 8467TIP3   OH225364   0.548   1.886   2.241
 8467TIP3    H125365   0.505   1.846   2.165
 8467TIP3    H225366   0.619   1.826   2.263
 8468TIP3   OH225367   5.739   6.064   3.632
 8468TIP3    H125368   5.742   5.970   3.647
 8468TIP3    H225369   5.778   6.101   3.712
 8469TIP3   OH225370   0.364   3.868   2.585
 8469TIP3    H125371   0.296   3.931   2.561
 8469TIP3    H225372   0.384   3.887   2.676
 8470TIP3   OH225373   1.549   5.165   2.146
 8470TIP3    H125374   1.637   5.131   2.159
 8470TIP3    H225375   1.552   5.253   2.184
 8471TIP3   OH225376   1.636   0.467   4.086
 8471TIP3    H125377   1.550   0.446   4.049
 8471TIP3    H225378   1.692   0.478   4.010
 8472TIP3   OH225379   6.858   5.256   4.153
 8472TIP3    H125380   6.829   5.169   4.123
 8472TIP3    H225381   6.933   5.238   4.209
 8473TIP3   OH225382   0.543   4.157   5.026
 8473TIP3    H125383   0.531   4.169   4.932
 8473TIP3    H225384   0.630   4.118   5.035
 8474TIP3   OH225385   2.294   0.171   5.762
 8474TIP3    H125386   2.232   0.199   5.829
 8474TIP3    H225387   2.315   0.080   5.784
 8475TIP3   OH225388   2.891   1.465   2.422
 8475TIP3    H125389   2.940   1.525   2.366
 8475TIP3    H225390   2.944   1.457   2.501
 8476TIP3   OH225391   0.225   2.958   0.156
 8476TIP3    H125392   0.191   3.047   0.160
 8476TIP3    H225393   0.202   2.927   0.069
 8477TIP3   OH225394   5.159   6.288   4.567
 8477TIP3    H125395   5.081   6.271   4.514
 8477TIP3    H225396   5.229   6.240   4.524
 8478TIP3   OH225397   1.892   1.614   4.102
 8478TIP3    H125398   1.869   1.602   4.195
 8478TIP3    H225399   1.884   1.708   4.088
 8479TIP3   OH225400   5.114   4.346   0.772
 8479TIP3    H125401   5.082   4.435   0.759
 8479TIP3    H225402   5.180   4.354   0.841
 8480TIP3   OH225403   1.599   5.566   3.419
 8480TIP3    H125404   1.646   5.529   3.345
 8480TIP3    H225405   1.643   5.531   3.497
 8481TIP3   OH225406   4.391   3.110   2.927
 8481TIP3    H125407   4.383   3.032   2.981
 8481TIP3    H225408   4.485   3.129   2.926
 8482TIP3   OH225409   5.328   1.939   1.319
 8482TIP3    H125410   5.315   2.008   1.254
 8482TIP3    H225411   5.330   1.985   1.403
 8483TIP3   OH225412   7.083   6.149   3.021
 8483TIP3    H125413   7.044   6.236   3.013
 8483TIP3    H225414   7.028   6.093   2.967
 8484TIP3   OH225415   2.350   6.152   2.650
 8484TIP3    H125416   2.445   6.161   2.636
 8484TIP3    H225417   2.343   6.092   2.724
 8485TIP3   OH225418   4.994   5.100   0.987
 8485TIP3    H125419   4.957   5.187   1.002
 8485TIP3    H225420   5.046   5.110   0.907
 8486TIP3   OH225421   6.655   0.814   5.393
 8486TIP3    H125422   6.666   0.796   5.300
 8486TIP3    H225423   6.565   0.789   5.412
 8487TIP3   OH225424   3.744   4.500   3.583
 8487TIP3    H125425   3.732   4.406   3.593
 8487TIP3    H225426   3.807   4.524   3.651
 8488TIP3   OH225427   3.517   6.478   0.353
 8488TIP3    H125428   3.613   6.481   0.356
 8488TIP3    H225429   3.491   6.566   0.326
 8489TIP3   OH225430   2.906   1.089   0.608
 8489TIP3    H125431   2.882   1.157   0.545
 8489TIP3    H225432   2.855   1.109   0.687
 8490TIP3   OH225433   7.169   2.144   4.385
 8490TIP3    H125434   7.142   2.191   4.464
 8490TIP3    H225435   7.116   2.064   4.386
 8491TIP3   OH225436   1.650   0.665   1.363
 8491TIP3    H125437   1.624   0.748   1.404
 8491TIP3    H225438   1.570   0.633   1.323
 8492TIP3   OH225439   0.756   1.178   4.744
 8492TIP3    H125440   0.808   1.107   4.706
 8492TIP3    H225441   0.767   1.167   4.839
 8493TIP3   OH225442   4.647   0.481   3.080
 8493TIP3    H125443   4.575   0.528   3.122
 8493TIP3    H225444   4.724   0.536   3.096
 8494TIP3   OH225445   0.253   3.182   0.574
 8494TIP3    H125446   0.276   3.090   0.588
 8494TIP3    H225447   0.160   3.187   0.595
 8495TIP3   OH225448   1.082   6.268   4.067
 8495TIP3    H125449   1.098   6.355   4.102
 8495TIP3    H225450   1.063   6.283   3.974
 8496TIP3   OH225451   3.666   3.737   3.474
 8496TIP3    H125452   3.731   3.667   3.463
 8496TIP3    H225453   3.692   3.804   3.412
 8497TIP3   OH225454   2.707   2.095   3.715
 8497TIP3    H125455   2.770   2.146   3.766
 8497TIP3    H225456   2.635   2.155   3.698
 8498TIP3   OH225457   5.479   6.518   1.297
 8498TIP3    H125458   5.502   6.563   1.378
 8498TIP3    H225459   5.429   6.582   1.247
 8499TIP3   OH225460   3.337  -0.014   1.560
 8499TIP3    H125461   3.342   0.082   1.563
 8499TIP3    H225462   3.273  -0.033   1.491
 8500TIP3   OH225463   5.781   1.578   1.458
 8500TIP3    H125464   5.863   1.547   1.421
 8500TIP3    H225465   5.714   1.547   1.397
 8501TIP3   OH225466   4.572   3.016   5.429
 8501TIP3    H125467   4.602   2.990   5.342
 8501TIP3    H225468   4.576   2.936   5.481
 8502TIP3   OH225469   2.257   2.450   0.333
 8502TIP3    H125470   2.293   2.519   0.277
 8502TIP3    H225471   2.200   2.399   0.275
 8503TIP3   OH225472   5.490   4.548   1.852
 8503TIP3    H125473   5.542   4.623   1.824
 8503TIP3    H225474   5.552   4.495   1.903
 8504TIP3   OH225475   5.728   6.390   1.193
 8504TIP3    H125476   5.656   6.435   1.238
 8504TIP3    H225477   5.802   6.450   1.199
 8505TIP3   OH225478   3.139   1.980   0.406
 8505TIP3    H125479   3.097   2.065   0.405
 8505TIP3    H225480   3.095   1.930   0.336
 8506TIP3   OH225481   3.708   2.916   4.399
 8506TIP3    H125482   3.726   2.861   4.323
 8506TIP3    H225483   3.794   2.950   4.425
 8507TIP3   OH225484   4.327   3.363   5.205
 8507TIP3    H125485   4.350   3.390   5.116
 8507TIP3    H225486   4.295   3.274   5.196
 8508TIP3   OH225487   3.370   3.454   2.700
 8508TIP3    H125488   3.424   3.510   2.756
 8508TIP3    H225489   3.417   3.371   2.697
 8509TIP3   OH225490   6.508   4.362   5.763
 8509TIP3    H125491   6.463   4.363   5.679
 8509TIP3    H225492   6.595   4.397   5.745
 8510TIP3   OH225493   3.700   2.656   1.614
 8510TIP3    H125494   3.731   2.666   1.704
 8510TIP3    H225495   3.780   2.644   1.562
 8511TIP3   OH225496   0.932   0.010   2.376
 8511TIP3    H125497   1.024   0.038   2.379
 8511TIP3    H225498   0.887   0.070   2.436
 8512TIP3   OH225499   0.443   1.922   3.409
 8512TIP3    H125500   0.483   1.837   3.429
 8512TIP3    H225501   0.516   1.976   3.379
 8513TIP3   OH225502   0.420   3.906   3.612
 8513TIP3    H125503   0.351   3.891   3.676
 8513TIP3    H225504   0.447   3.997   3.627
 8514TIP3   OH225505   0.268   0.632   2.193
 8514TIP3    H125506   0.277   0.721   2.228
 8514TIP3    H225507   0.241   0.579   2.268
 8515TIP3   OH225508   4.442   0.417   1.821
 8515TIP3    H125509   4.423   0.496   1.770
 8515TIP3    H225510   4.534   0.399   1.804
 8516TIP3   OH225511   3.178   2.466   0.829
 8516TIP3    H125512   3.106   2.492   0.886
 8516TIP3    H225513   3.202   2.378   0.859
 8517TIP3   OH225514   4.663   6.280   4.339
 8517TIP3    H125515   4.694   6.297   4.250
 8517TIP3    H225516   4.620   6.361   4.365
 8518TIP3   OH225517   5.824   1.968   1.484
 8518TIP3    H125518   5.899   1.911   1.469
 8518TIP3    H225519   5.815   2.019   1.403
 8519TIP3   OH225520   4.509   5.102   2.911
 8519TIP3    H125521   4.442   5.044   2.948
 8519TIP3    H225522   4.581   5.097   2.973
 8520TIP3   OH225523   1.876   4.223   4.714
 8520TIP3    H125524   1.970   4.221   4.731
 8520TIP3    H225525   1.867   4.190   4.624
 8521TIP3   OH225526   6.208   5.806   1.988
 8521TIP3    H125527   6.290   5.836   2.027
 8521TIP3    H225528   6.181   5.732   2.042
 8522TIP3   OH225529   2.452   1.874   4.750
 8522TIP3    H125530   2.424   1.886   4.659
 8522TIP3    H225531   2.497   1.790   4.750
 8523TIP3   OH225532   2.429   4.782   4.866
 8523TIP3    H125533   2.444   4.830   4.785
 8523TIP3    H225534   2.360   4.831   4.911
 8524TIP3   OH225535   4.277   0.421   1.540
 8524TIP3    H125536   4.365   0.388   1.519
 8524TIP3    H225537   4.234   0.347   1.583
 8525TIP3   OH225538   3.167   2.525   4.829
 8525TIP3    H125539   3.088   2.547   4.878
 8525TIP3    H225540   3.180   2.432   4.844
 8526TIP3   OH225541   7.200   2.157   2.661
 8526TIP3    H125542   7.217   2.070   2.698
 8526TIP3    H225543   7.111   2.151   2.626
 8527TIP3   OH225544   5.921   3.086   4.120
 8527TIP3    H125545   5.844   3.035   4.095
 8527TIP3    H225546   5.995   3.026   4.106
 8528TIP3   OH225547   0.437   3.478   3.780
 8528TIP3    H125548   0.403   3.554   3.827
 8528TIP3    H225549   0.411   3.491   3.689
 8529TIP3   OH225550   3.573   0.131   3.083
 8529TIP3    H125551   3.649   0.092   3.125
 8529TIP3    H225552   3.498   0.087   3.122
 8530TIP3   OH225553   4.276   0.287   2.630
 8530TIP3    H125554   4.324   0.370   2.618
 8530TIP3    H225555   4.338   0.220   2.602
 8531TIP3   OH225556   1.172   0.597   2.971
 8531TIP3    H125557   1.247   0.613   2.914
 8531TIP3    H225558   1.203   0.530   3.032
 8532TIP3   OH225559   2.135   1.008   0.746
 8532TIP3    H125560   2.188   0.933   0.717
 8532TIP3    H225561   2.090   1.037   0.667
 8533TIP3   OH225562   4.548   5.593   5.445
 8533TIP3    H125563   4.568   5.525   5.381
 8533TIP3    H225564   4.504   5.662   5.394
 8534TIP3   OH225565   0.546   0.128   5.214
 8534TIP3    H125566   0.508   0.215   5.222
 8534TIP3    H225567   0.529   0.103   5.123
 8535TIP3   OH225568   1.698   2.728   4.609
 8535TIP3    H125569   1.699   2.810   4.657
 8535TIP3    H225570   1.605   2.707   4.598
 8536TIP3   OH225571   5.705   3.633   0.810
 8536TIP3    H125572   5.754   3.552   0.795
 8536TIP3    H225573   5.631   3.628   0.749
 8537TIP3   OH225574   7.213   3.441   3.552
 8537TIP3    H125575   7.155   3.400   3.616
 8537TIP3    H225576   7.275   3.371   3.527
 8538TIP3   OH225577   0.800   6.105   5.530
 8538TIP3    H125578   0.871   6.081   5.590
 8538TIP3    H225579   0.786   6.198   5.545
 8539TIP3   OH225580   6.800   5.988   4.293
 8539TIP3    H125581   6.846   5.926   4.237
 8539TIP3    H225582   6.803   5.949   4.380
 8540TIP3   OH225583   1.376   2.897   5.781
 8540TIP3    H125584   1.373   2.938   5.867
 8540TIP3    H225585   1.468   2.901   5.756
 8541TIP3   OH225586   6.687   3.458   1.536
 8541TIP3    H125587   6.644   3.529   1.584
 8541TIP3    H225588   6.776   3.490   1.522
 8542TIP3   OH225589   2.934   6.450   0.517
 8542TIP3    H125590   2.960   6.440   0.609
 8542TIP3    H225591   2.876   6.526   0.517
 8543TIP3   OH225592   5.310   0.982   1.709
 8543TIP3    H125593   5.387   0.926   1.703
 8543TIP3    H225594   5.273   0.963   1.796
 8544TIP3   OH225595   3.644   6.686   5.627
 8544TIP3    H125596   3.733   6.717   5.612
 8544TIP3    H225597   3.617   6.729   5.708
 8545TIP3   OH225598   3.027   1.985   5.014
 8545TIP3    H125599   2.961   2.048   5.043
 8545TIP3    H225600   2.976   1.916   4.971
 8546TIP3   OH225601   0.456   3.747   4.663
 8546TIP3    H125602   0.520   3.744   4.592
 8546TIP3    H225603   0.430   3.839   4.668
 8547TIP3   OH225604   4.036   0.091   2.660
 8547TIP3    H125605   4.058   0.159   2.723
 8547TIP3    H225606   4.066   0.125   2.576
 8548TIP3   OH225607   5.959   3.503   4.027
 8548TIP3    H125608   5.960   3.480   4.120
 8548TIP3    H225609   5.925   3.425   3.983
 8549TIP3   OH225610   0.151   3.592   1.965
 8549TIP3    H125611   0.147   3.659   2.033
 8549TIP3    H225612   0.222   3.534   1.992
 8550TIP3   OH225613   2.943   0.245   1.484
 8550TIP3    H125614   2.915   0.175   1.425
 8550TIP3    H225615   2.894   0.322   1.453
 8551TIP3   OH225616   5.256   4.520   4.123
 8551TIP3    H125617   5.213   4.527   4.038
 8551TIP3    H225618   5.331   4.578   4.117
 8552TIP3   OH225619   7.072   6.074   0.641
 8552TIP3    H125620   7.066   6.094   0.734
 8552TIP3    H225621   7.031   6.149   0.597
 8553TIP3   OH225622   4.660   5.724   1.721
 8553TIP3    H125623   4.726   5.659   1.698
 8553TIP3    H225624   4.709   5.805   1.735
 8554TIP3   OH225625   0.123   0.831   1.013
 8554TIP3    H125626   0.128   0.922   1.042
 8554TIP3    H225627   0.138   0.836   0.918
 8555TIP3   OH225628   1.279   3.394   3.479
 8555TIP3    H125629   1.249   3.474   3.434
 8555TIP3    H225630   1.259   3.410   3.571
 8556TIP3   OH225631   2.668   3.980   3.728
 8556TIP3    H125632   2.726   4.056   3.722
 8556TIP3    H225633   2.580   4.017   3.721
 8557TIP3   OH225634   3.557   5.825   0.209
 8557TIP3    H125635   3.610   5.748   0.189
 8557TIP3    H225636   3.501   5.836   0.132
 8558TIP3   OH225637   3.162   4.184   5.169
 8558TIP3    H125638   3.077   4.214   5.202
 8558TIP3    H225639   3.226   4.224   5.227
 8559TIP3   OH225640   6.009   0.939   3.399
 8559TIP3    H125641   6.100   0.935   3.429
 8559TIP3    H225642   5.998   1.029   3.368
 8560TIP3   OH225643   4.325   0.138   0.709
 8560TIP3    H125644   4.291   0.223   0.737
 8560TIP3    H225645   4.410   0.158   0.669
 8561TIP3   OH225646   3.552   2.944   3.429
 8561TIP3    H125647   3.500   2.967   3.507
 8561TIP3    H225648   3.493   2.961   3.356
 8562TIP3   OH225649   5.026   5.712   1.097
 8562TIP3    H125650   5.019   5.808   1.101
 8562TIP3    H225651   5.118   5.695   1.079
 8563TIP3   OH225652   3.463   0.194   4.879
 8563TIP3    H125653   3.494   0.265   4.823
 8563TIP3    H225654   3.428   0.237   4.957
 8564TIP3   OH225655   1.891   3.677   3.981
 8564TIP3    H125656   1.970   3.625   3.969
 8564TIP3    H225657   1.823   3.613   4.002
 8565TIP3   OH225658   1.906   0.784   0.241
 8565TIP3    H125659   1.918   0.868   0.196
 8565TIP3    H225660   1.867   0.807   0.325
 8566TIP3   OH225661   5.626   5.845   5.782
 8566TIP3    H125662   5.603   5.894   5.861
 8566TIP3    H225663   5.641   5.911   5.715
 8567TIP3   OH225664   5.598   0.807   1.752
 8567TIP3    H125665   5.617   0.746   1.823
 8567TIP3    H225666   5.585   0.751   1.675
 8568TIP3   OH225667   4.984   1.255   5.571
 8568TIP3    H125668   5.078   1.253   5.552
 8568TIP3    H225669   4.975   1.204   5.651
 8569TIP3   OH225670   2.972   2.586   5.062
 8569TIP3    H125671   2.914   2.511   5.078
 8569TIP3    H225672   3.020   2.597   5.144
 8570TIP3   OH225673   3.896   1.109   3.586
 8570TIP3    H125674   3.894   1.187   3.640
 8570TIP3    H225675   3.809   1.104   3.547
 8571TIP3   OH225676   1.907   3.508   0.228
 8571TIP3    H125677   1.894   3.453   0.151
 8571TIP3    H225678   1.940   3.591   0.194
 8572TIP3   OH225679   2.816   6.786   4.129
 8572TIP3    H125680   2.791   6.823   4.214
 8572TIP3    H225681   2.911   6.790   4.128
 8573TIP3   OH225682   0.872   1.374   1.115
 8573TIP3    H125683   0.843   1.300   1.168
 8573TIP3    H225684   0.794   1.428   1.105
 8574TIP3   OH225685   1.354   6.256   0.748
 8574TIP3    H125686   1.418   6.323   0.770
 8574TIP3    H225687   1.276   6.278   0.799
 8575TIP3   OH225688   1.232   2.437   3.998
 8575TIP3    H125689   1.301   2.501   4.017
 8575TIP3    H225690   1.150   2.484   4.017
 8576TIP3   OH225691   1.173   3.149   5.267
 8576TIP3    H125692   1.156   3.220   5.205
 8576TIP3    H225693   1.180   3.070   5.213
 8577TIP3   OH225694   5.804   2.799   3.427
 8577TIP3    H125695   5.810   2.858   3.502
 8577TIP3    H225696   5.849   2.719   3.455
 8578TIP3   OH225697   1.251   3.183   2.175
 8578TIP3    H125698   1.252   3.195   2.080
 8578TIP3    H225699   1.243   3.088   2.187
 8579TIP3   OH225700   5.434   0.027   0.123
 8579TIP3    H125701   5.375   0.041   0.049
 8579TIP3    H225702   5.415   0.099   0.183
 8580TIP3   OH225703   5.464   2.467   3.159
 8580TIP3    H125704   5.469   2.530   3.230
 8580TIP3    H225705   5.437   2.518   3.083
 8581TIP3   OH225706   0.893   1.339   3.207
 8581TIP3    H125707   0.986   1.358   3.198
 8581TIP3    H225708   0.869   1.298   3.124
 8582TIP3   OH225709   2.812   1.279   3.286
 8582TIP3    H125710   2.762   1.355   3.256
 8582TIP3    H225711   2.898   1.290   3.247
 8583TIP3   OH225712   0.270   0.965   4.302
 8583TIP3    H125713   0.185   0.945   4.340
 8583TIP3    H225714   0.269   0.920   4.217
 8584TIP3   OH225715   0.532   3.085   2.203
 8584TIP3    H125716   0.551   3.054   2.291
 8584TIP3    H225717   0.449   3.133   2.212
 8585TIP3   OH225718   4.678   2.366   0.526
 8585TIP3    H125719   4.757   2.419   0.535
 8585TIP3    H225720   4.636   2.369   0.612
 8586TIP3   OH225721   1.723   5.692   0.302
 8586TIP3    H125722   1.671   5.755   0.352
 8586TIP3    H225723   1.758   5.632   0.368
 8587TIP3   OH225724   3.021   4.538   4.710
 8587TIP3    H125725   2.937   4.494   4.693
 8587TIP3    H225726   3.083   4.467   4.724
 8588TIP3   OH225727   3.017   3.677   1.703
 8588TIP3    H125728   2.955   3.643   1.768
 8588TIP3    H225729   2.961   3.708   1.632
 8589TIP3   OH225730   1.184   0.200   5.551
 8589TIP3    H125731   1.140   0.161   5.476
 8589TIP3    H225732   1.154   0.291   5.552
 8590TIP3   OH225733   5.366   1.421   2.925
 8590TIP3    H125734   5.315   1.501   2.913
 8590TIP3    H225735   5.319   1.354   2.875
 8591TIP3   OH225736   1.743   3.565   0.454
 8591TIP3    H125737   1.718   3.478   0.487
 8591TIP3    H225738   1.793   3.547   0.375
 8592TIP3   OH225739   6.931   2.462   0.449
 8592TIP3    H125740   6.976   2.539   0.411
 8592TIP3    H225741   7.001   2.399   0.463
 8593TIP3   OH225742   4.202   2.006   3.373
 8593TIP3    H125743   4.110   1.985   3.355
 8593TIP3    H225744   4.201   2.097   3.399
 8594TIP3   OH225745   2.518   1.430   5.317
 8594TIP3    H125746   2.525   1.525   5.312
 8594TIP3    H225747   2.557   1.399   5.235
 8595TIP3   OH225748   5.501   4.574   5.081
 8595TIP3    H125749   5.477   4.501   5.138
 8595TIP3    H225750   5.467   4.550   4.995
 8596TIP3   OH225751   4.166   3.799   0.207
 8596TIP3    H125752   4.155   3.846   0.290
 8596TIP3    H225753   4.123   3.855   0.142
 8597TIP3   OH225754   1.240   3.590   4.458
 8597TIP3    H125755   1.185   3.567   4.383
 8597TIP3    H225756   1.196   3.664   4.499
 8598TIP3   OH225757   0.505   0.307   1.384
 8598TIP3    H125758   0.524   0.379   1.325
 8598TIP3    H225759   0.584   0.299   1.438
 8599TIP3   OH225760   4.701   1.665   4.547
 8599TIP3    H125761   4.789   1.692   4.571
 8599TIP3    H225762   4.688   1.582   4.593
 8600TIP3   OH225763   0.466   5.315   2.430
 8600TIP3    H125764   0.467   5.289   2.522
 8600TIP3    H225765   0.379   5.353   2.417
 8601TIP3   OH225766   4.031   4.317   3.326
 8601TIP3    H125767   3.997   4.325   3.414
 8601TIP3    H225768   3.972   4.369   3.272
 8602TIP3   OH225769   5.850   3.102   3.000
 8602TIP3    H125770   5.757   3.082   3.012
 8602TIP3    H225771   5.853   3.197   2.988
 8603TIP3   OH225772   2.815   5.589   4.856
 8603TIP3    H125773   2.722   5.575   4.869
 8603TIP3    H225774   2.855   5.568   4.941
 8604TIP3   OH225775   5.888   6.386   0.140
 8604TIP3    H125776   5.867   6.473   0.174
 8604TIP3    H225777   5.870   6.327   0.214
 8605TIP3   OH225778   4.056   0.335   1.339
 8605TIP3    H125779   4.115   0.349   1.413
 8605TIP3    H225780   3.992   0.272   1.371
 8606TIP3   OH225781   3.619   6.312   3.391
 8606TIP3    H125782   3.561   6.384   3.366
 8606TIP3    H225783   3.575   6.234   3.358
 8607TIP3   OH225784   5.985   6.295   3.149
 8607TIP3    H125785   5.915   6.243   3.187
 8607TIP3    H225786   6.065   6.248   3.173
 8608TIP3   OH225787   6.717   6.488   4.777
 8608TIP3    H125788   6.802   6.516   4.811
 8608TIP3    H225789   6.723   6.503   4.683
 8609TIP3   OH225790   6.634   1.743   2.038
 8609TIP3    H125791   6.555   1.778   2.079
 8609TIP3    H225792   6.684   1.821   2.011
 8610TIP3   OH225793   0.812   5.910   1.385
 8610TIP3    H125794   0.767   5.905   1.469
 8610TIP3    H225795   0.758   5.970   1.332
 8611TIP3   OH225796   5.607   0.778   4.665
 8611TIP3    H125797   5.662   0.749   4.737
 8611TIP3    H225798   5.566   0.698   4.632
 8612TIP3   OH225799   5.051   2.813   0.990
 8612TIP3    H125800   5.006   2.789   0.909
 8612TIP3    H225801   5.017   2.753   1.056
 8613TIP3   OH225802   1.517   0.015   0.062
 8613TIP3    H125803   1.591   0.055   0.108
 8613TIP3    H225804   1.552  -0.067   0.027
 8614TIP3   OH225805   6.627   4.171   1.423
 8614TIP3    H125806   6.592   4.085   1.398
 8614TIP3    H225807   6.710   4.151   1.467
 8615TIP3   OH225808   7.087   2.682   5.277
 8615TIP3    H125809   7.008   2.714   5.320
 8615TIP3    H225810   7.151   2.753   5.289
 8616TIP3   OH225811   5.840   4.507   5.678
 8616TIP3    H125812   5.750   4.489   5.704
 8616TIP3    H225813   5.891   4.437   5.717
 8617TIP3   OH225814   4.347   0.948   0.765
 8617TIP3    H125815   4.358   1.006   0.690
 8617TIP3    H225816   4.320   1.006   0.836
 8618TIP3   OH225817   4.286   6.046   1.912
 8618TIP3    H125818   4.343   6.022   1.840
 8618TIP3    H225819   4.200   6.058   1.871
 8619TIP3   OH225820   2.273   4.822   1.780
 8619TIP3    H125821   2.181   4.832   1.806
 8619TIP3    H225822   2.270   4.767   1.702
 8620TIP3   OH225823   7.099   3.712   3.728
 8620TIP3    H125824   7.036   3.661   3.678
 8620TIP3    H225825   7.094   3.800   3.690
 8621TIP3   OH225826   2.357   6.010   4.234
 8621TIP3    H125827   2.340   6.104   4.226
 8621TIP3    H225828   2.342   5.992   4.327
 8622TIP3   OH225829   6.473   1.649   3.808
 8622TIP3    H125830   6.451   1.694   3.726
 8622TIP3    H225831   6.539   1.584   3.782
 8623TIP3   OH225832   2.762   1.188   1.825
 8623TIP3    H125833   2.671   1.201   1.798
 8623TIP3    H225834   2.813   1.236   1.761
 8624TIP3   OH225835   4.638   5.822   5.076
 8624TIP3    H125836   4.577   5.782   5.013
 8624TIP3    H225837   4.656   5.908   5.039
 8625TIP3   OH225838   6.686   4.462   0.466
 8625TIP3    H125839   6.620   4.421   0.410
 8625TIP3    H225840   6.748   4.501   0.405
 8626TIP3   OH225841   4.278   3.409   0.753
 8626TIP3    H125842   4.216   3.461   0.703
 8626TIP3    H225843   4.339   3.473   0.789
 8627TIP3   OH225844   5.551   3.659   4.414
 8627TIP3    H125845   5.471   3.610   4.434
 8627TIP3    H225846   5.619   3.593   4.408
 8628TIP3   OH225847   7.023   2.816   4.887
 8628TIP3    H125848   7.042   2.737   4.837
 8628TIP3    H225849   7.105   2.836   4.933
 8629TIP3   OH225850   5.955   2.547   3.626
 8629TIP3    H125851   6.033   2.586   3.666
 8629TIP3    H225852   5.906   2.511   3.700
 8630TIP3   OH225853   3.123   1.035   0.465
 8630TIP3    H125854   3.061   1.075   0.527
 8630TIP3    H225855   3.093   0.945   0.456
 8631TIP3   OH225856   2.750   0.853   2.773
 8631TIP3    H125857   2.828   0.824   2.726
 8631TIP3    H225858   2.726   0.936   2.732
 8632TIP3   OH225859   4.933   3.080   0.596
 8632TIP3    H125860   4.943   3.095   0.501
 8632TIP3    H225861   4.959   3.163   0.635
 8633TIP3   OH225862   1.611   5.117   0.783
 8633TIP3    H125863   1.639   5.035   0.824
 8633TIP3    H225864   1.602   5.178   0.856
 8634TIP3   OH225865   0.931   3.080   2.157
 8634TIP3    H125866   0.954   3.146   2.223
 8634TIP3    H225867   0.876   3.128   2.094
 8635TIP3   OH225868   5.299   2.596   5.534
 8635TIP3    H125869   5.382   2.568   5.572
 8635TIP3    H225870   5.311   2.689   5.516
 8636TIP3   OH225871   2.227   5.052   4.891
 8636TIP3    H125872   2.226   5.070   4.797
 8636TIP3    H225873   2.188   4.965   4.900
 8637TIP3   OH225874   6.660   6.146   0.599
 8637TIP3    H125875   6.724   6.135   0.528
 8637TIP3    H225876   6.575   6.144   0.556
 8638TIP3   OH225877   0.699   2.995   5.642
 8638TIP3    H125878   0.687   3.024   5.552
 8638TIP3    H225879   0.717   3.075   5.691
 8639TIP3   OH225880   0.165   4.077   0.728
 8639TIP3    H125881   0.163   4.166   0.694
 8639TIP3    H225882   0.144   4.022   0.653
 8640TIP3   OH225883   6.481   1.488   1.583
 8640TIP3    H125884   6.399   1.499   1.631
 8640TIP3    H225885   6.540   1.553   1.621
 8641TIP3   OH225886   3.367   2.153   2.444
 8641TIP3    H125887   3.456   2.163   2.479
 8641TIP3    H225888   3.321   2.104   2.512
 8642TIP3   OH225889   0.126   4.393   4.029
 8642TIP3    H125890   0.080   4.477   4.027
 8642TIP3    H225891   0.158   4.381   3.940
 8643TIP3   OH225892   5.644   1.707   5.674
 8643TIP3    H125893   5.717   1.692   5.734
 8643TIP3    H225894   5.670   1.662   5.593
 8644TIP3   OH225895   2.132   2.797   4.780
 8644TIP3    H125896   2.223   2.778   4.806
 8644TIP3    H225897   2.082   2.723   4.813
 8645TIP3   OH225898   4.603   0.837   3.986
 8645TIP3    H125899   4.529   0.779   3.971
 8645TIP3    H225900   4.680   0.782   3.966
 8646TIP3   OH225901   4.156   1.888   4.177
 8646TIP3    H125902   4.217   1.858   4.110
 8646TIP3    H225903   4.095   1.945   4.130
 8647TIP3   OH225904   4.069   0.821   0.836
 8647TIP3    H125905   4.123   0.764   0.891
 8647TIP3    H225906   4.093   0.910   0.861
 8648TIP3   OH225907   5.278   0.535   5.363
 8648TIP3    H125908   5.362   0.544   5.407
 8648TIP3    H225909   5.286   0.591   5.285
 8649TIP3   OH225910   2.392   5.666   4.332
 8649TIP3    H125911   2.447   5.626   4.399
 8649TIP3    H225912   2.373   5.754   4.365
 8650TIP3   OH225913   5.912   6.578   1.274
 8650TIP3    H125914   5.886   6.667   1.298
 8650TIP3    H225915   5.967   6.589   1.196
 8651TIP3   OH225916   2.030   2.347   0.162
 8651TIP3    H125917   1.953   2.289   0.162
 8651TIP3    H225918   1.993   2.435   0.158
 8652TIP3   OH225919   4.799   2.922   0.133
 8652TIP3    H125920   4.782   2.968   0.051
 8652TIP3    H225921   4.731   2.855   0.138
 8653TIP3   OH225922   4.572   1.340   3.729
 8653TIP3    H125923   4.495   1.285   3.718
 8653TIP3    H225924   4.538   1.430   3.724
 8654TIP3   OH225925   3.749   5.683   1.862
 8654TIP3    H125926   3.772   5.771   1.892
 8654TIP3    H225927   3.792   5.625   1.924
 8655TIP3   OH225928   0.148   0.612   4.012
 8655TIP3    H125929   0.058   0.600   4.040
 8655TIP3    H225930   0.200   0.574   4.082
 8656TIP3   OH225931   6.794   6.536   4.497
 8656TIP3    H125932   6.729   6.571   4.436
 8656TIP3    H225933   6.785   6.441   4.489
 8657TIP3   OH225934   5.671   5.103   0.564
 8657TIP3    H125935   5.605   5.152   0.612
 8657TIP3    H225936   5.738   5.082   0.629
 8658TIP3   OH225937   5.363   1.261   0.327
 8658TIP3    H125938   5.340   1.205   0.401
 8658TIP3    H225939   5.458   1.247   0.316
 8659TIP3   OH225940   7.154   5.537   1.545
 8659TIP3    H125941   7.174   5.570   1.458
 8659TIP3    H225942   7.061   5.555   1.557
 8660TIP3   OH225943   0.594   2.326   3.783
 8660TIP3    H125944   0.653   2.399   3.770
 8660TIP3    H225945   0.532   2.331   3.709
 8661TIP3   OH225946   0.736   6.020   2.279
 8661TIP3    H125947   0.645   6.014   2.308
 8661TIP3    H225948   0.765   5.929   2.272
 8662TIP3   OH225949   4.039   1.698   3.177
 8662TIP3    H125950   4.120   1.702   3.125
 8662TIP3    H225951   4.069   1.696   3.268
 8663TIP3   OH225952   3.269   3.237   2.926
 8663TIP3    H125953   3.234   3.169   2.983
 8663TIP3    H225954   3.247   3.208   2.837
 8664TIP3   OH225955   5.791   4.124   0.604
 8664TIP3    H125956   5.732   4.133   0.530
 8664TIP3    H225957   5.768   4.040   0.643
 8665TIP3   OH225958   4.407   5.762   4.913
 8665TIP3    H125959   4.421   5.758   4.818
 8665TIP3    H225960   4.367   5.847   4.928
 8666TIP3   OH225961   1.309   0.072   0.549
 8666TIP3    H125962   1.307   0.144   0.613
 8666TIP3    H225963   1.401   0.050   0.541
 8667TIP3   OH225964   2.610   2.225   1.645
 8667TIP3    H125965   2.674   2.292   1.620
 8667TIP3    H225966   2.582   2.187   1.562
 8668TIP3   OH225967   6.960   2.678   2.811
 8668TIP3    H125968   7.020   2.751   2.827
 8668TIP3    H225969   6.902   2.679   2.887
 8669TIP3   OH225970   0.781   1.668   5.520
 8669TIP3    H125971   0.784   1.653   5.614
 8669TIP3    H225972   0.868   1.703   5.499
 8670TIP3   OH225973   2.369   3.105   3.675
 8670TIP3    H125974   2.301   3.040   3.695
 8670TIP3    H225975   2.431   3.057   3.620
 8671TIP3   OH225976   1.435   1.411   5.726
 8671TIP3    H125977   1.430   1.356   5.648
 8671TIP3    H225978   1.389   1.361   5.794
 8672TIP3   OH225979   4.296   5.540   0.845
 8672TIP3    H125980   4.280   5.542   0.939
 8672TIP3    H225981   4.360   5.609   0.830
 8673TIP3   OH225982   0.883   2.911   3.447
 8673TIP3    H125983   0.845   2.979   3.391
 8673TIP3    H225984   0.967   2.947   3.476
 8674TIP3   OH225985   0.604   1.704   3.417
 8674TIP3    H125986   0.678   1.658   3.456
 8674TIP3    H225987   0.558   1.637   3.365
 8675TIP3   OH225988   3.294   3.268   5.020
 8675TIP3    H125989   3.254   3.353   5.000
 8675TIP3    H225990   3.233   3.204   4.985
 8676TIP3   OH225991   4.731   4.000   0.873
 8676TIP3    H125992   4.768   3.985   0.960
 8676TIP3    H225993   4.802   3.977   0.812
 8677TIP3   OH225994   0.794   3.066   4.815
 8677TIP3    H125995   0.828   3.150   4.845
 8677TIP3    H225996   0.727   3.089   4.750
 8678TIP3   OH225997   3.625   6.539   3.068
 8678TIP3    H125998   3.559   6.585   3.016
 8678TIP3    H225999   3.587   6.533   3.155
 8679TIP3   OH226000   4.054   2.974   0.258
 8679TIP3    H126001   3.977   2.947   0.208
 8679TIP3    H226002   4.109   2.895   0.262
 8680TIP3   OH226003   6.218   3.770   0.406
 8680TIP3    H126004   6.280   3.698   0.422
 8680TIP3    H226005   6.182   3.791   0.492
 8681TIP3   OH226006   1.428   5.369   0.224
 8681TIP3    H126007   1.405   5.422   0.148
 8681TIP3    H226008   1.515   5.399   0.249
 8682TIP3   OH226009   4.090   3.637   3.867
 8682TIP3    H126010   4.040   3.717   3.853
 8682TIP3    H226011   4.179   3.668   3.887
 8683TIP3   OH226012   3.360   5.234   4.654
 8683TIP3    H126013   3.273   5.222   4.618
 8683TIP3    H226014   3.359   5.183   4.736
 8684TIP3   OH226015   4.805   6.145   1.164
 8684TIP3    H126016   4.827   6.160   1.256
 8684TIP3    H226017   4.862   6.073   1.137
 8685TIP3   OH226018   6.921   2.914   0.776
 8685TIP3    H126019   6.844   2.887   0.827
 8685TIP3    H226020   6.894   2.905   0.685
 8686TIP3   OH226021   1.487   5.337   5.115
 8686TIP3    H126022   1.505   5.393   5.039
 8686TIP3    H226023   1.548   5.263   5.105
 8687TIP3   OH226024   2.221   2.698   0.061
 8687TIP3    H126025   2.302   2.717   0.107
 8687TIP3    H226026   2.182   2.784   0.044
 8688TIP3   OH226027   2.917   3.501   2.626
 8688TIP3    H126028   2.892   3.554   2.550
 8688TIP3    H226029   3.006   3.530   2.647
 8689TIP3   OH226030   5.240   4.785   4.366
 8689TIP3    H126031   5.166   4.728   4.388
 8689TIP3    H226032   5.200   4.864   4.329
 8690TIP3   OH226033   4.272   3.667   0.588
 8690TIP3    H126034   4.211   3.641   0.519
 8690TIP3    H226035   4.334   3.726   0.543
 8691TIP3   OH226036   3.242   3.552   1.630
 8691TIP3    H126037   3.247   3.627   1.570
 8691TIP3    H226038   3.162   3.568   1.680
 8692TIP3   OH226039   0.557   6.675   2.026
 8692TIP3    H126040   0.605   6.594   2.046
 8692TIP3    H226041   0.471   6.663   2.066
 8693TIP3   OH226042   2.419   4.570   1.824
 8693TIP3    H126043   2.498   4.532   1.787
 8693TIP3    H226044   2.430   4.665   1.815
 8694TIP3   OH226045   5.678   0.461   0.041
 8694TIP3    H126046   5.629   0.428   0.117
 8694TIP3    H226047   5.655   0.554   0.036
 8695TIP3   OH226048   1.785   5.346   0.743
 8695TIP3    H126049   1.772   5.259   0.703
 8695TIP3    H226050   1.736   5.341   0.825
 8696TIP3   OH226051   6.499   1.662   0.409
 8696TIP3    H126052   6.455   1.720   0.346
 8696TIP3    H226053   6.567   1.618   0.358
 8697TIP3   OH226054   2.693   6.402   0.185
 8697TIP3    H126055   2.688   6.484   0.234
 8697TIP3    H226056   2.780   6.367   0.205
 8698TIP3   OH226057   3.434   1.403   2.771
 8698TIP3    H126058   3.401   1.322   2.733
 8698TIP3    H226059   3.522   1.382   2.801
 8699TIP3   OH226060   1.690   5.874   0.654
 8699TIP3    H126061   1.785   5.883   0.662
 8699TIP3    H226062   1.669   5.914   0.570
 8700TIP3   OH226063   5.545   3.940   4.388
 8700TIP3    H126064   5.463   3.959   4.342
 8700TIP3    H226065   5.537   3.849   4.416
 8701TIP3   OH226066   5.762   1.775   1.125
 8701TIP3    H126067   5.724   1.688   1.115
 8701TIP3    H226068   5.814   1.769   1.205
 8702TIP3   OH226069   0.341   5.819   3.536
 8702TIP3    H126070   0.397   5.764   3.592
 8702TIP3    H226071   0.282   5.757   3.494
 8703TIP3   OH226072   4.949   6.734   4.405
 8703TIP3    H126073   4.969   6.826   4.386
 8703TIP3    H226074   4.867   6.738   4.455
 8704TIP3   OH226075   1.562   0.547   3.076
 8704TIP3    H126076   1.545   0.453   3.080
 8704TIP3    H226077   1.527   0.575   2.992
 8705TIP3   OH226078   3.264   5.129   2.988
 8705TIP3    H126079   3.265   5.039   3.022
 8705TIP3    H226080   3.349   5.165   3.012
 8706TIP3   OH226081   2.918   2.703   4.617
 8706TIP3    H126082   2.864   2.715   4.696
 8706TIP3    H226083   2.990   2.765   4.629
 8707TIP3   OH226084   0.137   6.823   0.184
 8707TIP3    H126085   0.081   6.760   0.138
 8707TIP3    H226086   0.226   6.790   0.172
 8708TIP3   OH226087   0.457   2.727   0.710
 8708TIP3    H126088   0.413   2.682   0.638
 8708TIP3    H226089   0.463   2.662   0.780
 8709TIP3   OH226090   0.627   6.254   0.781
 8709TIP3    H126091   0.591   6.322   0.723
 8709TIP3    H226092   0.584   6.269   0.865
 8710TIP3   OH226093   2.527   3.103   5.260
 8710TIP3    H126094   2.465   3.082   5.190
 8710TIP3    H226095   2.606   3.053   5.237
 8711TIP3   OH226096   4.456   3.371   2.737
 8711TIP3    H126097   4.528   3.311   2.717
 8711TIP3    H226098   4.376   3.320   2.722
 8712TIP3   OH226099   4.423   0.867   1.154
 8712TIP3    H126100   4.439   0.961   1.158
 8712TIP3    H226101   4.347   0.853   1.210
 8713TIP3   OH226102   4.219   0.353   0.108
 8713TIP3    H126103   4.153   0.397   0.162
 8713TIP3    H226104   4.221   0.263   0.141
 8714TIP3   OH226105   5.669   4.212   2.740
 8714TIP3    H126106   5.730   4.191   2.668
 8714TIP3    H226107   5.702   4.295   2.775
 8715TIP3   OH226108   2.968   2.946   0.771
 8715TIP3    H126109   3.012   2.980   0.693
 8715TIP3    H226110   3.023   2.873   0.799
 8716TIP3   OH226111   5.072   3.058   2.740
 8716TIP3    H126112   5.055   3.107   2.660
 8716TIP3    H226113   5.040   3.113   2.811
 8717TIP3   OH226114   5.237   2.722   5.163
 8717TIP3    H126115   5.244   2.763   5.076
 8717TIP3    H226116   5.319   2.674   5.173
 8718TIP3   OH226117   0.034   5.277   1.524
 8718TIP3    H126118  -0.030   5.235   1.582
 8718TIP3    H226119   0.014   5.371   1.530
 8719TIP3   OH226120   4.771   2.992   1.522
 8719TIP3    H126121   4.768   2.898   1.539
 8719TIP3    H226122   4.833   3.002   1.450
 8720TIP3   OH226123   3.894   3.880   3.142
 8720TIP3    H126124   3.979   3.847   3.172
 8720TIP3    H226125   3.830   3.817   3.176
 8721TIP3   OH226126   6.375   4.483   0.152
 8721TIP3    H126127   6.356   4.531   0.072
 8721TIP3    H226128   6.328   4.531   0.220
 8722TIP3   OH226129   3.992   1.102   1.935
 8722TIP3    H126130   3.983   1.126   2.027
 8722TIP3    H226131   3.909   1.128   1.895
 8723TIP3   OH226132   0.397   0.786   1.582
 8723TIP3    H126133   0.378   0.693   1.594
 8723TIP3    H226134   0.370   0.805   1.492
 8724TIP3   OH226135   3.435   2.341   5.259
 8724TIP3    H126136   3.357   2.346   5.203
 8724TIP3    H226137   3.440   2.426   5.302
 8725TIP3   OH226138   2.259   1.335   4.944
 8725TIP3    H126139   2.339   1.385   4.961
 8725TIP3    H226140   2.280   1.246   4.971
 8726TIP3   OH226141   6.076   1.501   3.727
 8726TIP3    H126142   6.060   1.558   3.803
 8726TIP3    H226143   6.038   1.548   3.653
 8727TIP3   OH226144   0.614   4.986   1.451
 8727TIP3    H126145   0.653   5.071   1.470
 8727TIP3    H226146   0.642   4.966   1.362
 8728TIP3   OH226147   5.657   2.322   0.315
 8728TIP3    H126148   5.576   2.277   0.339
 8728TIP3    H226149   5.695   2.350   0.399
 8729TIP3   OH226150   6.040   0.911   1.346
 8729TIP3    H126151   6.010   0.991   1.389
 8729TIP3    H226152   6.002   0.915   1.258
 8730TIP3   OH226153   6.926   6.640   2.190
 8730TIP3    H126154   6.978   6.718   2.176
 8730TIP3    H226155   6.836   6.672   2.198
 8731TIP3   OH226156   5.523   5.617   5.709
 8731TIP3    H126157   5.447   5.661   5.671
 8731TIP3    H226158   5.588   5.686   5.720
 8732TIP3   OH226159   3.144   3.507   5.715
 8732TIP3    H126160   3.129   3.425   5.762
 8732TIP3    H226161   3.127   3.485   5.623
 8733TIP3   OH226162   5.207   2.117   0.072
 8733TIP3    H126163   5.276   2.180   0.049
 8733TIP3    H226164   5.139   2.130   0.005
 8734TIP3   OH226165   3.791   6.136   0.858
 8734TIP3    H126166   3.817   6.201   0.793
 8734TIP3    H226167   3.773   6.057   0.808
 8735TIP3   OH226168   6.461   1.088   5.744
 8735TIP3    H126169   6.384   1.075   5.689
 8735TIP3    H226170   6.427   1.092   5.833
 8736TIP3   OH226171   7.068   4.585   2.586
 8736TIP3    H126172   7.131   4.652   2.614
 8736TIP3    H226173   6.999   4.588   2.652
 8737TIP3   OH226174   2.163   3.316   0.135
 8737TIP3    H126175   2.174   3.312   0.040
 8737TIP3    H226176   2.182   3.408   0.157
 8738TIP3   OH226177   5.270   0.762   1.277
 8738TIP3    H126178   5.262   0.855   1.297
 8738TIP3    H226179   5.192   0.742   1.225
 8739TIP3   OH226180   5.378   3.414   1.995
 8739TIP3    H126181   5.393   3.504   2.023
 8739TIP3    H226182   5.298   3.417   1.944
 8740TIP3   OH226183   6.566   6.065   2.349
 8740TIP3    H126184   6.563   6.055   2.444
 8740TIP3    H226185   6.493   6.123   2.329
 8741TIP3   OH226186   1.623   2.895   0.151
 8741TIP3    H126187   1.532   2.922   0.157
 8741TIP3    H226188   1.634   2.831   0.222
 8742TIP3   OH226189   3.374   6.780   4.775
 8742TIP3    H126190   3.309   6.819   4.717
 8742TIP3    H226191   3.395   6.696   4.736
 8743TIP3   OH226192   3.518   3.111   5.470
 8743TIP3    H126193   3.577   3.062   5.527
 8743TIP3    H226194   3.576   3.172   5.423
 8744TIP3   OH226195   6.327   1.610   1.019
 8744TIP3    H126196   6.317   1.551   1.094
 8744TIP3    H226197   6.251   1.592   0.965
 8745TIP3   OH226198   3.134   5.034   2.545
 8745TIP3    H126199   3.063   5.071   2.598
 8745TIP3    H226200   3.094   4.959   2.501
 8746TIP3   OH226201   6.856   1.235   4.181
 8746TIP3    H126202   6.901   1.318   4.200
 8746TIP3    H226203   6.764   1.252   4.201
 8747TIP3   OH226204   1.178   6.576   3.642
 8747TIP3    H126205   1.234   6.498   3.638
 8747TIP3    H226206   1.216   6.630   3.711
 8748TIP3   OH226207   4.090   3.456   3.678
 8748TIP3    H126208   4.107   3.528   3.739
 8748TIP3    H226209   4.174   3.411   3.671
 8749TIP3   OH226210   5.621   1.441   2.649
 8749TIP3    H126211   5.545   1.383   2.654
 8749TIP3    H226212   5.619   1.492   2.730
 8750TIP3   OH226213   4.622   4.218   3.911
 8750TIP3    H126214   4.613   4.298   3.860
 8750TIP3    H226215   4.568   4.232   3.988
 8751TIP3   OH226216   1.308   4.699   3.887
 8751TIP3    H126217   1.236   4.645   3.920
 8751TIP3    H226218   1.360   4.639   3.834
 8752TIP3   OH226219   5.324   5.814   0.719
 8752TIP3    H126220   5.395   5.789   0.778
 8752TIP3    H226221   5.368   5.861   0.648
 8753TIP3   OH226222   5.758   4.212   0.878
 8753TIP3    H126223   5.710   4.141   0.835
 8753TIP3    H226224   5.821   4.242   0.813
 8754TIP3   OH226225   6.853   0.607   0.112
 8754TIP3    H126226   6.941   0.642   0.102
 8754TIP3    H226227   6.859   0.546   0.186
 8755TIP3   OH226228   0.294   4.573   5.556
 8755TIP3    H126229   0.368   4.534   5.602
 8755TIP3    H226230   0.321   4.575   5.464
 8756TIP3   OH226231   2.753   2.704   4.833
 8756TIP3    H126232   2.782   2.696   4.924
 8756TIP3    H226233   2.683   2.639   4.825
 8757TIP3   OH226234   7.115   1.755   1.283
 8757TIP3    H126235   7.059   1.827   1.312
 8757TIP3    H226236   7.114   1.693   1.355
 8758TIP3   OH226237   4.211   4.321   1.726
 8758TIP3    H126238   4.197   4.299   1.634
 8758TIP3    H226239   4.168   4.251   1.774
 8759TIP3   OH226240   4.966   6.261   0.080
 8759TIP3    H126241   4.983   6.170   0.054
 8759TIP3    H226242   4.946   6.305  -0.003
 8760TIP3   OH226243   0.663   6.222   1.467
 8760TIP3    H126244   0.756   6.220   1.490
 8760TIP3    H226245   0.659   6.178   1.381
 8761TIP3   OH226246   2.711   3.373   5.790
 8761TIP3    H126247   2.652   3.449   5.792
 8761TIP3    H226248   2.742   3.369   5.700
 8762TIP3   OH226249   4.390   0.245   0.378
 8762TIP3    H126250   4.466   0.282   0.334
 8762TIP3    H226251   4.412   0.153   0.390
 8763TIP3   OH226252   4.692   6.393   1.303
 8763TIP3    H126253   4.773   6.442   1.313
 8763TIP3    H226254   4.623   6.460   1.298
 8764TIP3   OH226255   1.684   4.631   0.654
 8764TIP3    H126256   1.760   4.576   0.636
 8764TIP3    H226257   1.634   4.631   0.572
 8765TIP3   OH226258   5.585   5.396   3.899
 8765TIP3    H126259   5.514   5.374   3.839
 8765TIP3    H226260   5.665   5.373   3.852
 8766TIP3   OH226261   2.486   6.073   0.800
 8766TIP3    H126262   2.402   6.050   0.841
 8766TIP3    H226263   2.485   6.027   0.716
 8767TIP3   OH226264   2.009   1.056   5.153
 8767TIP3    H126265   2.086   1.000   5.141
 8767TIP3    H226266   1.944   0.997   5.191
 8768TIP3   OH226267   0.503   3.595   3.393
 8768TIP3    H126268   0.415   3.583   3.428
 8768TIP3    H226269   0.490   3.623   3.303
 8769TIP3   OH226270   1.047   2.274   0.286
 8769TIP3    H126271   1.142   2.270   0.273
 8769TIP3    H226272   1.030   2.367   0.304
 8770TIP3   OH226273   1.457   6.499   1.250
 8770TIP3    H126274   1.474   6.579   1.299
 8770TIP3    H226275   1.362   6.490   1.250
 8771TIP3   OH226276   6.020   4.346   0.847
 8771TIP3    H126277   6.014   4.362   0.941
 8771TIP3    H226278   6.096   4.288   0.837
 8772TIP3   OH226279   0.748   5.637   3.759
 8772TIP3    H126280   0.734   5.601   3.847
 8772TIP3    H226281   0.815   5.581   3.721
 8773TIP3   OH226282   4.451   3.547   0.037
 8773TIP3    H126283   4.406   3.616  -0.011
 8773TIP3    H226284   4.415   3.465   0.002
 8774TIP3   OH226285   0.657   0.693   4.952
 8774TIP3    H126286   0.685   0.737   4.871
 8774TIP3    H226287   0.564   0.675   4.939
 8775TIP3   OH226288   3.052   5.502   5.889
 8775TIP3    H126289   3.110   5.506   5.813
 8775TIP3    H226290   3.043   5.593   5.918
 8776TIP3   OH226291   3.975   0.034   5.435
 8776TIP3    H126292   4.047   0.058   5.495
 8776TIP3    H226293   3.962  -0.059   5.451
 8777TIP3   OH226294   6.757   4.201   2.117
 8777TIP3    H126295   6.802   4.216   2.034
 8777TIP3    H226296   6.778   4.111   2.141
 8778TIP3   OH226297   5.128   4.461   5.467
 8778TIP3    H126298   5.173   4.515   5.532
 8778TIP3    H226299   5.196   4.403   5.432
 8779TIP3   OH226300   5.227   6.545   0.537
 8779TIP3    H126301   5.142   6.547   0.494
 8779TIP3    H226302   5.290   6.557   0.466
 8780TIP3   OH226303   0.691   6.704   3.638
 8780TIP3    H126304   0.762   6.743   3.587
 8780TIP3    H226305   0.733   6.667   3.715
 8781TIP3   OH226306   2.093   6.587   3.233
 8781TIP3    H126307   2.037   6.661   3.255
 8781TIP3    H226308   2.088   6.580   3.138
 8782TIP3   OH226309   4.069   3.711   3.326
 8782TIP3    H126310   4.002   3.695   3.393
 8782TIP3    H226311   4.087   3.624   3.290
 8783TIP3   OH226312   3.877   6.130   0.207
 8783TIP3    H126313   3.889   6.074   0.130
 8783TIP3    H226314   3.832   6.075   0.270
 8784TIP3   OH226315   4.078   1.509   1.621
 8784TIP3    H126316   4.005   1.486   1.563
 8784TIP3    H226317   4.072   1.446   1.693
 8785TIP3   OH226318   0.617   2.830   2.037
 8785TIP3    H126319   0.578   2.889   2.100
 8785TIP3    H226320   0.542   2.788   1.994
 8786TIP3   OH226321   2.486   4.209   3.564
 8786TIP3    H126322   2.556   4.149   3.538
 8786TIP3    H226323   2.453   4.174   3.646
 8787TIP3   OH226324   1.590   3.145   2.943
 8787TIP3    H126325   1.634   3.204   2.882
 8787TIP3    H226326   1.533   3.091   2.888
 8788TIP3   OH226327   1.217   5.398   1.616
 8788TIP3    H126328   1.172   5.415   1.698
 8788TIP3    H226329   1.212   5.303   1.604
 8789TIP3   OH226330   0.708   4.703   2.591
 8789TIP3    H126331   0.792   4.663   2.570
 8789TIP3    H226332   0.718   4.794   2.563
 8790TIP3   OH226333   0.722   3.362   4.470
 8790TIP3    H126334   0.657   3.307   4.426
 8790TIP3    H226335   0.798   3.304   4.481
 8791TIP3   OH226336   0.717   6.251   5.071
 8791TIP3    H126337   0.644   6.191   5.053
 8791TIP3    H226338   0.697   6.328   5.017
 8792TIP3   OH226339   6.928   6.394   2.966
 8792TIP3    H126340   6.976   6.440   2.897
 8792TIP3    H226341   6.957   6.437   3.047
 8793TIP3   OH226342   5.321   0.018   5.590
 8793TIP3    H126343   5.363  -0.008   5.508
 8793TIP3    H226344   5.255   0.082   5.565
 8794TIP3   OH226345   2.966   2.444   1.982
 8794TIP3    H126346   2.959   2.461   1.888
 8794TIP3    H226347   3.058   2.419   1.995
 8795TIP3   OH226348   4.163   5.159   0.355
 8795TIP3    H126349   4.154   5.249   0.323
 8795TIP3    H226350   4.212   5.167   0.437
 8796TIP3   OH226351   0.161   4.622   3.018
 8796TIP3    H126352   0.218   4.679   2.966
 8796TIP3    H226353   0.178   4.648   3.109
 8797TIP3   OH226354   2.458   6.735   1.170
 8797TIP3    H126355   2.511   6.701   1.098
 8797TIP3    H226356   2.519   6.743   1.244
 8798TIP3   OH226357   6.152   1.506   2.439
 8798TIP3    H126358   6.117   1.452   2.368
 8798TIP3    H226359   6.223   1.556   2.399
 8799TIP3   OH226360   1.900   5.074   1.291
 8799TIP3    H126361   1.995   5.080   1.292
 8799TIP3    H226362   1.882   4.982   1.273
 8800TIP3   OH226363   1.726   4.090   2.516
 8800TIP3    H126364   1.721   3.996   2.532
 8800TIP3    H226365   1.800   4.120   2.569
 8801TIP3   OH226366   5.372   3.831   4.042
 8801TIP3    H126367   5.355   3.888   4.117
 8801TIP3    H226368   5.285   3.804   4.012
 8802TIP3   OH226369   2.731   6.539   3.567
 8802TIP3    H126370   2.711   6.632   3.574
 8802TIP3    H226371   2.713   6.504   3.655
 8803TIP3   OH226372   0.748   3.803   4.856
 8803TIP3    H126373   0.819   3.745   4.881
 8803TIP3    H226374   0.668   3.752   4.871
 8804TIP3   OH226375   5.880   6.624   4.933
 8804TIP3    H126376   5.794   6.660   4.914
 8804TIP3    H226377   5.940   6.671   4.875
 8805TIP3   OH226378   2.512   3.942   1.131
 8805TIP3    H126379   2.486   4.034   1.128
 8805TIP3    H226380   2.564   3.929   1.052
 8806TIP3   OH226381   4.103   0.589   2.871
 8806TIP3    H126382   4.076   0.664   2.925
 8806TIP3    H226383   4.197   0.603   2.856
 8807TIP3   OH226384   6.794   1.404   0.559
 8807TIP3    H126385   6.775   1.494   0.586
 8807TIP3    H226386   6.823   1.412   0.468
 8808TIP3   OH226387   5.445   0.116   4.753
 8808TIP3    H126388   5.447   0.036   4.805
 8808TIP3    H226389   5.466   0.186   4.815
 8809TIP3   OH226390   6.437   1.804   3.198
 8809TIP3    H126391   6.411   1.727   3.247
 8809TIP3    H226392   6.532   1.803   3.201
 8810TIP3   OH226393   5.517   1.809   2.074
 8810TIP3    H126394   5.422   1.823   2.064
 8810TIP3    H226395   5.537   1.738   2.013
 8811TIP3   OH226396   5.316   1.793   0.498
 8811TIP3    H126397   5.266   1.711   0.503
 8811TIP3    H226398   5.358   1.790   0.413
 8812TIP3   OH226399   2.805   5.277   4.210
 8812TIP3    H126400   2.899   5.282   4.191
 8812TIP3    H226401   2.762   5.300   4.128
 8813TIP3   OH226402   4.793   1.461   5.553
 8813TIP3    H126403   4.830   1.502   5.475
 8813TIP3    H226404   4.865   1.409   5.589
 8814TIP3   OH226405   0.697   0.128   1.510
 8814TIP3    H126406   0.767   0.192   1.524
 8814TIP3    H226407   0.742   0.050   1.476
 8815TIP3   OH226408   4.768   6.327   3.334
 8815TIP3    H126409   4.680   6.303   3.363
 8815TIP3    H226410   4.826   6.290   3.400
 8816TIP3   OH226411   5.830   2.785   2.418
 8816TIP3    H126412   5.857   2.815   2.331
 8816TIP3    H226413   5.761   2.721   2.402
 8817TIP3   OH226414   4.918   1.544   1.345
 8817TIP3    H126415   4.957   1.462   1.375
 8817TIP3    H226416   4.990   1.590   1.301
 8818TIP3   OH226417   3.635   2.266   5.541
 8818TIP3    H126418   3.554   2.317   5.541
 8818TIP3    H226419   3.705   2.331   5.548
 8819TIP3   OH226420   6.018   3.714   4.351
 8819TIP3    H126421   6.066   3.718   4.269
 8819TIP3    H226422   6.022   3.621   4.377
 8820TIP3   OH226423   0.873   4.647   5.087
 8820TIP3    H126424   0.819   4.696   5.025
 8820TIP3    H226425   0.917   4.581   5.033
 8821TIP3   OH226426   6.225   4.447   0.446
 8821TIP3    H126427   6.161   4.377   0.433
 8821TIP3    H226428   6.294   4.406   0.498
 8822TIP3   OH226429   4.840   3.046   3.823
 8822TIP3    H126430   4.847   3.081   3.912
 8822TIP3    H226431   4.770   2.981   3.829
 8823TIP3   OH226432   4.606   3.513   4.226
 8823TIP3    H126433   4.619   3.434   4.280
 8823TIP3    H226434   4.685   3.519   4.173
 8824TIP3   OH226435   2.396   4.366   3.221
 8824TIP3    H126436   2.361   4.373   3.310
 8824TIP3    H226437   2.333   4.311   3.174
 8825TIP3   OH226438   0.113   1.140   0.880
 8825TIP3    H126439   0.128   1.155   0.786
 8825TIP3    H226440   0.182   1.191   0.923
 8826TIP3   OH226441   1.683   6.265   2.389
 8826TIP3    H126442   1.605   6.281   2.336
 8826TIP3    H226443   1.734   6.203   2.338
 8827TIP3   OH226444   5.172   4.196   1.363
 8827TIP3    H126445   5.123   4.175   1.442
 8827TIP3    H226446   5.258   4.155   1.376
 8828TIP3   OH226447   3.479   1.616   3.095
 8828TIP3    H126448   3.410   1.645   3.036
 8828TIP3    H226449   3.464   1.665   3.176
 8829TIP3   OH226450   0.639   1.318   2.705
 8829TIP3    H126451   0.587   1.265   2.644
 8829TIP3    H226452   0.575   1.369   2.754
 8830TIP3   OH226453   2.594   3.274   3.824
 8830TIP3    H126454   2.603   3.294   3.731
 8830TIP3    H226455   2.512   3.225   3.830
 8831TIP3   OH226456   5.007   3.561   5.716
 8831TIP3    H126457   5.067   3.488   5.700
 8831TIP3    H226458   4.923   3.533   5.681
 8832TIP3   OH226459   0.920   0.869   0.389
 8832TIP3    H126460   0.978   0.918   0.448
 8832TIP3    H226461   0.890   0.933   0.325
 8833TIP3   OH226462   1.247   4.929   3.190
 8833TIP3    H126463   1.264   5.002   3.250
 8833TIP3    H226464   1.293   4.952   3.110
 8834TIP3   OH226465   1.467   3.725   4.971
 8834TIP3    H126466   1.458   3.801   4.914
 8834TIP3    H226467   1.552   3.687   4.947
 8835TIP3   OH226468   6.183   2.057   0.672
 8835TIP3    H126469   6.214   2.058   0.582
 8835TIP3    H226470   6.260   2.036   0.724
 8836TIP3   OH226471   1.219   2.122   1.915
 8836TIP3    H126472   1.305   2.156   1.940
 8836TIP3    H226473   1.210   2.143   1.822
 8837TIP3   OH226474   6.300   1.025   4.192
 8837TIP3    H126475   6.208   1.046   4.205
 8837TIP3    H226476   6.346   1.075   4.259
 8838TIP3   OH226477   5.516   3.336   4.868
 8838TIP3    H126478   5.569   3.308   4.793
 8838TIP3    H226479   5.538   3.273   4.937
 8839TIP3   OH226480   1.952   3.236   1.921
 8839TIP3    H126481   2.024   3.176   1.900
 8839TIP3    H226482   1.943   3.291   1.843
 8840TIP3   OH226483   4.491   3.192   2.241
 8840TIP3    H126484   4.547   3.115   2.242
 8840TIP3    H226485   4.489   3.219   2.149
 8841TIP3   OH226486   6.323   5.017   0.034
 8841TIP3    H126487   6.266   4.972  -0.029
 8841TIP3    H226488   6.274   5.094   0.060
 8842TIP3   OH226489   3.648   6.443   2.812
 8842TIP3    H126490   3.660   6.476   2.901
 8842TIP3    H226491   3.556   6.459   2.792
 8843TIP3   OH226492   5.987   3.708   2.619
 8843TIP3    H126493   5.963   3.658   2.541
 8843TIP3    H226494   6.082   3.696   2.626
 8844TIP3   OH226495   0.641   0.574   1.995
 8844TIP3    H126496   0.671   0.493   1.953
 8844TIP3    H226497   0.563   0.599   1.946
 8845TIP3   OH226498   1.475   1.567   3.632
 8845TIP3    H126499   1.531   1.632   3.675
 8845TIP3    H226500   1.481   1.589   3.539
 8846TIP3   OH226501   0.544   3.610   0.174
 8846TIP3    H126502   0.519   3.696   0.141
 8846TIP3    H226503   0.567   3.559   0.096
 8847TIP3   OH226504   3.257   5.276   1.431
 8847TIP3    H126505   3.184   5.337   1.432
 8847TIP3    H226506   3.326   5.321   1.480
 8848TIP3   OH226507   1.709   1.291   3.550
 8848TIP3    H126508   1.668   1.376   3.533
 8848TIP3    H226509   1.635   1.231   3.563
 8849TIP3   OH226510   3.019   0.818   0.680
 8849TIP3    H126511   3.032   0.759   0.607
 8849TIP3    H226512   2.944   0.872   0.655
 8850TIP3   OH226513   7.149   3.586   5.074
 8850TIP3    H126514   7.143   3.615   5.165
 8850TIP3    H226515   7.058   3.583   5.044
 8851TIP3   OH226516   4.030   3.150   0.488
 8851TIP3    H126517   4.116   3.136   0.527
 8851TIP3    H226518   4.039   3.119   0.398
 8852TIP3   OH226519   3.150   0.578   2.781
 8852TIP3    H126520   3.230   0.603   2.736
 8852TIP3    H226521   3.172   0.583   2.874
 8853TIP3   OH226522   4.716   3.058   4.080
 8853TIP3    H126523   4.712   3.109   4.161
 8853TIP3    H226524   4.632   3.074   4.037
 8854TIP3   OH226525   2.514   2.529   0.151
 8854TIP3    H126526   2.582   2.463   0.165
 8854TIP3    H226527   2.479   2.509   0.064
 8855TIP3   OH226528   6.015   3.059   4.465
 8855TIP3    H126529   6.011   2.974   4.508
 8855TIP3    H226530   5.924   3.078   4.439
 8856TIP3   OH226531   4.827   6.443   5.664
 8856TIP3    H126532   4.811   6.450   5.758
 8856TIP3    H226533   4.740   6.438   5.625
 8857TIP3   OH226534   2.500   4.190   0.738
 8857TIP3    H126535   2.505   4.224   0.827
 8857TIP3    H226536   2.581   4.141   0.726
 8858TIP3   OH226537   2.717   3.859   0.157
 8858TIP3    H126538   2.743   3.767   0.162
 8858TIP3    H226539   2.800   3.908   0.165
 8859TIP3   OH226540   6.229   3.501   5.522
 8859TIP3    H126541   6.315   3.500   5.481
 8859TIP3    H226542   6.169   3.476   5.452
 8860TIP3   OH226543   0.486   0.319   3.865
 8860TIP3    H126544   0.412   0.310   3.805
 8860TIP3    H226545   0.453   0.377   3.934
 8861TIP3   OH226546   1.703   3.990   5.248
 8861TIP3    H126547   1.663   3.920   5.300
 8861TIP3    H226548   1.772   3.947   5.198
 8862TIP3   OH226549   2.028   5.889   1.297
 8862TIP3    H126550   2.107   5.878   1.351
 8862TIP3    H226551   2.058   5.873   1.207
 8863TIP3   OH226552   2.536   5.016   1.691
 8863TIP3    H126553   2.487   5.096   1.707
 8863TIP3    H226554   2.470   4.953   1.661
 8864TIP3   OH226555   6.614   2.510   1.324
 8864TIP3    H126556   6.560   2.499   1.402
 8864TIP3    H226557   6.647   2.422   1.305
 8865TIP3   OH226558   4.173   6.354   0.553
 8865TIP3    H126559   4.112   6.288   0.585
 8865TIP3    H226560   4.259   6.323   0.581
 8866TIP3   OH226561   3.886   0.229   0.250
 8866TIP3    H126562   3.972   0.192   0.265
 8866TIP3    H226563   3.903   0.319   0.222
 8867TIP3   OH226564   2.540   6.640   1.412
 8867TIP3    H126565   2.627   6.603   1.396
 8867TIP3    H226566   2.482   6.565   1.418
 8868TIP3   OH226567   0.136   4.983   0.847
 8868TIP3    H126568   0.065   5.022   0.796
 8868TIP3    H226569   0.197   4.948   0.782
 8869TIP3   OH226570   3.591   6.815   2.237
 8869TIP3    H126571   3.548   6.769   2.309
 8869TIP3    H226572   3.681   6.785   2.239
 8870TIP3   OH226573   3.897   0.468   5.411
 8870TIP3    H126574   3.971   0.464   5.349
 8870TIP3    H226575   3.857   0.382   5.406
 8871TIP3   OH226576   1.051   0.814   1.866
 8871TIP3    H126577   1.133   0.766   1.877
 8871TIP3    H226578   0.983   0.746   1.867
 8872TIP3   OH226579   3.397   2.864   4.814
 8872TIP3    H126580   3.455   2.919   4.866
 8872TIP3    H226581   3.411   2.776   4.848
 8873TIP3   OH226582   0.179   6.128   1.581
 8873TIP3    H126583   0.193   6.100   1.490
 8873TIP3    H226584   0.099   6.181   1.578
 8874TIP3   OH226585   0.764   2.249   1.194
 8874TIP3    H126586   0.818   2.314   1.148
 8874TIP3    H226587   0.782   2.167   1.149
 8875TIP3   OH226588   1.733   3.598   4.958
 8875TIP3    H126589   1.770   3.635   4.878
 8875TIP3    H226590   1.765   3.656   5.028
 8876TIP3   OH226591   6.267   2.341   1.775
 8876TIP3    H126592   6.297   2.425   1.742
 8876TIP3    H226593   6.219   2.363   1.855
 8877TIP3   OH226594   6.137   6.281   5.694
 8877TIP3    H126595   6.055   6.235   5.712
 8877TIP3    H226596   6.129   6.311   5.604
 8878TIP3   OH226597   3.086   0.879   3.681
 8878TIP3    H126598   3.139   0.959   3.669
 8878TIP3    H226599   3.116   0.844   3.765
 8879TIP3   OH226600   6.272   3.370   1.048
 8879TIP3    H126601   6.345   3.349   1.107
 8879TIP3    H226602   6.309   3.432   0.986
 8880TIP3   OH226603   6.570   1.962   0.267
 8880TIP3    H126604   6.633   2.005   0.209
 8880TIP3    H226605   6.514   1.912   0.208
 8881TIP3   OH226606   4.054   4.946   4.347
 8881TIP3    H126607   4.109   5.005   4.295
 8881TIP3    H226608   3.983   4.922   4.288
 8882TIP3   OH226609   4.340   2.207   5.057
 8882TIP3    H126610   4.411   2.220   4.994
 8882TIP3    H226611   4.304   2.121   5.034
 8883TIP3   OH226612   4.527   5.225   1.892
 8883TIP3    H126613   4.479   5.161   1.946
 8883TIP3    H226614   4.469   5.242   1.818
 8884TIP3   OH226615   2.665   4.925   3.535
 8884TIP3    H126616   2.755   4.893   3.540
 8884TIP3    H226617   2.663   4.979   3.456
 8885TIP3   OH226618   5.476   3.733   1.949
 8885TIP3    H126619   5.488   3.771   1.862
 8885TIP3    H226620   5.430   3.801   1.998
 8886TIP3   OH226621   1.054   0.711   3.833
 8886TIP3    H126622   1.054   0.736   3.741
 8886TIP3    H226623   1.135   0.663   3.846
 8887TIP3   OH226624   7.097   1.604   5.337
 8887TIP3    H126625   7.105   1.531   5.399
 8887TIP3    H226626   7.003   1.606   5.315
 8888TIP3   OH226627   3.618   0.284   5.658
 8888TIP3    H126628   3.550   0.229   5.696
 8888TIP3    H226629   3.692   0.276   5.718
 8889TIP3   OH226630   2.452   4.366   2.242
 8889TIP3    H126631   2.364   4.329   2.239
 8889TIP3    H226632   2.465   4.389   2.335
 8890TIP3   OH226633   5.187   2.410   3.059
 8890TIP3    H126634   5.229   2.414   2.973
 8890TIP3    H226635   5.105   2.457   3.048
 8891TIP3   OH226636   0.788   5.600   5.689
 8891TIP3    H126637   0.816   5.642   5.608
 8891TIP3    H226638   0.692   5.604   5.687
 8892TIP3   OH226639   1.540   6.371   4.606
 8892TIP3    H126640   1.523   6.282   4.575
 8892TIP3    H226641   1.596   6.410   4.538
 8893TIP3   OH226642   6.031   3.063   3.682
 8893TIP3    H126643   6.061   3.095   3.597
 8893TIP3    H226644   6.105   3.080   3.741
 8894TIP3   OH226645   1.356   0.598   2.278
 8894TIP3    H126646   1.320   0.686   2.278
 8894TIP3    H226647   1.427   0.601   2.214
 8895TIP3   OH226648   4.056   5.207   4.708
 8895TIP3    H126649   3.971   5.176   4.740
 8895TIP3    H226650   4.105   5.229   4.787
 8896TIP3   OH226651   5.035   0.645   5.514
 8896TIP3    H126652   5.029   0.622   5.422
 8896TIP3    H226653   5.077   0.731   5.515
 8897TIP3   OH226654   4.097   1.045   3.378
 8897TIP3    H126655   4.169   1.060   3.439
 8897TIP3    H226656   4.018   1.054   3.431
 8898TIP3   OH226657   2.991   3.629   1.374
 8898TIP3    H126658   3.077   3.669   1.391
 8898TIP3    H226659   2.928   3.694   1.406
 8899TIP3   OH226660   1.337   2.872   5.503
 8899TIP3    H126661   1.384   2.790   5.519
 8899TIP3    H226662   1.331   2.913   5.590
 8900TIP3   OH226663   0.523   4.249   4.290
 8900TIP3    H126664   0.483   4.210   4.368
 8900TIP3    H226665   0.458   4.312   4.259
 8901TIP3   OH226666   5.711   3.190   2.359
 8901TIP3    H126667   5.781   3.146   2.407
 8901TIP3    H226668   5.710   3.279   2.396
 8902TIP3   OH226669   2.974   6.364   0.244
 8902TIP3    H126670   2.966   6.341   0.337
 8902TIP3    H226671   3.002   6.455   0.244
 8903TIP3   OH226672   2.087   1.863   5.899
 8903TIP3    H126673   2.038   1.784   5.878
 8903TIP3    H226674   2.127   1.890   5.816
 8904TIP3   OH226675   5.194   1.729   4.306
 8904TIP3    H126676   5.189   1.773   4.391
 8904TIP3    H226677   5.109   1.745   4.266
 8905TIP3   OH226678   6.380   0.855   2.276
 8905TIP3    H126679   6.456   0.913   2.277
 8905TIP3    H226680   6.398   0.794   2.205
 8906TIP3   OH226681   3.695   0.762   5.536
 8906TIP3    H126682   3.600   0.769   5.545
 8906TIP3    H226683   3.725   0.851   5.520
 8907TIP3   OH226684   3.670   3.919   5.759
 8907TIP3    H126685   3.765   3.926   5.751
 8907TIP3    H226686   3.656   3.849   5.823
 8908TIP3   OH226687   0.501   1.904   0.548
 8908TIP3    H126688   0.552   1.913   0.468
 8908TIP3    H226689   0.419   1.864   0.519
 8909TIP3   OH226690   7.065   3.015   4.567
 8909TIP3    H126691   7.072   2.921   4.549
 8909TIP3    H226692   6.977   3.039   4.536
 8910TIP3   OH226693   0.499   1.682   2.942
 8910TIP3    H126694   0.445   1.756   2.970
 8910TIP3    H226695   0.571   1.722   2.893
 8911TIP3   OH226696   3.002   5.759   0.695
 8911TIP3    H126697   2.935   5.807   0.743
 8911TIP3    H226698   3.063   5.826   0.665
 8912TIP3   OH226699   4.572   1.630   1.664
 8912TIP3    H126700   4.563   1.679   1.746
 8912TIP3    H226701   4.482   1.613   1.636
 8913TIP3   OH226702   1.486   2.714   3.474
 8913TIP3    H126703   1.535   2.665   3.540
 8913TIP3    H226704   1.400   2.671   3.472
 8914TIP3   OH226705   3.252   6.587   5.104
 8914TIP3    H126706   3.268   6.537   5.184
 8914TIP3    H226707   3.312   6.661   5.109
 8915TIP3   OH226708   6.014   2.897   0.220
 8915TIP3    H126709   6.030   2.832   0.152
 8915TIP3    H226710   5.935   2.866   0.265
 8916TIP3   OH226711   0.107   1.203   0.594
 8916TIP3    H126712   0.177   1.269   0.593
 8916TIP3    H226713   0.047   1.231   0.525
 8917TIP3   OH226714   3.832   1.224   4.948
 8917TIP3    H126715   3.903   1.284   4.928
 8917TIP3    H226716   3.819   1.174   4.867
 8918TIP3   OH226717   1.003   1.886   4.682
 8918TIP3    H126718   1.093   1.852   4.687
 8918TIP3    H226719   1.004   1.962   4.740
 8919TIP3   OH226720   0.647   0.922   5.265
 8919TIP3    H126721   0.700   0.847   5.239
 8919TIP3    H226722   0.636   0.973   5.184
 8920TIP3   OH226723   3.646   3.263   4.190
 8920TIP3    H126724   3.694   3.345   4.184
 8920TIP3    H226725   3.590   3.273   4.267
 8921TIP3   OH226726   5.001   3.090   1.969
 8921TIP3    H126727   5.069   3.057   2.027
 8921TIP3    H226728   4.997   3.025   1.899
 8922TIP3   OH226729   5.455   5.615   0.026
 8922TIP3    H126730   5.418   5.528   0.041
 8922TIP3    H226731   5.521   5.625   0.096
 8923TIP3   OH226732   5.152   5.181   2.796
 8923TIP3    H126733   5.105   5.109   2.754
 8923TIP3    H226734   5.120   5.260   2.752
 8924TIP3   OH226735   2.952   4.168   4.798
 8924TIP3    H126736   2.992   4.082   4.804
 8924TIP3    H226737   2.998   4.221   4.863
 8925TIP3   OH226738   5.838   2.434   3.871
 8925TIP3    H126739   5.749   2.399   3.877
 8925TIP3    H226740   5.850   2.483   3.952
 8926TIP3   OH226741   5.629   0.238   1.949
 8926TIP3    H126742   5.587   0.313   1.907
 8926TIP3    H226743   5.620   0.167   1.885
 8927TIP3   OH226744   3.881   2.462   3.975
 8927TIP3    H126745   3.956   2.445   4.032
 8927TIP3    H226746   3.913   2.529   3.914
 8928TIP3   OH226747   2.670   1.485   3.160
 8928TIP3    H126748   2.726   1.547   3.113
 8928TIP3    H226749   2.622   1.540   3.223
 8929TIP3   OH226750   5.142   1.397   0.272
 8929TIP3    H126751   5.078   1.343   0.226
 8929TIP3    H226752   5.217   1.338   0.286
 8930TIP3   OH226753   4.356   3.651   3.183
 8930TIP3    H126754   4.267   3.644   3.151
 8930TIP3    H226755   4.411   3.639   3.105
 8931TIP3   OH226756   4.282   0.229   5.381
 8931TIP3    H126757   4.266   0.220   5.475
 8931TIP3    H226758   4.378   0.227   5.373
 8932TIP3   OH226759   3.566   5.447   0.848
 8932TIP3    H126760   3.632   5.499   0.801
 8932TIP3    H226761   3.600   5.358   0.846
 8933TIP3   OH226762   4.340   4.022   5.124
 8933TIP3    H126763   4.245   4.032   5.115
 8933TIP3    H226764   4.352   3.992   5.214
 8934TIP3   OH226765   0.095   1.010   4.856
 8934TIP3    H126766   0.012   0.979   4.894
 8934TIP3    H226767   0.113   1.092   4.901
 8935TIP3   OH226768   5.830   2.243   2.693
 8935TIP3    H126769   5.826   2.263   2.786
 8935TIP3    H226770   5.882   2.163   2.687
 8936TIP3   OH226771   0.677   3.494   5.518
 8936TIP3    H126772   0.717   3.525   5.437
 8936TIP3    H226773   0.689   3.567   5.580
 8937TIP3   OH226774   6.898   5.501   1.682
 8937TIP3    H126775   6.861   5.428   1.633
 8937TIP3    H226776   6.823   5.555   1.707
 8938TIP3   OH226777   5.639   2.802   5.147
 8938TIP3    H126778   5.720   2.836   5.111
 8938TIP3    H226779   5.667   2.736   5.211
 8939TIP3   OH226780   0.679   0.243   2.142
 8939TIP3    H126781   0.643   0.155   2.158
 8939TIP3    H226782   0.602   0.299   2.137
 8940TIP3   OH226783   5.420   3.513   1.164
 8940TIP3    H126784   5.494   3.456   1.149
 8940TIP3    H226785   5.389   3.536   1.077
 8941TIP3   OH226786   2.890   2.083   1.823
 8941TIP3    H126787   2.956   2.137   1.780
 8941TIP3    H226788   2.806   2.124   1.800
 8942TIP3   OH226789   2.333   6.479   3.618
 8942TIP3    H126790   2.383   6.558   3.597
 8942TIP3    H226791   2.288   6.456   3.537
 8943TIP3   OH226792   1.236   5.746   2.798
 8943TIP3    H126793   1.278   5.715   2.879
 8943TIP3    H226794   1.144   5.723   2.809
 8944TIP3   OH226795   6.566   2.182   4.764
 8944TIP3    H126796   6.491   2.213   4.815
 8944TIP3    H226797   6.582   2.252   4.700
 8945TIP3   OH226798   1.079   6.793   4.394
 8945TIP3    H126799   1.000   6.740   4.408
 8945TIP3    H226800   1.055   6.853   4.323
 8946TIP3   OH226801   0.344   5.306   4.453
 8946TIP3    H126802   0.261   5.259   4.443
 8946TIP3    H226803   0.392   5.288   4.372
 8947TIP3   OH226804   3.613   2.723   3.785
 8947TIP3    H126805   3.608   2.819   3.793
 8947TIP3    H226806   3.561   2.690   3.858
 8948TIP3   OH226807   5.400   5.060   3.239
 8948TIP3    H126808   5.336   5.093   3.177
 8948TIP3    H226809   5.482   5.103   3.215
 8949TIP3   OH226810   2.223   2.768   0.392
 8949TIP3    H126811   2.128   2.773   0.388
 8949TIP3    H226812   2.253   2.853   0.360
 8950TIP3   OH226813   0.276   2.876   0.876
 8950TIP3    H126814   0.350   2.834   0.832
 8950TIP3    H226815   0.230   2.924   0.807
 8951TIP3   OH226816   6.673   1.122   1.281
 8951TIP3    H126817   6.590   1.145   1.323
 8951TIP3    H226818   6.728   1.091   1.353
 8952TIP3   OH226819   4.977   2.937   4.911
 8952TIP3    H126820   5.041   2.931   4.840
 8952TIP3    H226821   4.896   2.962   4.868
 8953TIP3   OH226822   7.066   3.543   0.650
 8953TIP3    H126823   7.140   3.505   0.698
 8953TIP3    H226824   7.009   3.579   0.717
 8954TIP3   OH226825   6.456   4.321   1.570
 8954TIP3    H126826   6.518   4.262   1.526
 8954TIP3    H226827   6.464   4.299   1.663
 8955TIP3   OH226828   3.787   2.767   0.187
 8955TIP3    H126829   3.735   2.823   0.244
 8955TIP3    H226830   3.725   2.704   0.151
 8956TIP3   OH226831   4.087   3.604   3.040
 8956TIP3    H126832   4.153   3.563   2.984
 8956TIP3    H226833   4.007   3.605   2.988
 8957TIP3   OH226834   6.534   3.651   5.358
 8957TIP3    H126835   6.556   3.623   5.269
 8957TIP3    H226836   6.619   3.670   5.399
 8958TIP3   OH226837   5.610   0.303   3.906
 8958TIP3    H126838   5.670   0.283   3.978
 8958TIP3    H226839   5.587   0.218   3.869
 8959TIP3   OH226840   2.918   3.273   3.445
 8959TIP3    H126841   2.957   3.361   3.448
 8959TIP3    H226842   2.828   3.287   3.417
 8960TIP3   OH226843   2.105   4.806   4.914
 8960TIP3    H126844   2.034   4.753   4.877
 8960TIP3    H226845   2.101   4.789   5.008
 8961TIP3   OH226846   1.311   2.483   1.345
 8961TIP3    H126847   1.378   2.540   1.383
 8961TIP3    H226848   1.233   2.538   1.339
 8962TIP3   OH226849   1.508   4.817   1.128
 8962TIP3    H126850   1.446   4.819   1.201
 8962TIP3    H226851   1.525   4.909   1.108
 8963TIP3   OH226852   3.438   4.597   0.381
 8963TIP3    H126853   3.497   4.592   0.455
 8963TIP3    H226854   3.447   4.687   0.349
 8964TIP3   OH226855   5.170   1.543   2.114
 8964TIP3    H126856   5.137   1.556   2.025
 8964TIP3    H226857   5.183   1.448   2.121
 8965TIP3   OH226858   2.565   0.646   5.154
 8965TIP3    H126859   2.494   0.610   5.207
 8965TIP3    H226860   2.558   0.601   5.070
 8966TIP3   OH226861   1.932   5.245   1.584
 8966TIP3    H126862   1.858   5.204   1.540
 8966TIP3    H226863   1.962   5.179   1.647
 8967TIP3   OH226864   1.188   5.662   1.567
 8967TIP3    H126865   1.229   5.579   1.589
 8967TIP3    H226866   1.094   5.644   1.571
 8968TIP3   OH226867   6.662   3.381   5.833
 8968TIP3    H126868   6.676   3.467   5.792
 8968TIP3    H226869   6.606   3.400   5.909
 8969TIP3   OH226870   5.899   3.824   2.165
 8969TIP3    H126871   5.869   3.886   2.231
 8969TIP3    H226872   5.819   3.794   2.121
 8970TIP3   OH226873   1.748   4.234   1.877
 8970TIP3    H126874   1.711   4.151   1.907
 8970TIP3    H226875   1.677   4.297   1.889
 8971TIP3   OH226876   6.391   2.640   1.750
 8971TIP3    H126877   6.367   2.668   1.838
 8971TIP3    H226878   6.317   2.669   1.695
 8972TIP3   OH226879   7.183   5.535   3.116
 8972TIP3    H126880   7.191   5.536   3.021
 8972TIP3    H226881   7.089   5.539   3.132
 8973TIP3   OH226882   0.123   3.710   2.324
 8973TIP3    H126883   0.196   3.657   2.358
 8973TIP3    H226884   0.050   3.688   2.381
 8974TIP3   OH226885   0.524   2.227   2.157
 8974TIP3    H126886   0.533   2.136   2.185
 8974TIP3    H226887   0.486   2.273   2.232
 8975TIP3   OH226888   7.035   0.920   3.457
 8975TIP3    H126889   6.987   1.003   3.450
 8975TIP3    H226890   7.084   0.928   3.539
 8976TIP3   OH226891   1.089   1.465   4.594
 8976TIP3    H126892   1.124   1.529   4.533
 8976TIP3    H226893   1.016   1.424   4.547
 8977TIP3   OH226894   1.819   0.990   1.278
 8977TIP3    H126895   1.781   0.917   1.326
 8977TIP3    H226896   1.773   1.067   1.310
 8978TIP3   OH226897   5.572   5.078   2.782
 8978TIP3    H126898   5.602   5.164   2.752
 8978TIP3    H226899   5.506   5.051   2.718
 8979TIP3   OH226900   5.563   5.280   3.150
 8979TIP3    H126901   5.657   5.263   3.144
 8979TIP3    H226902   5.550   5.358   3.096
 8980TIP3   OH226903   6.733   6.723   2.490
 8980TIP3    H126904   6.813   6.776   2.492
 8980TIP3    H226905   6.689   6.748   2.409
 8981TIP3   OH226906   2.400   1.910   0.779
 8981TIP3    H126907   2.357   1.880   0.860
 8981TIP3    H226908   2.454   1.984   0.806
 8982TIP3   OH226909   2.289   2.111   3.095
 8982TIP3    H126910   2.354   2.179   3.078
 8982TIP3    H226911   2.229   2.114   3.021
 8983TIP3   OH226912   5.734   0.674   3.905
 8983TIP3    H126913   5.666   0.609   3.923
 8983TIP3    H226914   5.816   0.626   3.919
 8984TIP3   OH226915   3.404   6.461   1.988
 8984TIP3    H126916   3.393   6.450   1.894
 8984TIP3    H226917   3.386   6.375   2.025
 8985TIP3   OH226918   2.058   6.258   3.618
 8985TIP3    H126919   2.137   6.212   3.589
 8985TIP3    H226920   1.997   6.187   3.640
 8986TIP3   OH226921   6.869   0.517   5.371
 8986TIP3    H126922   6.913   0.432   5.374
 8986TIP3    H226923   6.941   0.580   5.362
 8987TIP3   OH226924   4.937   5.488   2.508
 8987TIP3    H126925   4.956   5.573   2.468
 8987TIP3    H226926   5.012   5.433   2.485
 8988TIP3   OH226927   5.465   4.651   0.908
 8988TIP3    H126928   5.507   4.578   0.953
 8988TIP3    H226929   5.468   4.627   0.816
 8989TIP3   OH226930   5.268   6.163   4.813
 8989TIP3    H126931   5.215   6.084   4.799
 8989TIP3    H226932   5.275   6.202   4.726
 8990TIP3   OH226933   3.856   0.668   4.629
 8990TIP3    H126934   3.866   0.604   4.559
 8990TIP3    H226935   3.810   0.621   4.699
 8991TIP3   OH226936   3.623   5.101   5.496
 8991TIP3    H126937   3.586   5.087   5.409
 8991TIP3    H226938   3.637   5.195   5.501
 8992TIP3   OH226939   4.275   3.243   4.266
 8992TIP3    H126940   4.279   3.247   4.170
 8992TIP3    H226941   4.188   3.276   4.287
 8993TIP3   OH226942   1.797   3.923   2.929
 8993TIP3    H126943   1.781   3.869   3.005
 8993TIP3    H226944   1.788   3.864   2.854
 8994TIP3   OH226945   4.655   2.575   5.743
 8994TIP3    H126946   4.729   2.589   5.801
 8994TIP3    H226947   4.594   2.521   5.794
 8995TIP3   OH226948   1.314   4.506   0.736
 8995TIP3    H126949   1.279   4.566   0.670
 8995TIP3    H226950   1.361   4.562   0.798
 8996TIP3   OH226951   6.348   0.856   4.514
 8996TIP3    H126952   6.320   0.775   4.472
 8996TIP3    H226953   6.415   0.829   4.577
 8997TIP3   OH226954   4.024   6.795   0.946
 8997TIP3    H126955   4.077   6.767   1.020
 8997TIP3    H226956   4.084   6.842   0.889
 8998TIP3   OH226957   2.134   4.346   1.384
 8998TIP3    H126958   2.120   4.310   1.471
 8998TIP3    H226959   2.187   4.280   1.338
 8999TIP3   OH226960   3.469   6.463   1.128
 8999TIP3    H126961   3.518   6.431   1.203
 8999TIP3    H226962   3.536   6.484   1.063
 9000TIP3   OH226963   1.387   0.685   1.071
 9000TIP3    H126964   1.410   0.777   1.079
 9000TIP3    H226965   1.377   0.655   1.161
 9001TIP3   OH226966   1.570   3.057   2.485
 9001TIP3    H126967   1.649   3.044   2.432
 9001TIP3    H226968   1.518   2.977   2.470
 9002TIP3   OH226969   7.075   5.940   1.639
 9002TIP3    H126970   6.992   5.893   1.635
 9002TIP3    H226971   7.094   5.961   1.547
 9003TIP3   OH226972   2.469   4.509   0.412
 9003TIP3    H126973   2.526   4.540   0.482
 9003TIP3    H226974   2.419   4.437   0.451
 9004TIP3   OH226975   3.904   4.094   4.680
 9004TIP3    H126976   3.922   4.042   4.601
 9004TIP3    H226977   3.990   4.128   4.705
 9005TIP3   OH226978   3.890   3.444   3.879
 9005TIP3    H126979   3.961   3.506   3.896
 9005TIP3    H226980   3.930   3.377   3.823
 9006TIP3   OH226981   0.835   4.199   1.321
 9006TIP3    H126982   0.803   4.164   1.405
 9006TIP3    H226983   0.767   4.177   1.258
 9007TIP3   OH226984   5.587   1.154   0.663
 9007TIP3    H126985   5.641   1.181   0.588
 9007TIP3    H226986   5.637   1.084   0.704
 9008TIP3   OH226987   1.055   2.342   0.779
 9008TIP3    H126988   1.004   2.292   0.715
 9008TIP3    H226989   1.107   2.403   0.727
 9009TIP3   OH226990   7.117   3.785   2.032
 9009TIP3    H126991   7.164   3.831   2.101
 9009TIP3    H226992   7.072   3.714   2.077
 9010TIP3   OH226993   1.197   0.277   5.827
 9010TIP3    H126994   1.226   0.205   5.882
 9010TIP3    H226995   1.205   0.244   5.737
 9011TIP3   OH226996   3.068   2.243   5.331
 9011TIP3    H126997   3.127   2.169   5.317
 9011TIP3    H226998   2.991   2.204   5.372
 9012TIP3   OH226999   1.839   5.681   4.587
 9012TIP3    H127000   1.826   5.587   4.597
 9012TIP3    H227001   1.759   5.711   4.543
 9013TIP3   OH227002   5.197   6.704   3.768
 9013TIP3    H127003   5.248   6.766   3.716
 9013TIP3    H227004   5.223   6.618   3.736
 9014TIP3   OH227005   6.334   0.036   0.191
 9014TIP3    H127006   6.254   0.089   0.186
 9014TIP3    H227007   6.307  -0.051   0.162
 9015TIP3   OH227008   0.071   6.409   3.783
 9015TIP3    H127009   0.119   6.368   3.711
 9015TIP3    H227010   0.038   6.491   3.746
 9016TIP3   OH227011   1.397   3.113   4.987
 9016TIP3    H127012   1.330   3.074   5.042
 9016TIP3    H227013   1.398   3.059   4.908
 9017TIP3   OH227014   7.088   5.965   2.074
 9017TIP3    H127015   7.022   6.008   2.128
 9017TIP3    H227016   7.058   5.874   2.066
 9018TIP3   OH227017   1.372   6.367   4.809
 9018TIP3    H127018   1.300   6.307   4.791
 9018TIP3    H227019   1.430   6.359   4.732
 9019TIP3   OH227020   6.068   2.936   5.193
 9019TIP3    H127021   5.993   2.972   5.145
 9019TIP3    H227022   6.127   3.011   5.205
 9020TIP3   OH227023   2.293   0.908   4.486
 9020TIP3    H127024   2.338   0.989   4.463
 9020TIP3    H227025   2.206   0.935   4.513
 9021TIP3   OH227026   6.804   5.494   2.929
 9021TIP3    H127027   6.822   5.449   2.847
 9021TIP3    H227028   6.855   5.575   2.924
 9022TIP3   OH227029   2.813   3.414   5.524
 9022TIP3    H127030   2.869   3.490   5.542
 9022TIP3    H227031   2.850   3.376   5.445
 9023TIP3   OH227032   3.827   2.041   1.224
 9023TIP3    H127033   3.897   2.106   1.218
 9023TIP3    H227034   3.780   2.048   1.142
 9024TIP3   OH227035   6.312   4.076   1.827
 9024TIP3    H127036   6.305   4.097   1.734
 9024TIP3    H227037   6.378   4.137   1.861
 9025TIP3   OH227038   0.008   3.753   1.744
 9025TIP3    H127039  -0.067   3.695   1.756
 9025TIP3    H227040   0.077   3.713   1.796
 9026TIP3   OH227041   5.461   4.714   4.058
 9026TIP3    H127042   5.498   4.735   4.144
 9026TIP3    H227043   5.535   4.683   4.007
 9027TIP3   OH227044   7.167   0.954   3.694
 9027TIP3    H127045   7.140   0.930   3.783
 9027TIP3    H227046   7.250   0.908   3.682
 9028TIP3   OH227047   6.618   0.393   4.274
 9028TIP3    H127048   6.620   0.404   4.369
 9028TIP3    H227049   6.552   0.325   4.259
 9029TIP3   OH227050   0.803   3.559   4.652
 9029TIP3    H127051   0.780   3.503   4.578
 9029TIP3    H227052   0.800   3.648   4.616
 9030TIP3   OH227053   1.518   0.081   1.299
 9030TIP3    H127054   1.476   0.166   1.287
 9030TIP3    H227055   1.484   0.049   1.382
 9031TIP3   OH227056   3.049   5.695   4.758
 9031TIP3    H127057   3.086   5.607   4.771
 9031TIP3    H227058   2.957   5.686   4.783
 9032TIP3   OH227059   3.180   5.135   5.694
 9032TIP3    H127060   3.099   5.171   5.655
 9032TIP3    H227061   3.196   5.190   5.770
 9033TIP3   OH227062   4.234   1.667   4.939
 9033TIP3    H127063   4.292   1.622   4.878
 9033TIP3    H227064   4.148   1.666   4.895
 9034TIP3   OH227065   6.795   4.060   5.161
 9034TIP3    H127066   6.822   4.057   5.253
 9034TIP3    H227067   6.839   3.985   5.121
 9035TIP3   OH227068   3.359   4.319   0.613
 9035TIP3    H127069   3.442   4.360   0.638
 9035TIP3    H227070   3.328   4.370   0.538
 9036TIP3   OH227071   0.215   5.112   3.183
 9036TIP3    H127072   0.198   5.203   3.157
 9036TIP3    H227073   0.141   5.063   3.148
 9037TIP3   OH227074   3.385   2.124   5.576
 9037TIP3    H127075   3.405   2.050   5.634
 9037TIP3    H227076   3.451   2.190   5.598
 9038TIP3   OH227077   6.788   3.986   0.664
 9038TIP3    H127078   6.710   4.013   0.713
 9038TIP3    H227079   6.851   3.961   0.731
 9039TIP3   OH227080   2.950   2.691   2.066
 9039TIP3    H127081   2.952   2.607   2.020
 9039TIP3    H227082   3.027   2.739   2.035
 9040TIP3   OH227083   5.910   6.747   0.764
 9040TIP3    H127084   5.883   6.673   0.709
 9040TIP3    H227085   5.945   6.811   0.703
 9041TIP3   OH227086   5.541   3.114   4.265
 9041TIP3    H127087   5.521   3.050   4.333
 9041TIP3    H227088   5.511   3.072   4.184
 9042TIP3   OH227089   5.526   5.239   2.333
 9042TIP3    H127090   5.479   5.237   2.416
 9042TIP3    H227091   5.479   5.177   2.277
 9043TIP3   OH227092   1.610   3.369   5.224
 9043TIP3    H127093   1.621   3.392   5.317
 9043TIP3    H227094   1.533   3.418   5.196
 9044TIP3   OH227095   2.313   1.695   1.662
 9044TIP3    H127096   2.272   1.609   1.654
 9044TIP3    H227097   2.319   1.728   1.573
 9045TIP3   OH227098   7.030   4.595   4.177
 9045TIP3    H127099   7.053   4.502   4.182
 9045TIP3    H227100   6.970   4.601   4.102
 9046TIP3   OH227101   6.397   1.341   5.329
 9046TIP3    H127102   6.415   1.330   5.423
 9046TIP3    H227103   6.418   1.433   5.311
 9047TIP3   OH227104   2.956   2.901   5.007
 9047TIP3    H127105   2.970   2.809   4.984
 9047TIP3    H227106   3.032   2.925   5.060
 9048TIP3   OH227107   6.255   5.202   3.669
 9048TIP3    H127108   6.203   5.145   3.612
 9048TIP3    H227109   6.310   5.141   3.719
 9049TIP3   OH227110   4.843   0.219   5.457
 9049TIP3    H127111   4.793   0.299   5.473
 9049TIP3    H227112   4.859   0.182   5.544
 9050TIP3   OH227113   2.132   5.843   2.247
 9050TIP3    H127114   2.095   5.903   2.311
 9050TIP3    H227115   2.222   5.872   2.236
 9051TIP3   OH227116   6.021   5.383   3.748
 9051TIP3    H127117   6.105   5.345   3.723
 9051TIP3    H227118   5.997   5.336   3.828
 9052TIP3   OH227119   4.783   2.258   2.105
 9052TIP3    H127120   4.794   2.343   2.148
 9052TIP3    H227121   4.871   2.234   2.076
 9053TIP3   OH227122   3.231   4.479   0.014
 9053TIP3    H127123   3.153   4.429  -0.011
 9053TIP3    H227124   3.300   4.413   0.023
 9054TIP3   OH227125   3.773   0.442   5.885
 9054TIP3    H127126   3.728   0.484   5.959
 9054TIP3    H227127   3.789   0.514   5.824
 9055TIP3   OH227128   4.838   2.028   1.560
 9055TIP3    H127129   4.758   1.994   1.518
 9055TIP3    H227130   4.892   1.950   1.574
 9056TIP3   OH227131   6.259   5.362   2.278
 9056TIP3    H127132   6.326   5.311   2.232
 9056TIP3    H227133   6.277   5.453   2.254
 9057TIP3   OH227134   3.362   1.252   1.353
 9057TIP3    H127135   3.455   1.239   1.334
 9057TIP3    H227136   3.337   1.327   1.299
 9058TIP3   OH227137   3.115   0.330   5.392
 9058TIP3    H127138   3.211   0.326   5.393
 9058TIP3    H227139   3.089   0.294   5.477
 9059TIP3   OH227140   1.995   3.406   0.789
 9059TIP3    H127141   1.975   3.348   0.715
 9059TIP3    H227142   1.912   3.416   0.834
 9060TIP3   OH227143   0.946   0.881   5.406
 9060TIP3    H127144   1.023   0.844   5.363
 9060TIP3    H227145   0.886   0.902   5.335
 9061TIP3   OH227146   7.017   5.691   5.559
 9061TIP3    H127147   6.928   5.658   5.551
 9061TIP3    H227148   7.072   5.615   5.539
 9062TIP3   OH227149   7.040   1.294   0.687
 9062TIP3    H127150   7.045   1.282   0.593
 9062TIP3    H227151   6.949   1.321   0.703
 9063TIP3   OH227152   3.826   0.503   1.382
 9063TIP3    H127153   3.778   0.577   1.419
 9063TIP3    H227154   3.828   0.437   1.452
 9064TIP3   OH227155   5.010   0.490   2.792
 9064TIP3    H127156   5.001   0.517   2.701
 9064TIP3    H227157   4.961   0.555   2.842
 9065TIP3   OH227158   4.928   1.714   4.248
 9065TIP3    H127159   4.909   1.624   4.272
 9065TIP3    H227160   4.844   1.750   4.220
 9066TIP3   OH227161   7.164   3.459   5.495
 9066TIP3    H127162   7.197   3.541   5.460
 9066TIP3    H227163   7.140   3.479   5.586
 9067TIP3   OH227164   5.622   4.362   0.502
 9067TIP3    H127165   5.566   4.354   0.580
 9067TIP3    H227166   5.707   4.327   0.530
 9068TIP3   OH227167   2.389   5.561   3.174
 9068TIP3    H127168   2.341   5.567   3.091
 9068TIP3    H227169   2.327   5.520   3.235
 9069TIP3   OH227170   7.036   2.571   4.721
 9069TIP3    H127171   6.983   2.494   4.742
 9069TIP3    H227172   7.035   2.575   4.626
 9070TIP3   OH227173   0.885   5.462   0.464
 9070TIP3    H127174   0.902   5.556   0.470
 9070TIP3    H227175   0.794   5.456   0.434
 9071TIP3   OH227176   6.582   3.593   5.103
 9071TIP3    H127177   6.644   3.526   5.076
 9071TIP3    H227178   6.541   3.622   5.021
 9072TIP3   OH227179   4.335   3.230   0.407
 9072TIP3    H127180   4.282   3.267   0.337
 9072TIP3    H227181   4.368   3.306   0.455
 9073TIP3   OH227182   2.885   5.163   2.611
 9073TIP3    H127183   2.821   5.106   2.655
 9073TIP3    H227184   2.850   5.175   2.523
 9074TIP3   OH227185   4.026   5.478   0.888
 9074TIP3    H127186   4.114   5.504   0.861
 9074TIP3    H227187   4.038   5.439   0.975
 9075TIP3   OH227188   5.210   4.985   5.103
 9075TIP3    H127189   5.270   4.928   5.055
 9075TIP3    H227190   5.186   5.054   5.041
 9076TIP3   OH227191   5.358   4.380   4.348
 9076TIP3    H127192   5.279   4.388   4.401
 9076TIP3    H227193   5.330   4.403   4.260
 9077TIP3   OH227194   5.544   4.101   4.918
 9077TIP3    H127195   5.459   4.097   4.963
 9077TIP3    H227196   5.535   4.040   4.845
 9078TIP3   OH227197   0.107   0.405   5.851
 9078TIP3    H127198   0.176   0.410   5.917
 9078TIP3    H227199   0.031   0.370   5.897
 9079TIP3   OH227200   4.287   1.239   5.544
 9079TIP3    H127201   4.372   1.215   5.581
 9079TIP3    H227202   4.226   1.175   5.581
 9080TIP3   OH227203   2.066   1.806   2.399
 9080TIP3    H127204   2.084   1.867   2.328
 9080TIP3    H227205   2.064   1.720   2.358
 9081TIP3   OH227206   0.519   3.134   5.143
 9081TIP3    H127207   0.470   3.209   5.110
 9081TIP3    H227208   0.462   3.059   5.127
 9082TIP3   OH227209   0.739   2.131   3.598
 9082TIP3    H127210   0.649   2.161   3.611
 9082TIP3    H227211   0.755   2.144   3.504
 9083TIP3   OH227212   6.370   0.753   5.017
 9083TIP3    H127213   6.310   0.780   4.947
 9083TIP3    H227214   6.351   0.812   5.090
 9084TIP3   OH227215   3.626   4.195   4.708
 9084TIP3    H127216   3.569   4.148   4.768
 9084TIP3    H227217   3.709   4.147   4.711
 9085TIP3   OH227218   1.302   3.754   0.935
 9085TIP3    H127219   1.287   3.848   0.935
 9085TIP3    H227220   1.244   3.720   0.867
 9086TIP3   OH227221   1.080   3.424   4.257
 9086TIP3    H127222   1.142   3.367   4.212
 9086TIP3    H227223   1.029   3.465   4.187
 9087TIP3   OH227224   4.622   3.347   3.743
 9087TIP3    H127225   4.585   3.436   3.746
 9087TIP3    H227226   4.703   3.353   3.794
 9088TIP3   OH227227   3.066   2.117   0.834
 9088TIP3    H127228   3.051   2.183   0.902
 9088TIP3    H227229   3.071   2.034   0.882
 9089TIP3   OH227230   0.021   4.242   0.928
 9089TIP3    H127231   0.057   4.306   0.866
 9089TIP3    H227232   0.014   4.162   0.876
 9090TIP3   OH227233   3.214   3.144   0.281
 9090TIP3    H127234   3.287   3.205   0.268
 9090TIP3    H227235   3.142   3.200   0.311
 9091TIP3   OH227236   2.887   5.040   0.641
 9091TIP3    H127237   2.860   5.125   0.676
 9091TIP3    H227238   2.966   5.059   0.591
 9092TIP3   OH227239   1.275   1.629   3.383
 9092TIP3    H127240   1.341   1.672   3.330
 9092TIP3    H227241   1.229   1.571   3.321
 9093TIP3   OH227242   7.208   3.227   0.714
 9093TIP3    H127243   7.159   3.190   0.788
 9093TIP3    H227244   7.240   3.311   0.746
 9094TIP3   OH227245   0.775   6.673   1.121
 9094TIP3    H127246   0.768   6.599   1.060
 9094TIP3    H227247   0.697   6.725   1.103
 9095TIP3   OH227248   5.134   6.667   3.399
 9095TIP3    H127249   5.081   6.741   3.429
 9095TIP3    H227250   5.131   6.673   3.303
 9096TIP3   OH227251   6.032   4.716   2.583
 9096TIP3    H127252   6.094   4.772   2.536
 9096TIP3    H227253   6.021   4.758   2.668
 9097TIP3   OH227254   7.001   0.894   3.049
 9097TIP3    H127255   7.052   0.896   2.968
 9097TIP3    H227256   6.991   0.987   3.072
 9098TIP3   OH227257   0.638   1.530   4.238
 9098TIP3    H127258   0.700   1.603   4.231
 9098TIP3    H227259   0.672   1.464   4.177
 9099TIP3   OH227260   6.239   0.008   4.958
 9099TIP3    H127261   6.173   0.005   5.027
 9099TIP3    H227262   6.188   0.007   4.876
 9100TIP3   OH227263   4.661   5.609   0.967
 9100TIP3    H127264   4.673   5.623   1.061
 9100TIP3    H227265   4.634   5.518   0.960
 9101TIP3   OH227266   5.818   3.905   0.224
 9101TIP3    H127267   5.825   3.810   0.222
 9101TIP3    H227268   5.752   3.923   0.291
 9102TIP3   OH227269   0.858   6.621   5.815
 9102TIP3    H127270   0.811   6.665   5.744
 9102TIP3    H227271   0.934   6.581   5.774
 9103TIP3   OH227272   0.899   1.833   2.504
 9103TIP3    H127273   0.828   1.769   2.495
 9103TIP3    H227274   0.956   1.795   2.572
 9104TIP3   OH227275   5.439   6.545   3.993
 9104TIP3    H127276   5.438   6.639   3.978
 9104TIP3    H227277   5.351   6.516   3.970
 9105TIP3   OH227278   3.764   1.328   2.456
 9105TIP3    H127279   3.781   1.290   2.542
 9105TIP3    H227280   3.739   1.254   2.401
 9106TIP3   OH227281   5.798   5.906   2.439
 9106TIP3    H127282   5.860   5.965   2.395
 9106TIP3    H227283   5.718   5.913   2.387
 9107TIP3   OH227284   0.576   6.219   0.323
 9107TIP3    H127285   0.564   6.253   0.234
 9107TIP3    H227286   0.498   6.248   0.371
 9108TIP3   OH227287   3.094   0.968   2.131
 9108TIP3    H127288   3.103   1.037   2.196
 9108TIP3    H227289   3.165   0.907   2.151
 9109TIP3   OH227290   2.483   4.383   4.054
 9109TIP3    H127291   2.547   4.450   4.076
 9109TIP3    H227292   2.471   4.392   3.960
 9110TIP3   OH227293   3.295   3.260   5.795
 9110TIP3    H127294   3.362   3.197   5.768
 9110TIP3    H227295   3.222   3.244   5.735
 9111TIP3   OH227296   2.673   4.401   5.906
 9111TIP3    H127297   2.664   4.471   5.842
 9111TIP3    H227298   2.765   4.374   5.899
 9112TIP3   OH227299   2.724   4.042   1.308
 9112TIP3    H127300   2.745   4.101   1.236
 9112TIP3    H227301   2.650   3.990   1.277
 9113TIP3   OH227302   3.179   3.564   1.974
 9113TIP3    H127303   3.201   3.543   2.065
 9113TIP3    H227304   3.152   3.655   1.976
 9114TIP3   OH227305   4.195   5.090   5.242
 9114TIP3    H127306   4.159   5.088   5.331
 9114TIP3    H227307   4.226   5.180   5.231
 9115TIP3   OH227308   3.042   6.422   4.716
 9115TIP3    H127309   3.069   6.340   4.757
 9115TIP3    H227310   3.105   6.434   4.644
 9116TIP3   OH227311   3.215   4.654   4.917
 9116TIP3    H127312   3.188   4.596   4.988
 9116TIP3    H227313   3.140   4.655   4.857
 9117TIP3   OH227314   4.905   5.955   5.123
 9117TIP3    H127315   4.866   5.887   5.179
 9117TIP3    H227316   4.830   6.007   5.093
 9118TIP3   OH227317   6.203   0.192   4.507
 9118TIP3    H127318   6.241   0.107   4.484
 9118TIP3    H227319   6.202   0.241   4.426
 9119TIP3   OH227320   1.087   2.649   1.368
 9119TIP3    H127321   1.037   2.730   1.377
 9119TIP3    H227322   1.031   2.581   1.405
 9120TIP3   OH227323   5.626   6.485   4.191
 9120TIP3    H127324   5.635   6.409   4.134
 9120TIP3    H227325   5.551   6.533   4.156
 9121TIP3   OH227326   1.046   3.066   0.371
 9121TIP3    H127327   1.112   3.068   0.440
 9121TIP3    H227328   1.070   3.139   0.313
 9122TIP3   OH227329   5.231   4.832   2.806
 9122TIP3    H127330   5.164   4.764   2.807
 9122TIP3    H227331   5.209   4.889   2.880
 9123TIP3   OH227332   6.563   6.424   1.801
 9123TIP3    H127333   6.554   6.434   1.896
 9123TIP3    H227334   6.515   6.498   1.765
 9124TIP3   OH227335   3.729   5.316   3.769
 9124TIP3    H127336   3.663   5.257   3.804
 9124TIP3    H227337   3.696   5.340   3.682
 9125TIP3   OH227338   3.647   3.820   5.512
 9125TIP3    H127339   3.648   3.851   5.603
 9125TIP3    H227340   3.641   3.725   5.519
 9126TIP3   OH227341   3.654   3.166   0.247
 9126TIP3    H127342   3.571   3.214   0.251
 9126TIP3    H227343   3.649   3.116   0.166
 9127TIP3   OH227344   5.747   3.907   1.508
 9127TIP3    H127345   5.702   3.898   1.423
 9127TIP3    H227346   5.824   3.961   1.488
 9128TIP3   OH227347   1.158   6.341   0.946
 9128TIP3    H127348   1.094   6.290   0.996
 9128TIP3    H227349   1.235   6.344   1.002
 9129TIP3   OH227350   1.062   5.490   1.301
 9129TIP3    H127351   1.152   5.523   1.301
 9129TIP3    H227352   1.008   5.568   1.282
 9130TIP3   OH227353   0.641   3.415   0.890
 9130TIP3    H127354   0.651   3.499   0.845
 9130TIP3    H227355   0.656   3.350   0.822
 9131TIP3   OH227356   1.045   4.257   5.889
 9131TIP3    H127357   1.091   4.332   5.853
 9131TIP3    H227358   0.990   4.225   5.817
 9132TIP3   OH227359   6.427   2.837   1.090
 9132TIP3    H127360   6.403   2.747   1.110
 9132TIP3    H227361   6.346   2.886   1.102
 9133TIP3   OH227362   2.763   4.520   5.082
 9133TIP3    H127363   2.698   4.460   5.046
 9133TIP3    H227364   2.777   4.585   5.013
 9134TIP3   OH227365   0.771   4.159   4.497
 9134TIP3    H127366   0.799   4.250   4.503
 9134TIP3    H227367   0.735   4.151   4.409
 9135TIP3   OH227368   3.464   1.556   5.865
 9135TIP3    H127369   3.449   1.462   5.880
 9135TIP3    H227370   3.376   1.594   5.867
 9136TIP3   OH227371   1.092   0.402   1.881
 9136TIP3    H127372   1.032   0.469   1.848
 9136TIP3    H227373   1.086   0.409   1.976
 9137TIP3   OH227374   1.846   5.728   3.101
 9137TIP3    H127375   1.805   5.790   3.161
 9137TIP3    H227376   1.780   5.711   3.034
 9138TIP3   OH227377   2.172   4.410   0.664
 9138TIP3    H127378   2.222   4.357   0.602
 9138TIP3    H227379   2.162   4.354   0.741
 9139TIP3   OH227380   3.002   3.878   4.813
 9139TIP3    H127381   3.007   3.866   4.718
 9139TIP3    H227382   2.935   3.816   4.841
 9140TIP3   OH227383   5.039   3.943   4.910
 9140TIP3    H127384   5.090   3.944   4.829
 9140TIP3    H227385   5.054   3.855   4.945
 9141TIP3   OH227386   5.198   4.461   2.491
 9141TIP3    H127387   5.264   4.464   2.422
 9141TIP3    H227388   5.247   4.438   2.570
 9142TIP3   OH227389   2.387   3.082   0.044
 9142TIP3    H127390   2.374   2.995   0.081
 9142TIP3    H227391   2.394   3.140   0.121
 9143TIP3   OH227392   1.188   1.467   3.168
 9143TIP3    H127393   1.176   1.377   3.139
 9143TIP3    H227394   1.272   1.494   3.130
 9144TIP3   OH227395   0.517   0.715   2.977
 9144TIP3    H127396   0.592   0.748   2.928
 9144TIP3    H227397   0.543   0.626   3.004
 9145TIP3   OH227398   5.709   0.208   3.571
 9145TIP3    H127399   5.750   0.169   3.648
 9145TIP3    H227400   5.654   0.277   3.607
 9146TIP3   OH227401   5.276   3.844   3.443
 9146TIP3    H127402   5.300   3.936   3.458
 9146TIP3    H227403   5.340   3.813   3.379
 9147TIP3   OH227404   0.393   2.506   1.739
 9147TIP3    H127405   0.451   2.430   1.735
 9147TIP3    H227406   0.341   2.501   1.659
 9148TIP3   OH227407   6.922   5.065   3.451
 9148TIP3    H127408   6.851   5.002   3.467
 9148TIP3    H227409   6.988   5.044   3.517
 9149TIP3   OH227410   0.706   0.351   5.825
 9149TIP3    H127411   0.785   0.353   5.771
 9149TIP3    H227412   0.646   0.293   5.778
 9150TIP3   OH227413   6.913   6.073   0.093
 9150TIP3    H127414   6.974   6.080   0.020
 9150TIP3    H227415   6.860   5.996   0.072
 9151TIP3   OH227416   2.075   2.272   5.618
 9151TIP3    H127417   2.095   2.325   5.695
 9151TIP3    H227418   1.992   2.228   5.640
 9152TIP3   OH227419   1.348   6.742   1.901
 9152TIP3    H127420   1.281   6.682   1.935
 9152TIP3    H227421   1.323   6.754   1.809
 9153TIP3   OH227422   1.017   0.768   1.006
 9153TIP3    H127423   1.004   0.766   1.100
 9153TIP3    H227424   0.930   0.751   0.969
 9154TIP3   OH227425   6.977   2.905   0.116
 9154TIP3    H127426   6.903   2.962   0.138
 9154TIP3    H227427   6.998   2.860   0.198
 9155TIP3   OH227428   0.959   3.275   3.634
 9155TIP3    H127429   0.879   3.325   3.652
 9155TIP3    H227430   1.019   3.299   3.705
 9156TIP3   OH227431   2.728   3.754   5.373
 9156TIP3    H127432   2.691   3.839   5.397
 9156TIP3    H227433   2.800   3.741   5.434
 9157TIP3   OH227434   2.078   0.075   3.039
 9157TIP3    H127435   2.156   0.059   3.092
 9157TIP3    H227436   2.087   0.014   2.966
 9158TIP3   OH227437   4.702   3.576   1.866
 9158TIP3    H127438   4.618   3.546   1.832
 9158TIP3    H227439   4.698   3.556   1.960
 9159TIP3   OH227440   1.223   0.055   3.160
 9159TIP3    H127441   1.143   0.061   3.108
 9159TIP3    H227442   1.261  -0.029   3.136
 9160TIP3   OH227443   2.027   1.229   1.647
 9160TIP3    H127444   1.961   1.190   1.705
 9160TIP3    H227445   1.976   1.269   1.576
 9161TIP3   OH227446   6.518   0.535   5.620
 9161TIP3    H127447   6.471   0.505   5.542
 9161TIP3    H227448   6.488   0.625   5.633
 9162TIP3   OH227449   2.295   1.756   3.473
 9162TIP3    H127450   2.254   1.830   3.428
 9162TIP3    H227451   2.312   1.787   3.561
 9163TIP3   OH227452   3.689   4.462   4.190
 9163TIP3    H127453   3.701   4.548   4.150
 9163TIP3    H227454   3.695   4.478   4.284
 9164TIP3   OH227455   3.995   4.306   5.704
 9164TIP3    H127456   3.914   4.332   5.661
 9164TIP3    H227457   4.048   4.267   5.634
 9165TIP3   OH227458   0.949   2.706   2.219
 9165TIP3    H127459   1.003   2.668   2.289
 9165TIP3    H227460   0.875   2.746   2.265
 9166TIP3   OH227461   1.006   6.623   2.488
 9166TIP3    H127462   1.054   6.563   2.431
 9166TIP3    H227463   0.920   6.583   2.498
 9167TIP3   OH227464   5.446   3.546   4.161
 9167TIP3    H127465   5.457   3.555   4.255
 9167TIP3    H227466   5.446   3.636   4.128
 9168TIP3   OH227467   0.157   4.873   2.100
 9168TIP3    H127468   0.234   4.878   2.155
 9168TIP3    H227469   0.188   4.833   2.018
 9169TIP3   OH227470   1.761   2.272   0.187
 9169TIP3    H127471   1.701   2.243   0.256
 9169TIP3    H227472   1.739   2.365   0.173
 9170TIP3   OH227473   2.611   2.417   2.916
 9170TIP3    H127474   2.669   2.409   2.991
 9170TIP3    H227475   2.525   2.391   2.949
 9171TIP3   OH227476   5.081   3.047   1.571
 9171TIP3    H127477   5.112   3.137   1.581
 9171TIP3    H227478   5.155   2.993   1.597
 9172TIP3   OH227479   5.740   1.508   5.492
 9172TIP3    H127480   5.756   1.413   5.495
 9172TIP3    H227481   5.723   1.526   5.400
 9173TIP3   OH227482   2.953   4.625   2.365
 9173TIP3    H127483   2.949   4.567   2.441
 9173TIP3    H227484   2.896   4.584   2.300
 9174TIP3   OH227485   2.882   2.702   3.742
 9174TIP3    H127486   2.843   2.756   3.811
 9174TIP3    H227487   2.829   2.623   3.741
 9175TIP3   OH227488   0.622   3.335   3.340
 9175TIP3    H127489   0.587   3.299   3.422
 9175TIP3    H227490   0.592   3.426   3.340
 9176TIP3   OH227491   5.495   6.260   4.960
 9176TIP3    H127492   5.482   6.242   4.867
 9176TIP3    H227493   5.412   6.238   5.002
 9177TIP3   OH227494   0.609   4.720   2.055
 9177TIP3    H127495   0.646   4.660   2.120
 9177TIP3    H227496   0.571   4.663   1.988
 9178TIP3   OH227497   0.843   3.946   2.557
 9178TIP3    H127498   0.792   4.027   2.548
 9178TIP3    H227499   0.845   3.930   2.652
 9179TIP3   OH227500   1.807   3.139   0.351
 9179TIP3    H127501   1.749   3.070   0.383
 9179TIP3    H227502   1.782   3.150   0.259
 9180TIP3   OH227503   5.617   3.038   1.444
 9180TIP3    H127504   5.657   3.093   1.376
 9180TIP3    H227505   5.651   2.950   1.427
 9181TIP3   OH227506   6.945   1.645   3.227
 9181TIP3    H127507   6.962   1.569   3.171
 9181TIP3    H227508   7.031   1.666   3.264
 9182TIP3   OH227509   0.281   5.115   3.446
 9182TIP3    H127510   0.274   5.100   3.352
 9182TIP3    H227511   0.193   5.144   3.473
 9183TIP3   OH227512   4.180   5.516   3.253
 9183TIP3    H127513   4.189   5.440   3.196
 9183TIP3    H227514   4.237   5.582   3.213
 9184TIP3   OH227515   0.753   4.341   0.585
 9184TIP3    H127516   0.691   4.329   0.514
 9184TIP3    H227517   0.771   4.435   0.585
 9185TIP3   OH227518   5.135   6.024   5.683
 9185TIP3    H127519   5.067   5.998   5.620
 9185TIP3    H227520   5.090   6.082   5.744
 9186TIP3   OH227521   4.479   2.914   3.089
 9186TIP3    H127522   4.417   2.886   3.155
 9186TIP3    H227523   4.545   2.965   3.137
 9187TIP3   OH227524   4.626   3.508   5.040
 9187TIP3    H127525   4.653   3.487   5.129
 9187TIP3    H227526   4.661   3.436   4.987
 9188TIP3   OH227527   3.278   6.466   5.339
 9188TIP3    H127528   3.341   6.406   5.380
 9188TIP3    H227529   3.231   6.505   5.412
 9189TIP3   OH227530   6.832   4.843   2.370
 9189TIP3    H127531   6.760   4.783   2.386
 9189TIP3    H227532   6.798   4.905   2.306
 9190TIP3   OH227533   1.975   6.769   2.840
 9190TIP3    H127534   2.012   6.852   2.869
 9190TIP3    H227535   1.955   6.783   2.747
 9191TIP3   OH227536   6.104   0.028   1.247
 9191TIP3    H127537   6.020  -0.016   1.257
 9191TIP3    H227538   6.115   0.079   1.327
 9192TIP3   OH227539   6.509   5.901   2.099
 9192TIP3    H127540   6.519   5.964   2.171
 9192TIP3    H227541   6.596   5.892   2.062
 9193TIP3   OH227542   3.069   3.718   3.262
 9193TIP3    H127543   2.981   3.748   3.239
 9193TIP3    H227544   3.116   3.715   3.179
 9194TIP3   OH227545   4.750   0.296   0.110
 9194TIP3    H127546   4.661   0.322   0.084
 9194TIP3    H227547   4.784   0.372   0.157
 9195TIP3   OH227548   3.400   6.622   2.956
 9195TIP3    H127549   3.358   6.612   2.870
 9195TIP3    H227550   3.345   6.685   3.002
 9196TIP3   OH227551   5.613   5.937   1.755
 9196TIP3    H127552   5.690   5.987   1.784
 9196TIP3    H227553   5.643   5.894   1.675
 9197TIP3   OH227554   3.008   2.489   4.457
 9197TIP3    H127555   3.035   2.553   4.391
 9197TIP3    H227556   3.013   2.537   4.540
 9198TIP3   OH227557   3.229   3.525   2.426
 9198TIP3    H127558   3.160   3.502   2.364
 9198TIP3    H227559   3.218   3.464   2.498
 9199TIP3   OH227560   6.728   4.633   3.294
 9199TIP3    H127561   6.778   4.619   3.213
 9199TIP3    H227562   6.747   4.557   3.348
 9200TIP3   OH227563   6.110   3.318   4.982
 9200TIP3    H127564   6.159   3.376   4.923
 9200TIP3    H227565   6.018   3.333   4.959
 9201TIP3   OH227566   6.087   2.409   1.189
 9201TIP3    H127567   6.091   2.471   1.261
 9201TIP3    H227568   6.138   2.449   1.119
 9202TIP3   OH227569   4.454   4.686   4.120
 9202TIP3    H127570   4.493   4.710   4.037
 9202TIP3    H227571   4.380   4.746   4.131
 9203TIP3   OH227572   5.260   4.280   2.022
 9203TIP3    H127573   5.334   4.241   2.067
 9203TIP3    H227574   5.292   4.296   1.933
 9204TIP3   OH227575   6.695   2.463   5.383
 9204TIP3    H127576   6.705   2.555   5.357
 9204TIP3    H227577   6.769   2.418   5.342
 9205TIP3   OH227578   3.614   6.459   2.441
 9205TIP3    H127579   3.671   6.497   2.509
 9205TIP3    H227580   3.663   6.383   2.410
 9206TIP3   OH227581   3.538   0.892   0.394
 9206TIP3    H127582   3.548   0.797   0.381
 9206TIP3    H227583   3.627   0.924   0.406
 9207TIP3   OH227584   2.948   4.847   3.191
 9207TIP3    H127585   3.012   4.899   3.239
 9207TIP3    H227586   2.874   4.839   3.251
 9208TIP3   OH227587   1.229   1.829   4.029
 9208TIP3    H127588   1.199   1.856   3.942
 9208TIP3    H227589   1.300   1.891   4.049
 9209TIP3   OH227590   0.918   1.302   3.757
 9209TIP3    H127591   0.928   1.336   3.668
 9209TIP3    H227592   0.962   1.366   3.812
 9210TIP3   OH227593   0.083   1.583   4.098
 9210TIP3    H127594   0.168   1.623   4.119
 9210TIP3    H227595   0.105   1.513   4.036
 9211TIP3   OH227596   3.121   0.210   2.517
 9211TIP3    H127597   3.098   0.235   2.606
 9211TIP3    H227598   3.099   0.287   2.464
 9212TIP3   OH227599   5.442   6.234   5.342
 9212TIP3    H127600   5.514   6.171   5.334
 9212TIP3    H227601   5.476   6.314   5.303
 9213TIP3   OH227602   1.133   0.372   4.115
 9213TIP3    H127603   1.119   0.309   4.186
 9213TIP3    H227604   1.089   0.452   4.144
 9214TIP3   OH227605   2.609   2.199   0.027
 9214TIP3    H127606   2.665   2.257   0.079
 9214TIP3    H227607   2.544   2.257  -0.012
 9215TIP3   OH227608   4.357   1.502   2.548
 9215TIP3    H127609   4.273   1.470   2.513
 9215TIP3    H227610   4.408   1.526   2.472
 9216TIP3   OH227611   4.134   6.157   0.289
 9216TIP3    H127612   4.145   6.251   0.304
 9216TIP3    H227613   4.041   6.146   0.270
 9217TIP3   OH227614   6.664   0.686   3.254
 9217TIP3    H127615   6.691   0.777   3.242
 9217TIP3    H227616   6.743   0.641   3.283
 9218TIP3   OH227617   4.406   3.831   3.706
 9218TIP3    H127618   4.498   3.858   3.702
 9218TIP3    H227619   4.368   3.887   3.774
 9219TIP3   OH227620   3.846   3.464   4.314
 9219TIP3    H127621   3.843   3.412   4.394
 9219TIP3    H227622   3.755   3.482   4.293
 9220TIP3   OH227623   5.346   1.437   2.586
 9220TIP3    H127624   5.310   1.363   2.636
 9220TIP3    H227625   5.320   1.514   2.636
 9221TIP3   OH227626   3.987   0.743   1.402
 9221TIP3    H127627   3.986   0.661   1.452
 9221TIP3    H227628   3.975   0.715   1.311
 9222TIP3   OH227629   4.990   2.503   5.136
 9222TIP3    H127630   4.918   2.441   5.122
 9222TIP3    H227631   5.019   2.486   5.225
 9223TIP3   OH227632   3.866   4.763   2.456
 9223TIP3    H127633   3.929   4.730   2.392
 9223TIP3    H227634   3.917   4.775   2.536
 9224TIP3   OH227635   1.973   6.802   1.825
 9224TIP3    H127636   2.055   6.772   1.864
 9224TIP3    H227637   1.976   6.771   1.735
 9225TIP3   OH227638   3.710   6.818   4.242
 9225TIP3    H127639   3.720   6.758   4.316
 9225TIP3    H227640   3.779   6.793   4.181
 9226TIP3   OH227641   4.870   1.875   1.135
 9226TIP3    H127642   4.897   1.964   1.115
 9226TIP3    H227643   4.949   1.823   1.123
 9227TIP3   OH227644   7.095   0.071   3.496
 9227TIP3    H127645   7.055  -0.016   3.496
 9227TIP3    H227646   7.022   0.131   3.484
 9228TIP3   OH227647   6.371   2.179   3.935
 9228TIP3    H127648   6.412   2.266   3.937
 9228TIP3    H227649   6.287   2.193   3.890
 9229TIP3   OH227650   3.017   4.067   1.401
 9229TIP3    H127651   3.011   4.106   1.488
 9229TIP3    H227652   2.927   4.051   1.375
 9230TIP3   OH227653   5.270   1.666   5.497
 9230TIP3    H127654   5.316   1.700   5.420
 9230TIP3    H227655   5.226   1.587   5.465
 9231TIP3   OH227656   1.000   6.482   0.770
 9231TIP3    H127657   1.053   6.426   0.827
 9231TIP3    H227658   1.063   6.541   0.729
 9232TIP3   OH227659   0.658   4.497   4.759
 9232TIP3    H127660   0.638   4.509   4.851
 9232TIP3    H227661   0.582   4.536   4.713
 9233TIP3   OH227662   0.262   3.780   2.861
 9233TIP3    H127663   0.178   3.771   2.908
 9233TIP3    H227664   0.290   3.690   2.844
 9234TIP3   OH227665   5.845   6.369   4.572
 9234TIP3    H127666   5.850   6.454   4.527
 9234TIP3    H227667   5.877   6.306   4.508
 9235TIP3   OH227668   0.114   2.368   5.060
 9235TIP3    H127669   0.038   2.313   5.079
 9235TIP3    H227670   0.079   2.456   5.052
 9236TIP3   OH227671   2.081   0.456   0.273
 9236TIP3    H127672   2.147   0.417   0.330
 9236TIP3    H227673   2.004   0.468   0.330
 9237TIP3   OH227674   2.948   5.155   5.540
 9237TIP3    H127675   2.896   5.230   5.511
 9237TIP3    H227676   3.025   5.156   5.484
 9238TIP3   OH227677   0.983   1.790   0.323
 9238TIP3    H127678   1.004   1.848   0.251
 9238TIP3    H227679   0.922   1.840   0.377
 9239TIP3   OH227680   3.672   0.287   1.014
 9239TIP3    H127681   3.671   0.289   1.109
 9239TIP3    H227682   3.666   0.195   0.991
 9240TIP3   OH227683   4.420   2.092   1.819
 9240TIP3    H127684   4.487   2.144   1.773
 9240TIP3    H227685   4.424   2.124   1.909
 9241TIP3   OH227686   4.478   2.226   2.079
 9241TIP3    H127687   4.476   2.321   2.062
 9241TIP3    H227688   4.571   2.205   2.080
 9242TIP3   OH227689   6.997   4.315   5.592
 9242TIP3    H127690   6.918   4.275   5.629
 9242TIP3    H227691   7.011   4.394   5.643
 9243TIP3   OH227692   3.723   2.757   2.900
 9243TIP3    H127693   3.632   2.767   2.927
 9243TIP3    H227694   3.737   2.829   2.838
 9244TIP3   OH227695   5.750   6.712   5.503
 9244TIP3    H127696   5.821   6.698   5.566
 9244TIP3    H227697   5.749   6.631   5.452
 9245TIP3   OH227698   0.741   1.241   0.771
 9245TIP3    H127699   0.812   1.304   0.779
 9245TIP3    H227700   0.694   1.246   0.855
 9246TIP3   OH227701   5.983   4.405   1.396
 9246TIP3    H127702   5.940   4.381   1.478
 9246TIP3    H227703   6.075   4.382   1.410
 9247TIP3   OH227704   1.041   0.993   3.344
 9247TIP3    H127705   1.090   1.001   3.426
 9247TIP3    H227706   0.995   0.909   3.351
 9248TIP3   OH227707   6.192   4.304   2.406
 9248TIP3    H127708   6.160   4.220   2.441
 9248TIP3    H227709   6.250   4.279   2.334
 9249TIP3   OH227710   1.452   4.318   5.027
 9249TIP3    H127711   1.405   4.300   4.945
 9249TIP3    H227712   1.406   4.393   5.064
 9250TIP3   OH227713   6.254   4.899   3.298
 9250TIP3    H127714   6.189   4.879   3.231
 9250TIP3    H227715   6.230   4.844   3.373
 9251TIP3   OH227716   3.378   2.010   4.179
 9251TIP3    H127717   3.336   2.053   4.253
 9251TIP3    H227718   3.305   1.987   4.121
 9252TIP3   OH227719   2.144   4.790   3.754
 9252TIP3    H127720   2.063   4.837   3.736
 9252TIP3    H227721   2.184   4.776   3.668
 9253TIP3   OH227722   2.120   3.711   3.056
 9253TIP3    H127723   2.195   3.693   3.113
 9253TIP3    H227724   2.044   3.705   3.114
 9254TIP3   OH227725   6.265   4.744   3.559
 9254TIP3    H127726   6.171   4.726   3.547
 9254TIP3    H227727   6.307   4.659   3.551
 9255TIP3   OH227728   4.471   0.630   2.090
 9255TIP3    H127729   4.473   0.713   2.042
 9255TIP3    H227730   4.437   0.653   2.177
 9256TIP3   OH227731   6.799   5.892   4.554
 9256TIP3    H127732   6.810   5.797   4.556
 9256TIP3    H227733   6.807   5.919   4.645
 9257TIP3   OH227734   6.950   2.343   2.290
 9257TIP3    H127735   6.879   2.364   2.351
 9257TIP3    H227736   6.916   2.271   2.237
 9258TIP3   OH227737   4.797   4.650   1.361
 9258TIP3    H127738   4.759   4.566   1.387
 9258TIP3    H227739   4.734   4.715   1.390
 9259TIP3   OH227740   0.893   4.020   0.352
 9259TIP3    H127741   0.911   4.045   0.443
 9259TIP3    H227742   0.808   3.975   0.356
 9260TIP3   OH227743   4.278   2.940   1.979
 9260TIP3    H127744   4.344   3.009   1.976
 9260TIP3    H227745   4.296   2.891   2.059
 9261TIP3   OH227746   5.619   5.068   4.401
 9261TIP3    H127747   5.541   5.112   4.434
 9261TIP3    H227748   5.646   5.010   4.472
 9262TIP3   OH227749   3.792   1.075   1.114
 9262TIP3    H127750   3.717   1.094   1.170
 9262TIP3    H227751   3.840   1.005   1.160
 9263TIP3   OH227752   1.815   5.281   0.317
 9263TIP3    H127753   1.817   5.206   0.377
 9263TIP3    H227754   1.736   5.329   0.341
 9264TIP3   OH227755   1.947   3.419   1.429
 9264TIP3    H127756   1.986   3.363   1.362
 9264TIP3    H227757   1.854   3.425   1.404
 9265TIP3   OH227758   3.650   6.158   2.857
 9265TIP3    H127759   3.645   6.254   2.857
 9265TIP3    H227760   3.560   6.130   2.874
 9266TIP3   OH227761   2.932   4.004   5.449
 9266TIP3    H127762   2.885   4.073   5.404
 9266TIP3    H227763   3.023   4.036   5.454
 9267TIP3   OH227764   6.373   1.878   1.065
 9267TIP3    H127765   6.359   1.790   1.029
 9267TIP3    H227766   6.304   1.931   1.025
 9268TIP3   OH227767   1.973   0.294   3.681
 9268TIP3    H127768   1.915   0.291   3.606
 9268TIP3    H227769   2.016   0.379   3.676
 9269TIP3   OH227770   7.030   3.013   3.139
 9269TIP3    H127771   7.118   3.052   3.140
 9269TIP3    H227772   7.009   3.005   3.047
 9270TIP3   OH227773   3.924   1.411   5.279
 9270TIP3    H127774   4.016   1.388   5.266
 9270TIP3    H227775   3.885   1.332   5.317
 9271TIP3   OH227776   0.704   3.177   2.010
 9271TIP3    H127777   0.650   3.116   2.060
 9271TIP3    H227778   0.655   3.192   1.929
 9272TIP3   OH227779   6.722   0.726   1.362
 9272TIP3    H127780   6.781   0.653   1.378
 9272TIP3    H227781   6.766   0.802   1.401
 9273TIP3   OH227782   2.373   4.001   3.107
 9273TIP3    H127783   2.301   3.990   3.045
 9273TIP3    H227784   2.334   3.988   3.193
 9274TIP3   OH227785   1.861   6.553   5.192
 9274TIP3    H127786   1.929   6.519   5.250
 9274TIP3    H227787   1.866   6.648   5.203
 9275TIP3   OH227788   4.998   5.109   0.462
 9275TIP3    H127789   5.014   5.026   0.418
 9275TIP3    H227790   5.007   5.175   0.393
 9276TIP3   OH227791   4.707   0.303   1.782
 9276TIP3    H127792   4.751   0.328   1.863
 9276TIP3    H227793   4.691   0.209   1.791
 9277TIP3   OH227794   4.903   0.194   5.176
 9277TIP3    H127795   4.879   0.182   5.268
 9277TIP3    H227796   4.958   0.118   5.156
 9278TIP3   OH227797   6.276   3.176   3.838
 9278TIP3    H127798   6.286   3.229   3.759
 9278TIP3    H227799   6.361   3.180   3.881
 9279TIP3   OH227800   7.010   5.278   2.499
 9279TIP3    H127801   7.074   5.283   2.428
 9279TIP3    H227802   7.012   5.186   2.527
 9280TIP3   OH227803   0.509   4.175   4.016
 9280TIP3    H127804   0.563   4.235   3.964
 9280TIP3    H227805   0.515   4.209   4.105
 9281TIP3   OH227806   3.247   2.862   2.245
 9281TIP3    H127807   3.156   2.886   2.262
 9281TIP3    H227808   3.282   2.934   2.193
 9282TIP3   OH227809   3.563   2.497   2.280
 9282TIP3    H127810   3.650   2.482   2.242
 9282TIP3    H227811   3.560   2.437   2.355
 9283TIP3   OH227812   2.224   6.008   0.840
 9283TIP3    H127813   2.152   5.989   0.780
 9283TIP3    H227814   2.226   5.934   0.901
 9284TIP3   OH227815   6.402   4.926   1.976
 9284TIP3    H127816   6.327   4.894   2.026
 9284TIP3    H227817   6.451   4.980   2.038
 9285TIP3   OH227818   0.749   6.791   2.824
 9285TIP3    H127819   0.687   6.747   2.765
 9285TIP3    H227820   0.719   6.767   2.912
 9286TIP3   OH227821   2.675   6.778   2.514
 9286TIP3    H127822   2.718   6.742   2.436
 9286TIP3    H227823   2.743   6.776   2.581
 9287TIP3   OH227824   5.778   4.296   3.680
 9287TIP3    H127825   5.714   4.300   3.750
 9287TIP3    H227826   5.732   4.255   3.607
 9288TIP3   OH227827   6.343   4.524   2.069
 9288TIP3    H127828   6.438   4.538   2.065
 9288TIP3    H227829   6.310   4.561   1.987
 9289TIP3   OH227830   4.228   1.268   3.237
 9289TIP3    H127831   4.186   1.186   3.264
 9289TIP3    H227832   4.309   1.272   3.288
 9290TIP3   OH227833   1.739   6.415   3.052
 9290TIP3    H127834   1.789   6.392   2.975
 9290TIP3    H227835   1.651   6.432   3.020
 9291TIP3   OH227836   3.197   1.535   4.548
 9291TIP3    H127837   3.236   1.616   4.581
 9291TIP3    H227838   3.273   1.480   4.526
 9292TIP3   OH227839   5.268   2.084   1.793
 9292TIP3    H127840   5.325   2.095   1.869
 9292TIP3    H227841   5.328   2.081   1.718
 9293TIP3   OH227842   5.266   2.944   0.760
 9293TIP3    H127843   5.192   2.993   0.794
 9293TIP3    H227844   5.338   2.965   0.820
 9294TIP3   OH227845   7.045   0.739   5.398
 9294TIP3    H127846   7.128   0.778   5.428
 9294TIP3    H227847   6.982   0.761   5.467
 9295TIP3   OH227848   6.117   5.824   5.227
 9295TIP3    H127849   6.074   5.746   5.261
 9295TIP3    H227850   6.137   5.877   5.304
 9296TIP3   OH227851   0.073   6.266   4.809
 9296TIP3    H127852   0.004   6.264   4.742
 9296TIP3    H227853   0.133   6.334   4.779
 9297TIP3   OH227854   2.195   3.315   3.659
 9297TIP3    H127855   2.251   3.237   3.656
 9297TIP3    H227856   2.125   3.297   3.596
 9298TIP3   OH227857   1.550   2.592   5.381
 9298TIP3    H127858   1.463   2.594   5.340
 9298TIP3    H227859   1.590   2.675   5.355
 9299TIP3   OH227860   4.256   4.332   2.705
 9299TIP3    H127861   4.229   4.345   2.795
 9299TIP3    H227862   4.213   4.251   2.677
 9300TIP3   OH227863   0.251   0.175   5.546
 9300TIP3    H127864   0.233   0.090   5.505
 9300TIP3    H227865   0.208   0.170   5.631
 9301TIP3   OH227866   0.884   0.686   2.996
 9301TIP3    H127867   0.856   0.625   2.928
 9301TIP3    H227868   0.963   0.727   2.961
 9302TIP3   OH227869   4.418   5.560   2.804
 9302TIP3    H127870   4.391   5.468   2.804
 9302TIP3    H227871   4.513   5.557   2.812
 9303TIP3   OH227872   0.867   4.860   4.769
 9303TIP3    H127873   0.927   4.934   4.778
 9303TIP3    H227874   0.868   4.839   4.676
 9304TIP3   OH227875   6.099   3.766   0.657
 9304TIP3    H127876   6.119   3.708   0.730
 9304TIP3    H227877   6.013   3.737   0.627
 9305TIP3   OH227878   2.639   0.256   4.621
 9305TIP3    H127879   2.666   0.271   4.712
 9305TIP3    H227880   2.606   0.166   4.621
 9306TIP3   OH227881   4.307   4.393   4.753
 9306TIP3    H127882   4.289   4.324   4.689
 9306TIP3    H227883   4.336   4.467   4.701
 9307TIP3   OH227884   3.450   5.248   4.980
 9307TIP3    H127885   3.409   5.164   4.962
 9307TIP3    H227886   3.380   5.302   5.017
 9308TIP3   OH227887   4.794   2.038   2.751
 9308TIP3    H127888   4.831   1.980   2.818
 9308TIP3    H227889   4.727   1.985   2.708
 9309TIP3   OH227890   6.982   2.075   3.410
 9309TIP3    H127891   7.017   2.100   3.496
 9309TIP3    H227892   6.906   2.021   3.431
 9310TIP3   OH227893   0.778   4.516   1.299
 9310TIP3    H127894   0.768   4.454   1.371
 9310TIP3    H227895   0.806   4.463   1.224
 9311TIP3   OH227896   4.427   5.944   1.697
 9311TIP3    H127897   4.344   5.941   1.650
 9311TIP3    H227898   4.490   5.904   1.637
 9312TIP3   OH227899   1.515   5.114   1.062
 9312TIP3    H127900   1.528   5.194   1.113
 9312TIP3    H227901   1.449   5.137   0.997
 9313TIP3   OH227902   6.904   0.719   4.322
 9313TIP3    H127903   6.931   0.804   4.357
 9313TIP3    H227904   6.848   0.740   4.247
 9314TIP3   OH227905   2.813   5.743   4.308
 9314TIP3    H127906   2.828   5.765   4.216
 9314TIP3    H227907   2.781   5.653   4.306
 9315TIP3   OH227908   6.335   3.971   5.550
 9315TIP3    H127909   6.319   3.906   5.482
 9315TIP3    H227910   6.338   3.921   5.632
 9316TIP3   OH227911   6.098   0.024   1.668
 9316TIP3    H127912   6.159  -0.048   1.684
 9316TIP3    H227913   6.147   0.103   1.693
 9317TIP3   OH227914   6.958   4.826   0.451
 9317TIP3    H127915   6.888   4.839   0.386
 9317TIP3    H227916   6.912   4.797   0.530
 9318TIP3   OH227917   2.697   5.444   1.641
 9318TIP3    H127918   2.616   5.442   1.591
 9318TIP3    H227919   2.707   5.355   1.675
 9319TIP3   OH227920   1.152   2.710   4.926
 9319TIP3    H127921   1.133   2.617   4.936
 9319TIP3    H227922   1.229   2.713   4.870
 9320TIP3   OH227923   2.082   0.546   3.612
 9320TIP3    H127924   2.177   0.542   3.620
 9320TIP3    H227925   2.056   0.624   3.662
 9321TIP3   OH227926   1.888   5.965   1.881
 9321TIP3    H127927   1.853   5.914   1.808
 9321TIP3    H227928   1.912   5.900   1.947
 9322TIP3   OH227929   3.117   4.959   2.279
 9322TIP3    H127930   3.145   4.871   2.306
 9322TIP3    H227931   3.198   5.009   2.272
 9323TIP3   OH227932   3.232   5.933   0.590
 9323TIP3    H127933   3.303   5.979   0.635
 9323TIP3    H227934   3.276   5.885   0.519
 9324TIP3   OH227935   5.723   4.956   5.105
 9324TIP3    H127936   5.761   5.028   5.155
 9324TIP3    H227937   5.654   4.997   5.053
 9325TIP3   OH227938   5.523   1.738   0.267
 9325TIP3    H127939   5.533   1.695   0.352
 9325TIP3    H227940   5.457   1.685   0.221
 9326TIP3   OH227941   4.372   4.326   5.627
 9326TIP3    H127942   4.316   4.345   5.553
 9326TIP3    H227943   4.456   4.299   5.588
 9327TIP3   OH227944   0.393   0.078   1.593
 9327TIP3    H127945   0.371   0.011   1.528
 9327TIP3    H227946   0.484   0.101   1.575
 9328TIP3   OH227947   2.035   5.731   2.621
 9328TIP3    H127948   1.962   5.718   2.681
 9328TIP3    H227949   2.105   5.768   2.676
 9329TIP3   OH227950   3.338   0.486   4.783
 9329TIP3    H127951   3.393   0.522   4.714
 9329TIP3    H227952   3.320   0.560   4.841
 9330TIP3   OH227953   3.018   5.981   0.976
 9330TIP3    H127954   3.102   6.010   0.940
 9330TIP3    H227955   2.987   6.055   1.028
 9331TIP3   OH227956   6.764   0.031   2.208
 9331TIP3    H127957   6.812  -0.049   2.183
 9331TIP3    H227958   6.733   0.067   2.125
 9332TIP3   OH227959   1.518   4.082   4.292
 9332TIP3    H127960   1.523   4.167   4.248
 9332TIP3    H227961   1.585   4.087   4.360
 9333TIP3   OH227962   7.176   6.531   4.583
 9333TIP3    H127963   7.141   6.452   4.542
 9333TIP3    H227964   7.256   6.502   4.627
 9334TIP3   OH227965   0.654   3.502   0.404
 9334TIP3    H127966   0.606   3.517   0.485
 9334TIP3    H227967   0.609   3.556   0.339
 9335TIP3   OH227968   0.764   4.245   3.869
 9335TIP3    H127969   0.851   4.266   3.903
 9335TIP3    H227970   0.754   4.151   3.885
 9336TIP3   OH227971   5.933   0.654   5.535
 9336TIP3    H127972   5.860   0.604   5.498
 9336TIP3    H227973   5.968   0.598   5.604
 9337TIP3   OH227974   6.543   0.296   0.089
 9337TIP3    H127975   6.528   0.242   0.011
 9337TIP3    H227976   6.600   0.244   0.145
 9338TIP3   OH227977   7.028   0.380   2.021
 9338TIP3    H127978   7.121   0.401   2.013
 9338TIP3    H227979   7.015   0.363   2.114
 9339TIP3   OH227980   4.928   4.880   5.724
 9339TIP3    H127981   4.907   4.909   5.635
 9339TIP3    H227982   4.877   4.800   5.736
 9340TIP3   OH227983   4.547   6.471   5.628
 9340TIP3    H127984   4.511   6.482   5.540
 9340TIP3    H227985   4.472   6.484   5.686
 9341TIP3   OH227986   1.280   6.286   3.078
 9341TIP3    H127987   1.282   6.317   2.988
 9341TIP3    H227988   1.351   6.223   3.084
 9342TIP3   OH227989   6.271   0.406   3.542
 9342TIP3    H127990   6.300   0.442   3.457
 9342TIP3    H227991   6.289   0.476   3.605
 9343TIP3   OH227992   5.569   2.263   3.492
 9343TIP3    H127993   5.555   2.243   3.399
 9343TIP3    H227994   5.486   2.240   3.533
 9344TIP3   OH227995   1.424   1.224   3.539
 9344TIP3    H127996   1.358   1.293   3.532
 9344TIP3    H227997   1.373   1.143   3.540
 9345TIP3   OH227998   6.552   4.344   3.803
 9345TIP3    H127999   6.478   4.284   3.792
 9345TIP3    H228000   6.562   4.351   3.898
 9346TIP3   OH228001   3.169   2.758   1.146
 9346TIP3    H128002   3.193   2.665   1.141
 9346TIP3    H228003   3.241   2.804   1.103
 9347TIP3   OH228004   3.985   1.419   2.658
 9347TIP3    H128005   4.035   1.406   2.739
 9347TIP3    H228006   3.919   1.485   2.681
 9348TIP3   OH228007   1.516   5.708   4.808
 9348TIP3    H128008   1.521   5.693   4.713
 9348TIP3    H228009   1.427   5.740   4.822
 9349TIP3   OH228010   1.127   4.563   2.265
 9349TIP3    H128011   1.115   4.521   2.350
 9349TIP3    H228012   1.118   4.492   2.201
 9350TIP3   OH228013   1.588   0.816   3.123
 9350TIP3    H128014   1.583   0.721   3.120
 9350TIP3    H228015   1.629   0.835   3.208
 9351TIP3   OH228016   1.799   2.305   5.381
 9351TIP3    H128017   1.728   2.355   5.420
 9351TIP3    H228018   1.767   2.279   5.295
 9352TIP3   OH228019   6.393   5.934   2.901
 9352TIP3    H128020   6.463   5.872   2.880
 9352TIP3    H228021   6.420   6.015   2.858
 9353TIP3   OH228022   4.143   2.427   5.760
 9353TIP3    H128023   4.080   2.497   5.778
 9353TIP3    H228024   4.190   2.458   5.683
 9354TIP3   OH228025   6.749   5.816   0.410
 9354TIP3    H128026   6.834   5.831   0.451
 9354TIP3    H228027   6.725   5.901   0.372
 9355TIP3   OH228028   1.989   6.097   2.935
 9355TIP3    H128029   2.067   6.146   2.960
 9355TIP3    H228030   1.986   6.024   2.996
 9356TIP3   OH228031   4.804   5.753   4.730
 9356TIP3    H128032   4.726   5.730   4.679
 9356TIP3    H228033   4.809   5.848   4.724
 9357TIP3   OH228034   6.908   6.038   5.320
 9357TIP3    H128035   6.906   6.058   5.414
 9357TIP3    H228036   6.984   6.086   5.288
 9358TIP3   OH228037   3.253   4.402   0.372
 9358TIP3    H128038   3.324   4.465   0.369
 9358TIP3    H228039   3.192   4.431   0.304
 9359TIP3   OH228040   6.620   3.639   5.766
 9359TIP3    H128041   6.620   3.693   5.845
 9359TIP3    H228042   6.528   3.636   5.739
 9360TIP3   OH228043   1.643   1.764   3.828
 9360TIP3    H128044   1.576   1.830   3.843
 9360TIP3    H228045   1.709   1.810   3.774
 9361TIP3   OH228046   3.208   0.240   1.363
 9361TIP3    H128047   3.181   0.231   1.272
 9361TIP3    H228048   3.127   0.261   1.410
 9362TIP3   OH228049   6.008   4.421   1.124
 9362TIP3    H128050   5.998   4.402   1.217
 9362TIP3    H228051   6.001   4.516   1.118
 9363TIP3   OH228052   4.345   6.237   2.497
 9363TIP3    H128053   4.346   6.145   2.522
 9363TIP3    H228054   4.300   6.281   2.570
 9364TIP3   OH228055   4.138   3.812   5.702
 9364TIP3    H128056   4.051   3.773   5.713
 9364TIP3    H228057   4.125   3.905   5.720
 9365TIP3   OH228058   6.900   4.349   5.229
 9365TIP3    H128059   6.837   4.321   5.296
 9365TIP3    H228060   6.955   4.272   5.216
 9366TIP3   OH228061   1.356   5.754   2.128
 9366TIP3    H128062   1.440   5.790   2.099
 9366TIP3    H228063   1.321   5.711   2.049
 9367TIP3   OH228064   5.803   2.142   3.633
 9367TIP3    H128065   5.712   2.126   3.656
 9367TIP3    H228066   5.825   2.073   3.571
 9368TIP3   OH228067   3.337   6.246   2.141
 9368TIP3    H128068   3.286   6.172   2.109
 9368TIP3    H228069   3.410   6.206   2.189
 9369TIP3   OH228070   0.178   0.081   0.833
 9369TIP3    H128071   0.174   0.097   0.739
 9369TIP3    H228072   0.260   0.121   0.861
 9370TIP3   OH228073   4.962   6.354   2.217
 9370TIP3    H128074   4.914   6.271   2.225
 9370TIP3    H228075   4.895   6.421   2.233
 9371TIP3   OH228076   0.861   1.201   3.444
 9371TIP3    H128077   0.925   1.161   3.385
 9371TIP3    H228078   0.833   1.129   3.501
 9372TIP3   OH228079   2.268   1.885   5.681
 9372TIP3    H128080   2.321   1.806   5.669
 9372TIP3    H228081   2.185   1.865   5.637
 9373TIP3   OH228082   6.715   5.521   0.934
 9373TIP3    H128083   6.680   5.545   1.020
 9373TIP3    H228084   6.655   5.453   0.902
 9374TIP3   OH228085   5.140   6.551   1.959
 9374TIP3    H128086   5.230   6.560   1.927
 9374TIP3    H228087   5.149   6.539   2.054
 9375TIP3   OH228088   4.319   1.348   1.522
 9375TIP3    H128089   4.283   1.414   1.464
 9375TIP3    H228090   4.247   1.288   1.539
 9376TIP3   OH228091   7.233   4.376   5.405
 9376TIP3    H128092   7.235   4.456   5.457
 9376TIP3    H228093   7.157   4.328   5.438
 9377TIP3   OH228094   6.613   5.857   5.112
 9377TIP3    H128095   6.533   5.870   5.061
 9377TIP3    H228096   6.650   5.775   5.078
 9378TIP3   OH228097   5.964   6.456   1.512
 9378TIP3    H128098   5.966   6.481   1.419
 9378TIP3    H228099   6.016   6.376   1.516
 9379TIP3   OH228100   2.992   0.973   4.133
 9379TIP3    H128101   3.029   1.038   4.193
 9379TIP3    H228102   2.918   0.936   4.181
 9380TIP3   OH228103   1.958   6.396   5.751
 9380TIP3    H128104   1.907   6.363   5.825
 9380TIP3    H228105   1.992   6.317   5.708
 9381TIP3   OH228106   1.807   3.641   4.400
 9381TIP3    H128107   1.753   3.589   4.341
 9381TIP3    H228108   1.896   3.629   4.369
 9382TIP3   OH228109   4.217   1.979   2.872
 9382TIP3    H128110   4.299   2.019   2.900
 9382TIP3    H228111   4.151   2.047   2.886
 9383TIP3   OH228112   3.971   1.714   2.902
 9383TIP3    H128113   3.931   1.798   2.881
 9383TIP3    H228114   3.972   1.710   2.997
 9384TIP3   OH228115   5.503   0.049   3.827
 9384TIP3    H128116   5.420   0.008   3.853
 9384TIP3    H228117   5.524   0.010   3.743
 9385TIP3   OH228118   3.722   4.832   3.644
 9385TIP3    H128119   3.747   4.834   3.552
 9385TIP3    H228120   3.717   4.739   3.666
 9386TIP3   OH228121   1.146   2.149   4.474
 9386TIP3    H128122   1.056   2.119   4.483
 9386TIP3    H228123   1.142   2.219   4.408
 9387TIP3   OH228124   7.154   0.561   2.388
 9387TIP3    H128125   7.166   0.593   2.298
 9387TIP3    H228126   7.241   0.534   2.416
 9388TIP3   OH228127   3.868   2.397   5.647
 9388TIP3    H128128   3.953   2.379   5.607
 9388TIP3    H228129   3.869   2.349   5.730
 9389TIP3   OH228130   3.301   3.512   3.817
 9389TIP3    H128131   3.219   3.528   3.770
 9389TIP3    H228132   3.369   3.528   3.752
 9390TIP3   OH228133   6.037   2.380   2.974
 9390TIP3    H128134   5.981   2.451   3.006
 9390TIP3    H228135   6.094   2.422   2.909
 9391TIP3   OH228136   5.219   3.489   1.773
 9391TIP3    H128137   5.225   3.574   1.729
 9391TIP3    H228138   5.209   3.426   1.701
 9392TIP3   OH228139   0.341   3.277   4.759
 9392TIP3    H128140   0.416   3.335   4.773
 9392TIP3    H228141   0.264   3.332   4.777
 9393TIP3   OH228142   6.215   4.100   1.562
 9393TIP3    H128143   6.201   4.024   1.506
 9393TIP3    H228144   6.232   4.172   1.502
 9394TIP3   OH228145   1.624   2.722   2.520
 9394TIP3    H128146   1.687   2.651   2.514
 9394TIP3    H228147   1.663   2.784   2.582
 9395TIP3   OH228148   3.885   1.144   4.569
 9395TIP3    H128149   3.966   1.100   4.597
 9395TIP3    H228150   3.910   1.189   4.488
 9396TIP3   OH228151   6.734   3.308   2.848
 9396TIP3    H128152   6.672   3.351   2.790
 9396TIP3    H228153   6.810   3.289   2.793
 9397TIP3   OH228154   4.996   5.855   4.156
 9397TIP3    H128155   5.065   5.792   4.134
 9397TIP3    H228156   5.034   5.910   4.225
 9398TIP3   OH228157   2.607   6.652   5.710
 9398TIP3    H128158   2.602   6.615   5.798
 9398TIP3    H228159   2.586   6.745   5.722
 9399TIP3   OH228160   6.233   6.164   3.196
 9399TIP3    H128161   6.267   6.076   3.211
 9399TIP3    H228162   6.284   6.220   3.254
 9400TIP3   OH228163   5.154   3.418   3.493
 9400TIP3    H128164   5.082   3.355   3.496
 9400TIP3    H228165   5.121   3.493   3.542
 9401TIP3   OH228166   5.959   1.646   0.715
 9401TIP3    H128167   5.889   1.600   0.669
 9401TIP3    H228168   5.954   1.736   0.683
 9402TIP3   OH228169   3.799   1.526   4.629
 9402TIP3    H128170   3.851   1.478   4.693
 9402TIP3    H228171   3.742   1.582   4.682
 9403TIP3   OH228172   4.193   0.978   2.505
 9403TIP3    H128173   4.226   0.913   2.568
 9403TIP3    H228174   4.150   0.926   2.437
 9404TIP3   OH228175   7.195   5.261   3.286
 9404TIP3    H128176   7.200   5.299   3.374
 9404TIP3    H228177   7.197   5.336   3.227
 9405TIP3   OH228178   4.515   2.105   2.677
 9405TIP3    H128179   4.529   2.010   2.673
 9405TIP3    H228180   4.590   2.142   2.630
 9406TIP3   OH228181   3.401   1.206   3.147
 9406TIP3    H128182   3.374   1.221   3.238
 9406TIP3    H228183   3.496   1.194   3.152
 9407TIP3   OH228184   1.166   6.182   4.815
 9407TIP3    H128185   1.224   6.134   4.874
 9407TIP3    H228186   1.078   6.167   4.851
 9408TIP3   OH228187   5.346   2.917   0.444
 9408TIP3    H128188   5.352   2.822   0.445
 9408TIP3    H228189   5.336   2.942   0.536
 9409TIP3   OH228190   2.715   0.618   2.498
 9409TIP3    H128191   2.805   0.590   2.479
 9409TIP3    H228192   2.668   0.536   2.516
 9410TIP3   OH228193   1.788   5.885   3.530
 9410TIP3    H128194   1.881   5.901   3.513
 9410TIP3    H228195   1.756   5.845   3.449
 9411TIP3   OH228196   5.033   1.464   1.623
 9411TIP3    H128197   5.004   1.383   1.581
 9411TIP3    H228198   5.120   1.480   1.587
 9412TIP3   OH228199   1.385   2.954   4.785
 9412TIP3    H128200   1.366   2.861   4.773
 9412TIP3    H228201   1.309   2.999   4.750
 9413TIP3   OH228202   1.421   2.252   3.780
 9413TIP3    H128203   1.509   2.273   3.813
 9413TIP3    H228204   1.431   2.252   3.685
 9414TIP3   OH228205   5.032   4.608   0.776
 9414TIP3    H128206   4.941   4.628   0.800
 9414TIP3    H228207   5.080   4.689   0.795
 9415TIP3   OH228208   5.533   1.126   2.599
 9415TIP3    H128209   5.558   1.061   2.533
 9415TIP3    H228210   5.543   1.080   2.683
 9416TIP3   OH228211   2.563   0.927   2.155
 9416TIP3    H128212   2.586   0.886   2.072
 9416TIP3    H228213   2.583   0.861   2.221
 9417TIP3   OH228214   0.774   6.393   3.675
 9417TIP3    H128215   0.780   6.375   3.582
 9417TIP3    H228216   0.719   6.324   3.710
 9418TIP3   OH228217   1.522   3.721   4.539
 9418TIP3    H128218   1.485   3.639   4.507
 9418TIP3    H228219   1.594   3.694   4.596
 9419TIP3   OH228220   3.775   5.023   3.079
 9419TIP3    H128221   3.796   4.985   2.993
 9419TIP3    H228222   3.680   5.016   3.086
 9420TIP3   OH228223   1.574   3.333   3.170
 9420TIP3    H128224   1.594   3.418   3.130
 9420TIP3    H228225   1.557   3.275   3.095
 9421TIP3   OH228226   1.051   0.263   3.868
 9421TIP3    H128227   1.088   0.297   3.949
 9421TIP3    H228228   1.102   0.304   3.798
 9422TIP3   OH228229   3.225   2.713   5.775
 9422TIP3    H128230   3.319   2.712   5.758
 9422TIP3    H228231   3.188   2.654   5.710
 9423TIP3   OH228232   3.561   4.098   0.842
 9423TIP3    H128233   3.481   4.124   0.889
 9423TIP3    H228234   3.532   4.028   0.784
 9424TIP3   OH228235   4.869   4.596   0.304
 9424TIP3    H128236   4.938   4.543   0.344
 9424TIP3    H228237   4.830   4.643   0.378
 9425TIP3   OH228238   0.265   2.251   5.760
 9425TIP3    H128239   0.241   2.166   5.723
 9425TIP3    H228240   0.182   2.291   5.784
 9426TIP3   OH228241   1.241   2.600   1.036
 9426TIP3    H128242   1.238   2.504   1.031
 9426TIP3    H228243   1.326   2.619   1.075
 9427TIP3   OH228244   6.676   6.469   2.595
 9427TIP3    H128245   6.700   6.558   2.566
 9427TIP3    H228246   6.596   6.449   2.547
 9428TIP3   OH228247   3.644   6.740   0.262
 9428TIP3    H128248   3.621   6.742   0.170
 9428TIP3    H228249   3.608   6.821   0.298
 9429TIP3   OH228250   0.565   3.384   2.166
 9429TIP3    H128251   0.606   3.299   2.148
 9429TIP3    H228252   0.575   3.397   2.260
 9430TIP3   OH228253   6.301   0.707   2.501
 9430TIP3    H128254   6.255   0.633   2.462
 9430TIP3    H228255   6.392   0.697   2.471
 9431TIP3   OH228256   5.888   5.841   4.732
 9431TIP3    H128257   5.879   5.918   4.787
 9431TIP3    H228258   5.936   5.872   4.655
 9432TIP3   OH228259   4.740   3.157   1.969
 9432TIP3    H128260   4.722   3.162   1.875
 9432TIP3    H228261   4.834   3.137   1.975
 9433TIP3   OH228262   0.935   6.181   5.282
 9433TIP3    H128263   0.878   6.158   5.356
 9433TIP3    H228264   0.874   6.209   5.213
 9434TIP3   OH228265   6.402   3.864   2.982
 9434TIP3    H128266   6.311   3.857   2.955
 9434TIP3    H228267   6.428   3.953   2.957
 9435TIP3   OH228268   1.380   1.509   4.872
 9435TIP3    H128269   1.455   1.467   4.916
 9435TIP3    H228270   1.412   1.528   4.784
 9436TIP3   OH228271   4.164   3.324   0.217
 9436TIP3    H128272   4.196   3.326   0.127
 9436TIP3    H228273   4.073   3.296   0.209
 9437TIP3   OH228274   2.632   5.685   3.031
 9437TIP3    H128275   2.713   5.642   3.057
 9437TIP3    H228276   2.660   5.765   2.987
 9438TIP3   OH228277   3.939   2.784   1.250
 9438TIP3    H128278   3.972   2.751   1.334
 9438TIP3    H228279   3.856   2.827   1.272
 9439TIP3   OH228280   6.627   2.184   2.231
 9439TIP3    H128281   6.650   2.224   2.314
 9439TIP3    H228282   6.560   2.241   2.194
 9440TIP3   OH228283   3.917   2.656   4.467
 9440TIP3    H128284   3.912   2.585   4.532
 9440TIP3    H228285   3.996   2.704   4.492
 9441TIP3   OH228286   4.944   4.042   2.107
 9441TIP3    H128287   4.986   4.122   2.139
 9441TIP3    H228288   4.996   3.971   2.145
 9442TIP3   OH228289   2.773   4.403   4.749
 9442TIP3    H128290   2.810   4.317   4.729
 9442TIP3    H228291   2.694   4.384   4.800
 9443TIP3   OH228292   3.351   5.670   1.061
 9443TIP3    H128293   3.362   5.584   1.102
 9443TIP3    H228294   3.268   5.663   1.014
 9444TIP3   OH228295   5.005   3.554   4.979
 9444TIP3    H128296   4.932   3.546   4.919
 9444TIP3    H228297   5.000   3.477   5.036
 9445TIP3   OH228298   1.136   4.058   4.645
 9445TIP3    H128299   1.144   3.993   4.715
 9445TIP3    H228300   1.041   4.072   4.637
 9446TIP3   OH228301   0.075   1.240   3.106
 9446TIP3    H128302   0.167   1.229   3.083
 9446TIP3    H228303   0.071   1.222   3.200
 9447TIP3   OH228304   6.505   5.641   3.084
 9447TIP3    H128305   6.516   5.656   2.991
 9447TIP3    H228306   6.575   5.691   3.125
 9448TIP3   OH228307   6.027   2.089   3.845
 9448TIP3    H128308   5.938   2.109   3.818
 9448TIP3    H228309   6.073   2.066   3.764
 9449TIP3   OH228310   5.439   2.008   5.152
 9449TIP3    H128311   5.470   1.989   5.063
 9449TIP3    H228312   5.514   2.050   5.195
 9450TIP3   OH228313   3.734   4.280   0.728
 9450TIP3    H128314   3.741   4.364   0.773
 9450TIP3    H228315   3.665   4.234   0.775
 9451TIP3   OH228316   6.824   6.272   2.727
 9451TIP3    H128317   6.860   6.306   2.809
 9451TIP3    H228318   6.775   6.345   2.689
 9452TIP3   OH228319   6.206   3.905   4.027
 9452TIP3    H128320   6.245   3.838   4.083
 9452TIP3    H228321   6.113   3.883   4.023
 9453TIP3   OH228322   5.987   3.804   1.897
 9453TIP3    H128323   5.956   3.717   1.922
 9453TIP3    H228324   6.050   3.828   1.965
 9454TIP3   OH228325   1.274   4.322   4.052
 9454TIP3    H128326   1.279   4.367   3.968
 9454TIP3    H228327   1.335   4.249   4.044
 9455TIP3   OH228328   5.786   1.029   4.692
 9455TIP3    H128329   5.819   0.988   4.611
 9455TIP3    H228330   5.692   1.041   4.676
 9456TIP3   OH228331   5.902   6.606   4.147
 9456TIP3    H128332   5.959   6.561   4.209
 9456TIP3    H228333   5.817   6.563   4.158
 9457TIP3   OH228334   0.559   3.109   4.243
 9457TIP3    H128335   0.546   3.146   4.156
 9457TIP3    H228336   0.508   3.166   4.301
 9458TIP3   OH228337   1.663   4.610   4.090
 9458TIP3    H128338   1.672   4.589   4.183
 9458TIP3    H228339   1.582   4.661   4.084
 9459TIP3   OH228340   5.398   4.883   3.463
 9459TIP3    H128341   5.389   4.925   3.378
 9459TIP3    H228342   5.435   4.951   3.520
 9460TIP3   OH228343   4.524   3.855   3.429
 9460TIP3    H128344   4.466   3.904   3.487
 9460TIP3    H228345   4.465   3.812   3.367
 9461TIP3   OH228346   0.598   0.960   1.420
 9461TIP3    H128347   0.520   0.995   1.463
 9461TIP3    H228348   0.668   1.020   1.447
 9462TIP3   OH228349   2.044   3.445   0.455
 9462TIP3    H128350   2.019   3.354   0.471
 9462TIP3    H228351   2.002   3.467   0.372
 9463TIP3   OH228352   0.109   3.512   4.192
 9463TIP3    H128353   0.087   3.519   4.099
 9463TIP3    H228354   0.140   3.599   4.216
 9464TIP3   OH228355   2.824   0.879   5.551
 9464TIP3    H128356   2.801   0.801   5.601
 9464TIP3    H228357   2.797   0.859   5.461
 9465TIP3   OH228358   6.968   2.095   2.500
 9465TIP3    H128359   6.875   2.078   2.512
 9465TIP3    H228360   6.987   2.065   2.411
 9466TIP3   OH228361   0.678   4.732   3.624
 9466TIP3    H128362   0.734   4.662   3.659
 9466TIP3    H228363   0.738   4.792   3.581
 9467TIP3   OH228364   5.443   3.965   4.681
 9467TIP3    H128365   5.354   3.938   4.702
 9467TIP3    H228366   5.491   3.882   4.670
 9468TIP3   OH228367   2.915   0.108   5.563
 9468TIP3    H128368   3.000   0.070   5.588
 9468TIP3    H228369   2.906   0.086   5.470
 9469TIP3   OH228370   0.992   2.823   4.034
 9469TIP3    H128371   1.007   2.801   3.942
 9469TIP3    H228372   0.904   2.861   4.035
 9470TIP3   OH228373   5.024   3.727   0.411
 9470TIP3    H128374   5.097   3.672   0.441
 9470TIP3    H228375   5.052   3.758   0.325
 9471TIP3   OH228376   1.998   5.500   1.169
 9471TIP3    H128377   1.909   5.524   1.195
 9471TIP3    H228378   2.021   5.426   1.224
 9472TIP3   OH228379   4.749   5.795   0.506
 9472TIP3    H128380   4.675   5.779   0.447
 9472TIP3    H228381   4.779   5.883   0.483
 9473TIP3   OH228382   1.176   2.665   2.384
 9473TIP3    H128383   1.224   2.596   2.337
 9473TIP3    H228384   1.138   2.620   2.459
 9474TIP3   OH228385   6.852   4.339   1.046
 9474TIP3    H128386   6.937   4.378   1.026
 9474TIP3    H228387   6.789   4.405   1.019
 9475TIP3   OH228388   0.424   1.084   4.572
 9475TIP3    H128389   0.502   1.132   4.544
 9475TIP3    H228390   0.368   1.151   4.613
 9476TIP3   OH228391   3.497   6.048   0.649
 9476TIP3    H128392   3.537   6.122   0.604
 9476TIP3    H228393   3.571   5.995   0.680
 9477TIP3   OH228394   4.529   4.482   2.758
 9477TIP3    H128395   4.535   4.455   2.850
 9477TIP3    H228396   4.439   4.515   2.749
 9478TIP3   OH228397   3.403   6.256   4.345
 9478TIP3    H128398   3.370   6.167   4.332
 9478TIP3    H228399   3.474   6.265   4.281
 9479TIP3   OH228400   2.404   5.056   1.043
 9479TIP3    H128401   2.482   5.086   0.997
 9479TIP3    H228402   2.352   5.010   0.977
 9480TIP3   OH228403   0.110   5.142   0.524
 9480TIP3    H128404   0.113   5.086   0.446
 9480TIP3    H228405   0.022   5.129   0.559
 9481TIP3   OH228406   5.822   2.716   0.373
 9481TIP3    H128407   5.758   2.691   0.440
 9481TIP3    H228408   5.799   2.661   0.298
 9482TIP3   OH228409   6.430   2.776   5.045
 9482TIP3    H128410   6.489   2.840   5.005
 9482TIP3    H228411   6.419   2.807   5.136
 9483TIP3   OH228412   5.200   0.363   4.919
 9483TIP3    H128413   5.172   0.452   4.940
 9483TIP3    H228414   5.294   0.364   4.935
 9484TIP3   OH228415   6.024   1.798   1.862
 9484TIP3    H128416   5.942   1.753   1.841
 9484TIP3    H228417   6.003   1.891   1.856
 9485TIP3   OH228418   0.418   2.741   1.850
 9485TIP3    H128419   0.460   2.792   1.781
 9485TIP3    H228420   0.418   2.651   1.817
 9486TIP3   OH228421   3.587   1.195   0.307
 9486TIP3    H128422   3.561   1.109   0.340
 9486TIP3    H228423   3.547   1.202   0.221
 9487TIP3   OH228424   1.319   5.923   4.334
 9487TIP3    H128425   1.277   5.957   4.254
 9487TIP3    H228426   1.384   5.861   4.303
 9488TIP3   OH228427   3.555   1.023   1.634
 9488TIP3    H128428   3.527   0.957   1.571
 9488TIP3    H228429   3.476   1.073   1.654
 9489TIP3   OH228430   6.334   0.435   5.431
 9489TIP3    H128431   6.276   0.505   5.402
 9489TIP3    H228432   6.405   0.433   5.367
 9490TIP3   OH228433   4.561   4.171   2.803
 9490TIP3    H128434   4.558   4.265   2.783
 9490TIP3    H228435   4.651   4.156   2.833
 9491TIP3   OH228436   0.946   6.749   5.415
 9491TIP3    H128437   0.950   6.844   5.402
 9491TIP3    H228438   0.879   6.720   5.353
 9492TIP3   OH228439   6.029   0.316   3.683
 9492TIP3    H128440   6.017   0.231   3.642
 9492TIP3    H228441   6.095   0.360   3.630
 9493TIP3   OH228442   1.203   1.349   1.969
 9493TIP3    H128443   1.255   1.315   2.042
 9493TIP3    H228444   1.117   1.309   1.980
 9494TIP3   OH228445   1.592   1.607   4.048
 9494TIP3    H128446   1.676   1.573   4.079
 9494TIP3    H228447   1.611   1.646   3.963
 9495TIP3   OH228448   3.780   1.437   1.596
 9495TIP3    H128449   3.695   1.413   1.632
 9495TIP3    H228450   3.800   1.367   1.534
 9496TIP3   OH228451   5.884   3.629   1.009
 9496TIP3    H128452   5.965   3.624   0.958
 9496TIP3    H228453   5.816   3.638   0.943
 9497TIP3   OH228454   4.330   5.494   4.988
 9497TIP3    H128455   4.365   5.583   4.977
 9497TIP3    H228456   4.404   5.437   4.972
 9498TIP3   OH228457   2.673   1.116   4.230
 9498TIP3    H128458   2.707   1.178   4.165
 9498TIP3    H228459   2.669   1.166   4.311
 9499TIP3   OH228460   3.453   1.036   3.888
 9499TIP3    H128461   3.406   0.967   3.934
 9499TIP3    H228462   3.522   1.062   3.949
 9500TIP3   OH228463   5.705   0.715   0.635
 9500TIP3    H128464   5.750   0.632   0.646
 9500TIP3    H228465   5.725   0.741   0.545
 9501TIP3   OH228466   4.823   4.254   1.017
 9501TIP3    H128467   4.859   4.166   1.029
 9501TIP3    H228468   4.888   4.312   1.058
 9502TIP3   OH228469   6.405   3.036   1.422
 9502TIP3    H128470   6.491   3.002   1.447
 9502TIP3    H228471   6.424   3.118   1.377
 9503TIP3   OH228472   1.442   3.205   3.958
 9503TIP3    H128473   1.425   3.281   4.014
 9503TIP3    H228474   1.485   3.241   3.881
 9504TIP3   OH228475   3.528   6.204   5.252
 9504TIP3    H128476   3.572   6.157   5.323
 9504TIP3    H228477   3.592   6.270   5.224
 9505TIP3   OH228478   2.005   4.712   0.862
 9505TIP3    H128479   2.035   4.640   0.806
 9505TIP3    H228480   2.070   4.781   0.850
 9506TIP3   OH228481   3.961   5.660   0.478
 9506TIP3    H128482   3.965   5.749   0.443
 9506TIP3    H228483   4.040   5.617   0.446
 9507TIP3   OH228484   2.174   4.380   4.691
 9507TIP3    H128485   2.109   4.438   4.651
 9507TIP3    H228486   2.227   4.438   4.746
 9508TIP3   OH228487   6.156   4.712   0.908
 9508TIP3    H128488   6.182   4.726   0.817
 9508TIP3    H228489   6.061   4.716   0.906
 9509TIP3   OH228490   2.604   1.571   0.491
 9509TIP3    H128491   2.523   1.523   0.476
 9509TIP3    H228492   2.576   1.656   0.525
 9510TIP3   OH228493   6.733   5.339   5.415
 9510TIP3    H128494   6.791   5.266   5.435
 9510TIP3    H228495   6.649   5.298   5.394
 9511TIP3   OH228496   1.737   5.614   2.223
 9511TIP3    H128497   1.812   5.638   2.278
 9511TIP3    H228498   1.774   5.556   2.156
 9512TIP3   OH228499   7.149   1.392   5.484
 9512TIP3    H128500   7.121   1.354   5.567
 9512TIP3    H228501   7.152   1.319   5.423
 9513TIP3   OH228502   4.592   2.030   0.465
 9513TIP3    H128503   4.682   2.005   0.486
 9513TIP3    H228504   4.601   2.113   0.417
 9514TIP3   OH228505   1.063   2.789   3.133
 9514TIP3    H128506   1.050   2.741   3.215
 9514TIP3    H228507   1.042   2.880   3.156
 9515TIP3   OH228508   4.037   2.267   2.011
 9515TIP3    H128509   3.952   2.225   2.024
 9515TIP3    H228510   4.101   2.197   2.023
 9516TIP3   OH228511   3.054   1.421   2.639
 9516TIP3    H128512   3.034   1.365   2.714
 9516TIP3    H228513   3.103   1.494   2.676
 9517TIP3   OH228514   2.042   3.543   2.870
 9517TIP3    H128515   2.045   3.601   2.946
 9517TIP3    H228516   1.999   3.595   2.802
 9518TIP3   OH228517   2.429   1.088   3.636
 9518TIP3    H128518   2.443   1.183   3.645
 9518TIP3    H228519   2.476   1.051   3.711
 9519TIP3   OH228520   2.756   0.387   0.273
 9519TIP3    H128521   2.800   0.397   0.189
 9519TIP3    H228522   2.715   0.472   0.290
 9520TIP3   OH228523   4.490   6.788   3.173
 9520TIP3    H128524   4.429   6.718   3.195
 9520TIP3    H228525   4.472   6.857   3.237
 9521TIP3   OH228526   7.108   4.569   5.228
 9521TIP3    H128527   7.048   4.495   5.225
 9521TIP3    H228528   7.139   4.579   5.138
 9522TIP3   OH228529   0.903   1.766   4.937
 9522TIP3    H128530   0.879   1.673   4.945
 9522TIP3    H228531   0.933   1.775   4.847
 9523TIP3   OH228532   2.287   0.594   1.935
 9523TIP3    H128533   2.206   0.590   1.884
 9523TIP3    H228534   2.356   0.580   1.870
 9524TIP3   OH228535   1.664   5.115   1.498
 9524TIP3    H128536   1.661   5.019   1.498
 9524TIP3    H228537   1.699   5.137   1.412
 9525TIP3   OH228538   0.142   1.102   1.166
 9525TIP3    H128539   0.081   1.142   1.228
 9525TIP3    H228540   0.117   1.138   1.081
 9526TIP3   OH228541   3.332   4.093   3.041
 9526TIP3    H128542   3.357   4.176   3.081
 9526TIP3    H228543   3.253   4.113   2.990
 9527TIP3   OH228544   0.146   5.332   0.099
 9527TIP3    H128545   0.172   5.424   0.102
 9527TIP3    H228546   0.161   5.300   0.188
 9528TIP3   OH228547   4.358   4.062   5.745
 9528TIP3    H128548   4.449   4.039   5.763
 9528TIP3    H228549   4.363   4.146   5.699
 9529TIP3   OH228550   0.317   1.045   2.043
 9529TIP3    H128551   0.399   1.062   2.090
 9529TIP3    H228552   0.345   1.013   1.957
 9530TIP3   OH228553   4.107   3.426   3.269
 9530TIP3    H128554   4.173   3.374   3.223
 9530TIP3    H228555   4.072   3.485   3.203
 9531TIP3   OH228556   3.132   5.315   2.526
 9531TIP3    H128557   3.075   5.238   2.519
 9531TIP3    H228558   3.220   5.278   2.539
 9532TIP3   OH228559   2.815   5.585   1.240
 9532TIP3    H128560   2.838   5.634   1.319
 9532TIP3    H228561   2.886   5.604   1.179
 9533TIP3   OH228562   6.467   5.614   5.761
 9533TIP3    H128563   6.393   5.607   5.821
 9533TIP3    H228564   6.527   5.545   5.790
 9534TIP3   OH228565   4.733   1.213   5.432
 9534TIP3    H128566   4.819   1.220   5.475
 9534TIP3    H228567   4.679   1.276   5.479
 9535TIP3   OH228568   1.804   4.035   3.529
 9535TIP3    H128569   1.773   4.095   3.597
 9535TIP3    H228570   1.813   3.951   3.574
 9536TIP3   OH228571   2.248   0.289   5.202
 9536TIP3    H128572   2.197   0.216   5.238
 9536TIP3    H228573   2.182   0.348   5.165
 9537TIP3   OH228574   2.554   6.046   1.679
 9537TIP3    H128575   2.594   6.132   1.688
 9537TIP3    H228576   2.621   5.993   1.635
 9538TIP3   OH228577   3.512   5.840   1.860
 9538TIP3    H128578   3.538   5.920   1.814
 9538TIP3    H228579   3.586   5.781   1.848
 9539TIP3   OH228580   2.602   6.755   0.156
 9539TIP3    H128581   2.522   6.725   0.113
 9539TIP3    H228582   2.658   6.785   0.084
 9540TIP3   OH228583   2.211   2.802   2.012
 9540TIP3    H128584   2.131   2.785   2.061
 9540TIP3    H228585   2.248   2.715   1.994
 9541TIP3   OH228586   6.304   5.148   5.111
 9541TIP3    H128587   6.317   5.183   5.022
 9541TIP3    H228588   6.375   5.187   5.162
 9542TIP3   OH228589   4.555   4.819   2.849
 9542TIP3    H128590   4.461   4.807   2.860
 9542TIP3    H228591   4.587   4.840   2.937
 9543TIP3   OH228592   1.815   4.781   3.927
 9543TIP3    H128593   1.788   4.867   3.959
 9543TIP3    H228594   1.777   4.719   3.989
 9544TIP3   OH228595   0.945   0.487   0.476
 9544TIP3    H128596   1.003   0.417   0.444
 9544TIP3    H228597   0.904   0.521   0.397
 9545TIP3   OH228598   3.065   1.800   4.637
 9545TIP3    H128599   3.024   1.791   4.551
 9545TIP3    H228600   3.133   1.867   4.624
 9546TIP3   OH228601   3.795   6.622   2.251
 9546TIP3    H128602   3.740   6.550   2.220
 9546TIP3    H228603   3.815   6.601   2.342
 9547TIP3   OH228604   0.441   1.916   1.203
 9547TIP3    H128605   0.430   1.984   1.270
 9547TIP3    H228606   0.496   1.850   1.245
 9548TIP3   OH228607   4.539   1.092   0.166
 9548TIP3    H128608   4.470   1.157   0.178
 9548TIP3    H228609   4.560   1.063   0.255
 9549TIP3   OH228610   1.067   4.978   0.891
 9549TIP3    H128611   1.028   4.893   0.912
 9549TIP3    H228612   1.124   4.997   0.965
 9550TIP3   OH228613   0.060   5.741   2.513
 9550TIP3    H128614  -0.025   5.723   2.553
 9550TIP3    H228615   0.054   5.704   2.425
 9551TIP3   OH228616   2.768   4.856   0.046
 9551TIP3    H128617   2.721   4.936   0.022
 9551TIP3    H228618   2.700   4.797   0.079
 9552TIP3   OH228619   1.957   1.040   4.113
 9552TIP3    H128620   1.882   1.076   4.065
 9552TIP3    H228621   2.004   1.117   4.144
 9553TIP3   OH228622   6.394   0.381   2.855
 9553TIP3    H128623   6.447   0.438   2.799
 9553TIP3    H228624   6.457   0.340   2.914
 9554TIP3   OH228625   6.215   1.677   0.651
 9554TIP3    H128626   6.206   1.677   0.556
 9554TIP3    H228627   6.127   1.657   0.683
 9555TIP3   OH228628   0.963   5.712   0.548
 9555TIP3    H128629   1.030   5.770   0.511
 9555TIP3    H228630   1.009   5.667   0.619
 9556TIP3   OH228631   4.442   2.711   5.311
 9556TIP3    H128632   4.387   2.732   5.387
 9556TIP3    H228633   4.405   2.763   5.240
 9557TIP3   OH228634   6.858   6.070   2.263
 9557TIP3    H128635   6.775   6.117   2.263
 9557TIP3    H228636   6.916   6.125   2.316
 9558TIP3   OH228637   1.437   3.341   1.509
 9558TIP3    H128638   1.386   3.262   1.527
 9558TIP3    H228639   1.372   3.411   1.501
 9559TIP3   OH228640   3.813   6.145   3.463
 9559TIP3    H128641   3.772   6.217   3.413
 9559TIP3    H228642   3.791   6.066   3.414
 9560TIP3   OH228643   5.509   0.447   1.817
 9560TIP3    H128644   5.584   0.467   1.761
 9560TIP3    H228645   5.439   0.424   1.756
 9561TIP3   OH228646   1.291   5.365   2.313
 9561TIP3    H128647   1.385   5.348   2.307
 9561TIP3    H228648   1.258   5.350   2.224
 9562TIP3   OH228649   3.922   2.809   3.818
 9562TIP3    H128650   3.962   2.730   3.781
 9562TIP3    H228651   3.831   2.805   3.789
 9563TIP3   OH228652   0.463   5.108   2.699
 9563TIP3    H128653   0.518   5.184   2.718
 9563TIP3    H228654   0.459   5.059   2.781
 9564TIP3   OH228655   4.703   5.105   5.076
 9564TIP3    H128656   4.683   5.198   5.067
 9564TIP3    H228657   4.631   5.071   5.130
 9565TIP3   OH228658   0.238   6.428   0.254
 9565TIP3    H128659   0.143   6.433   0.266
 9565TIP3    H228660   0.275   6.457   0.338
 9566TIP3   OH228661   2.871   3.058   5.708
 9566TIP3    H128662   2.869   3.085   5.800
 9566TIP3    H228663   2.792   3.006   5.697
 9567TIP3   OH228664   3.771   6.519   4.724
 9567TIP3    H128665   3.813   6.434   4.710
 9567TIP3    H228666   3.695   6.499   4.778
 9568TIP3   OH228667   3.742   5.185   0.800
 9568TIP3    H128668   3.694   5.106   0.775
 9568TIP3    H228669   3.821   5.184   0.746
 9569TIP3   OH228670   2.994   6.502   3.471
 9569TIP3    H128671   3.018   6.417   3.508
 9569TIP3    H228672   2.903   6.514   3.497
 9570TIP3   OH228673   5.685   2.069   2.236
 9570TIP3    H128674   5.636   2.142   2.275
 9570TIP3    H228675   5.644   1.991   2.272
 9571TIP3   OH228676   6.315   4.463   2.586
 9571TIP3    H128677   6.409   4.469   2.569
 9571TIP3    H228678   6.285   4.390   2.531
 9572TIP3   OH228679   1.733   3.753   0.934
 9572TIP3    H128680   1.821   3.791   0.929
 9572TIP3    H228681   1.746   3.660   0.917
 9573TIP3   OH228682   1.865   2.263   1.867
 9573TIP3    H128683   1.898   2.348   1.897
 9573TIP3    H228684   1.799   2.285   1.801
 9574TIP3   OH228685   5.932   5.093   2.305
 9574TIP3    H128686   5.893   5.104   2.392
 9574TIP3    H228687   5.876   5.028   2.261
 9575TIP3   OH228688   7.081   1.643   3.727
 9575TIP3    H128689   7.025   1.676   3.797
 9575TIP3    H228690   7.096   1.551   3.749
 9576TIP3   OH228691   0.533   1.149   4.003
 9576TIP3    H128692   0.495   1.235   4.021
 9576TIP3    H228693   0.551   1.111   4.089
 9577TIP3   OH228694   3.347   5.391   2.365
 9577TIP3    H128695   3.278   5.413   2.428
 9577TIP3    H228696   3.428   5.421   2.406
 9578TIP3   OH228697   1.179   5.976   1.929
 9578TIP3    H128698   1.186   6.021   2.014
 9578TIP3    H228699   1.237   5.900   1.937
 9579TIP3   OH228700   0.194   5.488   3.690
 9579TIP3    H128701   0.215   5.577   3.719
 9579TIP3    H228702   0.280   5.449   3.670
 9580TIP3   OH228703   1.867   3.574   1.822
 9580TIP3    H128704   1.885   3.642   1.757
 9580TIP3    H228705   1.894   3.493   1.780
 9581TIP3   OH228706   2.144   3.552   4.022
 9581TIP3    H128707   2.186   3.468   4.041
 9581TIP3    H228708   2.188   3.582   3.942
 9582TIP3   OH228709   1.402   6.643   4.617
 9582TIP3    H128710   1.354   6.602   4.546
 9582TIP3    H228711   1.456   6.573   4.653
 9583TIP3   OH228712   4.545   5.707   0.366
 9583TIP3    H128713   4.572   5.625   0.325
 9583TIP3    H228714   4.459   5.689   0.403
 9584TIP3   OH228715   5.529   5.876   4.840
 9584TIP3    H128716   5.528   5.852   4.747
 9584TIP3    H228717   5.608   5.834   4.875
 9585TIP3   OH228718   3.019   2.071   2.499
 9585TIP3    H128719   3.081   2.063   2.571
 9585TIP3    H228720   3.045   2.151   2.453
 9586TIP3   OH228721   5.789   3.091   2.097
 9586TIP3    H128722   5.758   3.121   2.183
 9586TIP3    H228723   5.767   2.998   2.095
 9587TIP3   OH228724   4.850   2.627   0.345
 9587TIP3    H128725   4.757   2.648   0.361
 9587TIP3    H228726   4.895   2.658   0.424
 9588TIP3   OH228727   5.956   5.712   2.342
 9588TIP3    H128728   5.910   5.790   2.375
 9588TIP3    H228729   5.892   5.641   2.352
 9589TIP3   OH228730   3.105   2.083   3.523
 9589TIP3    H128731   3.148   2.043   3.598
 9589TIP3    H228732   3.064   2.163   3.557
 9590TIP3   OH228733   6.587   0.632   4.126
 9590TIP3    H128734   6.517   0.681   4.169
 9590TIP3    H228735   6.610   0.564   4.189
 9591TIP3   OH228736   0.246   5.281   0.325
 9591TIP3    H128737   0.192   5.241   0.394
 9591TIP3    H228738   0.277   5.363   0.364
 9592TIP3   OH228739   3.523   1.884   3.268
 9592TIP3    H128740   3.616   1.869   3.247
 9592TIP3    H228741   3.512   1.846   3.355
 9593TIP3   OH228742   5.834   0.171   3.345
 9593TIP3    H128743   5.899   0.241   3.343
 9593TIP3    H228744   5.803   0.171   3.436
 9594TIP3   OH228745   2.571   1.696   5.268
 9594TIP3    H128746   2.507   1.715   5.200
 9594TIP3    H228747   2.655   1.697   5.224
 9595TIP3   OH228748   3.560   3.719   1.518
 9595TIP3    H128749   3.525   3.748   1.602
 9595TIP3    H228750   3.596   3.797   1.478
 9596TIP3   OH228751   5.367   4.217   1.777
 9596TIP3    H128752   5.463   4.219   1.771
 9596TIP3    H228753   5.338   4.293   1.728
 9597TIP3   OH228754   3.757   5.803   5.563
 9597TIP3    H128755   3.830   5.831   5.508
 9597TIP3    H228756   3.784   5.718   5.599
 9598TIP3   OH228757   1.821   0.746   4.638
 9598TIP3    H128758   1.794   0.701   4.718
 9598TIP3    H228759   1.853   0.831   4.668
 9599TIP3   OH228760   0.396   4.903   3.645
 9599TIP3    H128761   0.336   4.937   3.578
 9599TIP3    H228762   0.383   4.808   3.643
 9600TIP3   OH228763   2.043   5.479   0.628
 9600TIP3    H128764   2.024   5.396   0.672
 9600TIP3    H228765   2.044   5.458   0.535
 9601TIP3   OH228766   4.670   3.149   2.938
 9601TIP3    H128767   4.726   3.074   2.959
 9601TIP3    H228768   4.696   3.217   2.999
 9602TIP3   OH228769   3.208   4.735   2.384
 9602TIP3    H128770   3.261   4.677   2.329
 9602TIP3    H228771   3.120   4.699   2.379
 9603TIP3   OH228772   6.731   4.527   5.750
 9603TIP3    H128773   6.826   4.524   5.738
 9603TIP3    H228774   6.716   4.606   5.802
 9604TIP3   OH228775   5.973   1.663   4.587
 9604TIP3    H128776   5.882   1.644   4.564
 9604TIP3    H228777   6.022   1.647   4.506
 9605TIP3   OH228778   4.242   0.040   3.950
 9605TIP3    H128779   4.275  -0.013   3.878
 9605TIP3    H228780   4.251   0.130   3.920
 9606TIP3   OH228781   0.308   3.099   4.540
 9606TIP3    H128782   0.348   3.013   4.551
 9606TIP3    H228783   0.314   3.140   4.626
 9607TIP3   OH228784   3.970   6.676   0.524
 9607TIP3    H128785   4.047   6.709   0.478
 9607TIP3    H228786   3.928   6.754   0.560
 9608TIP3   OH228787   2.501   4.407   3.773
 9608TIP3    H128788   2.574   4.345   3.766
 9608TIP3    H228789   2.500   4.453   3.689
 9609TIP3   OH228790   7.101   4.024   5.611
 9609TIP3    H128791   7.058   3.994   5.691
 9609TIP3    H228792   7.088   4.119   5.611
 9610TIP3   OH228793   1.213   6.417   1.285
 9610TIP3    H128794   1.145   6.482   1.268
 9610TIP3    H228795   1.166   6.338   1.312
 9611TIP3   OH228796   3.756   3.186   0.520
 9611TIP3    H128797   3.850   3.185   0.536
 9611TIP3    H228798   3.747   3.199   0.426
 9612TIP3   OH228799   3.526   2.747   4.051
 9612TIP3    H128800   3.524   2.668   4.105
 9612TIP3    H228801   3.601   2.797   4.084
 9613TIP3   OH228802   4.446   1.080   1.389
 9613TIP3    H128803   4.429   1.161   1.438
 9613TIP3    H228804   4.374   1.022   1.412
 9614TIP3   OH228805   6.147   5.367   0.691
 9614TIP3    H128806   6.063   5.366   0.646
 9614TIP3    H228807   6.167   5.460   0.702
 9615TIP3   OH228808   7.165   4.984   3.181
 9615TIP3    H128809   7.156   5.069   3.223
 9615TIP3    H228810   7.089   4.934   3.212
 9616TIP3   OH228811   1.627   0.597   0.929
 9616TIP3    H128812   1.587   0.632   0.849
 9616TIP3    H228813   1.574   0.631   1.000
 9617TIP3   OH228814   1.316   5.002   2.150
 9617TIP3    H128815   1.298   4.982   2.242
 9617TIP3    H228816   1.392   5.059   2.152
 9618TIP3   OH228817   5.990   0.780   0.528
 9618TIP3    H128818   5.992   0.790   0.623
 9618TIP3    H228819   6.068   0.728   0.507
 9619TIP3   OH228820   1.134   4.629   2.932
 9619TIP3    H128821   1.160   4.603   2.844
 9619TIP3    H228822   1.112   4.722   2.925
 9620TIP3   OH228823   6.603   6.098   5.776
 9620TIP3    H128824   6.628   6.028   5.715
 9620TIP3    H228825   6.536   6.059   5.831
 9621TIP3   OH228826   5.931   3.996   2.775
 9621TIP3    H128827   5.875   4.057   2.823
 9621TIP3    H228828   6.010   3.989   2.828
 9622TIP3   OH228829   6.572   0.300   3.837
 9622TIP3    H128830   6.490   0.319   3.791
 9622TIP3    H228831   6.558   0.332   3.926
 9623TIP3   OH228832   6.539   3.873   3.228
 9623TIP3    H128833   6.459   3.889   3.278
 9623TIP3    H228834   6.510   3.863   3.137
 9624TIP3   OH228835   6.448   5.282   1.506
 9624TIP3    H128836   6.376   5.246   1.558
 9624TIP3    H228837   6.419   5.272   1.416
 9625TIP3   OH228838   2.182   1.598   5.399
 9625TIP3    H128839   2.232   1.582   5.319
 9625TIP3    H228840   2.101   1.638   5.369
 9626TIP3   OH228841   6.390   3.447   3.932
 9626TIP3    H128842   6.313   3.461   3.876
 9626TIP3    H228843   6.424   3.536   3.948
 9627TIP3   OH228844   0.242   6.298   3.568
 9627TIP3    H128845   0.279   6.366   3.511
 9627TIP3    H228846   0.240   6.220   3.513
 9628TIP3   OH228847   1.241   4.470   4.333
 9628TIP3    H128848   1.224   4.488   4.241
 9628TIP3    H228849   1.241   4.375   4.340
 9629TIP3   OH228850   6.356   0.417   0.275
 9629TIP3    H128851   6.276   0.373   0.247
 9629TIP3    H228852   6.425   0.377   0.222
 9630TIP3   OH228853   4.927   6.221   3.975
 9630TIP3    H128854   4.875   6.154   4.021
 9630TIP3    H228855   4.869   6.252   3.905
 9631TIP3   OH228856   0.644   5.497   0.941
 9631TIP3    H128857   0.582   5.478   0.871
 9631TIP3    H228858   0.644   5.418   0.995
 9632TIP3   OH228859   5.387   0.026   1.430
 9632TIP3    H128860   5.390   0.036   1.335
 9632TIP3    H228861   5.439  -0.052   1.447
 9633TIP3   OH228862   2.467   2.840   0.829
 9633TIP3    H128863   2.441   2.907   0.767
 9633TIP3    H228864   2.555   2.864   0.855
 9634TIP3   OH228865   3.678   1.191   1.362
 9634TIP3    H128866   3.665   1.217   1.454
 9634TIP3    H228867   3.759   1.141   1.362
 9635TIP3   OH228868   3.103   2.837   3.662
 9635TIP3    H128869   3.032   2.790   3.706
 9635TIP3    H228870   3.079   2.929   3.671
 9636TIP3   OH228871   3.850   5.341   1.705
 9636TIP3    H128872   3.920   5.276   1.697
 9636TIP3    H228873   3.783   5.299   1.758
 9637TIP3   OH228874   1.010   3.846   4.454
 9637TIP3    H128875   1.023   3.898   4.533
 9637TIP3    H228876   0.930   3.795   4.471
 9638TIP3   OH228877   2.167   1.517   1.090
 9638TIP3    H128878   2.146   1.446   1.151
 9638TIP3    H228879   2.262   1.524   1.092
 9639TIP3   OH228880   3.088   0.110   1.657
 9639TIP3    H128881   3.039   0.030   1.636
 9639TIP3    H228882   3.035   0.181   1.621
 9640TIP3   OH228883   0.347   2.365   4.836
 9640TIP3    H128884   0.278   2.420   4.872
 9640TIP3    H228885   0.302   2.306   4.775
 9641TIP3   OH228886   7.167   0.243   4.235
 9641TIP3    H128887   7.214   0.241   4.152
 9641TIP3    H228888   7.079   0.211   4.215
 9642TIP3   OH228889   5.389   6.597   5.757
 9642TIP3    H128890   5.455   6.646   5.708
 9642TIP3    H228891   5.438   6.547   5.822
 9643TIP3   OH228892   6.036   3.323   1.138
 9643TIP3    H128893   5.981   3.380   1.085
 9643TIP3    H228894   6.124   3.334   1.102
 9644TIP3   OH228895   3.400   6.700   0.785
 9644TIP3    H128896   3.350   6.620   0.796
 9644TIP3    H228897   3.491   6.671   0.780
 9645TIP3   OH228898   3.175   3.060   0.019
 9645TIP3    H128899   3.261   3.063  -0.022
 9645TIP3    H228900   3.191   3.077   0.112
 9646TIP3   OH228901   3.281   5.958   4.013
 9646TIP3    H128902   3.310   6.036   3.966
 9646TIP3    H228903   3.231   5.908   3.949
 9647TIP3   OH228904   4.422   2.446   4.685
 9647TIP3    H128905   4.418   2.430   4.779
 9647TIP3    H228906   4.451   2.362   4.648
 9648TIP3   OH228907   0.302   3.004   4.901
 9648TIP3    H128908   0.330   3.088   4.865
 9648TIP3    H228909   0.221   2.984   4.854
 9649TIP3   OH228910   6.044   2.312   5.392
 9649TIP3    H128911   6.034   2.263   5.474
 9649TIP3    H228912   6.003   2.397   5.409
 9650TIP3   OH228913   1.905   4.540   2.477
 9650TIP3    H128914   1.899   4.447   2.451
 9650TIP3    H228915   1.934   4.584   2.397
 9651TIP3   OH228916   3.332   4.209   0.934
 9651TIP3    H128917   3.293   4.277   0.988
 9651TIP3    H228918   3.276   4.132   0.949
 9652TIP3   OH228919   3.394   2.563   0.663
 9652TIP3    H128920   3.319   2.567   0.723
 9652TIP3    H228921   3.407   2.469   0.649
 9653TIP3   OH228922   2.139   3.033   1.821
 9653TIP3    H128923   2.084   3.016   1.745
 9653TIP3    H228924   2.144   2.949   1.867
 9654TIP3   OH228925   5.813   6.535   2.129
 9654TIP3    H128926   5.738   6.574   2.084
 9654TIP3    H228927   5.779   6.515   2.217
 9655TIP3   OH228928   3.345   2.673   3.718
 9655TIP3    H128929   3.286   2.749   3.714
 9655TIP3    H228930   3.432   2.711   3.731
 9656TIP3   OH228931   1.460   1.201   2.990
 9656TIP3    H128932   1.493   1.189   3.079
 9656TIP3    H228933   1.366   1.185   2.998
 9657TIP3   OH228934   2.971   5.877   3.461
 9657TIP3    H128935   2.930   5.843   3.541
 9657TIP3    H228936   2.919   5.839   3.390
 9658TIP3   OH228937   0.322   4.447   3.823
 9658TIP3    H128938   0.302   4.517   3.761
 9658TIP3    H228939   0.405   4.473   3.864
 9659TIP3   OH228940   3.454   0.241   3.558
 9659TIP3    H128941   3.477   0.195   3.639
 9659TIP3    H228942   3.532   0.237   3.504
 9660TIP3   OH228943   4.782   3.609   0.231
 9660TIP3    H128944   4.850   3.654   0.183
 9660TIP3    H228945   4.817   3.598   0.319
 9661TIP3   OH228946   6.247   2.232   4.230
 9661TIP3    H128947   6.244   2.309   4.174
 9661TIP3    H228948   6.156   2.213   4.250
 9662TIP3   OH228949   5.215   3.841   5.871
 9662TIP3    H128950   5.121   3.818   5.869
 9662TIP3    H228951   5.219   3.927   5.830
 9663TIP3   OH228952   1.527   4.789   5.496
 9663TIP3    H128953   1.619   4.809   5.476
 9663TIP3    H228954   1.477   4.856   5.448
 9664TIP3   OH228955   5.666   2.181   0.720
 9664TIP3    H128956   5.719   2.101   0.727
 9664TIP3    H228957   5.728   2.248   0.692
 9665TIP3   OH228958   3.496   2.740   1.124
 9665TIP3    H128959   3.536   2.710   1.042
 9665TIP3    H228960   3.466   2.829   1.105
 9666TIP3   OH228961   4.503   4.757   3.411
 9666TIP3    H128962   4.485   4.822   3.478
 9666TIP3    H228963   4.580   4.709   3.444
 9667TIP3   OH228964   5.576   5.530   2.999
 9667TIP3    H128965   5.663   5.572   2.999
 9667TIP3    H228966   5.526   5.579   2.934
 9668TIP3   OH228967   2.125   6.303   2.319
 9668TIP3    H128968   2.030   6.319   2.310
 9668TIP3    H228969   2.158   6.307   2.229
 9669TIP3   OH228970   1.898   6.360   4.989
 9669TIP3    H128971   1.832   6.365   4.921
 9669TIP3    H228972   1.882   6.436   5.044
 9670TIP3   OH228973   3.613   0.313   4.690
 9670TIP3    H128974   3.628   0.406   4.706
 9670TIP3    H228975   3.700   0.275   4.682
 9671TIP3   OH228976   5.118   5.388   4.749
 9671TIP3    H128977   5.045   5.430   4.704
 9671TIP3    H228978   5.163   5.459   4.794
 9672TIP3   OH228979   4.814   3.341   5.662
 9672TIP3    H128980   4.869   3.324   5.738
 9672TIP3    H228981   4.737   3.285   5.675
 9673TIP3   OH228982   3.286   3.965   1.552
 9673TIP3    H128983   3.322   4.033   1.495
 9673TIP3    H228984   3.198   3.996   1.574
 9674TIP3   OH228985   5.039   4.848   0.432
 9674TIP3    H128986   4.953   4.841   0.474
 9674TIP3    H228987   5.020   4.876   0.343
 9675TIP3   OH228988   3.943   0.781   1.114
 9675TIP3    H128989   3.981   0.795   1.028
 9675TIP3    H228990   3.871   0.720   1.099
 9676TIP3   OH228991   1.813   5.203   1.017
 9676TIP3    H128992   1.836   5.193   1.109
 9676TIP3    H228993   1.722   5.175   1.011
 9677TIP3   OH228994   5.440   0.889   0.373
 9677TIP3    H128995   5.502   0.889   0.299
 9677TIP3    H228996   5.436   0.797   0.400
 9678TIP3   OH228997   5.804   2.439   0.862
 9678TIP3    H128998   5.821   2.472   0.950
 9678TIP3    H228999   5.885   2.394   0.837
 9679TIP3   OH229000   3.902   0.689   0.657
 9679TIP3    H129001   3.973   0.738   0.698
 9679TIP3    H229002   3.832   0.754   0.646
 9680TIP3   OH229003   0.410   2.371   4.013
 9680TIP3    H129004   0.334   2.315   4.001
 9680TIP3    H229005   0.468   2.348   3.940
 9681TIP3   OH229006   3.216   2.092   2.704
 9681TIP3    H129007   3.204   2.161   2.769
 9681TIP3    H229008   3.302   2.055   2.725
 9682TIP3   OH229009   4.615   3.405   5.304
 9682TIP3    H129010   4.539   3.442   5.349
 9682TIP3    H229011   4.614   3.313   5.327
 9683TIP3   OH229012   4.992   2.472   5.570
 9683TIP3    H129013   4.913   2.523   5.552
 9683TIP3    H229014   5.034   2.461   5.484
 9684TIP3   OH229015   0.509   3.412   1.310
 9684TIP3    H129016   0.470   3.385   1.227
 9684TIP3    H229017   0.535   3.330   1.352
 9685TIP3   OH229018   0.158   0.740   0.036
 9685TIP3    H129019   0.201   0.806  -0.018
 9685TIP3    H229020   0.084   0.785   0.076
 9686TIP3   OH229021   3.973   1.476   1.355
 9686TIP3    H129022   4.039   1.534   1.317
 9686TIP3    H229023   3.891   1.504   1.316
 9687TIP3   OH229024   5.918   1.179   4.062
 9687TIP3    H129025   5.892   1.088   4.046
 9687TIP3    H229026   5.964   1.176   4.146
 9688TIP3   OH229027   6.460   0.965   1.106
 9688TIP3    H129028   6.545   0.926   1.127
 9688TIP3    H229029   6.411   0.962   1.188
 9689TIP3   OH229030   1.810   3.940   2.096
 9689TIP3    H129031   1.764   3.885   2.033
 9689TIP3    H229032   1.899   3.947   2.062
 9690TIP3   OH229033   1.860   1.851   1.725
 9690TIP3    H129034   1.848   1.762   1.756
 9690TIP3    H229035   1.823   1.851   1.636
 9691TIP3   OH229036   2.080   4.797   0.018
 9691TIP3    H129037   2.147   4.828   0.079
 9691TIP3    H229038   2.033   4.876  -0.009
 9692TIP3   OH229039   3.128   1.413   3.505
 9692TIP3    H129040   3.075   1.484   3.468
 9692TIP3    H229041   3.075   1.380   3.577
 9693TIP3   OH229042   5.096   1.627   4.695
 9693TIP3    H129043   5.039   1.701   4.676
 9693TIP3    H229044   5.038   1.560   4.731
 9694TIP3   OH229045   4.503   3.771   4.297
 9694TIP3    H129046   4.495   3.801   4.387
 9694TIP3    H229047   4.545   3.685   4.303
 9695TIP3   OH229048   4.511   0.150   4.778
 9695TIP3    H129049   4.449   0.223   4.767
 9695TIP3    H229050   4.459   0.081   4.819
 9696TIP3   OH229051   0.262   0.040   4.923
 9696TIP3    H129052   0.309   0.075   4.999
 9696TIP3    H229053   0.310   0.074   4.847
 9697TIP3   OH229054   1.560   5.353   0.920
 9697TIP3    H129055   1.565   5.440   0.880
 9697TIP3    H229056   1.466   5.337   0.930
 9698TIP3   OH229057   1.926   6.124   4.126
 9698TIP3    H129058   1.983   6.155   4.055
 9698TIP3    H229059   1.942   6.030   4.130
 9699TIP3   OH229060   1.858   1.764   1.186
 9699TIP3    H129061   1.857   1.692   1.123
 9699TIP3    H229062   1.835   1.842   1.134
 9700TIP3   OH229063   2.840   4.037   4.156
 9700TIP3    H129064   2.805   3.982   4.086
 9700TIP3    H229065   2.814   4.126   4.132
 9701TIP3   OH229066   6.735   0.945   4.634
 9701TIP3    H129067   6.775   0.864   4.601
 9701TIP3    H229068   6.652   0.918   4.671
 9702TIP3   OH229069   3.612   1.091   4.100
 9702TIP3    H129070   3.602   1.016   4.159
 9702TIP3    H229071   3.704   1.088   4.073
 9703TIP3   OH229072   5.690   6.786   4.667
 9703TIP3    H129073   5.651   6.824   4.588
 9703TIP3    H229074   5.619   6.736   4.707
 9704TIP3   OH229075   1.163   5.687   0.739
 9704TIP3    H129076   1.169   5.710   0.832
 9704TIP3    H229077   1.215   5.754   0.695
 9705TIP3   OH229078   2.494   1.470   2.040
 9705TIP3    H129079   2.571   1.505   1.995
 9705TIP3    H229080   2.526   1.446   2.127
 9706TIP3   OH229081   5.930   1.930   3.408
 9706TIP3    H129082   5.856   1.961   3.356
 9706TIP3    H229083   6.002   1.923   3.346
 9707TIP3   OH229084   5.794   3.412   1.801
 9707TIP3    H129085   5.820   3.496   1.763
 9707TIP3    H229086   5.752   3.365   1.729
 9708TIP3   OH229087   1.408   5.605   2.605
 9708TIP3    H129088   1.412   5.642   2.517
 9708TIP3    H229089   1.350   5.665   2.654
 9709TIP3   OH229090   0.121   5.643   4.194
 9709TIP3    H129091   0.096   5.667   4.105
 9709TIP3    H229092   0.204   5.688   4.208
 9710TIP3   OH229093   6.830   5.951   2.570
 9710TIP3    H129094   6.838   5.991   2.484
 9710TIP3    H229095   6.738   5.965   2.595
 9711TIP3   OH229096   3.087   5.168   4.690
 9711TIP3    H129097   2.997   5.143   4.669
 9711TIP3    H229098   3.110   5.115   4.766
 9712TIP3   OH229099   6.517   1.938   5.075
 9712TIP3    H129100   6.570   1.867   5.111
 9712TIP3    H229101   6.522   1.925   4.980
 9713TIP3   OH229102   5.735   6.288   0.711
 9713TIP3    H129103   5.642   6.270   0.698
 9713TIP3    H229104   5.778   6.204   0.694
 9714TIP3   OH229105   6.664   5.324   4.343
 9714TIP3    H129106   6.709   5.284   4.269
 9714TIP3    H229107   6.637   5.410   4.312
 9715TIP3   OH229108   2.060   5.169   5.098
 9715TIP3    H129109   2.054   5.113   5.176
 9715TIP3    H229110   2.132   5.131   5.048
 9716TIP3   OH229111   0.543   0.924   0.051
 9716TIP3    H129112   0.613   0.988   0.065
 9716TIP3    H229113   0.532   0.882   0.136
 9717TIP3   OH229114   4.811   6.567   3.193
 9717TIP3    H129115   4.898   6.530   3.178
 9717TIP3    H229116   4.773   6.509   3.259
 9718TIP3   OH229117   2.665   4.648   5.779
 9718TIP3    H129118   2.616   4.725   5.808
 9718TIP3    H229119   2.756   4.675   5.780
 9719TIP3   OH229120   2.398   4.908   0.635
 9719TIP3    H129121   2.366   4.818   0.642
 9719TIP3    H229122   2.441   4.912   0.549
 9720TIP3   OH229123   6.232   4.806   5.445
 9720TIP3    H129124   6.259   4.714   5.444
 9720TIP3    H229125   6.239   4.835   5.354
 9721TIP3   OH229126   0.313   6.596   5.095
 9721TIP3    H129127   0.258   6.611   5.018
 9721TIP3    H229128   0.380   6.534   5.066
 9722TIP3   OH229129   3.719   1.796   0.474
 9722TIP3    H129130   3.788   1.860   0.457
 9722TIP3    H229131   3.638   1.846   0.467
 9723TIP3   OH229132   1.838   4.153   5.793
 9723TIP3    H129133   1.899   4.096   5.840
 9723TIP3    H229134   1.751   4.123   5.820
 9724TIP3   OH229135   6.937   2.118   2.793
 9724TIP3    H129136   6.850   2.090   2.766
 9724TIP3    H229137   6.954   2.198   2.742
 9725TIP3   OH229138   4.542   2.418   5.174
 9725TIP3    H129139   4.534   2.497   5.227
 9725TIP3    H229140   4.519   2.446   5.085
 9726TIP3   OH229141   4.787   1.108   2.772
 9726TIP3    H129142   4.698   1.090   2.803
 9726TIP3    H229143   4.779   1.188   2.720
 9727TIP3   OH229144   2.357   4.112   5.140
 9727TIP3    H129145   2.353   4.160   5.057
 9727TIP3    H229146   2.424   4.045   5.125
 9728TIP3   OH229147   4.474   1.796   5.360
 9728TIP3    H129148   4.482   1.868   5.298
 9728TIP3    H229149   4.381   1.771   5.357
 9729TIP3   OH229150   4.553   5.108   5.710
 9729TIP3    H129151   4.475   5.107   5.655
 9729TIP3    H229152   4.623   5.078   5.653
 9730TIP3   OH229153   2.202   2.756   0.680
 9730TIP3    H129154   2.235   2.771   0.592
 9730TIP3    H229155   2.279   2.763   0.736
 9731TIP3   OH229156   2.131   2.760   3.927
 9731TIP3    H129157   2.150   2.831   3.866
 9731TIP3    H229158   2.101   2.804   4.007
 9732TIP3   OH229159   6.671   5.798   3.228
 9732TIP3    H129160   6.736   5.781   3.296
 9732TIP3    H229161   6.712   5.865   3.172
 9733TIP3   OH229162   5.349   6.710   2.587
 9733TIP3    H129163   5.261   6.727   2.621
 9733TIP3    H229164   5.405   6.770   2.636
 9734TIP3   OH229165   0.227   3.233   4.127
 9734TIP3    H129166   0.168   3.241   4.052
 9734TIP3    H229167   0.168   3.222   4.202
 9735TIP3   OH229168   4.424   1.323   5.006
 9735TIP3    H129169   4.480   1.367   5.069
 9735TIP3    H229170   4.341   1.311   5.052
 9736TIP3   OH229171   0.235   6.131   0.079
 9736TIP3    H129172   0.306   6.118   0.017
 9736TIP3    H229173   0.206   6.221   0.063
 9737TIP3   OH229174   1.228   4.809   0.194
 9737TIP3    H129175   1.139   4.782   0.214
 9737TIP3    H229176   1.238   4.895   0.235
 9738TIP3   OH229177   1.090   2.835   5.324
 9738TIP3    H129178   1.083   2.754   5.375
 9738TIP3    H229179   1.154   2.888   5.373
 9739TIP3   OH229180   3.009   5.128   3.948
 9739TIP3    H129181   3.006   5.038   3.980
 9739TIP3    H229182   3.063   5.175   4.012
 9740TIP3   OH229183   3.922   0.715   0.381
 9740TIP3    H129184   3.934   0.736   0.474
 9740TIP3    H229185   3.889   0.796   0.343
 9741TIP3   OH229186   1.618   3.010   3.700
 9741TIP3    H129187   1.528   2.987   3.678
 9741TIP3    H229188   1.629   3.099   3.666
 9742TIP3   OH229189   2.873   2.254   2.209
 9742TIP3    H129190   2.954   2.262   2.258
 9742TIP3    H229191   2.887   2.306   2.130
 9743TIP3   OH229192   2.405   0.950   3.874
 9743TIP3    H129193   2.310   0.963   3.871
 9743TIP3    H229194   2.431   0.986   3.958
 9744TIP3   OH229195   2.657   0.811   3.919
 9744TIP3    H129196   2.639   0.755   3.994
 9744TIP3    H229197   2.576   0.859   3.904
 9745TIP3   OH229198   2.327   6.417   5.521
 9745TIP3    H129199   2.419   6.396   5.536
 9745TIP3    H229200   2.284   6.396   5.604
 9746TIP3   OH229201   4.226   6.337   1.280
 9746TIP3    H129202   4.169   6.262   1.294
 9746TIP3    H229203   4.314   6.304   1.298
 9747TIP3   OH229204   7.146   4.027   4.294
 9747TIP3    H129205   7.194   3.995   4.370
 9747TIP3    H229206   7.073   4.077   4.331
 9748TIP3   OH229207   2.367   1.346   1.836
 9748TIP3    H129208   2.410   1.368   1.919
 9748TIP3    H229209   2.292   1.292   1.861
 9749TIP3   OH229210   4.320   1.817   2.096
 9749TIP3    H129211   4.232   1.788   2.069
 9749TIP3    H229212   4.377   1.790   2.023
   7.21528   6.80264   5.89125   0.00000   0.00000  -2.40510   0.00000  -2.40510  -3.40131
